Title t=  43.00000 step= 21500
44463
    1GLY      N    1   2.589   3.167   3.725
    1GLY    HT1    2   2.581   3.251   3.664
    1GLY    HT2    3   2.674   3.113   3.697
    1GLY    HT3    4   2.611   3.196   3.822
    1GLY     CA    5   2.479   3.078   3.725
    1GLY    HA1    6   2.472   3.037   3.626
    1GLY    HA2    7   2.391   3.134   3.753
    1GLY      C    8   2.490   2.975   3.832
    1GLY      O    9   2.593   2.970   3.901
    2PRO      N   10   2.391   2.891   3.872
    2PRO     CD   11   2.284   2.864   3.784
    2PRO    HD1   12   2.332   2.823   3.692
    2PRO    HD2   13   2.227   2.952   3.748
    2PRO     CA   14   2.397   2.799   3.979
    2PRO     HA   15   2.388   2.868   4.062
    2PRO     CB   16   2.279   2.709   3.967
    2PRO    HB1   17   2.231   2.716   4.067
    2PRO    HB2   18   2.287   2.600   3.952
    2PRO     CG   19   2.197   2.769   3.852
    2PRO    HG1   20   2.171   2.694   3.774
    2PRO    HG2   21   2.101   2.816   3.883
    2PRO      C   22   2.525   2.719   3.998
    2PRO      O   23   2.564   2.637   3.916
    3GLY      N   24   2.584   2.733   4.118
    3GLY     HN   25   2.544   2.793   4.187
    3GLY     CA   26   2.712   2.671   4.162
    3GLY    HA1   27   2.718   2.694   4.267
    3GLY    HA2   28   2.789   2.722   4.106
    3GLY      C   29   2.728   2.519   4.138
    3GLY      O   30   2.639   2.438   4.154
    4ASP      N   31   2.850   2.472   4.105
    4ASP     HN   32   2.923   2.541   4.103
    4ASP     CA   33   2.896   2.339   4.092
    4ASP     HA   34   2.845   2.310   4.001
    4ASP     CB   35   3.050   2.347   4.091
    4ASP    HB1   36   3.104   2.250   4.089
    4ASP    HB2   37   3.084   2.405   4.180
    4ASP     CG   38   3.101   2.429   3.971
    4ASP    OD1   39   3.205   2.499   3.973
    4ASP    OD2   40   3.040   2.423   3.860
    4ASP      C   41   2.855   2.236   4.198
    4ASP      O   42   2.839   2.274   4.314
    5PRO      N   43   2.840   2.105   4.167
    5PRO     CD   44   2.834   2.059   4.024
    5PRO    HD1   45   2.912   2.110   3.963
    5PRO    HD2   46   2.734   2.074   3.979
    5PRO     CA   47   2.815   2.002   4.259
    5PRO     HA   48   2.718   2.021   4.304
    5PRO     CB   49   2.802   1.875   4.171
    5PRO    HB1   50   2.699   1.837   4.155
    5PRO    HB2   51   2.855   1.794   4.226
    5PRO     CG   52   2.861   1.906   4.035
    5PRO    HG1   53   2.971   1.893   4.027
    5PRO    HG2   54   2.809   1.841   3.962
    5PRO      C   55   2.925   2.002   4.362
    5PRO      O   56   3.039   2.025   4.334
    6GLY      N   57   2.887   1.978   4.489
    6GLY     HN   58   2.791   1.960   4.511
    6GLY     CA   59   2.971   1.972   4.600
    6GLY    HA1   60   2.911   1.982   4.689
    6GLY    HA2   61   3.039   2.056   4.591
    6GLY      C   62   3.056   1.853   4.612
    6GLY      O   63   3.066   1.769   4.526
    7PRO      N   64   3.114   1.837   4.729
    7PRO     CD   65   3.122   1.932   4.835
    7PRO    HD1   66   3.027   1.939   4.891
    7PRO    HD2   67   3.155   2.032   4.799
    7PRO     CA   68   3.173   1.709   4.770
    7PRO     HA   69   3.261   1.697   4.709
    7PRO     CB   70   3.196   1.721   4.925
    7PRO    HB1   71   3.276   1.653   4.961
    7PRO    HB2   72   3.096   1.704   4.970
    7PRO     CG   73   3.230   1.870   4.933
    7PRO    HG1   74   3.247   1.900   5.038
    7PRO    HG2   75   3.324   1.891   4.878
    7PRO      C   76   3.100   1.582   4.734
    7PRO      O   77   2.977   1.576   4.723
    8GLY      N   78   3.187   1.482   4.711
    8GLY     HN   79   3.286   1.488   4.721
    8GLY     CA   80   3.152   1.356   4.659
    8GLY    HA1   81   3.079   1.317   4.729
    8GLY    HA2   82   3.239   1.292   4.655
    8GLY      C   83   3.084   1.346   4.526
    8GLY      O   84   3.111   1.425   4.431
    9ASP      N   85   3.008   1.238   4.506
    9ASP     HN   86   2.996   1.175   4.582
    9ASP     CA   87   2.940   1.213   4.375
    9ASP     HA   88   3.002   1.230   4.288
    9ASP     CB   89   2.902   1.066   4.366
    9ASP    HB1   90   2.858   1.042   4.267
    9ASP    HB2   91   2.828   1.029   4.441
    9ASP     CG   92   3.016   0.973   4.384
    9ASP    OD1   93   3.132   1.012   4.360
    9ASP    OD2   94   2.988   0.857   4.400
    9ASP      C   95   2.813   1.295   4.367
    9ASP      O   96   2.764   1.334   4.467
   10PRO      N   97   2.761   1.342   4.244
   10PRO     CD   98   2.810   1.305   4.111
   10PRO    HD1   99   2.778   1.202   4.084
   10PRO    HD2  100   2.920   1.318   4.102
   10PRO     CA  101   2.652   1.439   4.240
   10PRO     HA  102   2.662   1.517   4.314
   10PRO     CB  103   2.655   1.502   4.099
   10PRO    HB1  104   2.715   1.595   4.107
   10PRO    HB2  105   2.557   1.535   4.058
   10PRO     CG  106   2.739   1.401   4.016
   10PRO    HG1  107   2.675   1.337   3.951
   10PRO    HG2  108   2.804   1.449   3.939
   10PRO      C  109   2.510   1.386   4.279
   10PRO      O  110   2.427   1.474   4.291
   11GLY      N  111   2.493   1.255   4.294
   11GLY     HN  112   2.560   1.187   4.264
   11GLY     CA  113   2.373   1.190   4.352
   11GLY    HA1  114   2.400   1.086   4.353
   11GLY    HA2  115   2.288   1.198   4.286
   11GLY      C  116   2.322   1.236   4.486
   11GLY      O  117   2.365   1.339   4.543
   12PRO      N  118   2.217   1.172   4.549
   12PRO     CD  119   2.106   1.110   4.475
   12PRO    HD1  120   2.139   1.016   4.424
   12PRO    HD2  121   2.064   1.183   4.402
   12PRO     CA  122   2.205   1.164   4.694
   12PRO     HA  123   2.167   1.260   4.724
   12PRO     CB  124   2.092   1.062   4.711
   12PRO    HB1  125   2.030   1.074   4.802
   12PRO    HB2  126   2.136   0.960   4.709
   12PRO     CG  127   2.007   1.081   4.583
   12PRO    HG1  128   1.964   0.978   4.580
   12PRO    HG2  129   1.931   1.157   4.610
   12PRO      C  130   2.329   1.140   4.774
   12PRO      O  131   2.407   1.052   4.740
   13GLY      N  132   2.354   1.223   4.876
   13GLY     HN  133   2.293   1.299   4.897
   13GLY     CA  134   2.474   1.209   4.961
   13GLY    HA1  135   2.470   1.278   5.045
   13GLY    HA2  136   2.558   1.241   4.902
   13GLY      C  137   2.497   1.073   5.026
   13GLY      O  138   2.403   1.005   5.063
   14ASP      N  139   2.624   1.036   5.039
   14ASP     HN  140   2.690   1.092   4.989
   14ASP     CA  141   2.669   0.910   5.101
   14ASP     HA  142   2.605   0.835   5.057
   14ASP     CB  143   2.823   0.883   5.076
   14ASP    HB1  144   2.859   0.794   5.131
   14ASP    HB2  145   2.883   0.974   5.100
   14ASP     CG  146   2.839   0.849   4.931
   14ASP    OD1  147   2.956   0.834   4.885
   14ASP    OD2  148   2.739   0.826   4.863
   14ASP      C  149   2.631   0.903   5.251
   14ASP      O  150   2.609   1.004   5.317
   15PRO      N  151   2.608   0.784   5.302
   15PRO     CD  152   2.628   0.656   5.239
   15PRO    HD1  153   2.730   0.633   5.202
   15PRO    HD2  154   2.560   0.659   5.151
   15PRO     CA  155   2.545   0.778   5.433
   15PRO     HA  156   2.462   0.847   5.429
   15PRO     CB  157   2.487   0.633   5.437
   15PRO    HB1  158   2.380   0.626   5.411
   15PRO    HB2  159   2.498   0.590   5.539
   15PRO     CG  160   2.582   0.557   5.347
   15PRO    HG1  161   2.667   0.519   5.407
   15PRO    HG2  162   2.534   0.470   5.297
   15PRO      C  163   2.646   0.801   5.545
   15PRO    OT1  164   2.762   0.839   5.522
   15PRO    OT2  165   2.608   0.791   5.669
   16LIT    LIT  166   2.773   0.889   5.721
   17LIT    LIT  167   1.712   2.494   5.664
   18LIT    LIT  168   2.898   6.727   2.558
   19LIT    LIT  169   6.905   4.880   0.982
   20LIT    LIT  170   1.639   5.614   3.424
   21LIT    LIT  171   7.313   3.017   2.808
   22LIT    LIT  172   0.171   1.520   5.292
   23LIT    LIT  173   1.728   1.055   3.898
   24LIT    LIT  174   1.654   0.608   5.318
   25LIT    LIT  175   1.564   6.800   4.915
   26LIT    LIT  176   6.520   1.442   3.571
   27LIT    LIT  177   2.932   6.952   0.383
   28LIT    LIT  178   5.111   1.303   6.147
   29LIT    LIT  179   2.574   5.254   1.026
   30LIT    LIT  180   7.251   5.894   6.316
   31LIT    LIT  181   5.399   5.402   6.019
   32LIT    LIT  182   4.189   4.226   0.141
   33LIT    LIT  183   7.060   1.383   0.352
   34LIT    LIT  184   7.499   0.104   2.587
   35LIT    LIT  185   0.659   3.459   0.805
   36LIT    LIT  186   3.237   0.925   4.242
   37LIT    LIT  187   0.502   5.068   1.560
   38LIT    LIT  188   3.513   7.462   3.858
   39LIT    LIT  189   8.296   7.762   3.498
   40LIT    LIT  190   6.712   6.425   1.175
   41LIT    LIT  191   2.161   5.907   2.702
   42LIT    LIT  192   0.274   4.044   5.887
   43LIT    LIT  193   6.186   2.566   0.881
   44LIT    LIT  194   7.111   2.124   6.169
   45LIT    LIT  195   6.705   5.289   3.772
   46LIT    LIT  196   6.787   5.083   2.033
   47LIT    LIT  197   2.364   5.094   4.717
   48LIT    LIT  198   7.413   4.523   5.072
   49LIT    LIT  199   2.707   5.777   1.496
   50LIT    LIT  200   0.678   0.089   4.286
   51LIT    LIT  201   2.031   0.256   4.108
   52LIT    LIT  202   7.325   5.532   0.424
   53LIT    LIT  203   0.337   2.367   3.356
   54LIT    LIT  204   1.073   2.425   2.003
   55LIT    LIT  205   1.130   0.750   2.698
   56LIT    LIT  206   5.787   6.405   2.604
   57LIT    LIT  207   5.729   3.915   2.777
   58LIT    LIT  208   2.882   0.684   4.766
   59LIT    LIT  209   2.305   5.325   6.249
   60LIT    LIT  210   3.313   4.798   4.445
   61CLA    CLA  211   8.234   6.451   4.398
   62CLA    CLA  212   1.903   5.325   5.089
   63CLA    CLA  213   2.309   0.979   0.044
   64CLA    CLA  214   4.006   2.932   0.609
   65CLA    CLA  215   5.665   6.345   3.350
   66CLA    CLA  216   0.762   0.416   3.367
   67CLA    CLA  217   2.662   0.470   6.375
   68CLA    CLA  218   2.961   6.595   4.004
   69CLA    CLA  219   1.953   3.094   5.860
   70CLA    CLA  220   4.607   6.290   5.729
   71CLA    CLA  221   0.269   4.996   4.612
   72CLA    CLA  222   2.129   5.136   1.312
   73CLA    CLA  223   1.503   7.621   5.179
   74CLA    CLA  224   2.423   0.192   2.735
   75CLA    CLA  225   7.413   2.488   5.686
   76CLA    CLA  226   1.522   6.689   0.436
   77CLA    CLA  227   4.080   3.898   4.311
   78CLA    CLA  228   5.580   4.586   0.585
   79CLA    CLA  229   0.345   5.718   0.279
   80CLA    CLA  230   7.828   3.771   1.584
   81CLA    CLA  231   4.651   7.643   4.684
   82CLA    CLA  232   0.386   0.458   5.421
   83CLA    CLA  233   1.495   4.732   1.361
   84CLA    CLA  234   0.758   7.817   0.967
   85CLA    CLA  235   0.826   4.043   0.556
   86CLA    CLA  236   7.403   4.867   5.598
   87CLA    CLA  237   3.505   5.986   1.476
   88CLA    CLA  238   6.994   4.929   0.420
   89CLA    CLA  239   7.346   4.670   4.261
   90CLA    CLA  240   6.499   4.088   0.512
   91CLA    CLA  241   2.846   3.010   3.667
   92CLA    CLA  242   2.366   0.491   4.388
   93CLA    CLA  243   3.774   2.584   5.475
   94CLA    CLA  244   4.124   7.334   1.450
   95CLA    CLA  245   2.947   5.830   4.849
   96CLA    CLA  246   1.089   1.219   1.406
   97CLA    CLA  247   7.107   0.560   4.270
   98CLA    CLA  248   0.489   6.335   2.945
   99CLA    CLA  249   7.089   1.196   0.490
  100CLA    CLA  250   0.205   4.033   3.220
  101CLA    CLA  251   7.905   3.329   2.860
  102CLA    CLA  252   8.208   2.500   4.652
  103TIP3   OH2  253   2.304   5.511   2.692
  103TIP3    H1  254   2.349   5.519   2.608
  103TIP3    H2  255   2.347   5.437   2.735
  104TIP3   OH2  256   2.628   1.419   0.267
  104TIP3    H1  257   2.627   1.327   0.241
  104TIP3    H2  258   2.538   1.449   0.251
  105TIP3   OH2  259   6.493   2.598   2.126
  105TIP3    H1  260   6.557   2.560   2.066
  105TIP3    H2  261   6.515   2.692   2.128
  106TIP3   OH2  262   5.143   4.569   1.621
  106TIP3    H1  263   5.088   4.501   1.583
  106TIP3    H2  264   5.081   4.635   1.654
  107TIP3   OH2  265   3.372   4.839   2.490
  107TIP3    H1  266   3.281   4.850   2.518
  107TIP3    H2  267   3.395   4.750   2.517
  108TIP3   OH2  268   0.581   3.117   1.274
  108TIP3    H1  269   0.493   3.094   1.244
  108TIP3    H2  270   0.600   3.201   1.232
  109TIP3   OH2  271   0.996   3.648   1.399
  109TIP3    H1  272   1.083   3.613   1.415
  109TIP3    H2  273   1.001   3.682   1.309
  110TIP3   OH2  274   5.569   5.641   4.424
  110TIP3    H1  275   5.569   5.546   4.435
  110TIP3    H2  276   5.626   5.673   4.495
  111TIP3   OH2  277   4.930   5.020   5.822
  111TIP3    H1  278   4.897   5.088   5.763
  111TIP3    H2  279   4.865   5.016   5.892
  112TIP3   OH2  280   1.546   5.021   3.742
  112TIP3    H1  281   1.604   4.945   3.741
  112TIP3    H2  282   1.567   5.065   3.825
  113TIP3   OH2  283   8.135   1.612   3.934
  113TIP3    H1  284   8.188   1.617   4.013
  113TIP3    H2  285   8.128   1.518   3.916
  114TIP3   OH2  286   0.184   1.823   0.097
  114TIP3    H1  287   0.105   1.864   0.062
  114TIP3    H2  288   0.228   1.787   0.020
  115TIP3   OH2  289   6.410   5.851   2.684
  115TIP3    H1  290   6.364   5.803   2.752
  115TIP3    H2  291   6.370   5.938   2.684
  116TIP3   OH2  292   4.013   4.934   0.822
  116TIP3    H1  293   4.087   4.929   0.761
  116TIP3    H2  294   4.047   4.978   0.899
  117TIP3   OH2  295   4.545   4.812   4.932
  117TIP3    H1  296   4.574   4.785   4.845
  117TIP3    H2  297   4.479   4.880   4.916
  118TIP3   OH2  298   2.032   6.357   0.558
  118TIP3    H1  299   1.977   6.409   0.617
  118TIP3    H2  300   1.970   6.315   0.498
  119TIP3   OH2  301   7.398   3.357   2.606
  119TIP3    H1  302   7.486   3.367   2.643
  119TIP3    H2  303   7.395   3.419   2.532
  120TIP3   OH2  304   4.737   4.950   1.611
  120TIP3    H1  305   4.685   4.892   1.667
  120TIP3    H2  306   4.741   5.033   1.660
  121TIP3   OH2  307   8.244   0.196   0.129
  121TIP3    H1  308   8.265   0.107   0.101
  121TIP3    H2  309   8.149   0.201   0.125
  122TIP3   OH2  310   3.698   4.859   5.395
  122TIP3    H1  311   3.613   4.836   5.431
  122TIP3    H2  312   3.684   4.943   5.351
  123TIP3   OH2  313   5.265   5.696   0.459
  123TIP3    H1  314   5.229   5.618   0.417
  123TIP3    H2  315   5.340   5.720   0.405
  124TIP3   OH2  316   2.124   0.078   4.140
  124TIP3    H1  317   2.187   0.061   4.210
  124TIP3    H2  318   2.105  -0.009   4.103
  125TIP3   OH2  319   1.154   5.078   2.703
  125TIP3    H1  320   1.140   5.077   2.797
  125TIP3    H2  321   1.097   5.149   2.671
  126TIP3   OH2  322   1.111   1.592   0.317
  126TIP3    H1  323   1.046   1.522   0.322
  126TIP3    H2  324   1.138   1.606   0.408
  127TIP3   OH2  325   1.300   3.317   6.454
  127TIP3    H1  326   1.310   3.411   6.437
  127TIP3    H2  327   1.279   3.312   6.547
  128TIP3   OH2  328   6.414   6.959   6.240
  128TIP3    H1  329   6.416   6.931   6.331
  128TIP3    H2  330   6.368   7.043   6.242
  129TIP3   OH2  331   7.885   4.321   2.628
  129TIP3    H1  332   7.875   4.306   2.722
  129TIP3    H2  333   7.933   4.404   2.622
  130TIP3   OH2  334   2.067   0.223   2.369
  130TIP3    H1  335   2.155   0.203   2.401
  130TIP3    H2  336   2.045   0.307   2.408
  131TIP3   OH2  337   3.684   0.811   1.837
  131TIP3    H1  338   3.715   0.803   1.747
  131TIP3    H2  339   3.739   0.750   1.886
  132TIP3   OH2  340   3.243   4.799   6.046
  132TIP3    H1  341   3.316   4.738   6.035
  132TIP3    H2  342   3.166   4.743   6.061
  133TIP3   OH2  343   7.716   7.476   4.539
  133TIP3    H1  344   7.703   7.405   4.602
  133TIP3    H2  345   7.650   7.542   4.563
  134TIP3   OH2  346   4.488   2.502   5.689
  134TIP3    H1  347   4.545   2.497   5.766
  134TIP3    H2  348   4.519   2.578   5.641
  135TIP3   OH2  349   1.187   0.224   5.358
  135TIP3    H1  350   1.141   0.202   5.278
  135TIP3    H2  351   1.223   0.141   5.389
  136TIP3   OH2  352   2.391   4.784   2.106
  136TIP3    H1  353   2.303   4.758   2.133
  136TIP3    H2  354   2.388   4.785   2.011
  137TIP3   OH2  355   0.951   4.266   1.521
  137TIP3    H1  356   1.016   4.195   1.522
  137TIP3    H2  357   0.888   4.240   1.455
  138TIP3   OH2  358   2.645   4.435   6.606
  138TIP3    H1  359   2.682   4.483   6.680
  138TIP3    H2  360   2.695   4.467   6.530
  139TIP3   OH2  361   3.791   2.835   3.392
  139TIP3    H1  362   3.886   2.834   3.403
  139TIP3    H2  363   3.756   2.831   3.481
  140TIP3   OH2  364   2.648   1.057   0.055
  140TIP3    H1  365   2.678   0.966   0.061
  140TIP3    H2  366   2.558   1.050   0.024
  141TIP3   OH2  367   2.906   0.294   2.066
  141TIP3    H1  368   2.899   0.222   2.129
  141TIP3    H2  369   2.956   0.361   2.113
  142TIP3   OH2  370   5.566   5.658   3.882
  142TIP3    H1  371   5.606   5.653   3.968
  142TIP3    H2  372   5.555   5.566   3.855
  143TIP3   OH2  373   6.930   4.277   4.269
  143TIP3    H1  374   6.962   4.365   4.250
  143TIP3    H2  375   6.952   4.226   4.191
  144TIP3   OH2  376   8.138   6.994   3.529
  144TIP3    H1  377   8.187   7.074   3.512
  144TIP3    H2  378   8.047   7.018   3.514
  145TIP3   OH2  379   4.858   4.347   4.965
  145TIP3    H1  380   4.821   4.318   4.882
  145TIP3    H2  381   4.862   4.442   4.958
  146TIP3   OH2  382   5.829   3.453   2.217
  146TIP3    H1  383   5.810   3.537   2.261
  146TIP3    H2  384   5.872   3.400   2.285
  147TIP3   OH2  385   1.079   2.654   3.797
  147TIP3    H1  386   1.019   2.590   3.760
  147TIP3    H2  387   1.092   2.718   3.727
  148TIP3   OH2  388   6.609   0.330   1.691
  148TIP3    H1  389   6.655   0.301   1.770
  148TIP3    H2  390   6.635   0.421   1.680
  149TIP3   OH2  391   0.338   6.354   0.026
  149TIP3    H1  392   0.397   6.343   0.102
  149TIP3    H2  393   0.279   6.280   0.031
  150TIP3   OH2  394   4.176   5.587   0.877
  150TIP3    H1  395   4.137   5.499   0.871
  150TIP3    H2  396   4.230   5.594   0.798
  151TIP3   OH2  397   1.440   4.123   4.853
  151TIP3    H1  398   1.486   4.077   4.923
  151TIP3    H2  399   1.381   4.184   4.898
  152TIP3   OH2  400   1.502   6.994   5.219
  152TIP3    H1  401   1.553   6.967   5.295
  152TIP3    H2  402   1.562   7.045   5.165
  153TIP3   OH2  403   5.007   6.336   4.336
  153TIP3    H1  404   5.061   6.378   4.269
  153TIP3    H2  405   5.019   6.242   4.320
  154TIP3   OH2  406   7.503   0.048   4.360
  154TIP3    H1  407   7.488   0.121   4.421
  154TIP3    H2  408   7.515   0.089   4.275
  155TIP3   OH2  409   6.913   7.755   1.109
  155TIP3    H1  410   6.871   7.756   1.023
  155TIP3    H2  411   6.992   7.808   1.097
  156TIP3   OH2  412   2.945   3.021   4.690
  156TIP3    H1  413   3.003   2.946   4.707
  156TIP3    H2  414   2.994   3.097   4.721
  157TIP3   OH2  415   2.560   0.838   2.008
  157TIP3    H1  416   2.613   0.916   1.988
  157TIP3    H2  417   2.545   0.797   1.924
  158TIP3   OH2  418   4.510   0.810   1.232
  158TIP3    H1  419   4.416   0.830   1.234
  158TIP3    H2  420   4.549   0.873   1.292
  159TIP3   OH2  421   0.587   4.660   5.446
  159TIP3    H1  422   0.557   4.737   5.397
  159TIP3    H2  423   0.670   4.636   5.405
  160TIP3   OH2  424   1.281   3.689   3.914
  160TIP3    H1  425   1.332   3.702   3.994
  160TIP3    H2  426   1.219   3.762   3.913
  161TIP3   OH2  427   2.873   4.131   1.406
  161TIP3    H1  428   2.930   4.160   1.477
  161TIP3    H2  429   2.922   4.061   1.363
  162TIP3   OH2  430   4.461   0.374   4.818
  162TIP3    H1  431   4.463   0.451   4.761
  162TIP3    H2  432   4.528   0.391   4.884
  163TIP3   OH2  433   6.193   2.579   1.991
  163TIP3    H1  434   6.256   2.623   2.048
  163TIP3    H2  435   6.107   2.609   2.022
  164TIP3   OH2  436   4.252   1.558   6.185
  164TIP3    H1  437   4.181   1.563   6.121
  164TIP3    H2  438   4.252   1.467   6.214
  165TIP3   OH2  439   4.687   2.334   5.451
  165TIP3    H1  440   4.625   2.404   5.429
  165TIP3    H2  441   4.763   2.351   5.395
  166TIP3   OH2  442   7.792   5.438   1.682
  166TIP3    H1  443   7.797   5.366   1.619
  166TIP3    H2  444   7.883   5.465   1.696
  167TIP3   OH2  445   6.094   3.673   4.756
  167TIP3    H1  446   6.099   3.677   4.852
  167TIP3    H2  447   6.078   3.581   4.737
  168TIP3   OH2  448   7.279   3.213   2.344
  168TIP3    H1  449   7.327   3.270   2.404
  168TIP3    H2  450   7.218   3.272   2.299
  169TIP3   OH2  451   6.473   4.262   1.172
  169TIP3    H1  452   6.426   4.218   1.243
  169TIP3    H2  453   6.524   4.193   1.130
  170TIP3   OH2  454   0.224   3.810   6.281
  170TIP3    H1  455   0.296   3.873   6.284
  170TIP3    H2  456   0.198   3.797   6.372
  171TIP3   OH2  457   3.421   4.209   5.128
  171TIP3    H1  458   3.363   4.271   5.083
  171TIP3    H2  459   3.491   4.264   5.164
  172TIP3   OH2  460   5.756   3.720   2.380
  172TIP3    H1  461   5.669   3.749   2.352
  172TIP3    H2  462   5.814   3.751   2.310
  173TIP3   OH2  463   4.935   5.742   4.795
  173TIP3    H1  464   5.000   5.715   4.860
  173TIP3    H2  465   4.984   5.750   4.713
  174TIP3   OH2  466   0.255   6.455   3.370
  174TIP3    H1  467   0.263   6.533   3.425
  174TIP3    H2  468   0.344   6.438   3.339
  175TIP3   OH2  469   5.361   0.648   3.828
  175TIP3    H1  470   5.354   0.644   3.733
  175TIP3    H2  471   5.320   0.731   3.852
  176TIP3   OH2  472   4.254   6.505   4.333
  176TIP3    H1  473   4.214   6.533   4.415
  176TIP3    H2  474   4.316   6.575   4.312
  177TIP3   OH2  475   8.110   6.351   3.286
  177TIP3    H1  476   8.103   6.400   3.367
  177TIP3    H2  477   8.204   6.341   3.272
  178TIP3   OH2  478   1.352   0.515   5.989
  178TIP3    H1  479   1.279   0.462   6.021
  178TIP3    H2  480   1.355   0.497   5.895
  179TIP3   OH2  481   4.018   0.615   3.187
  179TIP3    H1  482   4.061   0.592   3.105
  179TIP3    H2  483   4.058   0.556   3.251
  180TIP3   OH2  484   4.205   6.509   5.186
  180TIP3    H1  485   4.214   6.589   5.135
  180TIP3    H2  486   4.281   6.457   5.163
  181TIP3   OH2  487   7.350   5.372   2.203
  181TIP3    H1  488   7.297   5.422   2.264
  181TIP3    H2  489   7.291   5.351   2.130
  182TIP3   OH2  490   5.302   2.901   6.483
  182TIP3    H1  491   5.396   2.918   6.479
  182TIP3    H2  492   5.273   2.906   6.392
  183TIP3   OH2  493   5.757   0.224   0.100
  183TIP3    H1  494   5.839   0.233   0.148
  183TIP3    H2  495   5.698   0.179   0.160
  184TIP3   OH2  496   1.572   0.231   2.804
  184TIP3    H1  497   1.582   0.305   2.745
  184TIP3    H2  498   1.622   0.160   2.763
  185TIP3   OH2  499   3.238   4.425   1.933
  185TIP3    H1  500   3.251   4.435   1.839
  185TIP3    H2  501   3.213   4.512   1.963
  186TIP3   OH2  502   0.813   2.360   4.819
  186TIP3    H1  503   0.881   2.403   4.871
  186TIP3    H2  504   0.731   2.395   4.854
  187TIP3   OH2  505   4.833   6.935   3.330
  187TIP3    H1  506   4.756   6.878   3.334
  187TIP3    H2  507   4.822   6.987   3.251
  188TIP3   OH2  508   0.265   5.584   0.603
  188TIP3    H1  509   0.189   5.571   0.546
  188TIP3    H2  510   0.339   5.591   0.543
  189TIP3   OH2  511   2.206   5.433   3.880
  189TIP3    H1  512   2.188   5.349   3.838
  189TIP3    H2  513   2.277   5.415   3.941
  190TIP3   OH2  514   2.448   7.640   0.280
  190TIP3    H1  515   2.502   7.662   0.204
  190TIP3    H2  516   2.506   7.655   0.355
  191TIP3   OH2  517   2.071   7.283   6.243
  191TIP3    H1  518   2.039   7.206   6.289
  191TIP3    H2  519   2.037   7.274   6.154
  192TIP3   OH2  520   4.302   5.542   5.148
  192TIP3    H1  521   4.373   5.490   5.110
  192TIP3    H2  522   4.336   5.569   5.234
  193TIP3   OH2  523   6.033   7.776   0.771
  193TIP3    H1  524   6.112   7.767   0.718
  193TIP3    H2  525   5.962   7.786   0.707
  194TIP3   OH2  526   6.662   4.435   4.437
  194TIP3    H1  527   6.682   4.472   4.351
  194TIP3    H2  528   6.625   4.508   4.487
  195TIP3   OH2  529   3.217   2.387   6.457
  195TIP3    H1  530   3.216   2.328   6.381
  195TIP3    H2  531   3.139   2.364   6.506
  196TIP3   OH2  532   3.138   3.455   0.808
  196TIP3    H1  533   3.081   3.378   0.805
  196TIP3    H2  534   3.085   3.525   0.771
  197TIP3   OH2  535   7.522   5.753   0.852
  197TIP3    H1  536   7.430   5.727   0.847
  197TIP3    H2  537   7.554   5.709   0.931
  198TIP3   OH2  538   5.703   6.057   1.672
  198TIP3    H1  539   5.681   5.975   1.716
  198TIP3    H2  540   5.647   6.059   1.595
  199TIP3   OH2  541   4.775   4.798   6.774
  199TIP3    H1  542   4.866   4.822   6.790
  199TIP3    H2  543   4.773   4.703   6.778
  200TIP3   OH2  544   4.290   7.039   4.631
  200TIP3    H1  545   4.291   6.944   4.619
  200TIP3    H2  546   4.258   7.052   4.720
  201TIP3   OH2  547   6.778   7.404   5.582
  201TIP3    H1  548   6.817   7.396   5.670
  201TIP3    H2  549   6.686   7.423   5.598
  202TIP3   OH2  550   2.998   1.919   0.166
  202TIP3    H1  551   3.090   1.945   0.160
  202TIP3    H2  552   2.978   1.878   0.082
  203TIP3   OH2  553   0.271   5.538   3.542
  203TIP3    H1  554   0.277   5.454   3.497
  203TIP3    H2  555   0.358   5.553   3.578
  204TIP3   OH2  556   2.910   5.091   5.528
  204TIP3    H1  557   2.944   5.176   5.498
  204TIP3    H2  558   2.849   5.064   5.459
  205TIP3   OH2  559   0.416   5.859   2.420
  205TIP3    H1  560   0.450   5.914   2.491
  205TIP3    H2  561   0.420   5.914   2.342
  206TIP3   OH2  562   3.730   3.619   5.970
  206TIP3    H1  563   3.636   3.620   5.986
  206TIP3    H2  564   3.763   3.547   6.024
  207TIP3   OH2  565   3.540   6.375   6.209
  207TIP3    H1  566   3.630   6.395   6.235
  207TIP3    H2  567   3.520   6.437   6.139
  208TIP3   OH2  568   7.025   2.174   3.452
  208TIP3    H1  569   6.936   2.199   3.473
  208TIP3    H2  570   7.024   2.078   3.447
  209TIP3   OH2  571   2.154   3.018   3.251
  209TIP3    H1  572   2.077   2.967   3.226
  209TIP3    H2  573   2.223   2.987   3.192
  210TIP3   OH2  574   0.644   4.952   5.838
  210TIP3    H1  575   0.554   4.986   5.841
  210TIP3    H2  576   0.637   4.867   5.795
  211TIP3   OH2  577   6.311   3.975   1.007
  211TIP3    H1  578   6.339   4.038   0.941
  211TIP3    H2  579   6.381   3.910   1.009
  212TIP3   OH2  580   2.516   5.998   1.128
  212TIP3    H1  581   2.520   5.981   1.222
  212TIP3    H2  582   2.553   6.085   1.118
  213TIP3   OH2  583   0.545   0.689   2.233
  213TIP3    H1  584   0.456   0.657   2.219
  213TIP3    H2  585   0.588   0.618   2.282
  214TIP3   OH2  586   0.065   2.758   6.322
  214TIP3    H1  587   0.074   2.792   6.233
  214TIP3    H2  588   0.070   2.836   6.378
  215TIP3   OH2  589   1.198   5.350   0.872
  215TIP3    H1  590   1.258   5.396   0.932
  215TIP3    H2  591   1.198   5.404   0.793
  216TIP3   OH2  592   0.601   0.991   3.443
  216TIP3    H1  593   0.578   0.905   3.478
  216TIP3    H2  594   0.695   0.985   3.424
  217TIP3   OH2  595   8.311   5.869   2.257
  217TIP3    H1  596   8.284   5.936   2.319
  217TIP3    H2  597   8.229   5.834   2.222
  218TIP3   OH2  598   1.483   1.715   3.562
  218TIP3    H1  599   1.387   1.722   3.553
  218TIP3    H2  600   1.503   1.761   3.643
  219TIP3   OH2  601   4.219   3.221   2.231
  219TIP3    H1  602   4.221   3.272   2.150
  219TIP3    H2  603   4.178   3.139   2.206
  220TIP3   OH2  604   3.360   4.413   2.956
  220TIP3    H1  605   3.428   4.452   3.011
  220TIP3    H2  606   3.407   4.351   2.900
  221TIP3   OH2  607   7.085   2.904   1.022
  221TIP3    H1  608   7.013   2.867   0.971
  221TIP3    H2  609   7.143   2.943   0.957
  222TIP3   OH2  610   5.548   6.678   6.316
  222TIP3    H1  611   5.496   6.636   6.385
  222TIP3    H2  612   5.609   6.610   6.288
  223TIP3   OH2  613   5.783   6.544   2.990
  223TIP3    H1  614   5.835   6.464   2.979
  223TIP3    H2  615   5.848   6.611   3.011
  224TIP3   OH2  616   3.325   3.958   3.460
  224TIP3    H1  617   3.290   3.973   3.548
  224TIP3    H2  618   3.303   4.037   3.411
  225TIP3   OH2  619   5.495   1.001   3.487
  225TIP3    H1  620   5.576   0.978   3.532
  225TIP3    H2  621   5.452   1.063   3.545
  226TIP3   OH2  622   1.193   5.894   5.691
  226TIP3    H1  623   1.139   5.961   5.732
  226TIP3    H2  624   1.238   5.940   5.619
  227TIP3   OH2  625   2.194   3.818   0.336
  227TIP3    H1  626   2.190   3.728   0.303
  227TIP3    H2  627   2.106   3.853   0.320
  228TIP3   OH2  628   0.000   5.297   2.828
  228TIP3    H1  629   0.047   5.353   2.891
  228TIP3    H2  630   0.032   5.326   2.743
  229TIP3   OH2  631   8.293   1.997   1.624
  229TIP3    H1  632   8.247   2.033   1.548
  229TIP3    H2  633   8.353   2.067   1.651
  230TIP3   OH2  634   8.079   1.414   2.912
  230TIP3    H1  635   8.123   1.380   2.834
  230TIP3    H2  636   7.995   1.446   2.880
  231TIP3   OH2  637   4.496   3.305   5.441
  231TIP3    H1  638   4.550   3.377   5.411
  231TIP3    H2  639   4.406   3.337   5.434
  232TIP3   OH2  640   1.694   5.300   2.847
  232TIP3    H1  641   1.643   5.335   2.921
  232TIP3    H2  642   1.629   5.288   2.778
  233TIP3   OH2  643   5.276   3.002   6.231
  233TIP3    H1  644   5.351   3.061   6.225
  233TIP3    H2  645   5.230   3.015   6.148
  234TIP3   OH2  646   0.225   1.809   4.780
  234TIP3    H1  647   0.142   1.825   4.825
  234TIP3    H2  648   0.202   1.759   4.702
  235TIP3   OH2  649   4.127   0.648   0.952
  235TIP3    H1  650   4.131   0.600   0.869
  235TIP3    H2  651   4.157   0.585   1.017
  236TIP3   OH2  652   6.077   2.543   4.590
  236TIP3    H1  653   6.011   2.613   4.586
  236TIP3    H2  654   6.145   2.578   4.647
  237TIP3   OH2  655   8.222   4.472   5.827
  237TIP3    H1  656   8.193   4.542   5.769
  237TIP3    H2  657   8.317   4.480   5.830
  238TIP3   OH2  658   1.307   2.304   3.784
  238TIP3    H1  659   1.316   2.244   3.858
  238TIP3    H2  660   1.390   2.296   3.737
  239TIP3   OH2  661   4.577   6.325   1.245
  239TIP3    H1  662   4.491   6.368   1.243
  239TIP3    H2  663   4.638   6.394   1.268
  240TIP3   OH2  664   6.125   4.821   5.634
  240TIP3    H1  665   6.110   4.757   5.703
  240TIP3    H2  666   6.220   4.823   5.623
  241TIP3   OH2  667   0.469   6.729   0.493
  241TIP3    H1  668   0.380   6.711   0.462
  241TIP3    H2  669   0.522   6.661   0.453
  242TIP3   OH2  670   5.795   6.120   5.868
  242TIP3    H1  671   5.878   6.072   5.860
  242TIP3    H2  672   5.763   6.127   5.778
  243TIP3   OH2  673   1.991   5.877   1.775
  243TIP3    H1  674   1.897   5.888   1.761
  243TIP3    H2  675   2.013   5.799   1.722
  244TIP3   OH2  676   0.660   1.878   0.643
  244TIP3    H1  677   0.721   1.815   0.605
  244TIP3    H2  678   0.671   1.957   0.591
  245TIP3   OH2  679   2.262   3.113   5.720
  245TIP3    H1  680   2.174   3.124   5.755
  245TIP3    H2  681   2.289   3.026   5.748
  246TIP3   OH2  682   3.183   7.372  -0.008
  246TIP3    H1  683   3.232   7.360   0.073
  246TIP3    H2  684   3.091   7.374   0.018
  247TIP3   OH2  685   8.123   2.029   1.097
  247TIP3    H1  686   8.157   1.953   1.145
  247TIP3    H2  687   8.089   1.992   1.015
  248TIP3   OH2  688   2.987   1.561   2.390
  248TIP3    H1  689   3.070   1.599   2.421
  248TIP3    H2  690   3.008   1.525   2.304
  249TIP3   OH2  691   5.787   5.724   0.417
  249TIP3    H1  692   5.841   5.671   0.358
  249TIP3    H2  693   5.834   5.807   0.425
  250TIP3   OH2  694   4.621   2.876   5.278
  250TIP3    H1  695   4.575   2.819   5.217
  250TIP3    H2  696   4.561   2.950   5.291
  251TIP3   OH2  697   2.670   3.317   6.599
  251TIP3    H1  698   2.587   3.316   6.646
  251TIP3    H2  699   2.736   3.330   6.668
  252TIP3   OH2  700   0.037   3.053   3.095
  252TIP3    H1  701  -0.023   3.093   3.031
  252TIP3    H2  702   0.116   3.035   3.045
  253TIP3   OH2  703   1.586   0.078   1.746
  253TIP3    H1  704   1.625   0.032   1.820
  253TIP3    H2  705   1.615   0.168   1.754
  254TIP3   OH2  706   4.660   7.533   6.646
  254TIP3    H1  707   4.584   7.487   6.610
  254TIP3    H2  708   4.727   7.525   6.579
  255TIP3   OH2  709   5.112   0.995   2.816
  255TIP3    H1  710   5.019   1.015   2.829
  255TIP3    H2  711   5.127   0.915   2.866
  256TIP3   OH2  712   7.373   5.098   2.028
  256TIP3    H1  713   7.441   5.071   2.091
  256TIP3    H2  714   7.418   5.098   1.943
  257TIP3   OH2  715   5.492   7.615   2.871
  257TIP3    H1  716   5.498   7.550   2.940
  257TIP3    H2  717   5.525   7.696   2.911
  258TIP3   OH2  718   3.864   3.304   0.127
  258TIP3    H1  719   3.863   3.387   0.174
  258TIP3    H2  720   3.790   3.310   0.066
  259TIP3   OH2  721   1.415   2.656   0.330
  259TIP3    H1  722   1.362   2.695   0.399
  259TIP3    H2  723   1.493   2.712   0.324
  260TIP3   OH2  724   5.242   1.740   4.980
  260TIP3    H1  725   5.315   1.798   4.958
  260TIP3    H2  726   5.283   1.663   5.018
  261TIP3   OH2  727   5.464   1.454   4.851
  261TIP3    H1  728   5.458   1.449   4.946
  261TIP3    H2  729   5.478   1.547   4.833
  262TIP3   OH2  730   2.366   4.366   3.137
  262TIP3    H1  731   2.311   4.438   3.107
  262TIP3    H2  732   2.380   4.313   3.058
  263TIP3   OH2  733   2.833   2.321   2.354
  263TIP3    H1  734   2.851   2.398   2.408
  263TIP3    H2  735   2.741   2.302   2.371
  264TIP3   OH2  736   6.334   0.884   6.084
  264TIP3    H1  737   6.303   0.917   6.000
  264TIP3    H2  738   6.413   0.934   6.102
  265TIP3   OH2  739   0.784   5.964   6.301
  265TIP3    H1  740   0.800   5.942   6.393
  265TIP3    H2  741   0.841   6.039   6.285
  266TIP3   OH2  742   5.607   4.525   1.826
  266TIP3    H1  743   5.681   4.488   1.874
  266TIP3    H2  744   5.573   4.593   1.884
  267TIP3   OH2  745   1.461   0.435   4.309
  267TIP3    H1  746   1.418   0.350   4.296
  267TIP3    H2  747   1.499   0.429   4.397
  268TIP3   OH2  748   7.121   2.885   5.320
  268TIP3    H1  749   7.173   2.825   5.373
  268TIP3    H2  750   7.123   2.847   5.232
  269TIP3   OH2  751   6.438   5.632   3.103
  269TIP3    H1  752   6.490   5.653   3.181
  269TIP3    H2  753   6.443   5.711   3.049
  270TIP3   OH2  754   7.202   3.573   3.444
  270TIP3    H1  755   7.268   3.551   3.378
  270TIP3    H2  756   7.125   3.599   3.393
  271TIP3   OH2  757   1.810   5.646   2.719
  271TIP3    H1  758   1.789   5.633   2.812
  271TIP3    H2  759   1.762   5.576   2.675
  272TIP3   OH2  760   4.984   0.197   5.437
  272TIP3    H1  761   5.061   0.253   5.451
  272TIP3    H2  762   5.018   0.122   5.387
  273TIP3   OH2  763   1.902   7.707   5.411
  273TIP3    H1  764   1.832   7.705   5.476
  273TIP3    H2  765   1.876   7.776   5.350
  274TIP3   OH2  766   6.563   0.631   4.256
  274TIP3    H1  767   6.499   0.565   4.233
  274TIP3    H2  768   6.615   0.592   4.326
  275TIP3   OH2  769   4.630   5.167   5.832
  275TIP3    H1  770   4.554   5.225   5.833
  275TIP3    H2  771   4.692   5.211   5.774
  276TIP3   OH2  772   4.022   3.465   3.105
  276TIP3    H1  773   3.977   3.396   3.155
  276TIP3    H2  774   3.961   3.538   3.105
  277TIP3   OH2  775   7.802   5.330   1.319
  277TIP3    H1  776   7.885   5.373   1.338
  277TIP3    H2  777   7.792   5.264   1.387
  278TIP3   OH2  778   6.294   6.192   3.550
  278TIP3    H1  779   6.316   6.213   3.641
  278TIP3    H2  780   6.300   6.097   3.544
  279TIP3   OH2  781   2.426   1.783   1.331
  279TIP3    H1  782   2.354   1.782   1.393
  279TIP3    H2  783   2.464   1.695   1.338
  280TIP3   OH2  784   7.131   0.721   1.540
  280TIP3    H1  785   7.194   0.790   1.562
  280TIP3    H2  786   7.102   0.742   1.452
  281TIP3   OH2  787   4.382   1.435   4.917
  281TIP3    H1  788   4.367   1.525   4.891
  281TIP3    H2  789   4.300   1.390   4.897
  282TIP3   OH2  790   0.635   2.133   0.790
  282TIP3    H1  791   0.558   2.169   0.745
  282TIP3    H2  792   0.632   2.039   0.771
  283TIP3   OH2  793   5.448   3.418   1.445
  283TIP3    H1  794   5.485   3.333   1.470
  283TIP3    H2  795   5.524   3.473   1.425
  284TIP3   OH2  796   1.900   0.380   3.181
  284TIP3    H1  797   1.831   0.427   3.135
  284TIP3    H2  798   1.902   0.419   3.268
  285TIP3   OH2  799   4.501   7.154   5.943
  285TIP3    H1  800   4.462   7.164   5.857
  285TIP3    H2  801   4.432   7.179   6.004
  286TIP3   OH2  802   3.854   2.602   4.922
  286TIP3    H1  803   3.887   2.543   4.855
  286TIP3    H2  804   3.884   2.689   4.895
  287TIP3   OH2  805   0.239   0.841   5.009
  287TIP3    H1  806   0.314   0.873   4.959
  287TIP3    H2  807   0.270   0.835   5.099
  288TIP3   OH2  808   5.699   6.065   1.154
  288TIP3    H1  809   5.666   6.112   1.078
  288TIP3    H2  810   5.781   6.026   1.124
  289TIP3   OH2  811   0.232   6.352   4.962
  289TIP3    H1  812   0.270   6.271   4.929
  289TIP3    H2  813   0.173   6.324   5.032
  290TIP3   OH2  814   2.482   1.606   0.868
  290TIP3    H1  815   2.428   1.540   0.910
  290TIP3    H2  816   2.421   1.677   0.848
  291TIP3   OH2  817   7.961   4.732   5.159
  291TIP3    H1  818   7.939   4.823   5.179
  291TIP3    H2  819   7.951   4.727   5.064
  292TIP3   OH2  820   0.475   6.174   0.698
  292TIP3    H1  821   0.564   6.156   0.667
  292TIP3    H2  822   0.419   6.135   0.631
  293TIP3   OH2  823   0.620   1.652   5.344
  293TIP3    H1  824   0.705   1.646   5.387
  293TIP3    H2  825   0.607   1.746   5.330
  294TIP3   OH2  826   1.720   7.510   1.929
  294TIP3    H1  827   1.797   7.477   1.975
  294TIP3    H2  828   1.729   7.606   1.933
  295TIP3   OH2  829   4.156   7.305   5.197
  295TIP3    H1  830   4.237   7.257   5.214
  295TIP3    H2  831   4.186   7.391   5.167
  296TIP3   OH2  832   4.514   2.303   1.706
  296TIP3    H1  833   4.522   2.236   1.638
  296TIP3    H2  834   4.478   2.257   1.781
  297TIP3   OH2  835   7.147   4.923   0.719
  297TIP3    H1  836   7.170   4.832   0.702
  297TIP3    H2  837   7.061   4.934   0.678
  298TIP3   OH2  838  -0.017  -0.016   1.427
  298TIP3    H1  839   0.056  -0.072   1.401
  298TIP3    H2  840  -0.056   0.012   1.344
  299TIP3   OH2  841   7.520   6.979   4.488
  299TIP3    H1  842   7.566   6.900   4.515
  299TIP3    H2  843   7.585   7.030   4.439
  300TIP3   OH2  844   8.189   0.620   6.208
  300TIP3    H1  845   8.216   0.535   6.172
  300TIP3    H2  846   8.154   0.668   6.133
  301TIP3   OH2  847   5.566   4.835   4.373
  301TIP3    H1  848   5.650   4.845   4.328
  301TIP3    H2  849   5.575   4.889   4.451
  302TIP3   OH2  850   3.880   3.678   3.009
  302TIP3    H1  851   3.841   3.614   2.950
  302TIP3    H2  852   3.840   3.762   2.984
  303TIP3   OH2  853   6.194   2.178   2.551
  303TIP3    H1  854   6.165   2.236   2.622
  303TIP3    H2  855   6.289   2.186   2.551
  304TIP3   OH2  856   2.364   3.016   1.365
  304TIP3    H1  857   2.430   3.049   1.426
  304TIP3    H2  858   2.281   3.029   1.410
  305TIP3   OH2  859   2.189   6.572   4.220
  305TIP3    H1  860   2.130   6.604   4.153
  305TIP3    H2  861   2.188   6.477   4.209
  306TIP3   OH2  862   2.389   3.298   3.180
  306TIP3    H1  863   2.465   3.301   3.123
  306TIP3    H2  864   2.359   3.389   3.187
  307TIP3   OH2  865   2.667   5.759   5.909
  307TIP3    H1  866   2.729   5.800   5.968
  307TIP3    H2  867   2.584   5.803   5.927
  308TIP3   OH2  868   4.362   7.256   6.177
  308TIP3    H1  869   4.282   7.204   6.186
  308TIP3    H2  870   4.336   7.345   6.202
  309TIP3   OH2  871   2.876   4.966   1.765
  309TIP3    H1  872   2.947   4.916   1.804
  309TIP3    H2  873   2.797   4.935   1.810
  310TIP3   OH2  874   2.736   0.650   3.794
  310TIP3    H1  875   2.788   0.571   3.780
  310TIP3    H2  876   2.696   0.637   3.880
  311TIP3   OH2  877   5.915   4.326   6.428
  311TIP3    H1  878   5.982   4.389   6.456
  311TIP3    H2  879   5.892   4.354   6.339
  312TIP3   OH2  880   7.111   5.755   2.555
  312TIP3    H1  881   7.171   5.763   2.629
  312TIP3    H2  882   7.031   5.799   2.583
  313TIP3   OH2  883   2.972   0.679   2.554
  313TIP3    H1  884   2.933   0.647   2.473
  313TIP3    H2  885   2.980   0.600   2.609
  314TIP3   OH2  886   3.306   0.963   3.183
  314TIP3    H1  887   3.248   0.916   3.123
  314TIP3    H2  888   3.382   0.986   3.130
  315TIP3   OH2  889   0.843   0.127   5.672
  315TIP3    H1  890   0.909   0.075   5.627
  315TIP3    H2  891   0.868   0.218   5.655
  316TIP3   OH2  892   6.945   4.961   3.834
  316TIP3    H1  893   6.997   4.972   3.914
  316TIP3    H2  894   6.882   4.892   3.856
  317TIP3   OH2  895   3.313   0.206   4.822
  317TIP3    H1  896   3.246   0.191   4.755
  317TIP3    H2  897   3.321   0.122   4.868
  318TIP3   OH2  898   0.644   0.766   0.848
  318TIP3    H1  899   0.689   0.850   0.841
  318TIP3    H2  900   0.690   0.708   0.787
  319TIP3   OH2  901   1.787   4.057   1.605
  319TIP3    H1  902   1.692   4.046   1.611
  319TIP3    H2  903   1.806   4.063   1.512
  320TIP3   OH2  904   3.353   1.347   0.268
  320TIP3    H1  905   3.379   1.305   0.186
  320TIP3    H2  906   3.320   1.433   0.241
  321TIP3   OH2  907   2.012   7.437   2.377
  321TIP3    H1  908   1.958   7.467   2.303
  321TIP3    H2  909   1.996   7.502   2.445
  322TIP3   OH2  910   2.466   6.807   1.214
  322TIP3    H1  911   2.415   6.744   1.164
  322TIP3    H2  912   2.428   6.892   1.191
  323TIP3   OH2  913   3.714   0.395   0.652
  323TIP3    H1  914   3.649   0.422   0.718
  323TIP3    H2  915   3.754   0.476   0.623
  324TIP3   OH2  916   5.221   2.659   1.470
  324TIP3    H1  917   5.138   2.682   1.427
  324TIP3    H2  918   5.259   2.743   1.494
  325TIP3   OH2  919   0.149   1.196   6.362
  325TIP3    H1  920   0.194   1.241   6.434
  325TIP3    H2  921   0.056   1.204   6.383
  326TIP3   OH2  922   1.418   0.141   5.936
  326TIP3    H1  923   1.356   0.072   5.912
  326TIP3    H2  924   1.445   0.178   5.852
  327TIP3   OH2  925   0.353   0.529   0.448
  327TIP3    H1  926   0.385   0.505   0.535
  327TIP3    H2  927   0.369   0.452   0.394
  328TIP3   OH2  928   0.931   0.946   0.650
  328TIP3    H1  929   0.867   0.881   0.621
  328TIP3    H2  930   0.880   1.009   0.702
  329TIP3   OH2  931   2.753   3.721   2.213
  329TIP3    H1  932   2.812   3.647   2.222
  329TIP3    H2  933   2.672   3.693   2.256
  330TIP3   OH2  934   4.175   5.587   5.990
  330TIP3    H1  935   4.100   5.574   5.931
  330TIP3    H2  936   4.244   5.533   5.953
  331TIP3   OH2  937   2.366   4.909   4.758
  331TIP3    H1  938   2.328   4.859   4.685
  331TIP3    H2  939   2.381   4.844   4.826
  332TIP3   OH2  940   2.784   0.072   3.638
  332TIP3    H1  941   2.832   0.047   3.716
  332TIP3    H2  942   2.768   0.166   3.647
  333TIP3   OH2  943   7.727   1.210   2.331
  333TIP3    H1  944   7.681   1.278   2.282
  333TIP3    H2  945   7.690   1.216   2.420
  334TIP3   OH2  946   1.802   5.561   1.832
  334TIP3    H1  947   1.898   5.560   1.829
  334TIP3    H2  948   1.776   5.472   1.808
  335TIP3   OH2  949   8.040   0.718   0.982
  335TIP3    H1  950   8.067   0.805   1.011
  335TIP3    H2  951   7.995   0.732   0.900
  336TIP3   OH2  952   0.265   6.689   2.162
  336TIP3    H1  953   0.253   6.769   2.213
  336TIP3    H2  954   0.218   6.704   2.081
  337TIP3   OH2  955   1.698   7.112   3.698
  337TIP3    H1  956   1.786   7.132   3.666
  337TIP3    H2  957   1.652   7.075   3.622
  338TIP3   OH2  958   7.485   5.738   5.786
  338TIP3    H1  959   7.571   5.779   5.794
  338TIP3    H2  960   7.434   5.801   5.734
  339TIP3   OH2  961   1.223   7.101   0.553
  339TIP3    H1  962   1.287   7.034   0.576
  339TIP3    H2  963   1.212   7.091   0.458
  340TIP3   OH2  964   3.563   0.925   5.867
  340TIP3    H1  965   3.500   0.993   5.889
  340TIP3    H2  966   3.617   0.964   5.798
  341TIP3   OH2  967   3.518   1.932   4.691
  341TIP3    H1  968   3.568   1.851   4.701
  341TIP3    H2  969   3.429   1.902   4.668
  342TIP3   OH2  970   5.755   6.612   1.258
  342TIP3    H1  971   5.708   6.647   1.182
  342TIP3    H2  972   5.798   6.688   1.297
  343TIP3   OH2  973   2.876   0.815   0.987
  343TIP3    H1  974   2.888   0.748   0.920
  343TIP3    H2  975   2.794   0.859   0.963
  344TIP3   OH2  976   1.036   3.880   2.103
  344TIP3    H1  977   1.098   3.953   2.103
  344TIP3    H2  978   1.006   3.873   2.012
  345TIP3   OH2  979   0.942   7.568   6.215
  345TIP3    H1  980   1.008   7.621   6.171
  345TIP3    H2  981   0.940   7.602   6.305
  346TIP3   OH2  982   4.709   4.039   0.077
  346TIP3    H1  983   4.796   4.071   0.100
  346TIP3    H2  984   4.649   4.090   0.132
  347TIP3   OH2  985   0.169   5.281   6.147
  347TIP3    H1  986   0.085   5.324   6.165
  347TIP3    H2  987   0.226   5.352   6.117
  348TIP3   OH2  988   3.992   5.278   4.447
  348TIP3    H1  989   4.086   5.270   4.464
  348TIP3    H2  990   3.973   5.208   4.384
  349TIP3   OH2  991   6.270   2.231   2.816
  349TIP3    H1  992   6.188   2.182   2.812
  349TIP3    H2  993   6.294   2.231   2.908
  350TIP3   OH2  994   7.451   4.339   3.535
  350TIP3    H1  995   7.473   4.320   3.626
  350TIP3    H2  996   7.530   4.315   3.486
  351TIP3   OH2  997   6.669   6.283   2.606
  351TIP3    H1  998   6.631   6.336   2.676
  351TIP3    H2  999   6.683   6.197   2.645
  352TIP3   OH2 1000   4.125   1.305   0.835
  352TIP3    H1 1001   4.105   1.398   0.844
  352TIP3    H2 1002   4.047   1.267   0.796
  353TIP3   OH2 1003   0.540   0.152   6.153
  353TIP3    H1 1004   0.547   0.140   6.058
  353TIP3    H2 1005   0.466   0.097   6.178
  354TIP3   OH2 1006   0.598   3.914   5.570
  354TIP3    H1 1007   0.629   3.989   5.519
  354TIP3    H2 1008   0.645   3.921   5.653
  355TIP3   OH2 1009   1.853   6.819   5.611
  355TIP3    H1 1010   1.774   6.841   5.660
  355TIP3    H2 1011   1.900   6.758   5.668
  356TIP3   OH2 1012   3.611   5.403   6.218
  356TIP3    H1 1013   3.641   5.421   6.129
  356TIP3    H2 1014   3.575   5.314   6.214
  357TIP3   OH2 1015   1.039   5.482   1.526
  357TIP3    H1 1016   0.962   5.535   1.505
  357TIP3    H2 1017   1.075   5.457   1.440
  358TIP3   OH2 1018   6.641   0.259   1.970
  358TIP3    H1 1019   6.700   0.191   2.004
  358TIP3    H2 1020   6.561   0.211   1.947
  359TIP3   OH2 1021   6.844   7.442   3.023
  359TIP3    H1 1022   6.798   7.496   3.086
  359TIP3    H2 1023   6.809   7.354   3.037
  360TIP3   OH2 1024   3.982   7.132   1.878
  360TIP3    H1 1025   4.008   7.066   1.943
  360TIP3    H2 1026   3.893   7.156   1.903
  361TIP3   OH2 1027   3.590   5.114   3.598
  361TIP3    H1 1028   3.661   5.152   3.649
  361TIP3    H2 1029   3.569   5.181   3.533
  362TIP3   OH2 1030   1.441   3.239   3.109
  362TIP3    H1 1031   1.430   3.205   3.020
  362TIP3    H2 1032   1.389   3.320   3.110
  363TIP3   OH2 1033   1.640   1.910   2.690
  363TIP3    H1 1034   1.725   1.880   2.658
  363TIP3    H2 1035   1.641   1.890   2.784
  364TIP3   OH2 1036   5.576   5.688   4.975
  364TIP3    H1 1037   5.649   5.733   4.934
  364TIP3    H2 1038   5.565   5.731   5.060
  365TIP3   OH2 1039   0.428   5.189   3.205
  365TIP3    H1 1040   0.355   5.206   3.146
  365TIP3    H2 1041   0.415   5.250   3.277
  366TIP3   OH2 1042   3.251   7.551   6.459
  366TIP3    H1 1043   3.210   7.495   6.393
  366TIP3    H2 1044   3.329   7.587   6.417
  367TIP3   OH2 1045   5.308   7.263   6.124
  367TIP3    H1 1046   5.272   7.350   6.140
  367TIP3    H2 1047   5.231   7.206   6.115
  368TIP3   OH2 1048   3.384   7.440   6.706
  368TIP3    H1 1049   3.397   7.466   6.614
  368TIP3    H2 1050   3.312   7.494   6.736
  369TIP3   OH2 1051   5.276   3.280   1.669
  369TIP3    H1 1052   5.368   3.307   1.673
  369TIP3    H2 1053   5.259   3.268   1.576
  370TIP3   OH2 1054   0.842   5.834   6.588
  370TIP3    H1 1055   0.868   5.914   6.633
  370TIP3    H2 1056   0.762   5.806   6.632
  371TIP3   OH2 1057   7.585   2.994   0.965
  371TIP3    H1 1058   7.573   3.088   0.981
  371TIP3    H2 1059   7.678   2.986   0.941
  372TIP3   OH2 1060   3.358   0.098   5.697
  372TIP3    H1 1061   3.296   0.149   5.645
  372TIP3    H2 1062   3.308   0.072   5.775
  373TIP3   OH2 1063   0.853   7.369   0.955
  373TIP3    H1 1064   0.776   7.416   0.986
  373TIP3    H2 1065   0.829   7.277   0.959
  374TIP3   OH2 1066   3.336   0.219   1.440
  374TIP3    H1 1067   3.257   0.273   1.442
  374TIP3    H2 1068   3.343   0.189   1.350
  375TIP3   OH2 1069   4.864   1.222   4.424
  375TIP3    H1 1070   4.809   1.195   4.498
  375TIP3    H2 1071   4.846   1.156   4.357
  376TIP3   OH2 1072   0.229   2.847   3.936
  376TIP3    H1 1073   0.137   2.844   3.910
  376TIP3    H2 1074   0.255   2.938   3.923
  377TIP3   OH2 1075   3.307   7.126   1.911
  377TIP3    H1 1076   3.269   7.201   1.957
  377TIP3    H2 1077   3.236   7.094   1.856
  378TIP3   OH2 1078   3.685   1.457   2.105
  378TIP3    H1 1079   3.773   1.473   2.140
  378TIP3    H2 1080   3.638   1.414   2.177
  379TIP3   OH2 1081   6.224   0.955   0.687
  379TIP3    H1 1082   6.318   0.962   0.668
  379TIP3    H2 1083   6.182   0.977   0.604
  380TIP3   OH2 1084   2.089   7.535   4.439
  380TIP3    H1 1085   2.001   7.509   4.412
  380TIP3    H2 1086   2.144   7.459   4.421
  381TIP3   OH2 1087   7.379   3.621   3.648
  381TIP3    H1 1088   7.455   3.562   3.641
  381TIP3    H2 1089   7.323   3.596   3.575
  382TIP3   OH2 1090   5.048   2.827   1.308
  382TIP3    H1 1091   5.071   2.914   1.341
  382TIP3    H2 1092   4.955   2.834   1.285
  383TIP3   OH2 1093   4.109   3.807   4.652
  383TIP3    H1 1094   4.062   3.784   4.572
  383TIP3    H2 1095   4.113   3.726   4.702
  384TIP3   OH2 1096   5.759   6.492   4.278
  384TIP3    H1 1097   5.810   6.415   4.302
  384TIP3    H2 1098   5.776   6.506   4.185
  385TIP3   OH2 1099   0.104   5.103   0.805
  385TIP3    H1 1100   0.133   5.193   0.820
  385TIP3    H2 1101   0.048   5.109   0.728
  386TIP3   OH2 1102   3.427   1.365   0.962
  386TIP3    H1 1103   3.347   1.404   0.997
  386TIP3    H2 1104   3.397   1.307   0.893
  387TIP3   OH2 1105   6.661   0.115   1.520
  387TIP3    H1 1106   6.657   0.036   1.573
  387TIP3    H2 1107   6.653   0.187   1.583
  388TIP3   OH2 1108   6.354   7.363   2.318
  388TIP3    H1 1109   6.371   7.270   2.304
  388TIP3    H2 1110   6.392   7.383   2.403
  389TIP3   OH2 1111   4.017   2.800   4.858
  389TIP3    H1 1112   4.082   2.733   4.838
  389TIP3    H2 1113   4.046   2.837   4.942
  390TIP3   OH2 1114   7.988   4.950   3.561
  390TIP3    H1 1115   7.951   4.926   3.645
  390TIP3    H2 1116   8.068   4.998   3.582
  391TIP3   OH2 1117   6.276   2.147   5.100
  391TIP3    H1 1118   6.244   2.192   5.022
  391TIP3    H2 1119   6.282   2.215   5.167
  392TIP3   OH2 1120   2.738   7.567   6.706
  392TIP3    H1 1121   2.785   7.644   6.738
  392TIP3    H2 1122   2.806   7.504   6.684
  393TIP3   OH2 1123   2.305   1.803   4.134
  393TIP3    H1 1124   2.346   1.884   4.105
  393TIP3    H2 1125   2.322   1.800   4.228
  394TIP3   OH2 1126   1.366   0.353   6.453
  394TIP3    H1 1127   1.402   0.441   6.463
  394TIP3    H2 1128   1.271   0.365   6.454
  395TIP3   OH2 1129   2.611   4.776   2.723
  395TIP3    H1 1130   2.556   4.853   2.735
  395TIP3    H2 1131   2.584   4.739   2.638
  396TIP3   OH2 1132   4.466   7.263   2.528
  396TIP3    H1 1133   4.523   7.204   2.578
  396TIP3    H2 1134   4.482   7.240   2.437
  397TIP3   OH2 1135   2.875   4.783   5.880
  397TIP3    H1 1136   2.911   4.790   5.792
  397TIP3    H2 1137   2.797   4.839   5.878
  398TIP3   OH2 1138   7.690   0.570   0.809
  398TIP3    H1 1139   7.621   0.587   0.744
  398TIP3    H2 1140   7.659   0.614   0.888
  399TIP3   OH2 1141   1.837   6.909   1.727
  399TIP3    H1 1142   1.894   6.976   1.765
  399TIP3    H2 1143   1.898   6.846   1.688
  400TIP3   OH2 1144   4.884   3.507   1.523
  400TIP3    H1 1145   4.899   3.536   1.433
  400TIP3    H2 1146   4.806   3.452   1.517
  401TIP3   OH2 1147   0.208   7.316   5.392
  401TIP3    H1 1148   0.214   7.394   5.447
  401TIP3    H2 1149   0.114   7.301   5.382
  402TIP3   OH2 1150   5.478   4.772   6.599
  402TIP3    H1 1151   5.468   4.761   6.694
  402TIP3    H2 1152   5.390   4.759   6.564
  403TIP3   OH2 1153   1.474   7.474   2.398
  403TIP3    H1 1154   1.524   7.464   2.479
  403TIP3    H2 1155   1.490   7.563   2.370
  404TIP3   OH2 1156   6.775   6.347   4.453
  404TIP3    H1 1157   6.854   6.348   4.399
  404TIP3    H2 1158   6.787   6.272   4.511
  405TIP3   OH2 1159   7.920   5.306   4.498
  405TIP3    H1 1160   8.002   5.269   4.465
  405TIP3    H2 1161   7.856   5.235   4.487
  406TIP3   OH2 1162   1.400   3.993   4.252
  406TIP3    H1 1163   1.494   3.976   4.247
  406TIP3    H2 1164   1.361   3.910   4.280
  407TIP3   OH2 1165   2.883   5.885   3.876
  407TIP3    H1 1166   2.887   5.791   3.854
  407TIP3    H2 1167   2.948   5.925   3.818
  408TIP3   OH2 1168   2.217   2.031   1.643
  408TIP3    H1 1169   2.267   2.113   1.635
  408TIP3    H2 1170   2.160   2.045   1.718
  409TIP3   OH2 1171   0.945   3.526   0.636
  409TIP3    H1 1172   0.889   3.600   0.656
  409TIP3    H2 1173   0.964   3.486   0.721
  410TIP3   OH2 1174   3.789   6.334   3.287
  410TIP3    H1 1175   3.790   6.240   3.266
  410TIP3    H2 1176   3.879   6.354   3.313
  411TIP3   OH2 1177   1.455   3.019   3.255
  411TIP3    H1 1178   1.545   3.028   3.286
  411TIP3    H2 1179   1.444   3.092   3.194
  412TIP3   OH2 1180   2.064   3.614   1.002
  412TIP3    H1 1181   2.061   3.552   1.075
  412TIP3    H2 1182   2.037   3.562   0.926
  413TIP3   OH2 1183   3.491   2.295   1.590
  413TIP3    H1 1184   3.507   2.369   1.648
  413TIP3    H2 1185   3.457   2.334   1.509
  414TIP3   OH2 1186   0.477   0.266   6.793
  414TIP3    H1 1187   0.476   0.313   6.709
  414TIP3    H2 1188   0.457   0.175   6.769
  415TIP3   OH2 1189   0.457   3.835   4.946
  415TIP3    H1 1190   0.506   3.915   4.964
  415TIP3    H2 1191   0.366   3.863   4.942
  416TIP3   OH2 1192   5.060   1.773   6.220
  416TIP3    H1 1193   4.999   1.841   6.191
  416TIP3    H2 1194   5.050   1.771   6.315
  417TIP3   OH2 1195   6.110   5.316   4.170
  417TIP3    H1 1196   6.067   5.287   4.090
  417TIP3    H2 1197   6.048   5.377   4.210
  418TIP3   OH2 1198   5.716   4.852   4.646
  418TIP3    H1 1199   5.777   4.925   4.658
  418TIP3    H2 1200   5.771   4.780   4.616
  419TIP3   OH2 1201   6.419   5.911   3.015
  419TIP3    H1 1202   6.339   5.950   2.980
  419TIP3    H2 1203   6.409   5.918   3.110
  420TIP3   OH2 1204   5.507   3.166   1.515
  420TIP3    H1 1205   5.599   3.138   1.523
  420TIP3    H2 1206   5.458   3.084   1.503
  421TIP3   OH2 1207   2.104   1.196   0.137
  421TIP3    H1 1208   2.174   1.142   0.101
  421TIP3    H2 1209   2.037   1.198   0.068
  422TIP3   OH2 1210   5.287   3.340   0.099
  422TIP3    H1 1211   5.381   3.336   0.118
  422TIP3    H2 1212   5.247   3.358   0.184
  423TIP3   OH2 1213   0.915   0.831   6.587
  423TIP3    H1 1214   0.873   0.823   6.501
  423TIP3    H2 1215   0.983   0.764   6.587
  424TIP3   OH2 1216   1.985   0.047   5.982
  424TIP3    H1 1217   1.946   0.089   6.059
  424TIP3    H2 1218   1.968   0.108   5.910
  425TIP3   OH2 1219   7.258   3.311   6.724
  425TIP3    H1 1220   7.300   3.363   6.655
  425TIP3    H2 1221   7.207   3.374   6.774
  426TIP3   OH2 1222   6.524   3.849   1.826
  426TIP3    H1 1223   6.438   3.886   1.843
  426TIP3    H2 1224   6.524   3.764   1.871
  427TIP3   OH2 1225   2.679   5.948   4.528
  427TIP3    H1 1226   2.592   5.976   4.499
  427TIP3    H2 1227   2.715   6.024   4.573
  428TIP3   OH2 1228   5.032   4.919   0.056
  428TIP3    H1 1229   5.032   4.958  -0.031
  428TIP3    H2 1230   5.124   4.896   0.072
  429TIP3   OH2 1231   6.456   6.760   2.118
  429TIP3    H1 1232   6.440   6.854   2.122
  429TIP3    H2 1233   6.459   6.733   2.210
  430TIP3   OH2 1234   1.699   3.371   3.451
  430TIP3    H1 1235   1.722   3.386   3.543
  430TIP3    H2 1236   1.642   3.445   3.428
  431TIP3   OH2 1237   1.181   4.953   0.087
  431TIP3    H1 1238   1.096   4.919   0.115
  431TIP3    H2 1239   1.171   5.048   0.089
  432TIP3   OH2 1240   6.856   5.752   5.584
  432TIP3    H1 1241   6.803   5.680   5.617
  432TIP3    H2 1242   6.845   5.822   5.648
  433TIP3   OH2 1243   5.489   2.763   4.616
  433TIP3    H1 1244   5.558   2.698   4.629
  433TIP3    H2 1245   5.409   2.719   4.644
  434TIP3   OH2 1246   7.647   6.089   2.908
  434TIP3    H1 1247   7.661   6.144   2.985
  434TIP3    H2 1248   7.699   6.131   2.839
  435TIP3   OH2 1249   1.887   5.012   5.096
  435TIP3    H1 1250   1.894   5.103   5.067
  435TIP3    H2 1251   1.800   4.984   5.067
  436TIP3   OH2 1252   0.897   7.227   5.153
  436TIP3    H1 1253   0.841   7.156   5.186
  436TIP3    H2 1254   0.838   7.302   5.144
  437TIP3   OH2 1255   0.747   6.581   4.618
  437TIP3    H1 1256   0.693   6.599   4.541
  437TIP3    H2 1257   0.747   6.663   4.667
  438TIP3   OH2 1258   3.470   4.843   3.610
  438TIP3    H1 1259   3.506   4.932   3.614
  438TIP3    H2 1260   3.379   4.853   3.637
  439TIP3   OH2 1261   4.127   6.963   6.044
  439TIP3    H1 1262   4.150   7.011   5.965
  439TIP3    H2 1263   4.074   7.025   6.095
  440TIP3   OH2 1264   0.692   6.955   3.928
  440TIP3    H1 1265   0.709   7.008   4.006
  440TIP3    H2 1266   0.705   7.015   3.854
  441TIP3   OH2 1267   4.150   2.700   5.298
  441TIP3    H1 1268   4.191   2.710   5.384
  441TIP3    H2 1269   4.132   2.607   5.291
  442TIP3   OH2 1270   3.432   1.160   0.048
  442TIP3    H1 1271   3.339   1.141   0.036
  442TIP3    H2 1272   3.453   1.221  -0.023
  443TIP3   OH2 1273   8.119   3.291   4.479
  443TIP3    H1 1274   8.116   3.203   4.515
  443TIP3    H2 1275   8.151   3.346   4.551
  444TIP3   OH2 1276   8.120   1.652   2.620
  444TIP3    H1 1277   8.037   1.617   2.589
  444TIP3    H2 1278   8.107   1.747   2.621
  445TIP3   OH2 1279   2.631   5.721   1.332
  445TIP3    H1 1280   2.553   5.707   1.279
  445TIP3    H2 1281   2.702   5.726   1.268
  446TIP3   OH2 1282   5.440   0.673   6.490
  446TIP3    H1 1283   5.516   0.620   6.466
  446TIP3    H2 1284   5.380   0.666   6.416
  447TIP3   OH2 1285   4.097   6.012   1.381
  447TIP3    H1 1286   4.026   6.076   1.381
  447TIP3    H2 1287   4.155   6.040   1.453
  448TIP3   OH2 1288   1.934   3.029   2.084
  448TIP3    H1 1289   1.997   3.100   2.075
  448TIP3    H2 1290   1.927   3.016   2.179
  449TIP3   OH2 1291   7.170   0.264   3.116
  449TIP3    H1 1292   7.130   0.319   3.183
  449TIP3    H2 1293   7.229   0.324   3.069
  450TIP3   OH2 1294   5.708   5.871   6.625
  450TIP3    H1 1295   5.623   5.872   6.670
  450TIP3    H2 1296   5.724   5.779   6.606
  451TIP3   OH2 1297   0.316   4.297   3.166
  451TIP3    H1 1298   0.297   4.205   3.152
  451TIP3    H2 1299   0.233   4.335   3.193
  452TIP3   OH2 1300   7.917   4.286   0.664
  452TIP3    H1 1301   7.879   4.374   0.670
  452TIP3    H2 1302   8.005   4.301   0.629
  453TIP3   OH2 1303   0.549   4.369   0.290
  453TIP3    H1 1304   0.483   4.430   0.256
  453TIP3    H2 1305   0.505   4.284   0.287
  454TIP3   OH2 1306   4.318   6.930   0.283
  454TIP3    H1 1307   4.258   6.875   0.232
  454TIP3    H2 1308   4.350   6.872   0.353
  455TIP3   OH2 1309   2.508   7.376   4.956
  455TIP3    H1 1310   2.568   7.443   4.989
  455TIP3    H2 1311   2.547   7.293   4.985
  456TIP3   OH2 1312   1.159   2.087   0.910
  456TIP3    H1 1313   1.138   2.031   0.984
  456TIP3    H2 1314   1.195   2.028   0.844
  457TIP3   OH2 1315   4.363   7.563   3.437
  457TIP3    H1 1316   4.289   7.502   3.434
  457TIP3    H2 1317   4.421   7.534   3.367
  458TIP3   OH2 1318   3.017   4.335   5.931
  458TIP3    H1 1319   2.986   4.254   5.892
  458TIP3    H2 1320   3.111   4.336   5.913
  459TIP3   OH2 1321   6.607   4.098   1.924
  459TIP3    H1 1322   6.663   4.095   2.001
  459TIP3    H2 1323   6.637   4.026   1.869
  460TIP3   OH2 1324   5.501   6.419   0.435
  460TIP3    H1 1325   5.479   6.385   0.348
  460TIP3    H2 1326   5.564   6.356   0.470
  461TIP3   OH2 1327   6.413   7.010   0.940
  461TIP3    H1 1328   6.425   7.093   0.893
  461TIP3    H2 1329   6.351   6.962   0.885
  462TIP3   OH2 1330   7.674   3.570   0.557
  462TIP3    H1 1331   7.754   3.612   0.587
  462TIP3    H2 1332   7.702   3.514   0.485
  463TIP3   OH2 1333   2.052   3.264   2.082
  463TIP3    H1 1334   2.106   3.337   2.112
  463TIP3    H2 1335   1.962   3.294   2.096
  464TIP3   OH2 1336   1.310   3.714   4.855
  464TIP3    H1 1337   1.215   3.714   4.867
  464TIP3    H2 1338   1.328   3.790   4.800
  465TIP3   OH2 1339   1.190   2.244   6.392
  465TIP3    H1 1340   1.164   2.177   6.456
  465TIP3    H2 1341   1.218   2.318   6.445
  466TIP3   OH2 1342   8.087   1.225   0.323
  466TIP3    H1 1343   8.109   1.307   0.279
  466TIP3    H2 1344   8.107   1.240   0.415
  467TIP3   OH2 1345   0.733   2.776   2.544
  467TIP3    H1 1346   0.640   2.795   2.559
  467TIP3    H2 1347   0.765   2.746   2.628
  468TIP3   OH2 1348   1.469   3.562   3.451
  468TIP3    H1 1349   1.379   3.529   3.463
  468TIP3    H2 1350   1.494   3.593   3.538
  469TIP3   OH2 1351   2.077   6.873   2.257
  469TIP3    H1 1352   2.139   6.873   2.184
  469TIP3    H2 1353   2.049   6.965   2.265
  470TIP3   OH2 1354   7.974   2.363   6.059
  470TIP3    H1 1355   7.997   2.331   6.146
  470TIP3    H2 1356   8.016   2.449   6.053
  471TIP3   OH2 1357   6.169   1.767   0.453
  471TIP3    H1 1358   6.139   1.834   0.514
  471TIP3    H2 1359   6.238   1.720   0.501
  472TIP3   OH2 1360   5.018   0.901   4.671
  472TIP3    H1 1361   4.982   0.870   4.588
  472TIP3    H2 1362   4.942   0.931   4.721
  473TIP3   OH2 1363   6.483   1.958   5.408
  473TIP3    H1 1364   6.470   2.049   5.380
  473TIP3    H2 1365   6.395   1.920   5.411
  474TIP3   OH2 1366   4.908   2.443   4.083
  474TIP3    H1 1367   4.988   2.426   4.034
  474TIP3    H2 1368   4.849   2.372   4.059
  475TIP3   OH2 1369   6.869   1.579   5.895
  475TIP3    H1 1370   6.805   1.626   5.949
  475TIP3    H2 1371   6.953   1.620   5.916
  476TIP3   OH2 1372   1.671   2.654   1.948
  476TIP3    H1 1373   1.759   2.623   1.972
  476TIP3    H2 1374   1.658   2.620   1.859
  477TIP3   OH2 1375   5.736   3.924   5.155
  477TIP3    H1 1376   5.773   3.992   5.210
  477TIP3    H2 1377   5.688   3.971   5.087
  478TIP3   OH2 1378   1.695   5.787   2.468
  478TIP3    H1 1379   1.720   5.720   2.532
  478TIP3    H2 1380   1.777   5.829   2.444
  479TIP3   OH2 1381   7.816   6.471   4.220
  479TIP3    H1 1382   7.796   6.389   4.174
  479TIP3    H2 1383   7.897   6.502   4.180
  480TIP3   OH2 1384   5.288   5.264   4.548
  480TIP3    H1 1385   5.279   5.174   4.517
  480TIP3    H2 1386   5.199   5.292   4.567
  481TIP3   OH2 1387   7.041   3.392   4.213
  481TIP3    H1 1388   7.068   3.445   4.288
  481TIP3    H2 1389   7.116   3.335   4.196
  482TIP3   OH2 1390   4.633   7.481   2.510
  482TIP3    H1 1391   4.565   7.413   2.507
  482TIP3    H2 1392   4.585   7.564   2.509
  483TIP3   OH2 1393   6.246   7.498   4.173
  483TIP3    H1 1394   6.278   7.479   4.085
  483TIP3    H2 1395   6.161   7.455   4.177
  484TIP3   OH2 1396   3.453   5.946   3.145
  484TIP3    H1 1397   3.477   5.866   3.098
  484TIP3    H2 1398   3.501   6.015   3.101
  485TIP3   OH2 1399   1.901   5.813   5.598
  485TIP3    H1 1400   1.820   5.853   5.630
  485TIP3    H2 1401   1.958   5.886   5.577
  486TIP3   OH2 1402   1.431   2.452   0.578
  486TIP3    H1 1403   1.521   2.421   0.572
  486TIP3    H2 1404   1.404   2.467   0.487
  487TIP3   OH2 1405   4.684   1.828   1.675
  487TIP3    H1 1406   4.718   1.840   1.764
  487TIP3    H2 1407   4.703   1.911   1.631
  488TIP3   OH2 1408   7.013   2.742   3.107
  488TIP3    H1 1409   6.932   2.700   3.079
  488TIP3    H2 1410   6.987   2.793   3.184
  489TIP3   OH2 1411   0.044   6.735   4.157
  489TIP3    H1 1412   0.066   6.743   4.250
  489TIP3    H2 1413  -0.049   6.756   4.152
  490TIP3   OH2 1414   7.777   7.105   2.968
  490TIP3    H1 1415   7.792   7.196   2.994
  490TIP3    H2 1416   7.686   7.104   2.938
  491TIP3   OH2 1417   1.396   1.484   6.440
  491TIP3    H1 1418   1.468   1.458   6.497
  491TIP3    H2 1419   1.386   1.578   6.454
  492TIP3   OH2 1420   7.632   1.269   4.033
  492TIP3    H1 1421   7.577   1.209   4.084
  492TIP3    H2 1422   7.569   1.323   3.984
  493TIP3   OH2 1423   1.707   3.171   1.888
  493TIP3    H1 1424   1.634   3.117   1.857
  493TIP3    H2 1425   1.782   3.112   1.889
  494TIP3   OH2 1426   5.183   3.992   2.670
  494TIP3    H1 1427   5.098   4.034   2.658
  494TIP3    H2 1428   5.247   4.060   2.649
  495TIP3   OH2 1429   3.000   5.981   3.308
  495TIP3    H1 1430   2.994   6.059   3.363
  495TIP3    H2 1431   2.971   5.909   3.365
  496TIP3   OH2 1432   0.240   3.996   0.856
  496TIP3    H1 1433   0.185   4.023   0.929
  496TIP3    H2 1434   0.300   4.069   0.843
  497TIP3   OH2 1435   1.211   3.884   2.744
  497TIP3    H1 1436   1.284   3.895   2.683
  497TIP3    H2 1437   1.164   3.967   2.739
  498TIP3   OH2 1438   2.355   6.689   0.085
  498TIP3    H1 1439   2.370   6.749   0.158
  498TIP3    H2 1440   2.285   6.731   0.034
  499TIP3   OH2 1441   3.417   3.800   6.531
  499TIP3    H1 1442   3.467   3.775   6.609
  499TIP3    H2 1443   3.326   3.799   6.560
  500TIP3   OH2 1444   3.667   4.443   2.694
  500TIP3    H1 1445   3.738   4.395   2.650
  500TIP3    H2 1446   3.693   4.446   2.786
  501TIP3   OH2 1447   4.227   4.037   5.215
  501TIP3    H1 1448   4.201   4.107   5.156
  501TIP3    H2 1449   4.248   4.082   5.297
  502TIP3   OH2 1450   6.356   4.764   3.734
  502TIP3    H1 1451   6.272   4.719   3.739
  502TIP3    H2 1452   6.390   4.741   3.648
  503TIP3   OH2 1453   8.120   1.195   4.177
  503TIP3    H1 1454   8.044   1.156   4.219
  503TIP3    H2 1455   8.085   1.237   4.098
  504TIP3   OH2 1456   3.455   6.591   3.706
  504TIP3    H1 1457   3.489   6.679   3.688
  504TIP3    H2 1458   3.362   6.606   3.726
  505TIP3   OH2 1459   2.725   0.998   3.481
  505TIP3    H1 1460   2.786   1.070   3.500
  505TIP3    H2 1461   2.781   0.921   3.475
  506TIP3   OH2 1462   4.175   1.103   5.389
  506TIP3    H1 1463   4.086   1.069   5.403
  506TIP3    H2 1464   4.216   1.039   5.332
  507TIP3   OH2 1465   2.931   5.338   2.697
  507TIP3    H1 1466   2.972   5.254   2.679
  507TIP3    H2 1467   2.996   5.403   2.670
  508TIP3   OH2 1468   7.001   3.322   3.509
  508TIP3    H1 1469   7.059   3.257   3.548
  508TIP3    H2 1470   7.049   3.355   3.433
  509TIP3   OH2 1471   4.229   3.880   0.527
  509TIP3    H1 1472   4.307   3.884   0.582
  509TIP3    H2 1473   4.157   3.865   0.589
  510TIP3   OH2 1474   1.527   3.941   2.866
  510TIP3    H1 1475   1.508   3.900   2.781
  510TIP3    H2 1476   1.607   3.898   2.896
  511TIP3   OH2 1477   6.021   6.307   3.977
  511TIP3    H1 1478   5.973   6.229   4.003
  511TIP3    H2 1479   6.044   6.292   3.885
  512TIP3   OH2 1480   4.191   7.707   1.209
  512TIP3    H1 1481   4.240   7.705   1.126
  512TIP3    H2 1482   4.246   7.759   1.267
  513TIP3   OH2 1483   0.524   2.402   3.306
  513TIP3    H1 1484   0.587   2.338   3.338
  513TIP3    H2 1485   0.577   2.477   3.280
  514TIP3   OH2 1486   6.278   4.730   0.574
  514TIP3    H1 1487   6.269   4.680   0.493
  514TIP3    H2 1488   6.368   4.713   0.603
  515TIP3   OH2 1489   4.396   7.695   2.556
  515TIP3    H1 1490   4.338   7.687   2.632
  515TIP3    H2 1491   4.339   7.678   2.481
  516TIP3   OH2 1492   4.901   5.051   4.527
  516TIP3    H1 1493   4.927   5.037   4.436
  516TIP3    H2 1494   4.978   5.093   4.567
  517TIP3   OH2 1495   5.291   3.933   0.037
  517TIP3    H1 1496   5.312   3.887   0.118
  517TIP3    H2 1497   5.344   4.012   0.040
  518TIP3   OH2 1498   2.680   1.184   0.551
  518TIP3    H1 1499   2.607   1.245   0.546
  518TIP3    H2 1500   2.707   1.187   0.643
  519TIP3   OH2 1501   7.016   5.938   0.316
  519TIP3    H1 1502   7.030   5.916   0.408
  519TIP3    H2 1503   6.975   6.024   0.318
  520TIP3   OH2 1504   7.641   0.919   4.462
  520TIP3    H1 1505   7.561   0.874   4.434
  520TIP3    H2 1506   7.710   0.882   4.408
  521TIP3   OH2 1507   2.357   5.920   1.852
  521TIP3    H1 1508   2.391   5.868   1.925
  521TIP3    H2 1509   2.348   5.858   1.780
  522TIP3   OH2 1510   0.997   4.673   3.372
  522TIP3    H1 1511   0.910   4.656   3.334
  522TIP3    H2 1512   1.018   4.592   3.419
  523TIP3   OH2 1513   4.898   7.452   4.306
  523TIP3    H1 1514   4.952   7.519   4.348
  523TIP3    H2 1515   4.812   7.463   4.345
  524TIP3   OH2 1516   1.514   0.308   0.245
  524TIP3    H1 1517   1.451   0.370   0.281
  524TIP3    H2 1518   1.505   0.317   0.150
  525TIP3   OH2 1519   0.889   0.737   3.353
  525TIP3    H1 1520   0.840   0.701   3.427
  525TIP3    H2 1521   0.822   0.776   3.297
  526TIP3   OH2 1522   2.217   2.897   1.619
  526TIP3    H1 1523   2.185   2.820   1.666
  526TIP3    H2 1524   2.247   2.956   1.688
  527TIP3   OH2 1525   3.741   3.386   1.812
  527TIP3    H1 1526   3.683   3.374   1.887
  527TIP3    H2 1527   3.726   3.477   1.784
  528TIP3   OH2 1528   2.152   3.891   4.326
  528TIP3    H1 1529   2.242   3.921   4.336
  528TIP3    H2 1530   2.122   3.929   4.243
  529TIP3   OH2 1531   0.594   3.715   2.421
  529TIP3    H1 1532   0.620   3.769   2.346
  529TIP3    H2 1533   0.562   3.779   2.485
  530TIP3   OH2 1534   7.853   2.380   4.605
  530TIP3    H1 1535   7.883   2.439   4.535
  530TIP3    H2 1536   7.763   2.359   4.581
  531TIP3   OH2 1537   2.849   6.763   3.386
  531TIP3    H1 1538   2.832   6.766   3.292
  531TIP3    H2 1539   2.928   6.816   3.397
  532TIP3   OH2 1540   1.634   7.180   4.712
  532TIP3    H1 1541   1.704   7.220   4.661
  532TIP3    H2 1542   1.599   7.251   4.765
  533TIP3   OH2 1543   6.064   6.600   2.735
  533TIP3    H1 1544   5.997   6.616   2.668
  533TIP3    H2 1545   6.037   6.653   2.810
  534TIP3   OH2 1546   7.488   1.547   1.252
  534TIP3    H1 1547   7.494   1.500   1.169
  534TIP3    H2 1548   7.579   1.568   1.275
  535TIP3   OH2 1549   5.351   4.605   3.293
  535TIP3    H1 1550   5.274   4.658   3.312
  535TIP3    H2 1551   5.409   4.620   3.369
  536TIP3   OH2 1552   0.283   2.485   1.513
  536TIP3    H1 1553   0.334   2.452   1.439
  536TIP3    H2 1554   0.250   2.570   1.484
  537TIP3   OH2 1555   6.668   7.104   0.401
  537TIP3    H1 1556   6.761   7.121   0.416
  537TIP3    H2 1557   6.666   7.038   0.332
  538TIP3   OH2 1558   0.760   1.851   6.653
  538TIP3    H1 1559   0.743   1.941   6.681
  538TIP3    H2 1560   0.820   1.860   6.578
  539TIP3   OH2 1561   4.890   6.168   3.700
  539TIP3    H1 1562   4.894   6.198   3.610
  539TIP3    H2 1563   4.946   6.229   3.748
  540TIP3   OH2 1564  -0.049   4.569   5.500
  540TIP3    H1 1565  -0.067   4.619   5.579
  540TIP3    H2 1566   0.019   4.506   5.526
  541TIP3   OH2 1567   7.957   3.140   0.902
  541TIP3    H1 1568   7.989   3.227   0.926
  541TIP3    H2 1569   7.973   3.086   0.979
  542TIP3   OH2 1570   6.976   3.823  -0.052
  542TIP3    H1 1571   6.889   3.845  -0.020
  542TIP3    H2 1572   6.981   3.727  -0.044
  543TIP3   OH2 1573   3.166   7.277   3.539
  543TIP3    H1 1574   3.223   7.348   3.566
  543TIP3    H2 1575   3.202   7.199   3.581
  544TIP3   OH2 1576   6.162   6.520   0.420
  544TIP3    H1 1577   6.100   6.568   0.364
  544TIP3    H2 1578   6.112   6.446   0.453
  545TIP3   OH2 1579   8.224   4.094   6.588
  545TIP3    H1 1580   8.203   4.145   6.510
  545TIP3    H2 1581   8.144   4.097   6.641
  546TIP3   OH2 1582   1.910   0.126   3.059
  546TIP3    H1 1583   1.887   0.154   2.970
  546TIP3    H2 1584   1.911   0.206   3.110
  547TIP3   OH2 1585   1.503   5.650   2.679
  547TIP3    H1 1586   1.445   5.597   2.624
  547TIP3    H2 1587   1.583   5.599   2.685
  548TIP3   OH2 1588   0.390   6.481   6.105
  548TIP3    H1 1589   0.392   6.412   6.172
  548TIP3    H2 1590   0.472   6.528   6.117
  549TIP3   OH2 1591   3.991   2.767   2.394
  549TIP3    H1 1592   4.007   2.830   2.465
  549TIP3    H2 1593   3.961   2.688   2.439
  550TIP3   OH2 1594   3.871   6.937   6.563
  550TIP3    H1 1595   3.951   6.988   6.576
  550TIP3    H2 1596   3.888   6.854   6.608
  551TIP3   OH2 1597   5.730   6.442   3.635
  551TIP3    H1 1598   5.681   6.423   3.555
  551TIP3    H2 1599   5.666   6.483   3.693
  552TIP3   OH2 1600   0.796   0.559   2.013
  552TIP3    H1 1601   0.720   0.613   1.990
  552TIP3    H2 1602   0.840   0.609   2.083
  553TIP3   OH2 1603   3.260   2.435   0.118
  553TIP3    H1 1604   3.213   2.515   0.140
  553TIP3    H2 1605   3.221   2.406   0.035
  554TIP3   OH2 1606   7.288   0.438   6.748
  554TIP3    H1 1607   7.231   0.473   6.817
  554TIP3    H2 1608   7.267   0.345   6.745
  555TIP3   OH2 1609   3.446   3.234   1.262
  555TIP3    H1 1610   3.465   3.306   1.202
  555TIP3    H2 1611   3.373   3.266   1.316
  556TIP3   OH2 1612   3.929   0.407   5.215
  556TIP3    H1 1613   3.835   0.421   5.220
  556TIP3    H2 1614   3.946   0.331   5.271
  557TIP3   OH2 1615   1.248   7.551   1.061
  557TIP3    H1 1616   1.343   7.538   1.064
  557TIP3    H2 1617   1.236   7.642   1.036
  558TIP3   OH2 1618   0.377   4.316   5.730
  558TIP3    H1 1619   0.457   4.310   5.678
  558TIP3    H2 1620   0.389   4.394   5.784
  559TIP3   OH2 1621   5.946   6.833   0.365
  559TIP3    H1 1622   6.024   6.885   0.384
  559TIP3    H2 1623   5.972   6.776   0.292
  560TIP3   OH2 1624   6.232   0.168   2.890
  560TIP3    H1 1625   6.210   0.108   2.819
  560TIP3    H2 1626   6.305   0.221   2.856
  561TIP3   OH2 1627   5.137   6.114   2.791
  561TIP3    H1 1628   5.162   6.167   2.715
  561TIP3    H2 1629   5.216   6.108   2.844
  562TIP3   OH2 1630   4.905   4.013   3.745
  562TIP3    H1 1631   4.967   4.085   3.753
  562TIP3    H2 1632   4.958   3.934   3.756
  563TIP3   OH2 1633   5.687   7.236   2.426
  563TIP3    H1 1634   5.743   7.304   2.388
  563TIP3    H2 1635   5.697   7.246   2.521
  564TIP3   OH2 1636   6.042   1.370   1.066
  564TIP3    H1 1637   5.972   1.308   1.086
  564TIP3    H2 1638   6.117   1.314   1.042
  565TIP3   OH2 1639   4.739   7.610   3.922
  565TIP3    H1 1640   4.762   7.651   4.005
  565TIP3    H2 1641   4.677   7.671   3.881
  566TIP3   OH2 1642   3.143   3.970   0.882
  566TIP3    H1 1643   3.164   3.977   0.975
  566TIP3    H2 1644   3.194   3.896   0.851
  567TIP3   OH2 1645   6.687   5.743   2.681
  567TIP3    H1 1646   6.602   5.788   2.677
  567TIP3    H2 1647   6.664   5.650   2.684
  568TIP3   OH2 1648   4.177   3.573   5.793
  568TIP3    H1 1649   4.130   3.513   5.735
  568TIP3    H2 1650   4.109   3.628   5.831
  569TIP3   OH2 1651   3.503   1.540   1.518
  569TIP3    H1 1652   3.557   1.595   1.573
  569TIP3    H2 1653   3.483   1.464   1.572
  570TIP3   OH2 1654   1.640   2.365   2.121
  570TIP3    H1 1655   1.618   2.342   2.211
  570TIP3    H2 1656   1.584   2.309   2.067
  571TIP3   OH2 1657   5.606   7.573   6.453
  571TIP3    H1 1658   5.672   7.633   6.488
  571TIP3    H2 1659   5.547   7.629   6.403
  572TIP3   OH2 1660   7.582   2.232   4.833
  572TIP3    H1 1661   7.568   2.248   4.740
  572TIP3    H2 1662   7.539   2.306   4.877
  573TIP3   OH2 1663   8.044   4.074   0.832
  573TIP3    H1 1664   7.991   4.134   0.780
  573TIP3    H2 1665   8.130   4.075   0.789
  574TIP3   OH2 1666   0.283   2.708   3.206
  574TIP3    H1 1667   0.344   2.642   3.238
  574TIP3    H2 1668   0.248   2.749   3.285
  575TIP3   OH2 1669   5.352   4.384   1.916
  575TIP3    H1 1670   5.358   4.368   1.822
  575TIP3    H2 1671   5.318   4.303   1.953
  576TIP3   OH2 1672   0.356   5.672   1.390
  576TIP3    H1 1673   0.396   5.721   1.318
  576TIP3    H2 1674   0.274   5.640   1.354
  577TIP3   OH2 1675   3.489   6.611   4.606
  577TIP3    H1 1676   3.466   6.535   4.661
  577TIP3    H2 1677   3.578   6.634   4.634
  578TIP3   OH2 1678   4.987   2.809   2.586
  578TIP3    H1 1679   4.932   2.886   2.577
  578TIP3    H2 1680   5.011   2.786   2.496
  579TIP3   OH2 1681   7.304   5.138   0.429
  579TIP3    H1 1682   7.263   5.224   0.441
  579TIP3    H2 1683   7.241   5.089   0.377
  580TIP3   OH2 1684   2.475   2.008   3.318
  580TIP3    H1 1685   2.567   2.024   3.339
  580TIP3    H2 1686   2.477   1.972   3.229
  581TIP3   OH2 1687   1.142   6.367   4.242
  581TIP3    H1 1688   1.186   6.436   4.193
  581TIP3    H2 1689   1.074   6.334   4.182
  582TIP3   OH2 1690   2.205   4.734   6.797
  582TIP3    H1 1691   2.145   4.675   6.751
  582TIP3    H2 1692   2.280   4.742   6.737
  583TIP3   OH2 1693   5.622   5.640   0.587
  583TIP3    H1 1694   5.597   5.576   0.520
  583TIP3    H2 1695   5.691   5.692   0.545
  584TIP3   OH2 1696   5.806   0.050   1.539
  584TIP3    H1 1697   5.842  -0.005   1.608
  584TIP3    H2 1698   5.866   0.038   1.465
  585TIP3   OH2 1699   2.011   1.570   5.403
  585TIP3    H1 1700   2.044   1.626   5.473
  585TIP3    H2 1701   2.021   1.481   5.438
  586TIP3   OH2 1702   6.490   6.317   5.969
  586TIP3    H1 1703   6.567   6.315   5.914
  586TIP3    H2 1704   6.517   6.274   6.051
  587TIP3   OH2 1705   2.680   3.327   6.115
  587TIP3    H1 1706   2.752   3.317   6.053
  587TIP3    H2 1707   2.604   3.290   6.070
  588TIP3   OH2 1708   4.352   0.342   3.540
  588TIP3    H1 1709   4.405   0.379   3.469
  588TIP3    H2 1710   4.329   0.417   3.595
  589TIP3   OH2 1711   5.628   7.342   0.300
  589TIP3    H1 1712   5.722   7.356   0.296
  589TIP3    H2 1713   5.616   7.272   0.365
  590TIP3   OH2 1714   6.150   2.976   3.216
  590TIP3    H1 1715   6.092   2.969   3.141
  590TIP3    H2 1716   6.095   2.954   3.292
  591TIP3   OH2 1717   4.995   7.430   0.258
  591TIP3    H1 1718   4.966   7.521   0.265
  591TIP3    H2 1719   4.947   7.396   0.182
  592TIP3   OH2 1720   4.129   7.657   5.686
  592TIP3    H1 1721   4.077   7.716   5.632
  592TIP3    H2 1722   4.163   7.592   5.624
  593TIP3   OH2 1723   3.347   6.766   5.737
  593TIP3    H1 1724   3.387   6.765   5.824
  593TIP3    H2 1725   3.264   6.811   5.749
  594TIP3   OH2 1726   3.630   6.621   2.480
  594TIP3    H1 1727   3.649   6.580   2.396
  594TIP3    H2 1728   3.541   6.592   2.502
  595TIP3   OH2 1729   6.077   3.565   0.671
  595TIP3    H1 1730   6.001   3.611   0.707
  595TIP3    H2 1731   6.152   3.614   0.704
  596TIP3   OH2 1732   1.651   2.648   4.319
  596TIP3    H1 1733   1.581   2.634   4.255
  596TIP3    H2 1734   1.723   2.685   4.268
  597TIP3   OH2 1735   4.654   5.223   5.267
  597TIP3    H1 1736   4.677   5.285   5.198
  597TIP3    H2 1737   4.601   5.275   5.328
  598TIP3   OH2 1738   0.567   3.787   5.198
  598TIP3    H1 1739   0.531   3.826   5.118
  598TIP3    H2 1740   0.635   3.728   5.167
  599TIP3   OH2 1741   7.903   5.969   5.142
  599TIP3    H1 1742   7.973   6.033   5.131
  599TIP3    H2 1743   7.945   5.884   5.124
  600TIP3   OH2 1744   7.024   0.477   5.040
  600TIP3    H1 1745   7.019   0.417   5.114
  600TIP3    H2 1746   7.106   0.525   5.053
  601TIP3   OH2 1747   3.249   4.715   6.365
  601TIP3    H1 1748   3.157   4.721   6.339
  601TIP3    H2 1749   3.291   4.664   6.295
  602TIP3   OH2 1750   5.150   2.941   3.007
  602TIP3    H1 1751   5.240   2.969   2.986
  602TIP3    H2 1752   5.104   2.947   2.923
  603TIP3   OH2 1753   2.536   2.527   5.093
  603TIP3    H1 1754   2.569   2.616   5.080
  603TIP3    H2 1755   2.547   2.484   5.007
  604TIP3   OH2 1756   4.618  -0.002   4.579
  604TIP3    H1 1757   4.709   0.025   4.567
  604TIP3    H2 1758   4.611  -0.022   4.672
  605TIP3   OH2 1759   0.688   1.003   0.348
  605TIP3    H1 1760   0.746   1.054   0.291
  605TIP3    H2 1761   0.651   0.936   0.291
  606TIP3   OH2 1762   4.956   5.429   0.240
  606TIP3    H1 1763   4.863   5.441   0.262
  606TIP3    H2 1764   4.969   5.334   0.244
  607TIP3   OH2 1765   5.418   0.657   1.605
  607TIP3    H1 1766   5.452   0.716   1.538
  607TIP3    H2 1767   5.488   0.654   1.671
  608TIP3   OH2 1768   1.867   6.916   6.590
  608TIP3    H1 1769   1.922   6.993   6.605
  608TIP3    H2 1770   1.877   6.897   6.497
  609TIP3   OH2 1771   3.221   7.014   3.651
  609TIP3    H1 1772   3.221   6.921   3.674
  609TIP3    H2 1773   3.299   7.026   3.597
  610TIP3   OH2 1774   4.530   7.651   2.905
  610TIP3    H1 1775   4.587   7.716   2.946
  610TIP3    H2 1776   4.587   7.605   2.843
  611TIP3   OH2 1777   6.634   2.292   1.286
  611TIP3    H1 1778   6.586   2.212   1.310
  611TIP3    H2 1779   6.688   2.312   1.362
  612TIP3   OH2 1780   6.462   3.026   0.175
  612TIP3    H1 1781   6.507   3.080   0.239
  612TIP3    H2 1782   6.406   3.087   0.127
  613TIP3   OH2 1783   6.917   6.753   5.769
  613TIP3    H1 1784   6.833   6.707   5.768
  613TIP3    H2 1785   6.895   6.842   5.796
  614TIP3   OH2 1786   0.706   3.110   2.304
  614TIP3    H1 1787   0.754   3.060   2.370
  614TIP3    H2 1788   0.756   3.191   2.294
  615TIP3   OH2 1789   4.694   4.938   6.141
  615TIP3    H1 1790   4.639   4.930   6.219
  615TIP3    H2 1791   4.671   5.024   6.104
  616TIP3   OH2 1792   7.946   0.066   1.422
  616TIP3    H1 1793   8.034   0.045   1.393
  616TIP3    H2 1794   7.948   0.161   1.438
  617TIP3   OH2 1795   1.120   7.033   1.075
  617TIP3    H1 1796   1.198   7.018   1.022
  617TIP3    H2 1797   1.101   7.126   1.064
  618TIP3   OH2 1798   7.699   1.050   1.728
  618TIP3    H1 1799   7.687   0.977   1.789
  618TIP3    H2 1800   7.611   1.081   1.709
  619TIP3   OH2 1801   7.245   2.763   0.812
  619TIP3    H1 1802   7.315   2.785   0.873
  619TIP3    H2 1803   7.261   2.817   0.735
  620TIP3   OH2 1804   4.146   5.340   4.188
  620TIP3    H1 1805   4.160   5.304   4.276
  620TIP3    H2 1806   4.194   5.423   4.188
  621TIP3   OH2 1807   4.235   6.196   3.356
  621TIP3    H1 1808   4.244   6.184   3.261
  621TIP3    H2 1809   4.232   6.291   3.367
  622TIP3   OH2 1810   1.185   7.406   1.705
  622TIP3    H1 1811   1.255   7.341   1.700
  622TIP3    H2 1812   1.217   7.480   1.654
  623TIP3   OH2 1813   5.353   6.729   5.518
  623TIP3    H1 1814   5.299   6.662   5.476
  623TIP3    H2 1815   5.407   6.764   5.448
  624TIP3   OH2 1816   2.756   1.708   1.497
  624TIP3    H1 1817   2.714   1.706   1.583
  624TIP3    H2 1818   2.741   1.621   1.461
  625TIP3   OH2 1819   4.254   6.679   3.354
  625TIP3    H1 1820   4.272   6.708   3.265
  625TIP3    H2 1821   4.287   6.749   3.410
  626TIP3   OH2 1822   2.519   2.009   4.531
  626TIP3    H1 1823   2.570   2.080   4.571
  626TIP3    H2 1824   2.428   2.034   4.548
  627TIP3   OH2 1825   7.447   0.128   4.684
  627TIP3    H1 1826   7.427   0.035   4.677
  627TIP3    H2 1827   7.398   0.158   4.760
  628TIP3   OH2 1828   7.635   6.485   6.133
  628TIP3    H1 1829   7.574   6.462   6.203
  628TIP3    H2 1830   7.586   6.547   6.078
  629TIP3   OH2 1831   1.399   6.928   2.868
  629TIP3    H1 1832   1.406   6.923   2.773
  629TIP3    H2 1833   1.419   7.020   2.889
  630TIP3   OH2 1834   3.898   1.994   3.589
  630TIP3    H1 1835   3.993   1.992   3.586
  630TIP3    H2 1836   3.874   1.917   3.639
  631TIP3   OH2 1837   1.960   0.146   5.109
  631TIP3    H1 1838   1.867   0.133   5.096
  631TIP3    H2 1839   1.978   0.234   5.074
  632TIP3   OH2 1840   2.363   1.836   4.419
  632TIP3    H1 1841   2.448   1.879   4.427
  632TIP3    H2 1842   2.307   1.882   4.481
  633TIP3   OH2 1843   6.248   1.061   6.780
  633TIP3    H1 1844   6.274   1.049   6.688
  633TIP3    H2 1845   6.245   1.156   6.791
  634TIP3   OH2 1846   0.184   4.142   4.752
  634TIP3    H1 1847   0.216   4.181   4.670
  634TIP3    H2 1848   0.125   4.208   4.789
  635TIP3   OH2 1849   0.526   0.497   1.563
  635TIP3    H1 1850   0.568   0.417   1.532
  635TIP3    H2 1851   0.566   0.566   1.510
  636TIP3   OH2 1852   1.796   4.826   1.243
  636TIP3    H1 1853   1.710   4.858   1.271
  636TIP3    H2 1854   1.826   4.891   1.180
  637TIP3   OH2 1855   1.125   4.855   1.703
  637TIP3    H1 1856   1.137   4.871   1.796
  637TIP3    H2 1857   1.103   4.940   1.666
  638TIP3   OH2 1858   4.715   6.638   4.876
  638TIP3    H1 1859   4.708   6.583   4.954
  638TIP3    H2 1860   4.668   6.590   4.808
  639TIP3   OH2 1861   4.612   2.587   1.741
  639TIP3    H1 1862   4.583   2.501   1.709
  639TIP3    H2 1863   4.552   2.607   1.812
  640TIP3   OH2 1864   6.243   7.576   2.972
  640TIP3    H1 1865   6.219   7.531   3.053
  640TIP3    H2 1866   6.160   7.610   2.938
  641TIP3   OH2 1867   5.798   0.488   3.214
  641TIP3    H1 1868   5.780   0.578   3.241
  641TIP3    H2 1869   5.892   0.477   3.228
  642TIP3   OH2 1870   1.374   4.713   5.799
  642TIP3    H1 1871   1.293   4.693   5.752
  642TIP3    H2 1872   1.364   4.672   5.884
  643TIP3   OH2 1873   1.241   3.541   4.537
  643TIP3    H1 1874   1.185   3.464   4.549
  643TIP3    H2 1875   1.191   3.613   4.575
  644TIP3   OH2 1876   2.949   6.428   4.433
  644TIP3    H1 1877   2.980   6.447   4.522
  644TIP3    H2 1878   3.025   6.443   4.377
  645TIP3   OH2 1879   1.765   1.473   4.571
  645TIP3    H1 1880   1.846   1.489   4.620
  645TIP3    H2 1881   1.794   1.423   4.494
  646TIP3   OH2 1882   0.689   2.272   1.232
  646TIP3    H1 1883   0.678   2.183   1.199
  646TIP3    H2 1884   0.754   2.311   1.174
  647TIP3   OH2 1885   6.766   1.021   0.145
  647TIP3    H1 1886   6.856   0.997   0.166
  647TIP3    H2 1887   6.767   1.117   0.141
  648TIP3   OH2 1888   2.750   5.707   6.650
  648TIP3    H1 1889   2.799   5.626   6.634
  648TIP3    H2 1890   2.670   5.678   6.695
  649TIP3   OH2 1891   7.356   3.498   2.384
  649TIP3    H1 1892   7.355   3.572   2.324
  649TIP3    H2 1893   7.431   3.445   2.355
  650TIP3   OH2 1894   1.780   6.870   0.482
  650TIP3    H1 1895   1.796   6.934   0.412
  650TIP3    H2 1896   1.692   6.837   0.464
  651TIP3   OH2 1897   7.361   5.160   4.177
  651TIP3    H1 1898   7.394   5.102   4.109
  651TIP3    H2 1899   7.321   5.233   4.130
  652TIP3   OH2 1900   6.070   5.000   1.618
  652TIP3    H1 1901   6.075   5.093   1.639
  652TIP3    H2 1902   6.030   4.997   1.531
  653TIP3   OH2 1903   6.394   6.558   4.218
  653TIP3    H1 1904   6.303   6.531   4.235
  653TIP3    H2 1905   6.417   6.611   4.295
  654TIP3   OH2 1906   4.447   5.834   3.344
  654TIP3    H1 1907   4.367   5.845   3.293
  654TIP3    H2 1908   4.430   5.758   3.399
  655TIP3   OH2 1909   8.021   0.038   2.935
  655TIP3    H1 1910   8.044   0.079   2.851
  655TIP3    H2 1911   8.106   0.021   2.976
  656TIP3   OH2 1912   5.960   2.513   0.032
  656TIP3    H1 1913   5.979   2.496  -0.060
  656TIP3    H2 1914   5.867   2.491   0.042
  657TIP3   OH2 1915   1.888   0.232   2.757
  657TIP3    H1 1916   1.832   0.174   2.706
  657TIP3    H2 1917   1.959   0.175   2.788
  658TIP3   OH2 1918   2.233   3.692   4.947
  658TIP3    H1 1919   2.155   3.651   4.909
  658TIP3    H2 1920   2.206   3.781   4.967
  659TIP3   OH2 1921   7.167   3.754   1.897
  659TIP3    H1 1922   7.153   3.705   1.815
  659TIP3    H2 1923   7.094   3.728   1.953
  660TIP3   OH2 1924   8.033   7.534   5.175
  660TIP3    H1 1925   7.968   7.512   5.108
  660TIP3    H2 1926   7.982   7.578   5.244
  661TIP3   OH2 1927   4.386   2.065   2.125
  661TIP3    H1 1928   4.399   2.086   2.032
  661TIP3    H2 1929   4.455   2.115   2.170
  662TIP3   OH2 1930   0.912   2.586   5.750
  662TIP3    H1 1931   0.978   2.612   5.686
  662TIP3    H2 1932   0.874   2.669   5.780
  663TIP3   OH2 1933   7.600   1.759   1.745
  663TIP3    H1 1934   7.599   1.847   1.708
  663TIP3    H2 1935   7.666   1.763   1.815
  664TIP3   OH2 1936   2.969   2.958   3.089
  664TIP3    H1 1937   2.898   2.968   3.153
  664TIP3    H2 1938   2.987   3.047   3.059
  665TIP3   OH2 1939   2.016   6.616   3.988
  665TIP3    H1 1940   1.991   6.697   4.033
  665TIP3    H2 1941   1.962   6.548   4.030
  666TIP3   OH2 1942   3.952   5.780   6.613
  666TIP3    H1 1943   3.968   5.686   6.618
  666TIP3    H2 1944   3.877   5.795   6.670
  667TIP3   OH2 1945   7.433   2.797   0.571
  667TIP3    H1 1946   7.469   2.884   0.587
  667TIP3    H2 1947   7.510   2.740   0.566
  668TIP3   OH2 1948   0.729   3.180   4.538
  668TIP3    H1 1949   0.651   3.228   4.565
  668TIP3    H2 1950   0.706   3.088   4.549
  669TIP3   OH2 1951   2.301   0.462   2.180
  669TIP3    H1 1952   2.322   0.400   2.251
  669TIP3    H2 1953   2.361   0.438   2.110
  670TIP3   OH2 1954   6.023   2.196   3.143
  670TIP3    H1 1955   6.099   2.185   3.200
  670TIP3    H2 1956   5.995   2.287   3.158
  671TIP3   OH2 1957   2.763   0.399   0.884
  671TIP3    H1 1958   2.673   0.424   0.904
  671TIP3    H2 1959   2.793   0.352   0.962
  672TIP3   OH2 1960   2.701   1.101   3.172
  672TIP3    H1 1961   2.784   1.135   3.139
  672TIP3    H2 1962   2.677   1.161   3.242
  673TIP3   OH2 1963   6.116   6.658   1.306
  673TIP3    H1 1964   6.200   6.637   1.265
  673TIP3    H2 1965   6.083   6.732   1.254
  674TIP3   OH2 1966   5.275   7.433   2.279
  674TIP3    H1 1967   5.269   7.445   2.374
  674TIP3    H2 1968   5.190   7.460   2.245
  675TIP3   OH2 1969   8.049   2.288   1.108
  675TIP3    H1 1970   7.964   2.280   1.150
  675TIP3    H2 1971   8.071   2.199   1.079
  676TIP3   OH2 1972   1.031   0.460   4.584
  676TIP3    H1 1973   1.050   0.553   4.596
  676TIP3    H2 1974   0.947   0.458   4.538
  677TIP3   OH2 1975   6.904   6.019   1.177
  677TIP3    H1 1976   6.895   5.928   1.206
  677TIP3    H2 1977   6.996   6.025   1.149
  678TIP3   OH2 1978   3.054   5.775   2.825
  678TIP3    H1 1979   3.051   5.870   2.820
  678TIP3    H2 1980   3.107   5.757   2.903
  679TIP3   OH2 1981   5.229   3.444   1.946
  679TIP3    H1 1982   5.210   3.380   1.878
  679TIP3    H2 1983   5.214   3.529   1.903
  680TIP3   OH2 1984   6.093   1.592   6.769
  680TIP3    H1 1985   6.094   1.677   6.814
  680TIP3    H2 1986   6.060   1.612   6.681
  681TIP3   OH2 1987   0.714   3.665   2.835
  681TIP3    H1 1988   0.653   3.647   2.762
  681TIP3    H2 1989   0.713   3.585   2.886
  682TIP3   OH2 1990   6.013   0.324   2.796
  682TIP3    H1 1991   6.089   0.279   2.833
  682TIP3    H2 1992   5.941   0.305   2.857
  683TIP3   OH2 1993   4.589   6.072   1.369
  683TIP3    H1 1994   4.549   6.133   1.307
  683TIP3    H2 1995   4.641   6.128   1.428
  684TIP3   OH2 1996   7.788   1.982   0.655
  684TIP3    H1 1997   7.723   1.945   0.595
  684TIP3    H2 1998   7.740   2.051   0.702
  685TIP3   OH2 1999   4.151   4.178   2.692
  685TIP3    H1 2000   4.125   4.109   2.754
  685TIP3    H2 2001   4.103   4.256   2.722
  686TIP3   OH2 2002   3.470   4.541   0.957
  686TIP3    H1 2003   3.441   4.451   0.945
  686TIP3    H2 2004   3.471   4.577   0.868
  687TIP3   OH2 2005   5.249   6.677   4.825
  687TIP3    H1 2006   5.307   6.689   4.899
  687TIP3    H2 2007   5.223   6.766   4.800
  688TIP3   OH2 2008   5.109   6.662   1.023
  688TIP3    H1 2009   5.015   6.643   1.031
  688TIP3    H2 2010   5.114   6.756   1.007
  689TIP3   OH2 2011   3.695   2.567   0.363
  689TIP3    H1 2012   3.736   2.504   0.422
  689TIP3    H2 2013   3.737   2.650   0.384
  690TIP3   OH2 2014   1.924   3.560   2.262
  690TIP3    H1 2015   2.013   3.549   2.295
  690TIP3    H2 2016   1.885   3.625   2.321
  691TIP3   OH2 2017   2.852   1.512   5.145
  691TIP3    H1 2018   2.827   1.498   5.054
  691TIP3    H2 2019   2.786   1.572   5.180
  692TIP3   OH2 2020   6.231   5.001   5.061
  692TIP3    H1 2021   6.285   5.042   4.992
  692TIP3    H2 2022   6.153   4.971   5.015
  693TIP3   OH2 2023   0.083   6.510   1.195
  693TIP3    H1 2024   0.086   6.526   1.290
  693TIP3    H2 2025   0.145   6.572   1.158
  694TIP3   OH2 2026   4.868   1.632   1.580
  694TIP3    H1 2027   4.940   1.692   1.599
  694TIP3    H2 2028   4.789   1.683   1.597
  695TIP3   OH2 2029   5.142   3.220   5.678
  695TIP3    H1 2030   5.105   3.215   5.766
  695TIP3    H2 2031   5.229   3.259   5.690
  696TIP3   OH2 2032   3.952   4.312   6.190
  696TIP3    H1 2033   3.988   4.319   6.102
  696TIP3    H2 2034   4.028   4.324   6.247
  697TIP3   OH2 2035   8.003   5.278   3.200
  697TIP3    H1 2036   7.946   5.334   3.147
  697TIP3    H2 2037   7.968   5.285   3.289
  698TIP3   OH2 2038   0.727   4.894   3.839
  698TIP3    H1 2039   0.638   4.868   3.817
  698TIP3    H2 2040   0.728   4.901   3.934
  699TIP3   OH2 2041   6.207   2.507   6.673
  699TIP3    H1 2042   6.196   2.421   6.715
  699TIP3    H2 2043   6.245   2.487   6.588
  700TIP3   OH2 2044   5.334   2.581   1.939
  700TIP3    H1 2045   5.299   2.540   1.860
  700TIP3    H2 2046   5.262   2.579   2.002
  701TIP3   OH2 2047   7.855   7.691   6.675
  701TIP3    H1 2048   7.888   7.614   6.723
  701TIP3    H2 2049   7.915   7.762   6.700
  702TIP3   OH2 2050   1.779   4.675   5.995
  702TIP3    H1 2051   1.785   4.588   5.956
  702TIP3    H2 2052   1.855   4.682   6.052
  703TIP3   OH2 2053   7.054   3.015   2.418
  703TIP3    H1 2054   6.974   3.067   2.409
  703TIP3    H2 2055   7.124   3.073   2.388
  704TIP3   OH2 2056   2.744   3.248   0.700
  704TIP3    H1 2057   2.662   3.289   0.728
  704TIP3    H2 2058   2.718   3.187   0.631
  705TIP3   OH2 2059   7.242   4.185   4.827
  705TIP3    H1 2060   7.204   4.123   4.765
  705TIP3    H2 2061   7.206   4.270   4.801
  706TIP3   OH2 2062   5.821   3.182   3.029
  706TIP3    H1 2063   5.786   3.093   3.016
  706TIP3    H2 2064   5.772   3.215   3.104
  707TIP3   OH2 2065   6.824   7.095   0.766
  707TIP3    H1 2066   6.748   7.055   0.724
  707TIP3    H2 2067   6.792   7.124   0.851
  708TIP3   OH2 2068   6.731   1.942   5.542
  708TIP3    H1 2069   6.733   2.027   5.585
  708TIP3    H2 2070   6.650   1.943   5.491
  709TIP3   OH2 2071   7.922   4.317   1.594
  709TIP3    H1 2072   7.895   4.299   1.683
  709TIP3    H2 2073   7.865   4.387   1.564
  710TIP3   OH2 2074   5.866   4.206   2.560
  710TIP3    H1 2075   5.881   4.231   2.469
  710TIP3    H2 2076   5.794   4.262   2.589
  711TIP3   OH2 2077   7.076   6.780   4.994
  711TIP3    H1 2078   6.998   6.757   5.045
  711TIP3    H2 2079   7.042   6.800   4.907
  712TIP3   OH2 2080   1.330   2.101   5.552
  712TIP3    H1 2081   1.240   2.116   5.579
  712TIP3    H2 2082   1.380   2.099   5.634
  713TIP3   OH2 2083   6.972   2.844   1.931
  713TIP3    H1 2084   7.064   2.820   1.938
  713TIP3    H2 2085   6.956   2.850   1.837
  714TIP3   OH2 2086   5.204   6.164   3.470
  714TIP3    H1 2087   5.190   6.091   3.530
  714TIP3    H2 2088   5.186   6.242   3.523
  715TIP3   OH2 2089   5.973   1.660   0.098
  715TIP3    H1 2090   5.877   1.656   0.108
  715TIP3    H2 2091   6.003   1.573   0.124
  716TIP3   OH2 2092   1.137   0.638   2.864
  716TIP3    H1 2093   1.140   0.546   2.887
  716TIP3    H2 2094   1.084   0.679   2.933
  717TIP3   OH2 2095   3.695   6.611   2.759
  717TIP3    H1 2096   3.699   6.528   2.805
  717TIP3    H2 2097   3.695   6.587   2.666
  718TIP3   OH2 2098   3.380   7.443   5.056
  718TIP3    H1 2099   3.447   7.464   5.120
  718TIP3    H2 2100   3.357   7.528   5.017
  719TIP3   OH2 2101   5.658   4.425   2.273
  719TIP3    H1 2102   5.578   4.463   2.237
  719TIP3    H2 2103   5.682   4.483   2.346
  720TIP3   OH2 2104   7.556   4.175   3.289
  720TIP3    H1 2105   7.532   4.262   3.258
  720TIP3    H2 2106   7.516   4.115   3.226
  721TIP3   OH2 2107   6.228   6.587   1.572
  721TIP3    H1 2108   6.201   6.498   1.596
  721TIP3    H2 2109   6.149   6.626   1.534
  722TIP3   OH2 2110   0.685   2.283   1.487
  722TIP3    H1 2111   0.631   2.359   1.507
  722TIP3    H2 2112   0.701   2.289   1.393
  723TIP3   OH2 2113   4.978   4.840   0.986
  723TIP3    H1 2114   4.930   4.833   1.069
  723TIP3    H2 2115   4.916   4.883   0.927
  724TIP3   OH2 2116   6.578   2.226   5.226
  724TIP3    H1 2117   6.484   2.233   5.245
  724TIP3    H2 2118   6.620   2.278   5.294
  725TIP3   OH2 2119   4.636   1.885   0.864
  725TIP3    H1 2120   4.606   1.796   0.844
  725TIP3    H2 2121   4.557   1.939   0.857
  726TIP3   OH2 2122   7.695   6.833   1.522
  726TIP3    H1 2123   7.660   6.893   1.588
  726TIP3    H2 2124   7.725   6.757   1.572
  727TIP3   OH2 2125   7.835   3.264   1.639
  727TIP3    H1 2126   7.873   3.329   1.581
  727TIP3    H2 2127   7.760   3.308   1.679
  728TIP3   OH2 2128   3.153   7.102   1.437
  728TIP3    H1 2129   3.058   7.109   1.431
  728TIP3    H2 2130   3.170   7.008   1.441
  729TIP3   OH2 2131   3.415   4.182   6.589
  729TIP3    H1 2132   3.379   4.150   6.507
  729TIP3    H2 2133   3.430   4.104   6.641
  730TIP3   OH2 2134   3.436   6.023   0.749
  730TIP3    H1 2135   3.417   5.930   0.734
  730TIP3    H2 2136   3.530   6.031   0.733
  731TIP3   OH2 2137   0.077   7.174   4.956
  731TIP3    H1 2138   0.053   7.267   4.961
  731TIP3    H2 2139   0.087   7.147   5.047
  732TIP3   OH2 2140   6.176   0.524   1.940
  732TIP3    H1 2141   6.268   0.508   1.958
  732TIP3    H2 2142   6.137   0.544   2.025
  733TIP3   OH2 2143   5.590   4.327   3.133
  733TIP3    H1 2144   5.674   4.319   3.089
  733TIP3    H2 2145   5.607   4.299   3.223
  734TIP3   OH2 2146   7.671   3.458   3.898
  734TIP3    H1 2147   7.759   3.495   3.888
  734TIP3    H2 2148   7.637   3.452   3.808
  735TIP3   OH2 2149   0.396   1.785   4.314
  735TIP3    H1 2150   0.476   1.830   4.339
  735TIP3    H2 2151   0.425   1.710   4.262
  736TIP3   OH2 2152   0.584   4.849   1.219
  736TIP3    H1 2153   0.628   4.818   1.140
  736TIP3    H2 2154   0.493   4.824   1.208
  737TIP3   OH2 2155   2.961   6.488   1.668
  737TIP3    H1 2156   2.904   6.536   1.729
  737TIP3    H2 2157   2.915   6.491   1.584
  738TIP3   OH2 2158   0.862   2.616   5.120
  738TIP3    H1 2159   0.876   2.528   5.085
  738TIP3    H2 2160   0.768   2.630   5.109
  739TIP3   OH2 2161   1.589   7.029   0.133
  739TIP3    H1 2162   1.638   7.067   0.060
  739TIP3    H2 2163   1.498   7.057   0.118
  740TIP3   OH2 2164   3.581   2.219   6.295
  740TIP3    H1 2165   3.556   2.128   6.308
  740TIP3    H2 2166   3.659   2.214   6.239
  741TIP3   OH2 2167   7.850   3.075   6.512
  741TIP3    H1 2168   7.943   3.083   6.492
  741TIP3    H2 2169   7.810   3.045   6.430
  742TIP3   OH2 2170   0.851   5.525   0.339
  742TIP3    H1 2171   0.914   5.558   0.403
  742TIP3    H2 2172   0.896   5.450   0.299
  743TIP3   OH2 2173   6.203   4.121   3.590
  743TIP3    H1 2174   6.277   4.136   3.649
  743TIP3    H2 2175   6.127   4.148   3.640
  744TIP3   OH2 2176   6.989   1.079   4.498
  744TIP3    H1 2177   6.996   1.125   4.582
  744TIP3    H2 2178   6.909   1.026   4.507
  745TIP3   OH2 2179   7.982   5.871   6.312
  745TIP3    H1 2180   8.074   5.852   6.326
  745TIP3    H2 2181   7.977   5.965   6.299
  746TIP3   OH2 2182   3.134   6.033   5.023
  746TIP3    H1 2183   3.129   5.999   5.113
  746TIP3    H2 2184   3.081   5.971   4.972
  747TIP3   OH2 2185   2.752   2.620   4.718
  747TIP3    H1 2186   2.718   2.671   4.645
  747TIP3    H2 2187   2.847   2.625   4.709
  748TIP3   OH2 2188   7.489   1.507   0.017
  748TIP3    H1 2189   7.458   1.568  -0.050
  748TIP3    H2 2190   7.449   1.537   0.098
  749TIP3   OH2 2191   1.413   1.384   0.502
  749TIP3    H1 2192   1.463   1.466   0.511
  749TIP3    H2 2193   1.409   1.349   0.591
  750TIP3   OH2 2194   3.007   6.976   5.312
  750TIP3    H1 2195   3.020   6.883   5.332
  750TIP3    H2 2196   2.925   6.978   5.262
  751TIP3   OH2 2197   7.278   7.578   5.975
  751TIP3    H1 2198   7.314   7.625   5.900
  751TIP3    H2 2199   7.201   7.629   6.001
  752TIP3   OH2 2200   5.835   1.982   3.152
  752TIP3    H1 2201   5.834   1.998   3.247
  752TIP3    H2 2202   5.897   2.047   3.118
  753TIP3   OH2 2203   1.629   0.527   3.677
  753TIP3    H1 2204   1.705   0.575   3.645
  753TIP3    H2 2205   1.602   0.474   3.602
  754TIP3   OH2 2206   0.756   5.160   6.317
  754TIP3    H1 2207   0.839   5.156   6.269
  754TIP3    H2 2208   0.771   5.108   6.395
  755TIP3   OH2 2209   3.208   7.194   2.772
  755TIP3    H1 2210   3.163   7.228   2.694
  755TIP3    H2 2211   3.205   7.099   2.762
  756TIP3   OH2 2212   7.566   5.193   5.223
  756TIP3    H1 2213   7.515   5.267   5.190
  756TIP3    H2 2214   7.627   5.233   5.286
  757TIP3   OH2 2215   7.166   3.477   1.255
  757TIP3    H1 2216   7.217   3.527   1.317
  757TIP3    H2 2217   7.217   3.397   1.240
  758TIP3   OH2 2218   7.246   0.480   1.199
  758TIP3    H1 2219   7.191   0.552   1.170
  758TIP3    H2 2220   7.318   0.522   1.246
  759TIP3   OH2 2221   0.387   2.142   6.532
  759TIP3    H1 2222   0.366   2.216   6.475
  759TIP3    H2 2223   0.386   2.179   6.620
  760TIP3   OH2 2224   6.504   6.030   6.671
  760TIP3    H1 2225   6.426   6.073   6.636
  760TIP3    H2 2226   6.547   6.097   6.725
  761TIP3   OH2 2227   3.043   7.642   3.356
  761TIP3    H1 2228   3.128   7.669   3.322
  761TIP3    H2 2229   3.051   7.548   3.372
  762TIP3   OH2 2230   6.357   1.871   3.676
  762TIP3    H1 2231   6.340   1.946   3.733
  762TIP3    H2 2232   6.270   1.832   3.663
  763TIP3   OH2 2233   1.192   1.590   1.917
  763TIP3    H1 2234   1.164   1.671   1.959
  763TIP3    H2 2235   1.121   1.567   1.858
  764TIP3   OH2 2236   0.134   4.546   1.366
  764TIP3    H1 2237   0.115   4.593   1.448
  764TIP3    H2 2238   0.049   4.537   1.324
  765TIP3   OH2 2239   1.632   1.996   4.043
  765TIP3    H1 2240   1.609   2.074   3.992
  765TIP3    H2 2241   1.727   2.001   4.054
  766TIP3   OH2 2242   0.727   3.230   6.190
  766TIP3    H1 2243   0.636   3.246   6.164
  766TIP3    H2 2244   0.743   3.293   6.261
  767TIP3   OH2 2245   0.634   5.540   6.537
  767TIP3    H1 2246   0.583   5.492   6.603
  767TIP3    H2 2247   0.610   5.631   6.550
  768TIP3   OH2 2248   2.469   4.945   3.707
  768TIP3    H1 2249   2.523   4.899   3.771
  768TIP3    H2 2250   2.399   4.883   3.686
  769TIP3   OH2 2251   4.764   6.592   0.307
  769TIP3    H1 2252   4.784   6.617   0.398
  769TIP3    H2 2253   4.778   6.673   0.257
  770TIP3   OH2 2254   7.482   1.617   2.842
  770TIP3    H1 2255   7.426   1.547   2.873
  770TIP3    H2 2256   7.422   1.679   2.799
  771TIP3   OH2 2257   2.723   0.573   2.090
  771TIP3    H1 2258   2.658   0.503   2.091
  771TIP3    H2 2259   2.688   0.638   2.030
  772TIP3   OH2 2260   1.402   3.414   3.950
  772TIP3    H1 2261   1.490   3.385   3.973
  772TIP3    H2 2262   1.383   3.484   4.013
  773TIP3   OH2 2263   2.231   6.640   6.275
  773TIP3    H1 2264   2.282   6.565   6.304
  773TIP3    H2 2265   2.295   6.699   6.234
  774TIP3   OH2 2266   3.150   6.506   1.465
  774TIP3    H1 2267   3.081   6.537   1.405
  774TIP3    H2 2268   3.112   6.517   1.552
  775TIP3   OH2 2269   1.690   3.595   0.869
  775TIP3    H1 2270   1.604   3.624   0.900
  775TIP3    H2 2271   1.732   3.675   0.837
  776TIP3   OH2 2272   8.104   3.333   5.986
  776TIP3    H1 2273   8.092   3.327   5.891
  776TIP3    H2 2274   8.180   3.278   6.004
  777TIP3   OH2 2275   1.127   0.935   4.372
  777TIP3    H1 2276   1.207   0.931   4.319
  777TIP3    H2 2277   1.149   0.886   4.452
  778TIP3   OH2 2278   1.612   6.037   1.231
  778TIP3    H1 2279   1.650   6.125   1.225
  778TIP3    H2 2280   1.535   6.048   1.287
  779TIP3   OH2 2281   8.286   5.940   0.506
  779TIP3    H1 2282   8.200   5.980   0.517
  779TIP3    H2 2283   8.309   5.957   0.414
  780TIP3   OH2 2284   3.509  -0.017   1.314
  780TIP3    H1 2285   3.456   0.043   1.261
  780TIP3    H2 2286   3.489   0.006   1.404
  781TIP3   OH2 2287   1.398   1.040   5.174
  781TIP3    H1 2288   1.378   1.099   5.247
  781TIP3    H2 2289   1.477   1.077   5.135
  782TIP3   OH2 2290   7.858   7.017   1.157
  782TIP3    H1 2291   7.923   7.052   1.096
  782TIP3    H2 2292   7.789   7.084   1.159
  783TIP3   OH2 2293   4.065   1.135   0.483
  783TIP3    H1 2294   3.973   1.142   0.506
  783TIP3    H2 2295   4.087   1.221   0.446
  784TIP3   OH2 2296   6.116   4.510   4.255
  784TIP3    H1 2297   6.181   4.579   4.243
  784TIP3    H2 2298   6.164   4.438   4.296
  785TIP3   OH2 2299   7.938   2.384   1.390
  785TIP3    H1 2300   7.879   2.313   1.364
  785TIP3    H2 2301   8.000   2.343   1.451
  786TIP3   OH2 2302   6.299   0.078   0.737
  786TIP3    H1 2303   6.291   0.169   0.709
  786TIP3    H2 2304   6.393   0.063   0.742
  787TIP3   OH2 2305   6.759   7.073   3.447
  787TIP3    H1 2306   6.799   7.131   3.512
  787TIP3    H2 2307   6.684   7.122   3.414
  788TIP3   OH2 2308   2.718   1.760   2.891
  788TIP3    H1 2309   2.737   1.742   2.799
  788TIP3    H2 2310   2.678   1.679   2.924
  789TIP3   OH2 2311   7.066   1.447   2.453
  789TIP3    H1 2312   7.084   1.487   2.368
  789TIP3    H2 2313   7.007   1.375   2.433
  790TIP3   OH2 2314   5.805   5.928   4.196
  790TIP3    H1 2315   5.716   5.897   4.211
  790TIP3    H2 2316   5.847   5.923   4.281
  791TIP3   OH2 2317   0.755   6.658   0.858
  791TIP3    H1 2318   0.818   6.658   0.785
  791TIP3    H2 2319   0.670   6.668   0.816
  792TIP3   OH2 2320   3.400   2.564   5.730
  792TIP3    H1 2321   3.458   2.567   5.654
  792TIP3    H2 2322   3.421   2.480   5.772
  793TIP3   OH2 2323   2.501   5.769   0.378
  793TIP3    H1 2324   2.420   5.727   0.350
  793TIP3    H2 2325   2.474   5.855   0.410
  794TIP3   OH2 2326   7.253   7.725   5.695
  794TIP3    H1 2327   7.301   7.697   5.617
  794TIP3    H2 2328   7.163   7.740   5.663
  795TIP3   OH2 2329   4.495   3.474   2.271
  795TIP3    H1 2330   4.541   3.451   2.352
  795TIP3    H2 2331   4.403   3.453   2.289
  796TIP3   OH2 2332   1.040   4.082   1.751
  796TIP3    H1 2333   1.028   4.164   1.799
  796TIP3    H2 2334   1.117   4.097   1.696
  797TIP3   OH2 2335   3.280   5.605   5.253
  797TIP3    H1 2336   3.252   5.664   5.323
  797TIP3    H2 2337   3.278   5.658   5.174
  798TIP3   OH2 2338   2.101   3.760   4.593
  798TIP3    H1 2339   2.183   3.720   4.623
  798TIP3    H2 2340   2.120   3.790   4.504
  799TIP3   OH2 2341   6.630   5.343   0.718
  799TIP3    H1 2342   6.561   5.329   0.783
  799TIP3    H2 2343   6.664   5.430   0.738
  800TIP3   OH2 2344   6.633   4.920   4.808
  800TIP3    H1 2345   6.602   4.831   4.819
  800TIP3    H2 2346   6.720   4.920   4.849
  801TIP3   OH2 2347   5.235   3.942   4.144
  801TIP3    H1 2348   5.186   3.990   4.077
  801TIP3    H2 2349   5.258   3.859   4.102
  802TIP3   OH2 2350   4.306   3.637   4.053
  802TIP3    H1 2351   4.399   3.654   4.066
  802TIP3    H2 2352   4.297   3.543   4.065
  803TIP3   OH2 2353   1.292   6.639   0.121
  803TIP3    H1 2354   1.269   6.590   0.199
  803TIP3    H2 2355   1.318   6.725   0.153
  804TIP3   OH2 2356   3.750   0.676   1.314
  804TIP3    H1 2357   3.762   0.770   1.331
  804TIP3    H2 2358   3.812   0.657   1.243
  805TIP3   OH2 2359   6.125  -0.013   6.677
  805TIP3    H1 2360   6.206   0.016   6.634
  805TIP3    H2 2361   6.074   0.068   6.686
  806TIP3   OH2 2362   7.387   1.441   4.558
  806TIP3    H1 2363   7.355   1.373   4.617
  806TIP3    H2 2364   7.450   1.397   4.501
  807TIP3   OH2 2365   2.182   4.421   1.867
  807TIP3    H1 2366   2.200   4.418   1.962
  807TIP3    H2 2367   2.171   4.330   1.842
  808TIP3   OH2 2368   7.479   2.235   2.471
  808TIP3    H1 2369   7.530   2.268   2.545
  808TIP3    H2 2370   7.459   2.313   2.419
  809TIP3   OH2 2371   4.713   6.205   1.567
  809TIP3    H1 2372   4.739   6.297   1.571
  809TIP3    H2 2373   4.756   6.164   1.642
  810TIP3   OH2 2374   6.209   6.074   2.937
  810TIP3    H1 2375   6.189   6.162   2.966
  810TIP3    H2 2376   6.250   6.085   2.851
  811TIP3   OH2 2377   5.948   0.409   1.808
  811TIP3    H1 2378   6.016   0.462   1.848
  811TIP3    H2 2379   5.873   0.468   1.800
  812TIP3   OH2 2380   7.397   1.621   0.238
  812TIP3    H1 2381   7.360   1.709   0.229
  812TIP3    H2 2382   7.407   1.609   0.332
  813TIP3   OH2 2383   1.928   4.347   2.357
  813TIP3    H1 2384   1.837   4.377   2.350
  813TIP3    H2 2385   1.927   4.260   2.319
  814TIP3   OH2 2386   3.886   5.527   2.611
  814TIP3    H1 2387   3.971   5.525   2.567
  814TIP3    H2 2388   3.840   5.600   2.572
  815TIP3   OH2 2389   1.895   0.951   6.417
  815TIP3    H1 2390   1.872   0.980   6.505
  815TIP3    H2 2391   1.844   0.871   6.405
  816TIP3   OH2 2392   5.549   3.397   2.199
  816TIP3    H1 2393   5.637   3.393   2.237
  816TIP3    H2 2394   5.537   3.312   2.157
  817TIP3   OH2 2395   2.742   7.744   6.185
  817TIP3    H1 2396   2.689   7.814   6.148
  817TIP3    H2 2397   2.728   7.751   6.280
  818TIP3   OH2 2398   5.617   5.530   1.676
  818TIP3    H1 2399   5.682   5.460   1.691
  818TIP3    H2 2400   5.546   5.510   1.736
  819TIP3   OH2 2401   6.542   4.649   0.614
  819TIP3    H1 2402   6.579   4.566   0.645
  819TIP3    H2 2403   6.616   4.694   0.575
  820TIP3   OH2 2404   5.896   7.284   4.320
  820TIP3    H1 2405   5.855   7.198   4.323
  820TIP3    H2 2406   5.822   7.345   4.325
  821TIP3   OH2 2407   1.849   6.696   2.107
  821TIP3    H1 2408   1.787   6.722   2.038
  821TIP3    H2 2409   1.921   6.655   2.060
  822TIP3   OH2 2410   4.061   7.795   0.508
  822TIP3    H1 2411   4.104   7.731   0.451
  822TIP3    H2 2412   4.050   7.873   0.453
  823TIP3   OH2 2413   7.675   7.851   5.584
  823TIP3    H1 2414   7.711   7.859   5.673
  823TIP3    H2 2415   7.676   7.757   5.567
  824TIP3   OH2 2416   2.112   0.574   4.827
  824TIP3    H1 2417   2.122   0.636   4.755
  824TIP3    H2 2418   2.201   0.564   4.862
  825TIP3   OH2 2419   6.822   2.641   6.652
  825TIP3    H1 2420   6.833   2.672   6.742
  825TIP3    H2 2421   6.882   2.695   6.600
  826TIP3   OH2 2422   7.487   3.548   3.269
  826TIP3    H1 2423   7.463   3.472   3.321
  826TIP3    H2 2424   7.571   3.576   3.304
  827TIP3   OH2 2425   6.543   0.371   3.260
  827TIP3    H1 2426   6.607   0.397   3.193
  827TIP3    H2 2427   6.574   0.413   3.340
  828TIP3   OH2 2428   0.894   4.981   1.415
  828TIP3    H1 2429   0.942   5.035   1.478
  828TIP3    H2 2430   0.954   4.972   1.341
  829TIP3   OH2 2431   2.911   3.019   2.693
  829TIP3    H1 2432   2.864   3.015   2.611
  829TIP3    H2 2433   2.979   2.952   2.685
  830TIP3   OH2 2434   5.449   4.211   5.615
  830TIP3    H1 2435   5.525   4.244   5.662
  830TIP3    H2 2436   5.430   4.278   5.550
  831TIP3   OH2 2437   0.313  -0.005   5.587
  831TIP3    H1 2438   0.355   0.072   5.624
  831TIP3    H2 2439   0.363  -0.026   5.509
  832TIP3   OH2 2440   2.098   0.069   2.775
  832TIP3    H1 2441   2.096  -0.004   2.713
  832TIP3    H2 2442   2.173   0.122   2.748
  833TIP3   OH2 2443   2.825   5.603   0.868
  833TIP3    H1 2444   2.764   5.609   0.795
  833TIP3    H2 2445   2.871   5.687   0.868
  834TIP3   OH2 2446   2.137   5.231   1.006
  834TIP3    H1 2447   2.090   5.154   0.973
  834TIP3    H2 2448   2.140   5.219   1.100
  835TIP3   OH2 2449   7.705   0.178   4.749
  835TIP3    H1 2450   7.763   0.162   4.675
  835TIP3    H2 2451   7.618   0.153   4.717
  836TIP3   OH2 2452   0.057   2.651   4.143
  836TIP3    H1 2453   0.059   2.628   4.050
  836TIP3    H2 2454   0.012   2.735   4.146
  837TIP3   OH2 2455   3.339   6.816   6.164
  837TIP3    H1 2456   3.395   6.853   6.233
  837TIP3    H2 2457   3.393   6.749   6.123
  838TIP3   OH2 2458   6.356   1.077   2.168
  838TIP3    H1 2459   6.451   1.083   2.158
  838TIP3    H2 2460   6.333   1.151   2.225
  839TIP3   OH2 2461   7.118   7.787   6.072
  839TIP3    H1 2462   7.078   7.859   6.022
  839TIP3    H2 2463   7.070   7.786   6.155
  840TIP3   OH2 2464   8.039   1.281   3.933
  840TIP3    H1 2465   8.042   1.246   3.844
  840TIP3    H2 2466   7.956   1.329   3.937
  841TIP3   OH2 2467   7.552   1.982   2.710
  841TIP3    H1 2468   7.521   2.011   2.624
  841TIP3    H2 2469   7.534   2.055   2.768
  842TIP3   OH2 2470   2.010   1.827   6.678
  842TIP3    H1 2471   1.963   1.754   6.719
  842TIP3    H2 2472   2.054   1.871   6.750
  843TIP3   OH2 2473   7.142   7.326   1.763
  843TIP3    H1 2474   7.064   7.307   1.814
  843TIP3    H2 2475   7.111   7.379   1.690
  844TIP3   OH2 2476   0.409   6.857   2.465
  844TIP3    H1 2477   0.448   6.944   2.474
  844TIP3    H2 2478   0.341   6.867   2.399
  845TIP3   OH2 2479   6.950   4.635   5.901
  845TIP3    H1 2480   6.924   4.600   5.986
  845TIP3    H2 2481   7.034   4.679   5.918
  846TIP3   OH2 2482   1.688   5.854   3.050
  846TIP3    H1 2483   1.781   5.865   3.067
  846TIP3    H2 2484   1.659   5.937   3.013
  847TIP3   OH2 2485   1.082   6.614   1.285
  847TIP3    H1 2486   1.077   6.651   1.373
  847TIP3    H2 2487   0.996   6.632   1.246
  848TIP3   OH2 2488   5.706   0.879   3.584
  848TIP3    H1 2489   5.769   0.916   3.646
  848TIP3    H2 2490   5.761   0.830   3.522
  849TIP3   OH2 2491   3.031   1.406   5.337
  849TIP3    H1 2492   3.065   1.317   5.327
  849TIP3    H2 2493   2.996   1.427   5.250
  850TIP3   OH2 2494   2.842   5.705   1.147
  850TIP3    H1 2495   2.933   5.676   1.139
  850TIP3    H2 2496   2.801   5.676   1.066
  851TIP3   OH2 2497   5.587   2.025   1.254
  851TIP3    H1 2498   5.590   1.942   1.207
  851TIP3    H2 2499   5.556   2.088   1.188
  852TIP3   OH2 2500   4.254   6.784   0.720
  852TIP3    H1 2501   4.325   6.769   0.658
  852TIP3    H2 2502   4.267   6.874   0.750
  853TIP3   OH2 2503   5.259   1.143   6.714
  853TIP3    H1 2504   5.172   1.176   6.735
  853TIP3    H2 2505   5.248   1.098   6.629
  854TIP3   OH2 2506   5.168   3.743   2.215
  854TIP3    H1 2507   5.232   3.676   2.191
  854TIP3    H2 2508   5.117   3.756   2.135
  855TIP3   OH2 2509   6.495   4.651   6.402
  855TIP3    H1 2510   6.466   4.616   6.486
  855TIP3    H2 2511   6.418   4.696   6.366
  856TIP3   OH2 2512   0.830   2.974   4.146
  856TIP3    H1 2513   0.903   3.034   4.154
  856TIP3    H2 2514   0.850   2.922   4.068
  857TIP3   OH2 2515   0.589   1.633   3.770
  857TIP3    H1 2516   0.544   1.548   3.774
  857TIP3    H2 2517   0.660   1.620   3.708
  858TIP3   OH2 2518   7.294   3.135   0.334
  858TIP3    H1 2519   7.367   3.075   0.352
  858TIP3    H2 2520   7.317   3.177   0.251
  859TIP3   OH2 2521   7.443   7.292   2.803
  859TIP3    H1 2522   7.427   7.317   2.894
  859TIP3    H2 2523   7.468   7.199   2.808
  860TIP3   OH2 2524   7.302   7.125   1.259
  860TIP3    H1 2525   7.234   7.100   1.321
  860TIP3    H2 2526   7.357   7.046   1.252
  861TIP3   OH2 2527   1.741   6.481   2.934
  861TIP3    H1 2528   1.784   6.552   2.981
  861TIP3    H2 2529   1.788   6.475   2.851
  862TIP3   OH2 2530   4.507   3.911   1.099
  862TIP3    H1 2531   4.576   3.916   1.164
  862TIP3    H2 2532   4.552   3.920   1.015
  863TIP3   OH2 2533   7.590   7.510   6.404
  863TIP3    H1 2534   7.663   7.451   6.389
  863TIP3    H2 2535   7.586   7.565   6.325
  864TIP3   OH2 2536   3.821   1.582   6.179
  864TIP3    H1 2537   3.854   1.542   6.259
  864TIP3    H2 2538   3.809   1.509   6.119
  865TIP3   OH2 2539   4.797   0.563   5.524
  865TIP3    H1 2540   4.871   0.622   5.533
  865TIP3    H2 2541   4.821   0.486   5.576
  866TIP3   OH2 2542   4.863   7.538   5.322
  866TIP3    H1 2543   4.809   7.609   5.286
  866TIP3    H2 2544   4.800   7.469   5.340
  867TIP3   OH2 2545   4.250   7.655   2.805
  867TIP3    H1 2546   4.204   7.616   2.879
  867TIP3    H2 2547   4.324   7.702   2.845
  868TIP3   OH2 2548   0.221   1.888   5.816
  868TIP3    H1 2549   0.139   1.877   5.864
  868TIP3    H2 2550   0.272   1.950   5.868
  869TIP3   OH2 2551   7.554   0.773   4.150
  869TIP3    H1 2552   7.473   0.745   4.193
  869TIP3    H2 2553   7.589   0.693   4.112
  870TIP3   OH2 2554   6.149   7.586   1.883
  870TIP3    H1 2555   6.152   7.528   1.959
  870TIP3    H2 2556   6.228   7.638   1.890
  871TIP3   OH2 2557   1.066   6.533   3.955
  871TIP3    H1 2558   1.105   6.561   4.038
  871TIP3    H2 2559   1.057   6.613   3.904
  872TIP3   OH2 2560   1.619   6.823   2.976
  872TIP3    H1 2561   1.540   6.859   2.936
  872TIP3    H2 2562   1.686   6.828   2.907
  873TIP3   OH2 2563   7.331   4.376   1.439
  873TIP3    H1 2564   7.286   4.412   1.515
  873TIP3    H2 2565   7.393   4.444   1.413
  874TIP3   OH2 2566   0.233   5.919   6.721
  874TIP3    H1 2567   0.297   5.988   6.706
  874TIP3    H2 2568   0.241   5.898   6.814
  875TIP3   OH2 2569   3.990   3.274   3.348
  875TIP3    H1 2570   3.896   3.260   3.363
  875TIP3    H2 2571   4.014   3.345   3.408
  876TIP3   OH2 2572   4.661   7.639   1.982
  876TIP3    H1 2573   4.726   7.685   2.035
  876TIP3    H2 2574   4.636   7.702   1.914
  877TIP3   OH2 2575   0.504   0.711   5.918
  877TIP3    H1 2576   0.431   0.719   5.978
  877TIP3    H2 2577   0.560   0.786   5.938
  878TIP3   OH2 2578   5.927   2.745   3.923
  878TIP3    H1 2579   5.989   2.727   3.993
  878TIP3    H2 2580   5.980   2.752   3.844
  879TIP3   OH2 2581   0.245   4.037   4.044
  879TIP3    H1 2582   0.327   4.050   3.996
  879TIP3    H2 2583   0.209   3.956   4.008
  880TIP3   OH2 2584   4.087   2.167   2.456
  880TIP3    H1 2585   4.016   2.103   2.465
  880TIP3    H2 2586   4.100   2.201   2.544
  881TIP3   OH2 2587   0.646   7.538   2.814
  881TIP3    H1 2588   0.591   7.459   2.810
  881TIP3    H2 2589   0.681   7.548   2.725
  882TIP3   OH2 2590   6.672   0.793   2.139
  882TIP3    H1 2591   6.723   0.758   2.065
  882TIP3    H2 2592   6.737   0.841   2.192
  883TIP3   OH2 2593   2.869   2.548   1.633
  883TIP3    H1 2594   2.930   2.600   1.685
  883TIP3    H2 2595   2.901   2.458   1.642
  884TIP3   OH2 2596   6.469   6.453   5.067
  884TIP3    H1 2597   6.386   6.468   5.111
  884TIP3    H2 2598   6.482   6.359   5.070
  885TIP3   OH2 2599   3.025   4.009   5.847
  885TIP3    H1 2600   3.118   4.026   5.860
  885TIP3    H2 2601   2.993   3.981   5.932
  886TIP3   OH2 2602   6.230   7.211   6.159
  886TIP3    H1 2603   6.166   7.234   6.092
  886TIP3    H2 2604   6.179   7.172   6.229
  887TIP3   OH2 2605   4.097   7.333   4.378
  887TIP3    H1 2606   4.142   7.251   4.354
  887TIP3    H2 2607   4.155   7.402   4.346
  888TIP3   OH2 2608   5.955   2.588   2.163
  888TIP3    H1 2609   5.998   2.503   2.171
  888TIP3    H2 2610   5.866   2.567   2.134
  889TIP3   OH2 2611   6.078   0.671   2.176
  889TIP3    H1 2612   6.075   0.623   2.259
  889TIP3    H2 2613   5.987   0.674   2.147
  890TIP3   OH2 2614   7.753   1.906   0.253
  890TIP3    H1 2615   7.839   1.865   0.250
  890TIP3    H2 2616   7.768   1.997   0.226
  891TIP3   OH2 2617   4.660   3.691   5.581
  891TIP3    H1 2618   4.703   3.624   5.635
  891TIP3    H2 2619   4.582   3.714   5.631
  892TIP3   OH2 2620   6.800   7.759   6.621
  892TIP3    H1 2621   6.848   7.678   6.640
  892TIP3    H2 2622   6.846   7.796   6.545
  893TIP3   OH2 2623   0.905   3.147   1.272
  893TIP3    H1 2624   0.996   3.161   1.298
  893TIP3    H2 2625   0.864   3.233   1.281
  894TIP3   OH2 2626   4.809   5.521   5.370
  894TIP3    H1 2627   4.790   5.465   5.445
  894TIP3    H2 2628   4.736   5.583   5.368
  895TIP3   OH2 2629   0.140   1.266   2.223
  895TIP3    H1 2630   0.130   1.328   2.295
  895TIP3    H2 2631   0.177   1.318   2.152
  896TIP3   OH2 2632   0.072   0.110   6.601
  896TIP3    H1 2633   0.069   0.205   6.594
  896TIP3    H2 2634  -0.014   0.081   6.571
  897TIP3   OH2 2635   5.309   0.725   1.170
  897TIP3    H1 2636   5.313   0.724   1.074
  897TIP3    H2 2637   5.227   0.769   1.191
  898TIP3   OH2 2638   3.810   4.019   1.966
  898TIP3    H1 2639   3.781   4.086   1.905
  898TIP3    H2 2640   3.876   3.969   1.918
  899TIP3   OH2 2641   4.963   2.112   1.513
  899TIP3    H1 2642   4.904   2.048   1.474
  899TIP3    H2 2643   4.909   2.161   1.574
  900TIP3   OH2 2644   0.880   2.661   0.704
  900TIP3    H1 2645   0.866   2.628   0.615
  900TIP3    H2 2646   0.812   2.619   0.756
  901TIP3   OH2 2647   4.133   5.916   5.630
  901TIP3    H1 2648   4.178   6.000   5.640
  901TIP3    H2 2649   4.040   5.937   5.632
  902TIP3   OH2 2650   1.209   4.622   1.556
  902TIP3    H1 2651   1.300   4.637   1.528
  902TIP3    H2 2652   1.183   4.704   1.597
  903TIP3   OH2 2653   1.859   6.182   4.213
  903TIP3    H1 2654   1.938   6.145   4.173
  903TIP3    H2 2655   1.787   6.147   4.161
  904TIP3   OH2 2656   0.262   3.381   4.429
  904TIP3    H1 2657   0.185   3.420   4.468
  904TIP3    H2 2658   0.233   3.356   4.341
  905TIP3   OH2 2659   0.477   7.330   2.848
  905TIP3    H1 2660   0.462   7.235   2.847
  905TIP3    H2 2661   0.395   7.366   2.882
  906TIP3   OH2 2662   4.187   4.648   4.652
  906TIP3    H1 2663   4.167   4.565   4.609
  906TIP3    H2 2664   4.260   4.628   4.710
  907TIP3   OH2 2665   8.308   1.683   0.794
  907TIP3    H1 2666   8.281   1.619   0.861
  907TIP3    H2 2667   8.230   1.736   0.780
  908TIP3   OH2 2668   1.809   2.370   4.733
  908TIP3    H1 2669   1.817   2.335   4.645
  908TIP3    H2 2670   1.898   2.396   4.758
  909TIP3   OH2 2671   3.653   5.347   0.469
  909TIP3    H1 2672   3.623   5.315   0.384
  909TIP3    H2 2673   3.747   5.362   0.457
  910TIP3   OH2 2674   4.147   2.072   2.738
  910TIP3    H1 2675   4.210   2.144   2.734
  910TIP3    H2 2676   4.121   2.067   2.830
  911TIP3   OH2 2677   3.073   7.556   2.406
  911TIP3    H1 2678   3.088   7.574   2.313
  911TIP3    H2 2679   3.148   7.505   2.434
  912TIP3   OH2 2680   5.304   1.103   5.284
  912TIP3    H1 2681   5.284   1.017   5.320
  912TIP3    H2 2682   5.219   1.143   5.267
  913TIP3   OH2 2683   8.184   7.343   6.203
  913TIP3    H1 2684   8.237   7.267   6.178
  913TIP3    H2 2685   8.240   7.393   6.262
  914TIP3   OH2 2686   6.944   6.505   4.122
  914TIP3    H1 2687   6.965   6.432   4.179
  914TIP3    H2 2688   6.878   6.471   4.061
  915TIP3   OH2 2689   1.972   1.060   2.687
  915TIP3    H1 2690   1.896   1.026   2.735
  915TIP3    H2 2691   2.037   1.077   2.754
  916TIP3   OH2 2692   7.099   6.560   1.114
  916TIP3    H1 2693   7.041   6.630   1.088
  916TIP3    H2 2694   7.152   6.542   1.036
  917TIP3   OH2 2695   6.302   7.219   3.985
  917TIP3    H1 2696   6.377   7.200   4.040
  917TIP3    H2 2697   6.317   7.168   3.905
  918TIP3   OH2 2698   6.821   1.136   1.207
  918TIP3    H1 2699   6.790   1.085   1.132
  918TIP3    H2 2700   6.767   1.104   1.280
  919TIP3   OH2 2701   7.444   2.124   1.693
  919TIP3    H1 2702   7.492   2.132   1.776
  919TIP3    H2 2703   7.352   2.124   1.719
  920TIP3   OH2 2704   5.554   6.242   0.226
  920TIP3    H1 2705   5.509   6.245   0.142
  920TIP3    H2 2706   5.601   6.158   0.225
  921TIP3   OH2 2707   3.597   0.563   0.887
  921TIP3    H1 2708   3.672   0.621   0.886
  921TIP3    H2 2709   3.522   0.620   0.905
  922TIP3   OH2 2710   4.491   5.573   4.726
  922TIP3    H1 2711   4.582   5.546   4.740
  922TIP3    H2 2712   4.487   5.663   4.758
  923TIP3   OH2 2713   5.684   5.180   2.688
  923TIP3    H1 2714   5.740   5.102   2.689
  923TIP3    H2 2715   5.603   5.150   2.647
  924TIP3   OH2 2716   5.206   3.731   2.688
  924TIP3    H1 2717   5.127   3.709   2.738
  924TIP3    H2 2718   5.220   3.824   2.705
  925TIP3   OH2 2719   5.232   6.557   1.573
  925TIP3    H1 2720   5.260   6.572   1.483
  925TIP3    H2 2721   5.313   6.557   1.624
  926TIP3   OH2 2722   3.155   1.630   5.906
  926TIP3    H1 2723   3.071   1.594   5.879
  926TIP3    H2 2724   3.159   1.715   5.861
  927TIP3   OH2 2725   5.182   7.640   0.998
  927TIP3    H1 2726   5.138   7.718   0.963
  927TIP3    H2 2727   5.266   7.672   1.028
  928TIP3   OH2 2728   4.699   0.456   4.194
  928TIP3    H1 2729   4.725   0.397   4.123
  928TIP3    H2 2730   4.620   0.498   4.163
  929TIP3   OH2 2731   5.773   4.376   3.728
  929TIP3    H1 2732   5.776   4.470   3.712
  929TIP3    H2 2733   5.686   4.361   3.766
  930TIP3   OH2 2734   2.398   5.263   2.808
  930TIP3    H1 2735   2.404   5.245   2.714
  930TIP3    H2 2736   2.488   5.284   2.834
  931TIP3   OH2 2737   7.154   3.947   5.236
  931TIP3    H1 2738   7.177   4.014   5.170
  931TIP3    H2 2739   7.063   3.966   5.259
  932TIP3   OH2 2740   0.386   4.569   1.770
  932TIP3    H1 2741   0.306   4.553   1.721
  932TIP3    H2 2742   0.453   4.584   1.703
  933TIP3   OH2 2743   7.673   5.158   0.911
  933TIP3    H1 2744   7.616   5.160   0.989
  933TIP3    H2 2745   7.753   5.203   0.939
  934TIP3   OH2 2746   0.777   2.089   3.017
  934TIP3    H1 2747   0.811   2.176   3.038
  934TIP3    H2 2748   0.696   2.083   3.068
  935TIP3   OH2 2749   1.475   4.208   5.364
  935TIP3    H1 2750   1.447   4.268   5.295
  935TIP3    H2 2751   1.393   4.172   5.398
  936TIP3   OH2 2752   4.142   0.072   1.338
  936TIP3    H1 2753   4.178   0.049   1.423
  936TIP3    H2 2754   4.100  -0.009   1.308
  937TIP3   OH2 2755   6.655   0.793   0.058
  937TIP3    H1 2756   6.674   0.877   0.099
  937TIP3    H2 2757   6.603   0.814  -0.019
  938TIP3   OH2 2758   7.996   5.332   5.774
  938TIP3    H1 2759   7.966   5.401   5.716
  938TIP3    H2 2760   8.067   5.372   5.824
  939TIP3   OH2 2761   2.731   4.003   1.203
  939TIP3    H1 2762   2.768   4.059   1.272
  939TIP3    H2 2763   2.690   3.931   1.250
  940TIP3   OH2 2764   5.107   5.396   1.852
  940TIP3    H1 2765   5.078   5.305   1.866
  940TIP3    H2 2766   5.035   5.449   1.886
  941TIP3   OH2 2767   4.879   1.196   2.172
  941TIP3    H1 2768   4.968   1.213   2.202
  941TIP3    H2 2769   4.838   1.149   2.245
  942TIP3   OH2 2770   6.393   3.424   5.868
  942TIP3    H1 2771   6.464   3.414   5.805
  942TIP3    H2 2772   6.391   3.517   5.887
  943TIP3   OH2 2773   0.140   1.677   3.806
  943TIP3    H1 2774   0.145   1.584   3.828
  943TIP3    H2 2775   0.173   1.722   3.883
  944TIP3   OH2 2776   6.452   1.074   1.820
  944TIP3    H1 2777   6.391   1.127   1.873
  944TIP3    H2 2778   6.400   1.046   1.745
  945TIP3   OH2 2779   6.846   2.996   6.599
  945TIP3    H1 2780   6.778   3.000   6.667
  945TIP3    H2 2781   6.905   2.927   6.628
  946TIP3   OH2 2782   6.395   2.575   3.271
  946TIP3    H1 2783   6.368   2.652   3.321
  946TIP3    H2 2784   6.406   2.506   3.336
  947TIP3   OH2 2785   5.783   1.002   3.172
  947TIP3    H1 2786   5.848   1.018   3.240
  947TIP3    H2 2787   5.712   0.956   3.216
  948TIP3   OH2 2788   3.972   1.233   2.662
  948TIP3    H1 2789   4.004   1.231   2.753
  948TIP3    H2 2790   3.905   1.164   2.659
  949TIP3   OH2 2791   7.946   1.447   4.968
  949TIP3    H1 2792   7.977   1.363   5.002
  949TIP3    H2 2793   7.915   1.428   4.880
  950TIP3   OH2 2794   5.989   3.315   2.857
  950TIP3    H1 2795   6.072   3.271   2.877
  950TIP3    H2 2796   5.924   3.270   2.912
  951TIP3   OH2 2797   5.349   5.283   2.836
  951TIP3    H1 2798   5.385   5.238   2.912
  951TIP3    H2 2799   5.353   5.376   2.860
  952TIP3   OH2 2800   5.468   6.671   2.986
  952TIP3    H1 2801   5.404   6.629   3.043
  952TIP3    H2 2802   5.553   6.642   3.019
  953TIP3   OH2 2803   4.313   6.749   4.467
  953TIP3    H1 2804   4.251   6.745   4.539
  953TIP3    H2 2805   4.399   6.749   4.509
  954TIP3   OH2 2806   3.644   3.917   2.712
  954TIP3    H1 2807   3.591   3.996   2.719
  954TIP3    H2 2808   3.701   3.932   2.636
  955TIP3   OH2 2809   2.046   3.812   5.669
  955TIP3    H1 2810   2.075   3.771   5.588
  955TIP3    H2 2811   2.119   3.798   5.730
  956TIP3   OH2 2812   1.883   6.626   3.346
  956TIP3    H1 2813   1.854   6.540   3.375
  956TIP3    H2 2814   1.834   6.642   3.265
  957TIP3   OH2 2815   2.966   4.884   6.540
  957TIP3    H1 2816   2.983   4.838   6.458
  957TIP3    H2 2817   2.986   4.976   6.521
  958TIP3   OH2 2818   0.307   3.385   2.929
  958TIP3    H1 2819   0.280   3.394   3.020
  958TIP3    H2 2820   0.369   3.312   2.929
  959TIP3   OH2 2821   7.771   1.617   4.640
  959TIP3    H1 2822   7.696   1.584   4.690
  959TIP3    H2 2823   7.799   1.695   4.688
  960TIP3   OH2 2824   6.967   3.598   3.284
  960TIP3    H1 2825   6.919   3.553   3.354
  960TIP3    H2 2826   6.925   3.569   3.203
  961TIP3   OH2 2827   7.892   3.606   3.936
  961TIP3    H1 2828   7.881   3.597   4.031
  961TIP3    H2 2829   7.945   3.684   3.926
  962TIP3   OH2 2830   7.402   2.023   4.675
  962TIP3    H1 2831   7.474   2.017   4.737
  962TIP3    H2 2832   7.426   1.962   4.605
  963TIP3   OH2 2833   7.049   6.819   4.679
  963TIP3    H1 2834   6.963   6.810   4.637
  963TIP3    H2 2835   7.101   6.748   4.640
  964TIP3   OH2 2836   3.477   5.753   2.921
  964TIP3    H1 2837   3.447   5.689   2.857
  964TIP3    H2 2838   3.547   5.709   2.968
  965TIP3   OH2 2839   7.490   5.448   0.487
  965TIP3    H1 2840   7.549   5.388   0.441
  965TIP3    H2 2841   7.534   5.466   0.569
  966TIP3   OH2 2842   6.713   5.910   6.271
  966TIP3    H1 2843   6.713   5.916   6.367
  966TIP3    H2 2844   6.631   5.867   6.249
  967TIP3   OH2 2845   5.730   6.612   5.855
  967TIP3    H1 2846   5.637   6.610   5.832
  967TIP3    H2 2847   5.747   6.703   5.882
  968TIP3   OH2 2848   3.451   3.724   2.322
  968TIP3    H1 2849   3.402   3.763   2.395
  968TIP3    H2 2850   3.525   3.783   2.308
  969TIP3   OH2 2851   7.496   6.970   6.553
  969TIP3    H1 2852   7.450   6.987   6.471
  969TIP3    H2 2853   7.516   6.877   6.551
  970TIP3   OH2 2854   6.397   5.770   6.696
  970TIP3    H1 2855   6.398   5.768   6.600
  970TIP3    H2 2856   6.418   5.861   6.718
  971TIP3   OH2 2857   1.671   4.971   4.216
  971TIP3    H1 2858   1.652   5.044   4.275
  971TIP3    H2 2859   1.591   4.919   4.216
  972TIP3   OH2 2860   6.039   6.393   1.646
  972TIP3    H1 2861   5.971   6.456   1.670
  972TIP3    H2 2862   6.045   6.334   1.721
  973TIP3   OH2 2863   5.943   2.286   5.062
  973TIP3    H1 2864   5.886   2.331   5.000
  973TIP3    H2 2865   5.985   2.356   5.112
  974TIP3   OH2 2866   3.595   3.168   0.098
  974TIP3    H1 2867   3.589   3.219   0.017
  974TIP3    H2 2868   3.556   3.083   0.075
  975TIP3   OH2 2869   4.278   0.476   1.762
  975TIP3    H1 2870   4.253   0.397   1.810
  975TIP3    H2 2871   4.209   0.539   1.781
  976TIP3   OH2 2872   5.027   6.935   3.546
  976TIP3    H1 2873   4.959   6.929   3.480
  976TIP3    H2 2874   4.980   6.955   3.627
  977TIP3   OH2 2875   0.988   3.285   0.855
  977TIP3    H1 2876   0.943   3.206   0.885
  977TIP3    H2 2877   1.047   3.255   0.785
  978TIP3   OH2 2878   5.990   4.569   1.305
  978TIP3    H1 2879   6.076   4.539   1.334
  978TIP3    H2 2880   5.978   4.528   1.219
  979TIP3   OH2 2881   7.353   4.417   0.134
  979TIP3    H1 2882   7.381   4.444   0.222
  979TIP3    H2 2883   7.354   4.322   0.137
  980TIP3   OH2 2884   2.405   4.203   3.358
  980TIP3    H1 2885   2.380   4.274   3.299
  980TIP3    H2 2886   2.488   4.171   3.324
  981TIP3   OH2 2887   1.145   3.886   3.603
  981TIP3    H1 2888   1.143   3.863   3.696
  981TIP3    H2 2889   1.055   3.876   3.574
  982TIP3   OH2 2890   6.589   2.623   6.211
  982TIP3    H1 2891   6.515   2.564   6.226
  982TIP3    H2 2892   6.635   2.625   6.295
  983TIP3   OH2 2893   0.532   5.227   0.317
  983TIP3    H1 2894   0.437   5.236   0.315
  983TIP3    H2 2895   0.560   5.292   0.382
  984TIP3   OH2 2896   3.945   0.197   5.369
  984TIP3    H1 2897   3.965   0.178   5.461
  984TIP3    H2 2898   3.851   0.184   5.362
  985TIP3   OH2 2899   0.398   6.153   5.772
  985TIP3    H1 2900   0.476   6.138   5.825
  985TIP3    H2 2901   0.326   6.118   5.824
  986TIP3   OH2 2902   1.541   6.047   0.209
  986TIP3    H1 2903   1.552   6.135   0.173
  986TIP3    H2 2904   1.621   6.031   0.259
  987TIP3   OH2 2905   7.570   7.180   0.084
  987TIP3    H1 2906   7.600   7.162   0.173
  987TIP3    H2 2907   7.528   7.098   0.056
  988TIP3   OH2 2908   5.280   3.622   5.544
  988TIP3    H1 2909   5.296   3.597   5.453
  988TIP3    H2 2910   5.326   3.705   5.555
  989TIP3   OH2 2911   7.473   1.093   2.543
  989TIP3    H1 2912   7.395   1.069   2.593
  989TIP3    H2 2913   7.528   1.015   2.546
  990TIP3   OH2 2914   2.546   6.399   5.436
  990TIP3    H1 2915   2.594   6.317   5.427
  990TIP3    H2 2916   2.614   6.465   5.451
  991TIP3   OH2 2917   0.516   3.691   6.609
  991TIP3    H1 2918   0.508   3.671   6.516
  991TIP3    H2 2919   0.476   3.616   6.654
  992TIP3   OH2 2920   7.894   4.778   1.273
  992TIP3    H1 2921   7.979   4.817   1.295
  992TIP3    H2 2922   7.838   4.800   1.347
  993TIP3   OH2 2923   3.051   5.753   6.093
  993TIP3    H1 2924   3.054   5.830   6.037
  993TIP3    H2 2925   3.089   5.782   6.176
  994TIP3   OH2 2926   7.504   7.069   3.626
  994TIP3    H1 2927   7.540   6.981   3.640
  994TIP3    H2 2928   7.414   7.063   3.658
  995TIP3   OH2 2929   1.290   7.046   5.057
  995TIP3    H1 2930   1.351   7.051   5.130
  995TIP3    H2 2931   1.282   7.136   5.026
  996TIP3   OH2 2932   1.825   2.823   5.896
  996TIP3    H1 2933   1.830   2.811   5.991
  996TIP3    H2 2934   1.853   2.914   5.882
  997TIP3   OH2 2935   3.365   5.032   5.952
  997TIP3    H1 2936   3.328   4.960   6.003
  997TIP3    H2 2937   3.433   4.991   5.898
  998TIP3   OH2 2938   5.691   1.638   6.401
  998TIP3    H1 2939   5.697   1.715   6.344
  998TIP3    H2 2940   5.774   1.637   6.449
  999TIP3   OH2 2941   1.015   7.579   2.489
  999TIP3    H1 2942   1.038   7.612   2.402
  999TIP3    H2 2943   1.096   7.588   2.540
 1000TIP3   OH2 2944   4.700   6.118   5.992
 1000TIP3    H1 2945   4.656   6.166   5.921
 1000TIP3    H2 2946   4.687   6.173   6.069
 1001TIP3   OH2 2947   0.108   5.824   3.343
 1001TIP3    H1 2948   0.159   5.896   3.307
 1001TIP3    H2 2949   0.164   5.747   3.334
 1002TIP3   OH2 2950   8.146   5.273   3.491
 1002TIP3    H1 2951   8.221   5.330   3.511
 1002TIP3    H2 2952   8.186   5.189   3.469
 1003TIP3   OH2 2953   7.044   6.361   6.054
 1003TIP3    H1 2954   7.119   6.412   6.024
 1003TIP3    H2 2955   6.979   6.371   5.986
 1004TIP3   OH2 2956   7.641   2.618   3.556
 1004TIP3    H1 2957   7.724   2.652   3.588
 1004TIP3    H2 2958   7.659   2.594   3.465
 1005TIP3   OH2 2959   6.496   1.210   6.519
 1005TIP3    H1 2960   6.419   1.256   6.485
 1005TIP3    H2 2961   6.472   1.117   6.514
 1006TIP3   OH2 2962   3.819   4.918   4.423
 1006TIP3    H1 2963   3.826   4.845   4.362
 1006TIP3    H2 2964   3.892   4.906   4.483
 1007TIP3   OH2 2965   3.501   6.018   3.434
 1007TIP3    H1 2966   3.506   6.006   3.339
 1007TIP3    H2 2967   3.526   6.109   3.448
 1008TIP3   OH2 2968   7.265   3.519   6.396
 1008TIP3    H1 2969   7.278   3.424   6.390
 1008TIP3    H2 2970   7.291   3.541   6.486
 1009TIP3   OH2 2971   6.278   1.466   3.094
 1009TIP3    H1 2972   6.285   1.561   3.084
 1009TIP3    H2 2973   6.185   1.449   3.102
 1010TIP3   OH2 2974   8.218   5.022   3.725
 1010TIP3    H1 2975   8.296   5.044   3.675
 1010TIP3    H2 2976   8.251   4.970   3.799
 1011TIP3   OH2 2977   6.047   3.823   2.611
 1011TIP3    H1 2978   6.135   3.792   2.636
 1011TIP3    H2 2979   6.018   3.761   2.544
 1012TIP3   OH2 2980   4.932   0.288   6.317
 1012TIP3    H1 2981   4.916   0.319   6.228
 1012TIP3    H2 2982   5.007   0.339   6.348
 1013TIP3   OH2 2983   5.410   0.969   4.112
 1013TIP3    H1 2984   5.443   0.983   4.200
 1013TIP3    H2 2985   5.379   0.878   4.112
 1014TIP3   OH2 2986   0.200   7.197   0.250
 1014TIP3    H1 2987   0.141   7.245   0.308
 1014TIP3    H2 2988   0.206   7.110   0.289
 1015TIP3   OH2 2989   3.972   4.932   6.251
 1015TIP3    H1 2990   3.969   4.898   6.162
 1015TIP3    H2 2991   4.046   4.888   6.292
 1016TIP3   OH2 2992   5.591   3.783   0.063
 1016TIP3    H1 2993   5.527   3.787  -0.007
 1016TIP3    H2 2994   5.554   3.837   0.133
 1017TIP3   OH2 2995   2.337   6.470   1.533
 1017TIP3    H1 2996   2.311   6.498   1.621
 1017TIP3    H2 2997   2.300   6.382   1.524
 1018TIP3   OH2 2998   3.349   3.006   6.403
 1018TIP3    H1 2999   3.324   3.081   6.458
 1018TIP3    H2 3000   3.266   2.974   6.368
 1019TIP3   OH2 3001   5.614   6.021   1.427
 1019TIP3    H1 3002   5.599   5.926   1.436
 1019TIP3    H2 3003   5.659   6.031   1.343
 1020TIP3   OH2 3004   3.469   0.323   5.431
 1020TIP3    H1 3005   3.461   0.287   5.520
 1020TIP3    H2 3006   3.409   0.398   5.431
 1021TIP3   OH2 3007   3.658   2.118   4.127
 1021TIP3    H1 3008   3.575   2.155   4.159
 1021TIP3    H2 3009   3.685   2.058   4.196
 1022TIP3   OH2 3010   0.189   2.714   4.388
 1022TIP3    H1 3011   0.252   2.756   4.329
 1022TIP3    H2 3012   0.136   2.659   4.331
 1023TIP3   OH2 3013   5.790   7.766   0.620
 1023TIP3    H1 3014   5.700   7.739   0.636
 1023TIP3    H2 3015   5.784   7.861   0.606
 1024TIP3   OH2 3016   2.063   2.525   5.977
 1024TIP3    H1 3017   2.134   2.545   6.039
 1024TIP3    H2 3018   2.087   2.574   5.898
 1025TIP3   OH2 3019   0.295   1.175   5.654
 1025TIP3    H1 3020   0.280   1.175   5.749
 1025TIP3    H2 3021   0.290   1.082   5.630
 1026TIP3   OH2 3022   2.197   5.870   3.989
 1026TIP3    H1 3023   2.175   5.784   4.025
 1026TIP3    H2 3024   2.212   5.854   3.896
 1027TIP3   OH2 3025   6.944   1.867   1.491
 1027TIP3    H1 3026   6.882   1.796   1.508
 1027TIP3    H2 3027   7.010   1.858   1.559
 1028TIP3   OH2 3028   6.171   6.196   6.020
 1028TIP3    H1 3029   6.178   6.187   5.925
 1028TIP3    H2 3030   6.135   6.284   6.033
 1029TIP3   OH2 3031   6.324   4.335   2.559
 1029TIP3    H1 3032   6.323   4.240   2.544
 1029TIP3    H2 3033   6.328   4.373   2.472
 1030TIP3   OH2 3034   4.758   4.734   5.784
 1030TIP3    H1 3035   4.841   4.754   5.828
 1030TIP3    H2 3036   4.770   4.766   5.695
 1031TIP3   OH2 3037   7.518   4.506   4.720
 1031TIP3    H1 3038   7.438   4.513   4.667
 1031TIP3    H2 3039   7.587   4.485   4.657
 1032TIP3   OH2 3040   3.285   5.644   1.000
 1032TIP3    H1 3041   3.333   5.572   1.041
 1032TIP3    H2 3042   3.335   5.723   1.023
 1033TIP3   OH2 3043   4.137   2.363   1.476
 1033TIP3    H1 3044   4.049   2.379   1.509
 1033TIP3    H2 3045   4.191   2.429   1.520
 1034TIP3   OH2 3046   1.493   3.643   5.041
 1034TIP3    H1 3047   1.451   3.689   4.968
 1034TIP3    H2 3048   1.420   3.604   5.090
 1035TIP3   OH2 3049   6.863   1.509   6.357
 1035TIP3    H1 3050   6.809   1.439   6.320
 1035TIP3    H2 3051   6.823   1.529   6.441
 1036TIP3   OH2 3052   1.450   1.797   1.798
 1036TIP3    H1 3053   1.358   1.775   1.780
 1036TIP3    H2 3054   1.500   1.728   1.755
 1037TIP3   OH2 3055   1.090   4.152   5.290
 1037TIP3    H1 3056   1.141   4.125   5.366
 1037TIP3    H2 3057   1.102   4.246   5.285
 1038TIP3   OH2 3058   4.153   0.387   4.475
 1038TIP3    H1 3059   4.152   0.350   4.563
 1038TIP3    H2 3060   4.073   0.354   4.435
 1039TIP3   OH2 3061   6.536   4.166   6.429
 1039TIP3    H1 3062   6.481   4.212   6.492
 1039TIP3    H2 3063   6.577   4.236   6.378
 1040TIP3   OH2 3064   4.090   5.547   3.985
 1040TIP3    H1 3065   4.062   5.622   4.037
 1040TIP3    H2 3066   4.091   5.474   4.046
 1041TIP3   OH2 3067   4.316   4.029   3.627
 1041TIP3    H1 3068   4.294   3.936   3.631
 1041TIP3    H2 3069   4.260   4.069   3.694
 1042TIP3   OH2 3070   1.050   3.908   1.195
 1042TIP3    H1 3071   1.076   3.970   1.127
 1042TIP3    H2 3072   0.954   3.906   1.191
 1043TIP3   OH2 3073   1.094   5.507   0.550
 1043TIP3    H1 3074   1.141   5.438   0.504
 1043TIP3    H2 3075   1.160   5.573   0.570
 1044TIP3   OH2 3076   7.858   2.559   2.063
 1044TIP3    H1 3077   7.846   2.645   2.103
 1044TIP3    H2 3078   7.808   2.499   2.120
 1045TIP3   OH2 3079   7.223   6.284   2.877
 1045TIP3    H1 3080   7.268   6.340   2.814
 1045TIP3    H2 3081   7.146   6.252   2.831
 1046TIP3   OH2 3082   5.932   3.391   1.166
 1046TIP3    H1 3083   5.869   3.435   1.224
 1046TIP3    H2 3084   5.879   3.328   1.117
 1047TIP3   OH2 3085   3.680   3.943   3.765
 1047TIP3    H1 3086   3.669   3.958   3.859
 1047TIP3    H2 3087   3.770   3.911   3.756
 1048TIP3   OH2 3088   3.447   0.898   0.170
 1048TIP3    H1 3089   3.459   0.978   0.118
 1048TIP3    H2 3090   3.369   0.857   0.133
 1049TIP3   OH2 3091   4.168   1.980   3.551
 1049TIP3    H1 3092   4.202   2.031   3.477
 1049TIP3    H2 3093   4.246   1.945   3.594
 1050TIP3   OH2 3094   6.626   3.522   1.125
 1050TIP3    H1 3095   6.588   3.457   1.066
 1050TIP3    H2 3096   6.710   3.544   1.084
 1051TIP3   OH2 3097   3.300   5.189   4.442
 1051TIP3    H1 3098   3.235   5.231   4.385
 1051TIP3    H2 3099   3.372   5.252   4.446
 1052TIP3   OH2 3100   1.681   7.554   3.951
 1052TIP3    H1 3101   1.613   7.603   3.904
 1052TIP3    H2 3102   1.634   7.484   3.996
 1053TIP3   OH2 3103   0.110   5.007   0.223
 1053TIP3    H1 3104   0.024   4.969   0.205
 1053TIP3    H2 3105   0.172   4.934   0.212
 1054TIP3   OH2 3106   6.066   2.837   5.181
 1054TIP3    H1 3107   6.087   2.786   5.103
 1054TIP3    H2 3108   6.147   2.837   5.232
 1055TIP3   OH2 3109   6.250   7.467   1.499
 1055TIP3    H1 3110   6.338   7.445   1.469
 1055TIP3    H2 3111   6.197   7.465   1.419
 1056TIP3   OH2 3112   3.716   5.638   2.993
 1056TIP3    H1 3113   3.748   5.645   3.083
 1056TIP3    H2 3114   3.765   5.704   2.944
 1057TIP3   OH2 3115   6.858   4.149   3.719
 1057TIP3    H1 3116   6.910   4.069   3.724
 1057TIP3    H2 3117   6.843   4.161   3.625
 1058TIP3   OH2 3118   5.752   3.191   6.394
 1058TIP3    H1 3119   5.802   3.147   6.463
 1058TIP3    H2 3120   5.746   3.282   6.424
 1059TIP3   OH2 3121   7.407   2.022   0.955
 1059TIP3    H1 3122   7.349   1.950   0.976
 1059TIP3    H2 3123   7.407   2.076   1.034
 1060TIP3   OH2 3124   0.651   3.287   5.580
 1060TIP3    H1 3125   0.738   3.254   5.598
 1060TIP3    H2 3126   0.659   3.334   5.497
 1061TIP3   OH2 3127   8.136   4.699   5.690
 1061TIP3    H1 3128   8.134   4.777   5.634
 1061TIP3    H2 3129   8.128   4.734   5.779
 1062TIP3   OH2 3130   8.101   0.155   2.695
 1062TIP3    H1 3131   8.192   0.162   2.726
 1062TIP3    H2 3132   8.108   0.166   2.600
 1063TIP3   OH2 3133   1.828   7.584   3.515
 1063TIP3    H1 3134   1.883   7.573   3.593
 1063TIP3    H2 3135   1.751   7.530   3.531
 1064TIP3   OH2 3136   5.387   2.176   4.581
 1064TIP3    H1 3137   5.337   2.234   4.523
 1064TIP3    H2 3138   5.404   2.098   4.528
 1065TIP3   OH2 3139   4.529   4.226   3.644
 1065TIP3    H1 3140   4.543   4.133   3.660
 1065TIP3    H2 3141   4.614   4.267   3.661
 1066TIP3   OH2 3142   7.759   3.661   2.318
 1066TIP3    H1 3143   7.730   3.739   2.272
 1066TIP3    H2 3144   7.774   3.691   2.408
 1067TIP3   OH2 3145   0.193   0.198   3.065
 1067TIP3    H1 3146   0.284   0.221   3.051
 1067TIP3    H2 3147   0.149   0.281   3.085
 1068TIP3   OH2 3148   1.954   4.398   5.269
 1068TIP3    H1 3149   1.930   4.432   5.183
 1068TIP3    H2 3150   1.893   4.325   5.284
 1069TIP3   OH2 3151   1.925   1.557   3.995
 1069TIP3    H1 3152   1.990   1.533   3.928
 1069TIP3    H2 3153   1.858   1.604   3.946
 1070TIP3   OH2 3154   7.729   5.169   4.681
 1070TIP3    H1 3155   7.671   5.133   4.748
 1070TIP3    H2 3156   7.791   5.224   4.730
 1071TIP3   OH2 3157   3.182   0.487   0.914
 1071TIP3    H1 3158   3.216   0.539   0.987
 1071TIP3    H2 3159   3.193   0.396   0.942
 1072TIP3   OH2 3160   2.713   4.918   1.320
 1072TIP3    H1 3161   2.687   4.983   1.386
 1072TIP3    H2 3162   2.654   4.844   1.335
 1073TIP3   OH2 3163   4.791   3.657   5.221
 1073TIP3    H1 3164   4.715   3.615   5.262
 1073TIP3    H2 3165   4.855   3.665   5.292
 1074TIP3   OH2 3166   4.366   7.588   0.137
 1074TIP3    H1 3167   4.323   7.646   0.074
 1074TIP3    H2 3168   4.363   7.502   0.096
 1075TIP3   OH2 3169   8.337   3.333   3.364
 1075TIP3    H1 3170   8.266   3.270   3.367
 1075TIP3    H2 3171   8.294   3.419   3.368
 1076TIP3   OH2 3172   7.166   3.630   4.744
 1076TIP3    H1 3173   7.166   3.536   4.762
 1076TIP3    H2 3174   7.254   3.659   4.769
 1077TIP3   OH2 3175   3.943   1.589   4.496
 1077TIP3    H1 3176   3.866   1.645   4.490
 1077TIP3    H2 3177   3.917   1.507   4.455
 1078TIP3   OH2 3178   6.493   6.755   1.622
 1078TIP3    H1 3179   6.420   6.811   1.597
 1078TIP3    H2 3180   6.461   6.703   1.696
 1079TIP3   OH2 3181   0.478  -0.035   1.034
 1079TIP3    H1 3182   0.558  -0.021   1.084
 1079TIP3    H2 3183   0.507  -0.077   0.953
 1080TIP3   OH2 3184   2.838   4.568   3.883
 1080TIP3    H1 3185   2.752   4.602   3.908
 1080TIP3    H2 3186   2.820   4.498   3.820
 1081TIP3   OH2 3187   0.812   6.625   1.561
 1081TIP3    H1 3188   0.741   6.666   1.611
 1081TIP3    H2 3189   0.889   6.678   1.582
 1082TIP3   OH2 3190   3.576   5.716   3.422
 1082TIP3    H1 3191   3.532   5.791   3.463
 1082TIP3    H2 3192   3.510   5.678   3.365
 1083TIP3   OH2 3193   0.675   0.625   0.161
 1083TIP3    H1 3194   0.580   0.617   0.159
 1083TIP3    H2 3195   0.694   0.707   0.115
 1084TIP3   OH2 3196   0.408   5.270   2.311
 1084TIP3    H1 3197   0.458   5.308   2.384
 1084TIP3    H2 3198   0.349   5.340   2.283
 1085TIP3   OH2 3199   5.663   3.548   3.972
 1085TIP3    H1 3200   5.743   3.576   3.926
 1085TIP3    H2 3201   5.678   3.574   4.063
 1086TIP3   OH2 3202   0.896   5.862   2.352
 1086TIP3    H1 3203   0.903   5.931   2.417
 1086TIP3    H2 3204   0.832   5.800   2.390
 1087TIP3   OH2 3205   3.581   6.472   1.820
 1087TIP3    H1 3206   3.649   6.532   1.787
 1087TIP3    H2 3207   3.617   6.440   1.903
 1088TIP3   OH2 3208   0.324   3.136   2.199
 1088TIP3    H1 3209   0.366   3.056   2.230
 1088TIP3    H2 3210   0.302   3.118   2.108
 1089TIP3   OH2 3211   7.867   3.883   2.836
 1089TIP3    H1 3212   7.781   3.923   2.848
 1089TIP3    H2 3213   7.875   3.820   2.907
 1090TIP3   OH2 3214   4.351   3.678   1.152
 1090TIP3    H1 3215   4.301   3.682   1.070
 1090TIP3    H2 3216   4.415   3.749   1.144
 1091TIP3   OH2 3217   7.195   1.880   1.330
 1091TIP3    H1 3218   7.210   1.870   1.236
 1091TIP3    H2 3219   7.158   1.968   1.340
 1092TIP3   OH2 3220   4.305   0.872   3.882
 1092TIP3    H1 3221   4.227   0.882   3.827
 1092TIP3    H2 3222   4.275   0.820   3.956
 1093TIP3   OH2 3223   0.722   5.696   3.831
 1093TIP3    H1 3224   0.731   5.603   3.811
 1093TIP3    H2 3225   0.792   5.714   3.893
 1094TIP3   OH2 3226   1.557   6.162   6.727
 1094TIP3    H1 3227   1.475   6.112   6.736
 1094TIP3    H2 3228   1.578   6.157   6.634
 1095TIP3   OH2 3229   7.790   7.274   5.449
 1095TIP3    H1 3230   7.705   7.298   5.412
 1095TIP3    H2 3231   7.820   7.201   5.396
 1096TIP3   OH2 3232   2.816   7.679   2.439
 1096TIP3    H1 3233   2.835   7.767   2.470
 1096TIP3    H2 3234   2.901   7.637   2.431
 1097TIP3   OH2 3235   5.686   6.284   2.498
 1097TIP3    H1 3236   5.645   6.199   2.518
 1097TIP3    H2 3237   5.705   6.280   2.404
 1098TIP3   OH2 3238   4.868   6.108   3.974
 1098TIP3    H1 3239   4.802   6.039   3.983
 1098TIP3    H2 3240   4.880   6.116   3.879
 1099TIP3   OH2 3241   1.320   1.778   0.926
 1099TIP3    H1 3242   1.298   1.833   0.851
 1099TIP3    H2 3243   1.248   1.791   0.988
 1100TIP3   OH2 3244   7.539   4.295   6.270
 1100TIP3    H1 3245   7.451   4.285   6.304
 1100TIP3    H2 3246   7.593   4.236   6.323
 1101TIP3   OH2 3247   4.141   1.608   1.316
 1101TIP3    H1 3248   4.177   1.696   1.325
 1101TIP3    H2 3249   4.181   1.559   1.388
 1102TIP3   OH2 3250   3.428   0.060   6.383
 1102TIP3    H1 3251   3.500   0.100   6.431
 1102TIP3    H2 3252   3.396   0.129   6.325
 1103TIP3   OH2 3253   4.382   2.440   4.849
 1103TIP3    H1 3254   4.341   2.504   4.907
 1103TIP3    H2 3255   4.329   2.362   4.859
 1104TIP3   OH2 3256   3.031   3.207   3.397
 1104TIP3    H1 3257   3.069   3.290   3.426
 1104TIP3    H2 3258   3.047   3.146   3.469
 1105TIP3   OH2 3259   1.669   2.285   5.675
 1105TIP3    H1 3260   1.586   2.239   5.662
 1105TIP3    H2 3261   1.721   2.225   5.729
 1106TIP3   OH2 3262   7.695   6.475   5.777
 1106TIP3    H1 3263   7.780   6.517   5.782
 1106TIP3    H2 3264   7.636   6.535   5.823
 1107TIP3   OH2 3265   1.882   3.331   1.149
 1107TIP3    H1 3266   1.959   3.328   1.205
 1107TIP3    H2 3267   1.902   3.270   1.077
 1108TIP3   OH2 3268   0.207   0.841   0.002
 1108TIP3    H1 3269   0.205   0.894  -0.078
 1108TIP3    H2 3270   0.160   0.893   0.067
 1109TIP3   OH2 3271   3.353   6.693   6.626
 1109TIP3    H1 3272   3.434   6.739   6.605
 1109TIP3    H2 3273   3.353   6.615   6.571
 1110TIP3   OH2 3274   6.048   4.993   6.026
 1110TIP3    H1 3275   6.061   4.923   5.962
 1110TIP3    H2 3276   5.986   5.053   5.983
 1111TIP3   OH2 3277   3.830   4.011   3.405
 1111TIP3    H1 3278   3.903   3.990   3.463
 1111TIP3    H2 3279   3.753   3.974   3.448
 1112TIP3   OH2 3280   3.299   0.537   1.218
 1112TIP3    H1 3281   3.252   0.606   1.170
 1112TIP3    H2 3282   3.365   0.585   1.268
 1113TIP3   OH2 3283   0.648   3.563   4.450
 1113TIP3    H1 3284   0.618   3.593   4.536
 1113TIP3    H2 3285   0.567   3.548   4.401
 1114TIP3   OH2 3286   4.140   1.918   1.260
 1114TIP3    H1 3287   4.216   1.922   1.318
 1114TIP3    H2 3288   4.075   1.976   1.301
 1115TIP3   OH2 3289   3.376   5.900   5.406
 1115TIP3    H1 3290   3.432   5.958   5.355
 1115TIP3    H2 3291   3.366   5.944   5.490
 1116TIP3   OH2 3292   0.432   0.133   2.062
 1116TIP3    H1 3293   0.362   0.072   2.039
 1116TIP3    H2 3294   0.387   0.215   2.083
 1117TIP3   OH2 3295   1.488   2.095   0.201
 1117TIP3    H1 3296   1.522   2.026   0.259
 1117TIP3    H2 3297   1.509   2.065   0.113
 1118TIP3   OH2 3298   2.441   6.142   6.129
 1118TIP3    H1 3299   2.494   6.218   6.154
 1118TIP3    H2 3300   2.368   6.142   6.191
 1119TIP3   OH2 3301   7.492   7.100   4.165
 1119TIP3    H1 3302   7.568   7.095   4.222
 1119TIP3    H2 3303   7.461   7.191   4.174
 1120TIP3   OH2 3304   7.482   6.491   2.943
 1120TIP3    H1 3305   7.501   6.561   2.881
 1120TIP3    H2 3306   7.503   6.528   3.028
 1121TIP3   OH2 3307   8.143   4.685   0.614
 1121TIP3    H1 3308   8.184   4.769   0.592
 1121TIP3    H2 3309   8.079   4.706   0.682
 1122TIP3   OH2 3310   0.134   3.081   3.336
 1122TIP3    H1 3311   0.100   3.168   3.358
 1122TIP3    H2 3312   0.103   3.065   3.247
 1123TIP3   OH2 3313   5.095   6.451   3.519
 1123TIP3    H1 3314   5.035   6.485   3.453
 1123TIP3    H2 3315   5.179   6.446   3.474
 1124TIP3   OH2 3316   6.500   1.426   0.710
 1124TIP3    H1 3317   6.535   1.512   0.689
 1124TIP3    H2 3318   6.577   1.372   0.728
 1125TIP3   OH2 3319   6.022   4.626   1.998
 1125TIP3    H1 3320   5.995   4.718   2.000
 1125TIP3    H2 3321   5.940   4.577   2.001
 1126TIP3   OH2 3322   3.265   4.055   2.139
 1126TIP3    H1 3323   3.241   4.076   2.229
 1126TIP3    H2 3324   3.316   4.130   2.109
 1127TIP3   OH2 3325   4.786   7.101   0.833
 1127TIP3    H1 3326   4.748   7.026   0.878
 1127TIP3    H2 3327   4.712   7.155   0.807
 1128TIP3   OH2 3328   6.224   4.776   4.216
 1128TIP3    H1 3329   6.284   4.764   4.290
 1128TIP3    H2 3330   6.261   4.849   4.167
 1129TIP3   OH2 3331   7.582   7.401   2.187
 1129TIP3    H1 3332   7.638   7.352   2.247
 1129TIP3    H2 3333   7.642   7.439   2.123
 1130TIP3   OH2 3334   7.153   6.157   0.587
 1130TIP3    H1 3335   7.211   6.213   0.536
 1130TIP3    H2 3336   7.065   6.178   0.556
 1131TIP3   OH2 3337   5.433   6.699   5.030
 1131TIP3    H1 3338   5.507   6.637   5.034
 1131TIP3    H2 3339   5.387   6.686   5.112
 1132TIP3   OH2 3340   8.217   2.194   6.100
 1132TIP3    H1 3341   8.266   2.237   6.030
 1132TIP3    H2 3342   8.153   2.139   6.055
 1133TIP3   OH2 3343   5.628   5.846   1.828
 1133TIP3    H1 3344   5.564   5.839   1.898
 1133TIP3    H2 3345   5.625   5.761   1.784
 1134TIP3   OH2 3346   1.664   5.483   6.153
 1134TIP3    H1 3347   1.739   5.432   6.183
 1134TIP3    H2 3348   1.591   5.421   6.155
 1135TIP3   OH2 3349   7.438   3.320   3.444
 1135TIP3    H1 3350   7.343   3.307   3.439
 1135TIP3    H2 3351   7.475   3.232   3.436
 1136TIP3   OH2 3352   2.895   6.276   0.015
 1136TIP3    H1 3353   2.946   6.357   0.011
 1136TIP3    H2 3354   2.870   6.268   0.107
 1137TIP3   OH2 3355   5.343   7.148   1.129
 1137TIP3    H1 3356   5.268   7.153   1.188
 1137TIP3    H2 3357   5.419   7.144   1.187
 1138TIP3   OH2 3358   1.643   1.472   6.573
 1138TIP3    H1 3359   1.630   1.406   6.641
 1138TIP3    H2 3360   1.731   1.505   6.589
 1139TIP3   OH2 3361   2.290   1.338   3.855
 1139TIP3    H1 3362   2.368   1.288   3.879
 1139TIP3    H2 3363   2.277   1.398   3.929
 1140TIP3   OH2 3364   0.507   2.333   3.733
 1140TIP3    H1 3365   0.454   2.400   3.777
 1140TIP3    H2 3366   0.452   2.254   3.734
 1141TIP3   OH2 3367   6.225   3.887   3.916
 1141TIP3    H1 3368   6.175   3.927   3.987
 1141TIP3    H2 3369   6.159   3.871   3.848
 1142TIP3   OH2 3370   7.071   3.381   6.228
 1142TIP3    H1 3371   7.020   3.364   6.307
 1142TIP3    H2 3372   7.128   3.454   6.251
 1143TIP3   OH2 3373   3.404   6.101   6.155
 1143TIP3    H1 3374   3.407   6.193   6.182
 1143TIP3    H2 3375   3.415   6.103   6.060
 1144TIP3   OH2 3376   7.029   2.290   1.905
 1144TIP3    H1 3377   7.030   2.385   1.893
 1144TIP3    H2 3378   7.079   2.275   1.985
 1145TIP3   OH2 3379   3.851   5.144   4.252
 1145TIP3    H1 3380   3.884   5.101   4.173
 1145TIP3    H2 3381   3.811   5.073   4.302
 1146TIP3   OH2 3382   6.733   1.265   0.065
 1146TIP3    H1 3383   6.642   1.289   0.048
 1146TIP3    H2 3384   6.785   1.330   0.017
 1147TIP3   OH2 3385   5.446   1.155   6.312
 1147TIP3    H1 3386   5.476   1.121   6.227
 1147TIP3    H2 3387   5.486   1.242   6.318
 1148TIP3   OH2 3388   3.915   4.300   4.274
 1148TIP3    H1 3389   3.877   4.354   4.344
 1148TIP3    H2 3390   4.006   4.286   4.301
 1149TIP3   OH2 3391   0.992   1.910   0.024
 1149TIP3    H1 3392   1.007   2.004   0.014
 1149TIP3    H2 3393   0.921   1.904   0.088
 1150TIP3   OH2 3394   2.263   5.934   3.148
 1150TIP3    H1 3395   2.303   5.871   3.088
 1150TIP3    H2 3396   2.273   5.894   3.235
 1151TIP3   OH2 3397   8.088   7.711   4.314
 1151TIP3    H1 3398   8.136   7.775   4.366
 1151TIP3    H2 3399   8.051   7.650   4.378
 1152TIP3   OH2 3400   3.268   5.987   1.258
 1152TIP3    H1 3401   3.322   5.976   1.180
 1152TIP3    H2 3402   3.330   6.010   1.328
 1153TIP3   OH2 3403   0.110   7.020   2.672
 1153TIP3    H1 3404   0.186   7.056   2.717
 1153TIP3    H2 3405   0.041   7.019   2.738
 1154TIP3   OH2 3406   5.907   1.393   5.758
 1154TIP3    H1 3407   5.911   1.488   5.755
 1154TIP3    H2 3408   5.966   1.369   5.830
 1155TIP3   OH2 3409   5.018   6.512   6.606
 1155TIP3    H1 3410   4.937   6.529   6.558
 1155TIP3    H2 3411   5.010   6.421   6.635
 1156TIP3   OH2 3412   5.526   7.496   4.653
 1156TIP3    H1 3413   5.583   7.455   4.718
 1156TIP3    H2 3414   5.578   7.569   4.619
 1157TIP3   OH2 3415   0.283   3.272   1.640
 1157TIP3    H1 3416   0.224   3.344   1.660
 1157TIP3    H2 3417   0.356   3.313   1.594
 1158TIP3   OH2 3418   5.136   1.373   4.082
 1158TIP3    H1 3419   5.082   1.379   4.161
 1158TIP3    H2 3420   5.221   1.409   4.109
 1159TIP3   OH2 3421   3.579   1.297   1.905
 1159TIP3    H1 3422   3.627   1.349   1.969
 1159TIP3    H2 3423   3.603   1.207   1.924
 1160TIP3   OH2 3424   0.830   6.173   2.262
 1160TIP3    H1 3425   0.855   6.163   2.353
 1160TIP3    H2 3426   0.740   6.205   2.265
 1161TIP3   OH2 3427   1.465   2.582   2.134
 1161TIP3    H1 3428   1.489   2.644   2.065
 1161TIP3    H2 3429   1.543   2.528   2.146
 1162TIP3   OH2 3430   1.602   6.769   1.145
 1162TIP3    H1 3431   1.530   6.771   1.209
 1162TIP3    H2 3432   1.579   6.836   1.081
 1163TIP3   OH2 3433   4.840   7.027   6.349
 1163TIP3    H1 3434   4.833   7.095   6.416
 1163TIP3    H2 3435   4.932   7.031   6.322
 1164TIP3   OH2 3436   5.601   0.260   0.352
 1164TIP3    H1 3437   5.576   0.285   0.441
 1164TIP3    H2 3438   5.523   0.220   0.315
 1165TIP3   OH2 3439   3.168   4.145   5.330
 1165TIP3    H1 3440   3.232   4.108   5.270
 1165TIP3    H2 3441   3.178   4.240   5.320
 1166TIP3   OH2 3442   4.607   3.629   6.444
 1166TIP3    H1 3443   4.649   3.547   6.418
 1166TIP3    H2 3444   4.556   3.607   6.522
 1167TIP3   OH2 3445   0.225   5.685   2.329
 1167TIP3    H1 3446   0.163   5.749   2.293
 1167TIP3    H2 3447   0.277   5.734   2.393
 1168TIP3   OH2 3448   6.958   6.604   2.372
 1168TIP3    H1 3449   6.919   6.690   2.390
 1168TIP3    H2 3450   6.933   6.585   2.282
 1169TIP3   OH2 3451   3.160   6.694   0.163
 1169TIP3    H1 3452   3.238   6.733   0.125
 1169TIP3    H2 3453   3.181   6.681   0.256
 1170TIP3   OH2 3454   4.702   6.906   1.090
 1170TIP3    H1 3455   4.708   6.824   1.139
 1170TIP3    H2 3456   4.609   6.914   1.070
 1171TIP3   OH2 3457   0.480   3.468   5.810
 1171TIP3    H1 3458   0.547   3.534   5.826
 1171TIP3    H2 3459   0.489   3.446   5.717
 1172TIP3   OH2 3460   1.881   6.439   4.548
 1172TIP3    H1 3461   1.812   6.379   4.578
 1172TIP3    H2 3462   1.951   6.382   4.518
 1173TIP3   OH2 3463   5.169   3.442   4.855
 1173TIP3    H1 3464   5.156   3.449   4.950
 1173TIP3    H2 3465   5.101   3.497   4.818
 1174TIP3   OH2 3466   6.978   5.778   0.554
 1174TIP3    H1 3467   6.963   5.810   0.643
 1174TIP3    H2 3468   6.971   5.683   0.562
 1175TIP3   OH2 3469   6.982   5.842   0.826
 1175TIP3    H1 3470   6.887   5.843   0.840
 1175TIP3    H2 3471   7.007   5.934   0.834
 1176TIP3   OH2 3472   5.521   3.331   6.011
 1176TIP3    H1 3473   5.553   3.420   5.996
 1176TIP3    H2 3474   5.593   3.275   5.983
 1177TIP3   OH2 3475   4.377   4.531   2.427
 1177TIP3    H1 3476   4.465   4.523   2.465
 1177TIP3    H2 3477   4.336   4.446   2.443
 1178TIP3   OH2 3478   5.115   7.189   5.791
 1178TIP3    H1 3479   5.053   7.155   5.726
 1178TIP3    H2 3480   5.199   7.186   5.747
 1179TIP3   OH2 3481   4.392   1.799   1.064
 1179TIP3    H1 3482   4.312   1.824   1.017
 1179TIP3    H2 3483   4.396   1.859   1.138
 1180TIP3   OH2 3484   0.385   6.603   4.448
 1180TIP3    H1 3485   0.311   6.638   4.398
 1180TIP3    H2 3486   0.462   6.646   4.411
 1181TIP3   OH2 3487   5.557   7.180   6.003
 1181TIP3    H1 3488   5.471   7.211   6.030
 1181TIP3    H2 3489   5.547   7.084   6.000
 1182TIP3   OH2 3490   5.697   5.251   3.325
 1182TIP3    H1 3491   5.646   5.314   3.274
 1182TIP3    H2 3492   5.638   5.225   3.396
 1183TIP3   OH2 3493   0.219   1.085   1.800
 1183TIP3    H1 3494   0.219   1.008   1.744
 1183TIP3    H2 3495   0.264   1.056   1.880
 1184TIP3   OH2 3496   1.904   6.812   3.566
 1184TIP3    H1 3497   1.933   6.903   3.575
 1184TIP3    H2 3498   1.876   6.805   3.474
 1185TIP3   OH2 3499   4.490   2.921   4.572
 1185TIP3    H1 3500   4.395   2.906   4.578
 1185TIP3    H2 3501   4.522   2.851   4.515
 1186TIP3   OH2 3502   2.446   5.919   2.279
 1186TIP3    H1 3503   2.518   5.982   2.290
 1186TIP3    H2 3504   2.376   5.954   2.334
 1187TIP3   OH2 3505   3.759   6.348   2.014
 1187TIP3    H1 3506   3.774   6.260   1.980
 1187TIP3    H2 3507   3.846   6.388   2.015
 1188TIP3   OH2 3508   1.403   2.544   2.440
 1188TIP3    H1 3509   1.416   2.578   2.351
 1188TIP3    H2 3510   1.308   2.547   2.453
 1189TIP3   OH2 3511   6.880   0.751   5.492
 1189TIP3    H1 3512   6.969   0.717   5.482
 1189TIP3    H2 3513   6.891   0.842   5.520
 1190TIP3   OH2 3514   1.262   4.339   2.760
 1190TIP3    H1 3515   1.214   4.420   2.743
 1190TIP3    H2 3516   1.336   4.341   2.700
 1191TIP3   OH2 3517   0.148   7.014   1.913
 1191TIP3    H1 3518   0.083   7.032   1.981
 1191TIP3    H2 3519   0.127   7.076   1.843
 1192TIP3   OH2 3520   7.927   0.440   6.135
 1192TIP3    H1 3521   7.949   0.410   6.223
 1192TIP3    H2 3522   8.001   0.413   6.081
 1193TIP3   OH2 3523   5.200   4.095   4.939
 1193TIP3    H1 3524   5.220   4.184   4.911
 1193TIP3    H2 3525   5.261   4.077   5.010
 1194TIP3   OH2 3526   8.352   5.806   4.728
 1194TIP3    H1 3527   8.283   5.766   4.676
 1194TIP3    H2 3528   8.358   5.896   4.695
 1195TIP3   OH2 3529   7.967   7.563   3.353
 1195TIP3    H1 3530   7.926   7.561   3.267
 1195TIP3    H2 3531   7.897   7.540   3.414
 1196TIP3   OH2 3532   2.160   1.838   0.401
 1196TIP3    H1 3533   2.247   1.797   0.396
 1196TIP3    H2 3534   2.178   1.930   0.421
 1197TIP3   OH2 3535   6.833   5.658   3.613
 1197TIP3    H1 3536   6.858   5.748   3.634
 1197TIP3    H2 3537   6.850   5.650   3.519
 1198TIP3   OH2 3538   5.396   6.571   1.006
 1198TIP3    H1 3539   5.473   6.573   0.949
 1198TIP3    H2 3540   5.322   6.583   0.948
 1199TIP3   OH2 3541   3.728   2.580   0.699
 1199TIP3    H1 3542   3.744   2.672   0.675
 1199TIP3    H2 3543   3.802   2.532   0.661
 1200TIP3   OH2 3544   7.591   1.265   0.423
 1200TIP3    H1 3545   7.608   1.311   0.341
 1200TIP3    H2 3546   7.673   1.218   0.441
 1201TIP3   OH2 3547   0.954   7.770   0.298
 1201TIP3    H1 3548   0.917   7.836   0.356
 1201TIP3    H2 3549   1.044   7.757   0.330
 1202TIP3   OH2 3550   6.479   1.737   0.835
 1202TIP3    H1 3551   6.430   1.686   0.900
 1202TIP3    H2 3552   6.514   1.811   0.885
 1203TIP3   OH2 3553   2.691   7.141   5.084
 1203TIP3    H1 3554   2.735   7.058   5.105
 1203TIP3    H2 3555   2.754   7.188   5.029
 1204TIP3   OH2 3556   3.773   6.614   4.856
 1204TIP3    H1 3557   3.715   6.575   4.921
 1204TIP3    H2 3558   3.756   6.565   4.776
 1205TIP3   OH2 3559   4.859   5.047   5.224
 1205TIP3    H1 3560   4.831   4.956   5.230
 1205TIP3    H2 3561   4.782   5.097   5.249
 1206TIP3   OH2 3562   1.733   6.481   0.475
 1206TIP3    H1 3563   1.799   6.550   0.471
 1206TIP3    H2 3564   1.653   6.521   0.441
 1207TIP3   OH2 3565   3.251   4.994   6.385
 1207TIP3    H1 3566   3.242   4.903   6.356
 1207TIP3    H2 3567   3.341   5.018   6.361
 1208TIP3   OH2 3568   0.632   6.442   3.388
 1208TIP3    H1 3569   0.682   6.476   3.314
 1208TIP3    H2 3570   0.565   6.387   3.349
 1209TIP3   OH2 3571   1.412   2.964   0.429
 1209TIP3    H1 3572   1.482   3.018   0.393
 1209TIP3    H2 3573   1.435   2.954   0.522
 1210TIP3   OH2 3574   6.747   3.160   1.463
 1210TIP3    H1 3575   6.795   3.095   1.414
 1210TIP3    H2 3576   6.744   3.126   1.552
 1211TIP3   OH2 3577   6.755   7.149   1.294
 1211TIP3    H1 3578   6.779   7.153   1.387
 1211TIP3    H2 3579   6.817   7.207   1.251
 1212TIP3   OH2 3580   4.007   0.390   1.320
 1212TIP3    H1 3581   3.978   0.356   1.405
 1212TIP3    H2 3582   3.933   0.372   1.261
 1213TIP3   OH2 3583   2.003   2.108   1.820
 1213TIP3    H1 3584   1.910   2.124   1.801
 1213TIP3    H2 3585   2.007   2.015   1.844
 1214TIP3   OH2 3586   3.807   0.580   2.394
 1214TIP3    H1 3587   3.765   0.527   2.326
 1214TIP3    H2 3588   3.861   0.519   2.443
 1215TIP3   OH2 3589   5.965   4.913   3.073
 1215TIP3    H1 3590   5.992   4.854   3.002
 1215TIP3    H2 3591   5.943   4.855   3.145
 1216TIP3   OH2 3592   3.414   3.254   0.718
 1216TIP3    H1 3593   3.457   3.330   0.757
 1216TIP3    H2 3594   3.454   3.179   0.762
 1217TIP3   OH2 3595   5.814   0.759   2.091
 1217TIP3    H1 3596   5.821   0.851   2.117
 1217TIP3    H2 3597   5.723   0.736   2.109
 1218TIP3   OH2 3598   4.550   4.076   5.600
 1218TIP3    H1 3599   4.502   4.076   5.684
 1218TIP3    H2 3600   4.486   4.109   5.537
 1219TIP3   OH2 3601   4.207   0.910   0.101
 1219TIP3    H1 3602   4.165   0.875   0.022
 1219TIP3    H2 3603   4.253   0.988   0.072
 1220TIP3   OH2 3604   3.919   4.318   4.002
 1220TIP3    H1 3605   3.938   4.295   4.093
 1220TIP3    H2 3606   4.003   4.311   3.958
 1221TIP3   OH2 3607   0.125   6.225   0.199
 1221TIP3    H1 3608   0.115   6.134   0.172
 1221TIP3    H2 3609   0.093   6.276   0.124
 1222TIP3   OH2 3610   6.568   4.081   5.901
 1222TIP3    H1 3611   6.550   4.096   5.994
 1222TIP3    H2 3612   6.660   4.054   5.898
 1223TIP3   OH2 3613   2.236   7.392   3.837
 1223TIP3    H1 3614   2.180   7.468   3.855
 1223TIP3    H2 3615   2.185   7.317   3.867
 1224TIP3   OH2 3616   1.973   2.147   5.971
 1224TIP3    H1 3617   1.887   2.144   5.928
 1224TIP3    H2 3618   2.003   2.237   5.957
 1225TIP3   OH2 3619   0.425   4.104   1.160
 1225TIP3    H1 3620   0.483   4.047   1.211
 1225TIP3    H2 3621   0.346   4.113   1.214
 1226TIP3   OH2 3622   6.159   2.085   5.442
 1226TIP3    H1 3623   6.165   1.997   5.481
 1226TIP3    H2 3624   6.241   2.128   5.467
 1227TIP3   OH2 3625   6.996   6.734   6.174
 1227TIP3    H1 3626   7.023   6.707   6.262
 1227TIP3    H2 3627   7.076   6.770   6.135
 1228TIP3   OH2 3628   4.367   3.890   1.979
 1228TIP3    H1 3629   4.321   3.875   1.896
 1228TIP3    H2 3630   4.435   3.823   1.980
 1229TIP3   OH2 3631   7.108   5.659   1.386
 1229TIP3    H1 3632   7.028   5.689   1.343
 1229TIP3    H2 3633   7.078   5.598   1.453
 1230TIP3   OH2 3634   6.492   0.751   3.104
 1230TIP3    H1 3635   6.474   0.821   3.042
 1230TIP3    H2 3636   6.572   0.709   3.070
 1231TIP3   OH2 3637   7.863   5.605   0.732
 1231TIP3    H1 3638   7.948   5.623   0.771
 1231TIP3    H2 3639   7.844   5.682   0.678
 1232TIP3   OH2 3640   4.476   5.620   6.605
 1232TIP3    H1 3641   4.477   5.674   6.525
 1232TIP3    H2 3642   4.505   5.680   6.674
 1233TIP3   OH2 3643   4.371   3.539   4.692
 1233TIP3    H1 3644   4.335   3.506   4.610
 1233TIP3    H2 3645   4.455   3.494   4.702
 1234TIP3   OH2 3646   5.559   3.378   1.773
 1234TIP3    H1 3647   5.624   3.399   1.706
 1234TIP3    H2 3648   5.592   3.422   1.852
 1235TIP3   OH2 3649   3.726   3.135   5.821
 1235TIP3    H1 3650   3.669   3.209   5.841
 1235TIP3    H2 3651   3.701   3.068   5.885
 1236TIP3   OH2 3652   8.011   2.627   2.979
 1236TIP3    H1 3653   8.071   2.680   3.032
 1236TIP3    H2 3654   8.064   2.595   2.907
 1237TIP3   OH2 3655   5.767   7.120   4.598
 1237TIP3    H1 3656   5.679   7.156   4.604
 1237TIP3    H2 3657   5.757   7.027   4.615
 1238TIP3   OH2 3658   1.919   5.900   5.918
 1238TIP3    H1 3659   1.838   5.903   5.970
 1238TIP3    H2 3660   1.913   5.976   5.860
 1239TIP3   OH2 3661   4.505   1.172   2.495
 1239TIP3    H1 3662   4.552   1.090   2.508
 1239TIP3    H2 3663   4.418   1.156   2.533
 1240TIP3   OH2 3664   1.503   5.685   3.178
 1240TIP3    H1 3665   1.514   5.780   3.176
 1240TIP3    H2 3666   1.452   5.665   3.100
 1241TIP3   OH2 3667   1.085   7.279   4.956
 1241TIP3    H1 3668   1.156   7.319   5.006
 1241TIP3    H2 3669   1.014   7.268   5.018
 1242TIP3   OH2 3670   5.774   5.738   6.178
 1242TIP3    H1 3671   5.708   5.759   6.111
 1242TIP3    H2 3672   5.858   5.750   6.133
 1243TIP3   OH2 3673   8.257   1.541   1.012
 1243TIP3    H1 3674   8.345   1.550   1.048
 1243TIP3    H2 3675   8.243   1.446   1.007
 1244TIP3   OH2 3676   4.215   1.953   1.620
 1244TIP3    H1 3677   4.206   1.900   1.699
 1244TIP3    H2 3678   4.140   2.014   1.623
 1245TIP3   OH2 3679   7.073   3.379   2.205
 1245TIP3    H1 3680   6.982   3.398   2.229
 1245TIP3    H2 3681   7.115   3.465   2.202
 1246TIP3   OH2 3682   8.159   2.971   0.483
 1246TIP3    H1 3683   8.161   2.983   0.578
 1246TIP3    H2 3684   8.244   3.004   0.453
 1247TIP3   OH2 3685   4.949   7.563   4.749
 1247TIP3    H1 3686   4.856   7.579   4.736
 1247TIP3    H2 3687   4.973   7.501   4.680
 1248TIP3   OH2 3688   8.060   7.200   6.594
 1248TIP3    H1 3689   8.146   7.176   6.629
 1248TIP3    H2 3690   8.011   7.231   6.671
 1249TIP3   OH2 3691   6.886   1.787   4.223
 1249TIP3    H1 3692   6.923   1.833   4.298
 1249TIP3    H2 3693   6.863   1.700   4.257
 1250TIP3   OH2 3694   4.881   1.926   3.586
 1250TIP3    H1 3695   4.844   2.014   3.579
 1250TIP3    H2 3696   4.940   1.919   3.510
 1251TIP3   OH2 3697   3.675   6.547   0.642
 1251TIP3    H1 3698   3.580   6.534   0.640
 1251TIP3    H2 3699   3.711   6.462   0.618
 1252TIP3   OH2 3700   4.475   1.352   5.722
 1252TIP3    H1 3701   4.458   1.286   5.655
 1252TIP3    H2 3702   4.394   1.355   5.773
 1253TIP3   OH2 3703   5.714   4.479   6.146
 1253TIP3    H1 3704   5.661   4.516   6.217
 1253TIP3    H2 3705   5.765   4.554   6.113
 1254TIP3   OH2 3706   7.229   7.286   3.804
 1254TIP3    H1 3707   7.153   7.333   3.838
 1254TIP3    H2 3708   7.222   7.294   3.709
 1255TIP3   OH2 3709   7.380   2.692   1.530
 1255TIP3    H1 3710   7.335   2.761   1.577
 1255TIP3    H2 3711   7.473   2.711   1.542
 1256TIP3   OH2 3712   1.085   1.105   5.057
 1256TIP3    H1 3713   1.175   1.073   5.044
 1256TIP3    H2 3714   1.096   1.189   5.101
 1257TIP3   OH2 3715   2.922   4.347   0.479
 1257TIP3    H1 3716   2.915   4.442   0.493
 1257TIP3    H2 3717   2.875   4.331   0.397
 1258TIP3   OH2 3718   5.488   3.964   3.532
 1258TIP3    H1 3719   5.474   4.026   3.603
 1258TIP3    H2 3720   5.549   4.008   3.473
 1259TIP3   OH2 3721   3.063   5.946   4.097
 1259TIP3    H1 3722   3.093   6.019   4.151
 1259TIP3    H2 3723   3.008   5.986   4.030
 1260TIP3   OH2 3724   1.278   5.368   2.220
 1260TIP3    H1 3725   1.360   5.383   2.173
 1260TIP3    H2 3726   1.240   5.455   2.231
 1261TIP3   OH2 3727   6.016   7.436   3.292
 1261TIP3    H1 3728   6.074   7.363   3.271
 1261TIP3    H2 3729   6.053   7.511   3.244
 1262TIP3   OH2 3730   2.160   4.756   5.325
 1262TIP3    H1 3731   2.067   4.735   5.314
 1262TIP3    H2 3732   2.167   4.848   5.298
 1263TIP3   OH2 3733   0.101   1.454   2.411
 1263TIP3    H1 3734   0.036   1.500   2.360
 1263TIP3    H2 3735   0.174   1.515   2.419
 1264TIP3   OH2 3736   1.357   0.754   1.939
 1264TIP3    H1 3737   1.403   0.827   1.897
 1264TIP3    H2 3738   1.400   0.745   2.024
 1265TIP3   OH2 3739   3.300   4.979   0.558
 1265TIP3    H1 3740   3.343   5.054   0.599
 1265TIP3    H2 3741   3.355   4.905   0.582
 1266TIP3   OH2 3742   2.179   4.653   5.900
 1266TIP3    H1 3743   2.241   4.725   5.914
 1266TIP3    H2 3744   2.180   4.639   5.805
 1267TIP3   OH2 3745   5.445   1.629   3.721
 1267TIP3    H1 3746   5.447   1.546   3.673
 1267TIP3    H2 3747   5.523   1.676   3.691
 1268TIP3   OH2 3748   1.331   1.196   6.424
 1268TIP3    H1 3749   1.299   1.162   6.340
 1268TIP3    H2 3750   1.331   1.291   6.414
 1269TIP3   OH2 3751   0.539   1.876   0.881
 1269TIP3    H1 3752   0.579   1.851   0.798
 1269TIP3    H2 3753   0.476   1.806   0.899
 1270TIP3   OH2 3754   1.463   3.498   1.788
 1270TIP3    H1 3755   1.455   3.574   1.846
 1270TIP3    H2 3756   1.556   3.476   1.790
 1271TIP3   OH2 3757   5.003   3.536   0.537
 1271TIP3    H1 3758   4.930   3.518   0.478
 1271TIP3    H2 3759   5.081   3.524   0.483
 1272TIP3   OH2 3760   1.225   5.870   2.419
 1272TIP3    H1 3761   1.234   5.870   2.515
 1272TIP3    H2 3762   1.311   5.842   2.387
 1273TIP3   OH2 3763   2.147   0.665   3.638
 1273TIP3    H1 3764   2.229   0.616   3.643
 1273TIP3    H2 3765   2.128   0.670   3.545
 1274TIP3   OH2 3766   5.007   4.830   5.443
 1274TIP3    H1 3767   5.074   4.898   5.443
 1274TIP3    H2 3768   4.934   4.868   5.491
 1275TIP3   OH2 3769   2.653   2.440   3.279
 1275TIP3    H1 3770   2.601   2.513   3.245
 1275TIP3    H2 3771   2.652   2.454   3.374
 1276TIP3   OH2 3772   4.893   3.573   3.182
 1276TIP3    H1 3773   4.863   3.496   3.231
 1276TIP3    H2 3774   4.817   3.631   3.180
 1277TIP3   OH2 3775   4.707   5.511   3.846
 1277TIP3    H1 3776   4.636   5.485   3.787
 1277TIP3    H2 3777   4.786   5.506   3.793
 1278TIP3   OH2 3778   6.747   2.312   2.136
 1278TIP3    H1 3779   6.675   2.305   2.199
 1278TIP3    H2 3780   6.735   2.399   2.096
 1279TIP3   OH2 3781   0.604   0.725   3.899
 1279TIP3    H1 3782   0.624   0.703   3.990
 1279TIP3    H2 3783   0.614   0.642   3.852
 1280TIP3   OH2 3784   7.026   7.544   0.743
 1280TIP3    H1 3785   7.047   7.473   0.683
 1280TIP3    H2 3786   7.101   7.602   0.739
 1281TIP3   OH2 3787   3.297   1.753   0.434
 1281TIP3    H1 3788   3.379   1.758   0.485
 1281TIP3    H2 3789   3.230   1.784   0.495
 1282TIP3   OH2 3790   7.510   2.786   4.598
 1282TIP3    H1 3791   7.605   2.784   4.584
 1282TIP3    H2 3792   7.500   2.788   4.693
 1283TIP3   OH2 3793   6.737   3.200   1.936
 1283TIP3    H1 3794   6.742   3.187   2.031
 1283TIP3    H2 3795   6.784   3.283   1.921
 1284TIP3   OH2 3796   7.304   0.733   2.521
 1284TIP3    H1 3797   7.350   0.688   2.451
 1284TIP3    H2 3798   7.261   0.807   2.478
 1285TIP3   OH2 3799   7.312   6.295   0.107
 1285TIP3    H1 3800   7.222   6.266   0.096
 1285TIP3    H2 3801   7.308   6.359   0.178
 1286TIP3   OH2 3802   2.042   2.585   2.205
 1286TIP3    H1 3803   1.982   2.545   2.268
 1286TIP3    H2 3804   2.114   2.620   2.258
 1287TIP3   OH2 3805   3.077   6.772   2.615
 1287TIP3    H1 3806   3.128   6.848   2.587
 1287TIP3    H2 3807   3.140   6.714   2.657
 1288TIP3   OH2 3808   6.786   1.672   5.419
 1288TIP3    H1 3809   6.827   1.599   5.466
 1288TIP3    H2 3810   6.824   1.750   5.459
 1289TIP3   OH2 3811   1.484   7.307   5.615
 1289TIP3    H1 3812   1.514   7.332   5.527
 1289TIP3    H2 3813   1.502   7.384   5.669
 1290TIP3   OH2 3814   5.479   2.887   1.855
 1290TIP3    H1 3815   5.436   2.804   1.873
 1290TIP3    H2 3816   5.407   2.950   1.846
 1291TIP3   OH2 3817   0.353   0.751   1.653
 1291TIP3    H1 3818   0.404   0.694   1.596
 1291TIP3    H2 3819   0.413   0.775   1.724
 1292TIP3   OH2 3820   4.285   4.845   2.200
 1292TIP3    H1 3821   4.365   4.876   2.243
 1292TIP3    H2 3822   4.217   4.855   2.266
 1293TIP3   OH2 3823   6.881   2.324   1.482
 1293TIP3    H1 3824   6.950   2.390   1.491
 1293TIP3    H2 3825   6.889   2.269   1.560
 1294TIP3   OH2 3826   3.156   3.175   5.959
 1294TIP3    H1 3827   3.139   3.140   5.872
 1294TIP3    H2 3828   3.154   3.098   6.017
 1295TIP3   OH2 3829   7.827   0.921   5.657
 1295TIP3    H1 3830   7.903   0.863   5.668
 1295TIP3    H2 3831   7.752   0.861   5.661
 1296TIP3   OH2 3832   2.923   3.195   1.281
 1296TIP3    H1 3833   2.883   3.241   1.207
 1296TIP3    H2 3834   2.904   3.103   1.265
 1297TIP3   OH2 3835   5.991   5.215   6.478
 1297TIP3    H1 3836   5.895   5.206   6.479
 1297TIP3    H2 3837   6.023   5.126   6.469
 1298TIP3   OH2 3838   0.334   6.210   1.344
 1298TIP3    H1 3839   0.275   6.134   1.345
 1298TIP3    H2 3840   0.401   6.189   1.410
 1299TIP3   OH2 3841   5.935   4.277   2.294
 1299TIP3    H1 3842   5.993   4.205   2.269
 1299TIP3    H2 3843   5.869   4.279   2.225
 1300TIP3   OH2 3844   6.776   0.280   1.346
 1300TIP3    H1 3845   6.798   0.256   1.256
 1300TIP3    H2 3846   6.731   0.203   1.381
 1301TIP3   OH2 3847   0.332   7.526   3.314
 1301TIP3    H1 3848   0.355   7.457   3.253
 1301TIP3    H2 3849   0.390   7.599   3.292
 1302TIP3   OH2 3850   4.299   2.080   3.330
 1302TIP3    H1 3851   4.323   2.170   3.307
 1302TIP3    H2 3852   4.258   2.045   3.251
 1303TIP3   OH2 3853   3.038   1.811   2.683
 1303TIP3    H1 3854   3.080   1.730   2.711
 1303TIP3    H2 3855   3.058   1.818   2.590
 1304TIP3   OH2 3856   0.291   7.163   4.777
 1304TIP3    H1 3857   0.229   7.169   4.849
 1304TIP3    H2 3858   0.309   7.069   4.769
 1305TIP3   OH2 3859   6.862   3.446   1.861
 1305TIP3    H1 3860   6.893   3.529   1.899
 1305TIP3    H2 3861   6.920   3.431   1.786
 1306TIP3   OH2 3862   5.670   3.073   3.264
 1306TIP3    H1 3863   5.640   3.022   3.339
 1306TIP3    H2 3864   5.651   3.164   3.289
 1307TIP3   OH2 3865   2.569   4.140   2.147
 1307TIP3    H1 3866   2.602   4.201   2.081
 1307TIP3    H2 3867   2.560   4.192   2.227
 1308TIP3   OH2 3868   4.916   5.928   6.204
 1308TIP3    H1 3869   4.910   5.858   6.140
 1308TIP3    H2 3870   4.829   5.968   6.206
 1309TIP3   OH2 3871   4.740   6.287   6.431
 1309TIP3    H1 3872   4.824   6.242   6.422
 1309TIP3    H2 3873   4.729   6.297   6.526
 1310TIP3   OH2 3874   6.336   3.073   5.545
 1310TIP3    H1 3875   6.320   3.151   5.493
 1310TIP3    H2 3876   6.376   3.010   5.485
 1311TIP3   OH2 3877   1.931   5.966   2.408
 1311TIP3    H1 3878   1.930   6.029   2.335
 1311TIP3    H2 3879   1.892   6.013   2.481
 1312TIP3   OH2 3880   8.044   5.786   2.202
 1312TIP3    H1 3881   7.948   5.797   2.201
 1312TIP3    H2 3882   8.058   5.695   2.176
 1313TIP3   OH2 3883   4.115   7.026   6.632
 1313TIP3    H1 3884   4.209   7.011   6.643
 1313TIP3    H2 3885   4.107   7.121   6.624
 1314TIP3   OH2 3886   4.960   3.421   4.333
 1314TIP3    H1 3887   4.998   3.333   4.338
 1314TIP3    H2 3888   5.010   3.472   4.398
 1315TIP3   OH2 3889   3.694   0.454   6.018
 1315TIP3    H1 3890   3.753   0.475   5.946
 1315TIP3    H2 3891   3.644   0.378   5.988
 1316TIP3   OH2 3892   2.424   0.987   0.570
 1316TIP3    H1 3893   2.420   0.996   0.475
 1316TIP3    H2 3894   2.501   0.932   0.586
 1317TIP3   OH2 3895   5.769   5.181   4.085
 1317TIP3    H1 3896   5.838   5.206   4.024
 1317TIP3    H2 3897   5.813   5.127   4.151
 1318TIP3   OH2 3898   2.579   4.719   1.001
 1318TIP3    H1 3899   2.623   4.789   0.953
 1318TIP3    H2 3900   2.518   4.765   1.060
 1319TIP3   OH2 3901   7.705   4.902   5.166
 1319TIP3    H1 3902   7.725   4.859   5.249
 1319TIP3    H2 3903   7.680   4.991   5.191
 1320TIP3   OH2 3904   5.914   4.333   0.986
 1320TIP3    H1 3905   5.885   4.341   0.895
 1320TIP3    H2 3906   5.954   4.246   0.991
 1321TIP3   OH2 3907   7.807   1.357   6.397
 1321TIP3    H1 3908   7.741   1.383   6.333
 1321TIP3    H2 3909   7.827   1.266   6.375
 1322TIP3   OH2 3910   5.200   7.292   4.838
 1322TIP3    H1 3911   5.176   7.249   4.920
 1322TIP3    H2 3912   5.189   7.385   4.856
 1323TIP3   OH2 3913   7.771   0.864   0.367
 1323TIP3    H1 3914   7.721   0.793   0.407
 1323TIP3    H2 3915   7.711   0.903   0.304
 1324TIP3   OH2 3916   4.942   3.197   3.582
 1324TIP3    H1 3917   5.007   3.260   3.549
 1324TIP3    H2 3918   4.966   3.114   3.542
 1325TIP3   OH2 3919   1.465   4.526   0.633
 1325TIP3    H1 3920   1.477   4.473   0.712
 1325TIP3    H2 3921   1.381   4.569   0.647
 1326TIP3   OH2 3922   7.101   1.616   2.226
 1326TIP3    H1 3923   7.187   1.614   2.184
 1326TIP3    H2 3924   7.078   1.709   2.229
 1327TIP3   OH2 3925   5.807   6.313   6.067
 1327TIP3    H1 3926   5.795   6.388   6.009
 1327TIP3    H2 3927   5.803   6.237   6.009
 1328TIP3   OH2 3928   7.048   5.095   2.221
 1328TIP3    H1 3929   7.091   5.017   2.254
 1328TIP3    H2 3930   6.991   5.123   2.292
 1329TIP3   OH2 3931   2.613   6.291   4.720
 1329TIP3    H1 3932   2.620   6.296   4.624
 1329TIP3    H2 3933   2.682   6.230   4.745
 1330TIP3   OH2 3934   2.102   1.531   3.358
 1330TIP3    H1 3935   2.139   1.604   3.309
 1330TIP3    H2 3936   2.018   1.564   3.391
 1331TIP3   OH2 3937   1.929   5.409   1.555
 1331TIP3    H1 3938   1.981   5.388   1.633
 1331TIP3    H2 3939   1.866   5.337   1.548
 1332TIP3   OH2 3940   0.236   1.176   2.648
 1332TIP3    H1 3941   0.155   1.175   2.698
 1332TIP3    H2 3942   0.212   1.137   2.563
 1333TIP3   OH2 3943   7.438   3.889   4.286
 1333TIP3    H1 3944   7.348   3.868   4.261
 1333TIP3    H2 3945   7.477   3.925   4.206
 1334TIP3   OH2 3946   5.274   3.716   5.057
 1334TIP3    H1 3947   5.185   3.683   5.047
 1334TIP3    H2 3948   5.283   3.781   4.987
 1335TIP3   OH2 3949   4.305   6.807   6.163
 1335TIP3    H1 3950   4.235   6.848   6.112
 1335TIP3    H2 3951   4.351   6.752   6.100
 1336TIP3   OH2 3952   4.555   3.126   4.175
 1336TIP3    H1 3953   4.645   3.095   4.183
 1336TIP3    H2 3954   4.504   3.046   4.159
 1337TIP3   OH2 3955   5.795   5.374   1.210
 1337TIP3    H1 3956   5.790   5.282   1.183
 1337TIP3    H2 3957   5.713   5.390   1.256
 1338TIP3   OH2 3958   2.897   5.848   1.488
 1338TIP3    H1 3959   2.940   5.886   1.411
 1338TIP3    H2 3960   2.956   5.870   1.561
 1339TIP3   OH2 3961   1.258   6.084   0.421
 1339TIP3    H1 3962   1.185   6.028   0.396
 1339TIP3    H2 3963   1.333   6.047   0.375
 1340TIP3   OH2 3964   3.086   3.459   4.952
 1340TIP3    H1 3965   3.105   3.428   5.040
 1340TIP3    H2 3966   3.049   3.547   4.965
 1341TIP3   OH2 3967   2.730   6.522   4.973
 1341TIP3    H1 3968   2.765   6.518   5.062
 1341TIP3    H2 3969   2.728   6.431   4.943
 1342TIP3   OH2 3970   3.540   3.946   1.790
 1342TIP3    H1 3971   3.456   3.954   1.744
 1342TIP3    H2 3972   3.523   3.887   1.863
 1343TIP3   OH2 3973   1.147   2.838   0.192
 1343TIP3    H1 3974   1.117   2.848   0.282
 1343TIP3    H2 3975   1.165   2.744   0.183
 1344TIP3   OH2 3976   7.680   1.220   5.153
 1344TIP3    H1 3977   7.768   1.232   5.118
 1344TIP3    H2 3978   7.623   1.232   5.078
 1345TIP3   OH2 3979   2.230   3.421   4.187
 1345TIP3    H1 3980   2.201   3.451   4.273
 1345TIP3    H2 3981   2.170   3.464   4.126
 1346TIP3   OH2 3982   6.478   5.519   4.097
 1346TIP3    H1 3983   6.573   5.523   4.086
 1346TIP3    H2 3984   6.456   5.428   4.079
 1347TIP3   OH2 3985   5.267   2.536   4.129
 1347TIP3    H1 3986   5.336   2.485   4.171
 1347TIP3    H2 3987   5.213   2.471   4.083
 1348TIP3   OH2 3988   7.680   1.063   0.130
 1348TIP3    H1 3989   7.671   0.988   0.071
 1348TIP3    H2 3990   7.591   1.080   0.160
 1349TIP3   OH2 3991   5.653   7.092   3.036
 1349TIP3    H1 3992   5.673   7.094   2.943
 1349TIP3    H2 3993   5.693   7.171   3.071
 1350TIP3   OH2 3994   7.577   2.597   3.020
 1350TIP3    H1 3995   7.665   2.560   3.012
 1350TIP3    H2 3996   7.530   2.534   3.074
 1351TIP3   OH2 3997   7.440   1.349   1.428
 1351TIP3    H1 3998   7.448   1.435   1.388
 1351TIP3    H2 3999   7.480   1.289   1.365
 1352TIP3   OH2 4000   3.216   1.517   2.031
 1352TIP3    H1 4001   3.253   1.431   2.011
 1352TIP3    H2 4002   3.266   1.578   1.978
 1353TIP3   OH2 4003   5.523   6.087   2.096
 1353TIP3    H1 4004   5.579   6.138   2.038
 1353TIP3    H2 4005   5.438   6.085   2.052
 1354TIP3   OH2 4006   6.585   5.346   5.826
 1354TIP3    H1 4007   6.531   5.327   5.750
 1354TIP3    H2 4008   6.582   5.266   5.879
 1355TIP3   OH2 4009   5.484   3.709   4.765
 1355TIP3    H1 4010   5.445   3.622   4.759
 1355TIP3    H2 4011   5.410   3.769   4.769
 1356TIP3   OH2 4012   4.942   4.758   4.168
 1356TIP3    H1 4013   4.853   4.727   4.151
 1356TIP3    H2 4014   4.950   4.837   4.115
 1357TIP3   OH2 4015   6.137   1.543   4.244
 1357TIP3    H1 4016   6.174   1.599   4.312
 1357TIP3    H2 4017   6.082   1.481   4.291
 1358TIP3   OH2 4018   8.034   3.050   3.737
 1358TIP3    H1 4019   7.990   2.966   3.749
 1358TIP3    H2 4020   7.995   3.107   3.803
 1359TIP3   OH2 4021   1.127   6.087   4.718
 1359TIP3    H1 4022   1.156   6.161   4.665
 1359TIP3    H2 4023   1.175   6.012   4.683
 1360TIP3   OH2 4024   0.564   6.948   5.815
 1360TIP3    H1 4025   0.645   6.985   5.851
 1360TIP3    H2 4026   0.499   6.959   5.884
 1361TIP3   OH2 4027   5.500   6.200   5.933
 1361TIP3    H1 4028   5.473   6.108   5.923
 1361TIP3    H2 4029   5.596   6.196   5.934
 1362TIP3   OH2 4030   7.911   7.068   0.132
 1362TIP3    H1 4031   7.888   7.004   0.064
 1362TIP3    H2 4032   8.001   7.046   0.156
 1363TIP3   OH2 4033   1.856   4.857   3.215
 1363TIP3    H1 4034   1.872   4.906   3.135
 1363TIP3    H2 4035   1.818   4.921   3.275
 1364TIP3   OH2 4036   4.597   7.374   5.020
 1364TIP3    H1 4037   4.602   7.350   4.928
 1364TIP3    H2 4038   4.620   7.467   5.022
 1365TIP3   OH2 4039   0.550   2.968   3.754
 1365TIP3    H1 4040   0.623   3.012   3.799
 1365TIP3    H2 4041   0.477   3.030   3.761
 1366TIP3   OH2 4042   8.028   7.327   2.854
 1366TIP3    H1 4043   7.968   7.337   2.929
 1366TIP3    H2 4044   8.109   7.369   2.883
 1367TIP3   OH2 4045   1.106   6.847   3.292
 1367TIP3    H1 4046   1.145   6.898   3.221
 1367TIP3    H2 4047   1.033   6.901   3.323
 1368TIP3   OH2 4048   6.385   6.972   3.184
 1368TIP3    H1 4049   6.417   7.048   3.135
 1368TIP3    H2 4050   6.299   6.999   3.216
 1369TIP3   OH2 4051   1.758   2.792   3.505
 1369TIP3    H1 4052   1.745   2.841   3.587
 1369TIP3    H2 4053   1.672   2.794   3.462
 1370TIP3   OH2 4054   2.701   6.458   2.978
 1370TIP3    H1 4055   2.675   6.367   2.990
 1370TIP3    H2 4056   2.794   6.454   2.953
 1371TIP3   OH2 4057   3.956   5.539   5.354
 1371TIP3    H1 4058   3.918   5.572   5.272
 1371TIP3    H2 4059   4.015   5.469   5.326
 1372TIP3   OH2 4060   3.006   2.466   5.944
 1372TIP3    H1 4061   2.924   2.423   5.969
 1372TIP3    H2 4062   3.008   2.461   5.849
 1373TIP3   OH2 4063   3.753   2.848   6.297
 1373TIP3    H1 4064   3.721   2.897   6.221
 1373TIP3    H2 4065   3.686   2.862   6.365
 1374TIP3   OH2 4066   4.409   2.346   0.640
 1374TIP3    H1 4067   4.431   2.349   0.547
 1374TIP3    H2 4068   4.356   2.424   0.655
 1375TIP3   OH2 4069   6.758   1.248   2.969
 1375TIP3    H1 4070   6.743   1.231   2.876
 1375TIP3    H2 4071   6.676   1.286   3.001
 1376TIP3   OH2 4072   1.380   2.495   1.749
 1376TIP3    H1 4073   1.472   2.491   1.774
 1376TIP3    H2 4074   1.376   2.561   1.681
 1377TIP3   OH2 4075   0.517   7.606   6.327
 1377TIP3    H1 4076   0.562   7.689   6.312
 1377TIP3    H2 4077   0.448   7.603   6.261
 1378TIP3   OH2 4078   4.076   6.121   1.959
 1378TIP3    H1 4079   4.073   6.071   2.041
 1378TIP3    H2 4080   4.169   6.137   1.944
 1379TIP3   OH2 4081   2.358   5.879   3.455
 1379TIP3    H1 4082   2.402   5.810   3.504
 1379TIP3    H2 4083   2.265   5.866   3.473
 1380TIP3   OH2 4084   2.534   6.797   5.311
 1380TIP3    H1 4085   2.475   6.855   5.360
 1380TIP3    H2 4086   2.486   6.775   5.231
 1381TIP3   OH2 4087   0.346   5.511   4.380
 1381TIP3    H1 4088   0.303   5.468   4.306
 1381TIP3    H2 4089   0.361   5.440   4.443
 1382TIP3   OH2 4090   0.314   4.528   5.416
 1382TIP3    H1 4091   0.408   4.521   5.430
 1382TIP3    H2 4092   0.282   4.438   5.418
 1383TIP3   OH2 4093   3.582   7.629   0.994
 1383TIP3    H1 4094   3.518   7.641   0.924
 1383TIP3    H2 4095   3.563   7.542   1.029
 1384TIP3   OH2 4096   2.067   4.487   2.765
 1384TIP3    H1 4097   2.072   4.399   2.727
 1384TIP3    H2 4098   2.086   4.546   2.692
 1385TIP3   OH2 4099  -0.021   1.111   2.781
 1385TIP3    H1 4100  -0.075   1.052   2.833
 1385TIP3    H2 4101   0.017   1.171   2.845
 1386TIP3   OH2 4102   6.620   7.099   5.962
 1386TIP3    H1 4103   6.548   7.163   5.960
 1386TIP3    H2 4104   6.651   7.101   6.052
 1387TIP3   OH2 4105   3.647   3.823   4.955
 1387TIP3    H1 4106   3.717   3.885   4.976
 1387TIP3    H2 4107   3.608   3.857   4.875
 1388TIP3   OH2 4108   2.036   4.724   2.514
 1388TIP3    H1 4109   1.985   4.801   2.492
 1388TIP3    H2 4110   1.971   4.656   2.533
 1389TIP3   OH2 4111   4.875   0.432   5.769
 1389TIP3    H1 4112   4.825   0.351   5.757
 1389TIP3    H2 4113   4.845   0.466   5.853
 1390TIP3   OH2 4114   1.280   2.506   2.884
 1390TIP3    H1 4115   1.259   2.413   2.897
 1390TIP3    H2 4116   1.365   2.505   2.838
 1391TIP3   OH2 4117   2.934   6.474   0.872
 1391TIP3    H1 4118   3.028   6.480   0.890
 1391TIP3    H2 4119   2.924   6.392   0.824
 1392TIP3   OH2 4120   6.674   2.908   5.585
 1392TIP3    H1 4121   6.703   2.981   5.532
 1392TIP3    H2 4122   6.754   2.872   5.623
 1393TIP3   OH2 4123   5.669   0.792   6.652
 1393TIP3    H1 4124   5.712   0.864   6.606
 1393TIP3    H2 4125   5.596   0.766   6.595
 1394TIP3   OH2 4126   1.144   3.312   3.234
 1394TIP3    H1 4127   1.155   3.372   3.161
 1394TIP3    H2 4128   1.180   3.359   3.309
 1395TIP3   OH2 4129   0.312   3.947   3.703
 1395TIP3    H1 4130   0.391   3.974   3.749
 1395TIP3    H2 4131   0.257   4.025   3.700
 1396TIP3   OH2 4132   6.798   2.146   6.648
 1396TIP3    H1 4133   6.774   2.236   6.625
 1396TIP3    H2 4134   6.716   2.103   6.669
 1397TIP3   OH2 4135   7.242   5.082   5.436
 1397TIP3    H1 4136   7.312   5.023   5.466
 1397TIP3    H2 4137   7.283   5.168   5.430
 1398TIP3   OH2 4138   6.845   6.468   0.277
 1398TIP3    H1 4139   6.915   6.474   0.342
 1398TIP3    H2 4140   6.776   6.418   0.321
 1399TIP3   OH2 4141   5.945   7.330   2.766
 1399TIP3    H1 4142   6.036   7.333   2.735
 1399TIP3    H2 4143   5.913   7.419   2.751
 1400TIP3   OH2 4144   5.419   1.769   2.522
 1400TIP3    H1 4145   5.337   1.720   2.532
 1400TIP3    H2 4146   5.458   1.769   2.610
 1401TIP3   OH2 4147   3.990   6.407   6.010
 1401TIP3    H1 4148   3.949   6.339   6.064
 1401TIP3    H2 4149   3.926   6.478   6.010
 1402TIP3   OH2 4150   0.296   0.155   4.679
 1402TIP3    H1 4151   0.325   0.246   4.679
 1402TIP3    H2 4152   0.315   0.123   4.768
 1403TIP3   OH2 4153   7.552   2.964   2.051
 1403TIP3    H1 4154   7.564   3.053   2.018
 1403TIP3    H2 4155   7.486   2.973   2.120
 1404TIP3   OH2 4156   1.228   5.245   5.041
 1404TIP3    H1 4157   1.142   5.262   5.001
 1404TIP3    H2 4158   1.237   5.316   5.106
 1405TIP3   OH2 4159   6.629   3.279   5.273
 1405TIP3    H1 4160   6.707   3.225   5.268
 1405TIP3    H2 4161   6.619   3.315   5.185
 1406TIP3   OH2 4162   3.151   6.914   0.732
 1406TIP3    H1 4163   3.153   6.913   0.828
 1406TIP3    H2 4164   3.115   7.000   0.710
 1407TIP3   OH2 4165   4.822   6.550   0.595
 1407TIP3    H1 4166   4.901   6.598   0.570
 1407TIP3    H2 4167   4.852   6.488   0.662
 1408TIP3   OH2 4168   5.943   0.794   2.633
 1408TIP3    H1 4169   5.988   0.714   2.660
 1408TIP3    H2 4170   6.013   0.852   2.604
 1409TIP3   OH2 4171   7.905   1.867   0.916
 1409TIP3    H1 4172   7.825   1.861   0.968
 1409TIP3    H2 4173   7.875   1.902   0.832
 1410TIP3   OH2 4174   3.101   2.860   5.291
 1410TIP3    H1 4175   3.133   2.950   5.292
 1410TIP3    H2 4176   3.158   2.813   5.352
 1411TIP3   OH2 4177   7.340   2.496   4.148
 1411TIP3    H1 4178   7.279   2.424   4.161
 1411TIP3    H2 4179   7.288   2.565   4.108
 1412TIP3   OH2 4180   7.812   2.395   5.661
 1412TIP3    H1 4181   7.770   2.477   5.635
 1412TIP3    H2 4182   7.896   2.396   5.615
 1413TIP3   OH2 4183   4.278   5.277   1.430
 1413TIP3    H1 4184   4.316   5.257   1.345
 1413TIP3    H2 4185   4.304   5.368   1.447
 1414TIP3   OH2 4186   6.128   2.940   3.571
 1414TIP3    H1 4187   6.210   2.984   3.591
 1414TIP3    H2 4188   6.060   3.005   3.591
 1415TIP3   OH2 4189   4.944   3.032   1.800
 1415TIP3    H1 4190   4.921   3.097   1.865
 1415TIP3    H2 4191   4.909   3.066   1.718
 1416TIP3   OH2 4192   3.860   4.688   0.683
 1416TIP3    H1 4193   3.878   4.707   0.775
 1416TIP3    H2 4194   3.853   4.774   0.641
 1417TIP3   OH2 4195   3.978   4.485   0.008
 1417TIP3    H1 4196   3.998   4.563  -0.044
 1417TIP3    H2 4197   3.964   4.518   0.096
 1418TIP3   OH2 4198   6.457   5.083   1.616
 1418TIP3    H1 4199   6.404   5.159   1.591
 1418TIP3    H2 4200   6.538   5.121   1.649
 1419TIP3   OH2 4201   7.684   4.994   6.686
 1419TIP3    H1 4202   7.704   5.079   6.725
 1419TIP3    H2 4203   7.766   4.945   6.694
 1420TIP3   OH2 4204   3.108   1.644   1.203
 1420TIP3    H1 4205   3.137   1.597   1.125
 1420TIP3    H2 4206   3.175   1.627   1.269
 1421TIP3   OH2 4207   0.097   4.820   6.640
 1421TIP3    H1 4208   0.141   4.890   6.688
 1421TIP3    H2 4209   0.162   4.790   6.576
 1422TIP3   OH2 4210   1.777   3.455   6.311
 1422TIP3    H1 4211   1.845   3.476   6.246
 1422TIP3    H2 4212   1.720   3.532   6.310
 1423TIP3   OH2 4213   3.938   4.775   5.494
 1423TIP3    H1 4214   3.963   4.798   5.584
 1423TIP3    H2 4215   3.872   4.840   5.470
 1424TIP3   OH2 4216   2.829   5.197   0.645
 1424TIP3    H1 4217   2.842   5.194   0.550
 1424TIP3    H2 4218   2.861   5.112   0.675
 1425TIP3   OH2 4219   2.061   1.471   6.706
 1425TIP3    H1 4220   2.059   1.387   6.752
 1425TIP3    H2 4221   1.980   1.514   6.732
 1426TIP3   OH2 4222   6.763   1.000   5.594
 1426TIP3    H1 4223   6.696   0.961   5.651
 1426TIP3    H2 4224   6.744   1.094   5.597
 1427TIP3   OH2 4225   3.854   6.941   0.904
 1427TIP3    H1 4226   3.882   6.937   0.812
 1427TIP3    H2 4227   3.904   6.871   0.947
 1428TIP3   OH2 4228   5.677   3.565   3.100
 1428TIP3    H1 4229   5.712   3.528   3.018
 1428TIP3    H2 4230   5.593   3.604   3.074
 1429TIP3   OH2 4231   0.805   7.691   1.575
 1429TIP3    H1 4232   0.901   7.691   1.575
 1429TIP3    H2 4233   0.781   7.661   1.487
 1430TIP3   OH2 4234   1.001   5.202   4.560
 1430TIP3    H1 4235   0.962   5.173   4.478
 1430TIP3    H2 4236   0.961   5.146   4.627
 1431TIP3   OH2 4237   0.857   1.985   6.443
 1431TIP3    H1 4238   0.878   1.939   6.362
 1431TIP3    H2 4239   0.831   2.073   6.415
 1432TIP3   OH2 4240   7.931   3.409   4.318
 1432TIP3    H1 4241   8.005   3.373   4.365
 1432TIP3    H2 4242   7.969   3.458   4.245
 1433TIP3   OH2 4243   0.305   1.618   2.268
 1433TIP3    H1 4244   0.392   1.656   2.284
 1433TIP3    H2 4245   0.317   1.565   2.189
 1434TIP3   OH2 4246   2.075   1.463   4.568
 1434TIP3    H1 4247   2.111   1.440   4.482
 1434TIP3    H2 4248   2.133   1.419   4.630
 1435TIP3   OH2 4249   2.132   3.231   1.687
 1435TIP3    H1 4250   2.048   3.192   1.712
 1435TIP3    H2 4251   2.184   3.228   1.767
 1436TIP3   OH2 4252   6.674   3.988   3.251
 1436TIP3    H1 4253   6.601   4.022   3.200
 1436TIP3    H2 4254   6.742   3.969   3.185
 1437TIP3   OH2 4255   5.201   0.256   3.920
 1437TIP3    H1 4256   5.135   0.222   3.859
 1437TIP3    H2 4257   5.267   0.296   3.864
 1438TIP3   OH2 4258   4.671   2.930   3.069
 1438TIP3    H1 4259   4.583   2.898   3.048
 1438TIP3    H2 4260   4.656   3.016   3.109
 1439TIP3   OH2 4261   5.114   4.285   2.256
 1439TIP3    H1 4262   5.056   4.212   2.233
 1439TIP3    H2 4263   5.170   4.250   2.325
 1440TIP3   OH2 4264   0.257   3.125   1.940
 1440TIP3    H1 4265   0.204   3.195   1.902
 1440TIP3    H2 4266   0.346   3.143   1.909
 1441TIP3   OH2 4267   6.581   1.023   5.387
 1441TIP3    H1 4268   6.619   1.106   5.357
 1441TIP3    H2 4269   6.632   1.000   5.464
 1442TIP3   OH2 4270   6.756   0.654   3.069
 1442TIP3    H1 4271   6.786   0.738   3.034
 1442TIP3    H2 4272   6.835   0.613   3.104
 1443TIP3   OH2 4273   7.182   4.430   1.169
 1443TIP3    H1 4274   7.247   4.391   1.227
 1443TIP3    H2 4275   7.188   4.524   1.186
 1444TIP3   OH2 4276   7.919   7.746   0.757
 1444TIP3    H1 4277   7.944   7.658   0.728
 1444TIP3    H2 4278   7.958   7.804   0.691
 1445TIP3   OH2 4279   3.818   1.140   1.065
 1445TIP3    H1 4280   3.753   1.073   1.043
 1445TIP3    H2 4281   3.769   1.204   1.118
 1446TIP3   OH2 4282   0.380   3.395   2.118
 1446TIP3    H1 4283   0.361   3.307   2.148
 1446TIP3    H2 4284   0.474   3.395   2.099
 1447TIP3   OH2 4285   7.862   0.429   3.343
 1447TIP3    H1 4286   7.943   0.459   3.385
 1447TIP3    H2 4287   7.876   0.336   3.327
 1448TIP3   OH2 4288   4.597   6.106   2.301
 1448TIP3    H1 4289   4.504   6.097   2.321
 1448TIP3    H2 4290   4.639   6.036   2.351
 1449TIP3   OH2 4291   0.926   1.065   1.040
 1449TIP3    H1 4292   0.890   1.136   1.093
 1449TIP3    H2 4293   1.018   1.061   1.064
 1450TIP3   OH2 4294   4.368   2.617   6.259
 1450TIP3    H1 4295   4.398   2.563   6.187
 1450TIP3    H2 4296   4.323   2.690   6.217
 1451TIP3   OH2 4297   4.991   0.328   0.556
 1451TIP3    H1 4298   4.997   0.301   0.464
 1451TIP3    H2 4299   5.018   0.419   0.556
 1452TIP3   OH2 4300   7.604   0.956   5.431
 1452TIP3    H1 4301   7.685   0.943   5.381
 1452TIP3    H2 4302   7.606   0.888   5.498
 1453TIP3   OH2 4303   5.296   4.647   1.321
 1453TIP3    H1 4304   5.261   4.700   1.393
 1453TIP3    H2 4305   5.386   4.628   1.347
 1454TIP3   OH2 4306   5.766   1.500   2.043
 1454TIP3    H1 4307   5.807   1.586   2.055
 1454TIP3    H2 4308   5.699   1.514   1.976
 1455TIP3   OH2 4309   3.999   4.959   1.603
 1455TIP3    H1 4310   3.932   5.019   1.637
 1455TIP3    H2 4311   4.082   4.994   1.636
 1456TIP3   OH2 4312   0.328   7.706   2.593
 1456TIP3    H1 4313   0.239   7.702   2.559
 1456TIP3    H2 4314   0.316   7.717   2.688
 1457TIP3   OH2 4315   1.152   0.706   2.306
 1457TIP3    H1 4316   1.170   0.623   2.263
 1457TIP3    H2 4317   1.211   0.707   2.381
 1458TIP3   OH2 4318   5.817   5.115   4.688
 1458TIP3    H1 4319   5.897   5.081   4.649
 1458TIP3    H2 4320   5.787   5.183   4.628
 1459TIP3   OH2 4321   7.560   6.780   4.775
 1459TIP3    H1 4322   7.496   6.711   4.791
 1459TIP3    H2 4323   7.637   6.735   4.742
 1460TIP3   OH2 4324   5.860   5.713   3.637
 1460TIP3    H1 4325   5.786   5.679   3.587
 1460TIP3    H2 4326   5.821   5.775   3.699
 1461TIP3   OH2 4327   6.856   3.396   2.517
 1461TIP3    H1 4328   6.928   3.455   2.538
 1461TIP3    H2 4329   6.777   3.450   2.520
 1462TIP3   OH2 4330   1.573   3.034   4.231
 1462TIP3    H1 4331   1.617   2.994   4.306
 1462TIP3    H2 4332   1.491   2.986   4.223
 1463TIP3   OH2 4333   8.029   2.555   0.044
 1463TIP3    H1 4334   8.047   2.548   0.138
 1463TIP3    H2 4335   8.109   2.523   0.002
 1464TIP3   OH2 4336   3.812   6.162   4.191
 1464TIP3    H1 4337   3.753   6.086   4.188
 1464TIP3    H2 4338   3.808   6.199   4.103
 1465TIP3   OH2 4339   5.666   7.367   5.673
 1465TIP3    H1 4340   5.707   7.439   5.625
 1465TIP3    H2 4341   5.680   7.388   5.765
 1466TIP3   OH2 4342   0.585   7.572   2.209
 1466TIP3    H1 4343   0.556   7.636   2.145
 1466TIP3    H2 4344   0.555   7.607   2.293
 1467TIP3   OH2 4345   1.898  -0.038   1.577
 1467TIP3    H1 4346   1.910   0.051   1.544
 1467TIP3    H2 4347   1.806  -0.058   1.560
 1468TIP3   OH2 4348   4.690   3.898   5.993
 1468TIP3    H1 4349   4.683   3.970   5.932
 1468TIP3    H2 4350   4.772   3.855   5.970
 1469TIP3   OH2 4351   2.582   5.678   4.963
 1469TIP3    H1 4352   2.594   5.748   4.899
 1469TIP3    H2 4353   2.487   5.672   4.974
 1470TIP3   OH2 4354   3.849   6.910   3.654
 1470TIP3    H1 4355   3.820   6.974   3.719
 1470TIP3    H2 4356   3.832   6.825   3.694
 1471TIP3   OH2 4357   5.771   5.945   3.767
 1471TIP3    H1 4358   5.700   5.980   3.820
 1471TIP3    H2 4359   5.792   6.015   3.705
 1472TIP3   OH2 4360   2.036   3.166   2.799
 1472TIP3    H1 4361   2.008   3.178   2.708
 1472TIP3    H2 4362   1.955   3.166   2.850
 1473TIP3   OH2 4363   5.701   2.820   6.268
 1473TIP3    H1 4364   5.611   2.789   6.279
 1473TIP3    H2 4365   5.736   2.767   6.196
 1474TIP3   OH2 4366   0.764   0.749   0.579
 1474TIP3    H1 4367   0.772   0.711   0.492
 1474TIP3    H2 4368   0.675   0.785   0.582
 1475TIP3   OH2 4369   0.795   2.658   5.431
 1475TIP3    H1 4370   0.811   2.644   5.338
 1475TIP3    H2 4371   0.881   2.682   5.467
 1476TIP3   OH2 4372   2.573   0.176   6.126
 1476TIP3    H1 4373   2.607   0.238   6.191
 1476TIP3    H2 4374   2.638   0.105   6.125
 1477TIP3   OH2 4375   5.974   2.817   1.902
 1477TIP3    H1 4376   5.885   2.848   1.922
 1477TIP3    H2 4377   5.962   2.752   1.833
 1478TIP3   OH2 4378   3.337   7.414   0.214
 1478TIP3    H1 4379   3.398   7.447   0.280
 1478TIP3    H2 4380   3.341   7.318   0.222
 1479TIP3   OH2 4381   6.104   0.750   2.903
 1479TIP3    H1 4382   6.168   0.680   2.913
 1479TIP3    H2 4383   6.150   0.819   2.855
 1480TIP3   OH2 4384   6.443   2.207   6.037
 1480TIP3    H1 4385   6.386   2.140   6.076
 1480TIP3    H2 4386   6.383   2.270   5.997
 1481TIP3   OH2 4387   5.666   0.347   2.255
 1481TIP3    H1 4388   5.722   0.359   2.332
 1481TIP3    H2 4389   5.727   0.340   2.182
 1482TIP3   OH2 4390   7.071   0.639   1.065
 1482TIP3    H1 4391   6.980   0.639   1.095
 1482TIP3    H2 4392   7.072   0.575   0.993
 1483TIP3   OH2 4393   4.196   4.239   1.492
 1483TIP3    H1 4394   4.228   4.283   1.413
 1483TIP3    H2 4395   4.223   4.296   1.564
 1484TIP3   OH2 4396   2.053   3.971   4.080
 1484TIP3    H1 4397   2.005   4.049   4.052
 1484TIP3    H2 4398   2.002   3.898   4.047
 1485TIP3   OH2 4399   5.933   4.979   4.950
 1485TIP3    H1 4400   5.925   5.006   4.858
 1485TIP3    H2 4401   5.847   4.944   4.972
 1486TIP3   OH2 4402   6.926   5.300   5.836
 1486TIP3    H1 4403   6.986   5.313   5.762
 1486TIP3    H2 4404   6.839   5.297   5.796
 1487TIP3   OH2 4405   2.441   5.986   5.390
 1487TIP3    H1 4406   2.502   5.962   5.460
 1487TIP3    H2 4407   2.496   5.991   5.312
 1488TIP3   OH2 4408   7.729   3.350   1.244
 1488TIP3    H1 4409   7.815   3.391   1.255
 1488TIP3    H2 4410   7.744   3.258   1.264
 1489TIP3   OH2 4411   8.089   5.558   0.899
 1489TIP3    H1 4412   8.065   5.468   0.877
 1489TIP3    H2 4413   8.087   5.562   0.994
 1490TIP3   OH2 4414   3.849   2.906   5.475
 1490TIP3    H1 4415   3.797   2.826   5.477
 1490TIP3    H2 4416   3.787   2.976   5.494
 1491TIP3   OH2 4417   3.472   0.047   1.767
 1491TIP3    H1 4418   3.483  -0.025   1.705
 1491TIP3    H2 4419   3.545   0.106   1.747
 1492TIP3   OH2 4420   6.008   3.188   1.854
 1492TIP3    H1 4421   6.015   3.282   1.838
 1492TIP3    H2 4422   5.914   3.171   1.861
 1493TIP3   OH2 4423   3.580   3.967   4.440
 1493TIP3    H1 4424   3.521   4.014   4.382
 1493TIP3    H2 4425   3.668   3.988   4.407
 1494TIP3   OH2 4426   7.043   7.317   1.339
 1494TIP3    H1 4427   7.099   7.394   1.351
 1494TIP3    H2 4428   6.991   7.337   1.261
 1495TIP3   OH2 4429   2.514   1.161   5.513
 1495TIP3    H1 4430   2.537   1.107   5.438
 1495TIP3    H2 4431   2.418   1.165   5.511
 1496TIP3   OH2 4432   7.148   2.801   3.815
 1496TIP3    H1 4433   7.203   2.823   3.739
 1496TIP3    H2 4434   7.154   2.878   3.872
 1497TIP3   OH2 4435   6.829   7.748   3.748
 1497TIP3    H1 4436   6.766   7.792   3.691
 1497TIP3    H2 4437   6.913   7.787   3.725
 1498TIP3   OH2 4438   6.878   4.130   6.597
 1498TIP3    H1 4439   6.916   4.131   6.685
 1498TIP3    H2 4440   6.807   4.066   6.603
 1499TIP3   OH2 4441   2.663   5.705   4.114
 1499TIP3    H1 4442   2.575   5.683   4.142
 1499TIP3    H2 4443   2.676   5.796   4.143
 1500TIP3   OH2 4444   2.042   3.941   2.392
 1500TIP3    H1 4445   2.004   3.928   2.305
 1500TIP3    H2 4446   1.970   3.977   2.444
 1501TIP3   OH2 4447   3.510   6.777   5.017
 1501TIP3    H1 4448   3.504   6.682   5.003
 1501TIP3    H2 4449   3.432   6.798   5.068
 1502TIP3   OH2 4450   4.252   3.152   1.220
 1502TIP3    H1 4451   4.313   3.132   1.291
 1502TIP3    H2 4452   4.205   3.230   1.249
 1503TIP3   OH2 4453   2.360   2.662   0.844
 1503TIP3    H1 4454   2.420   2.663   0.769
 1503TIP3    H2 4455   2.283   2.615   0.812
 1504TIP3   OH2 4456   6.705   0.326   3.710
 1504TIP3    H1 4457   6.684   0.374   3.790
 1504TIP3    H2 4458   6.789   0.283   3.729
 1505TIP3   OH2 4459   2.970   5.762   4.253
 1505TIP3    H1 4460   3.003   5.797   4.170
 1505TIP3    H2 4461   2.881   5.796   4.260
 1506TIP3   OH2 4462   3.108   6.029   2.919
 1506TIP3    H1 4463   3.136   6.077   2.996
 1506TIP3    H2 4464   3.188   6.015   2.868
 1507TIP3   OH2 4465   2.738   2.179   1.502
 1507TIP3    H1 4466   2.775   2.145   1.420
 1507TIP3    H2 4467   2.803   2.242   1.533
 1508TIP3   OH2 4468   0.468   6.301   3.247
 1508TIP3    H1 4469   0.424   6.216   3.242
 1508TIP3    H2 4470   0.501   6.317   3.158
 1509TIP3   OH2 4471   7.721   2.686   0.549
 1509TIP3    H1 4472   7.803   2.705   0.503
 1509TIP3    H2 4473   7.675   2.625   0.492
 1510TIP3   OH2 4474   0.935   5.370   2.218
 1510TIP3    H1 4475   1.011   5.422   2.193
 1510TIP3    H2 4476   0.970   5.300   2.272
 1511TIP3   OH2 4477   3.195   2.571   2.954
 1511TIP3    H1 4478   3.263   2.633   2.927
 1511TIP3    H2 4479   3.118   2.625   2.969
 1512TIP3   OH2 4480   1.169   0.939   2.696
 1512TIP3    H1 4481   1.237   0.999   2.666
 1512TIP3    H2 4482   1.093   0.996   2.711
 1513TIP3   OH2 4483   1.623   7.771   5.973
 1513TIP3    H1 4484   1.565   7.721   5.915
 1513TIP3    H2 4485   1.621   7.860   5.938
 1514TIP3   OH2 4486   1.616   5.174   4.385
 1514TIP3    H1 4487   1.533   5.220   4.390
 1514TIP3    H2 4488   1.665   5.204   4.462
 1515TIP3   OH2 4489   5.984   4.059   2.776
 1515TIP3    H1 4490   5.964   4.132   2.719
 1515TIP3    H2 4491   6.013   3.989   2.717
 1516TIP3   OH2 4492   6.565   4.021   5.195
 1516TIP3    H1 4493   6.657   3.996   5.202
 1516TIP3    H2 4494   6.548   4.073   5.273
 1517TIP3   OH2 4495   3.670   7.072   2.956
 1517TIP3    H1 4496   3.764   7.093   2.952
 1517TIP3    H2 4497   3.667   6.981   2.985
 1518TIP3   OH2 4498   8.229   0.225   3.961
 1518TIP3    H1 4499   8.145   0.249   4.000
 1518TIP3    H2 4500   8.214   0.140   3.920
 1519TIP3   OH2 4501   1.333   4.216   1.698
 1519TIP3    H1 4502   1.281   4.181   1.626
 1519TIP3    H2 4503   1.416   4.240   1.659
 1520TIP3   OH2 4504   0.400   3.152   1.063
 1520TIP3    H1 4505   0.402   3.090   0.990
 1520TIP3    H2 4506   0.312   3.190   1.060
 1521TIP3   OH2 4507   2.461   3.872   4.608
 1521TIP3    H1 4508   2.429   3.818   4.681
 1521TIP3    H2 4509   2.535   3.920   4.645
 1522TIP3   OH2 4510   3.012   4.096   2.024
 1522TIP3    H1 4511   2.948   4.025   2.020
 1522TIP3    H2 4512   3.094   4.054   2.051
 1523TIP3   OH2 4513   2.489   2.657   3.235
 1523TIP3    H1 4514   2.537   2.732   3.271
 1523TIP3    H2 4515   2.399   2.668   3.266
 1524TIP3   OH2 4516   2.057   3.896   4.917
 1524TIP3    H1 4517   2.100   3.973   4.881
 1524TIP3    H2 4518   1.986   3.878   4.855
 1525TIP3   OH2 4519   1.917   4.007   3.136
 1525TIP3    H1 4520   2.007   4.039   3.128
 1525TIP3    H2 4521   1.868   4.055   3.069
 1526TIP3   OH2 4522   7.648   5.917   5.145
 1526TIP3    H1 4523   7.617   5.939   5.057
 1526TIP3    H2 4524   7.742   5.938   5.143
 1527TIP3   OH2 4525   4.028   4.244   4.858
 1527TIP3    H1 4526   4.101   4.215   4.803
 1527TIP3    H2 4527   4.069   4.284   4.934
 1528TIP3   OH2 4528   5.348   0.395   0.499
 1528TIP3    H1 4529   5.302   0.341   0.562
 1528TIP3    H2 4530   5.329   0.354   0.414
 1529TIP3   OH2 4531   7.810   4.050   3.101
 1529TIP3    H1 4532   7.757   3.973   3.118
 1529TIP3    H2 4533   7.820   4.092   3.186
 1530TIP3   OH2 4534   3.754   2.706   2.136
 1530TIP3    H1 4535   3.834   2.739   2.178
 1530TIP3    H2 4536   3.721   2.640   2.197
 1531TIP3   OH2 4537   7.703   0.624   2.119
 1531TIP3    H1 4538   7.658   0.618   2.035
 1531TIP3    H2 4539   7.749   0.540   2.127
 1532TIP3   OH2 4540   6.354   4.144   6.659
 1532TIP3    H1 4541   6.385   4.082   6.725
 1532TIP3    H2 4542   6.264   4.164   6.685
 1533TIP3   OH2 4543   3.770   7.551   3.185
 1533TIP3    H1 4544   3.856   7.518   3.159
 1533TIP3    H2 4545   3.745   7.612   3.116
 1534TIP3   OH2 4546   2.436  -0.013   4.042
 1534TIP3    H1 4547   2.397   0.047   3.979
 1534TIP3    H2 4548   2.390  -0.096   4.027
 1535TIP3   OH2 4549   2.824   6.696   6.690
 1535TIP3    H1 4550   2.765   6.649   6.632
 1535TIP3    H2 4551   2.802   6.664   6.778
 1536TIP3   OH2 4552   6.761   6.111   3.331
 1536TIP3    H1 4553   6.726   6.109   3.420
 1536TIP3    H2 4554   6.793   6.201   3.320
 1537TIP3   OH2 4555   3.995   3.545   1.490
 1537TIP3    H1 4556   3.960   3.600   1.560
 1537TIP3    H2 4557   4.065   3.596   1.450
 1538TIP3   OH2 4558   3.751   5.488   6.429
 1538TIP3    H1 4559   3.807   5.418   6.464
 1538TIP3    H2 4560   3.689   5.442   6.372
 1539TIP3   OH2 4561   2.450   5.136   5.031
 1539TIP3    H1 4562   2.420   5.166   5.117
 1539TIP3    H2 4563   2.537   5.174   5.022
 1540TIP3   OH2 4564   6.973   3.337   3.034
 1540TIP3    H1 4565   6.914   3.278   3.080
 1540TIP3    H2 4566   6.985   3.297   2.948
 1541TIP3   OH2 4567   5.054   2.101   5.597
 1541TIP3    H1 4568   5.023   2.025   5.546
 1541TIP3    H2 4569   5.149   2.103   5.580
 1542TIP3   OH2 4570   7.224   6.459   0.830
 1542TIP3    H1 4571   7.265   6.407   0.761
 1542TIP3    H2 4572   7.156   6.509   0.786
 1543TIP3   OH2 4573   1.718   1.320   3.352
 1543TIP3    H1 4574   1.709   1.337   3.446
 1543TIP3    H2 4575   1.653   1.252   3.334
 1544TIP3   OH2 4576   6.163   4.516   5.409
 1544TIP3    H1 4577   6.188   4.428   5.382
 1544TIP3    H2 4578   6.206   4.529   5.494
 1545TIP3   OH2 4579   0.070   3.375   1.285
 1545TIP3    H1 4580   0.050   3.401   1.374
 1545TIP3    H2 4581  -0.016   3.360   1.245
 1546TIP3   OH2 4582   8.130   4.995   4.476
 1546TIP3    H1 4583   8.194   5.065   4.488
 1546TIP3    H2 4584   8.079   4.996   4.557
 1547TIP3   OH2 4585   2.088   5.553   6.485
 1547TIP3    H1 4586   2.012   5.612   6.481
 1547TIP3    H2 4587   2.147   5.586   6.417
 1548TIP3   OH2 4588   2.294   4.868   4.251
 1548TIP3    H1 4589   2.314   4.961   4.260
 1548TIP3    H2 4590   2.260   4.859   4.162
 1549TIP3   OH2 4591   4.246   7.786   4.699
 1549TIP3    H1 4592   4.256   7.794   4.604
 1549TIP3    H2 4593   4.193   7.708   4.711
 1550TIP3   OH2 4594   5.595   7.632   3.929
 1550TIP3    H1 4595   5.506   7.613   3.900
 1550TIP3    H2 4596   5.613   7.720   3.895
 1551TIP3   OH2 4597   1.850   5.046   0.253
 1551TIP3    H1 4598   1.850   4.953   0.229
 1551TIP3    H2 4599   1.777   5.054   0.314
 1552TIP3   OH2 4600   0.581   7.218   6.027
 1552TIP3    H1 4601   0.625   7.273   6.092
 1552TIP3    H2 4602   0.599   7.261   5.943
 1553TIP3   OH2 4603   1.194   1.672   2.295
 1553TIP3    H1 4604   1.210   1.748   2.239
 1553TIP3    H2 4605   1.257   1.607   2.265
 1554TIP3   OH2 4606   4.898   6.386   4.844
 1554TIP3    H1 4607   4.875   6.479   4.855
 1554TIP3    H2 4608   4.928   6.380   4.753
 1555TIP3   OH2 4609   6.098   7.052   6.354
 1555TIP3    H1 4610   6.130   6.981   6.409
 1555TIP3    H2 4611   6.081   7.124   6.415
 1556TIP3   OH2 4612   7.227   6.066   3.392
 1556TIP3    H1 4613   7.313   6.051   3.353
 1556TIP3    H2 4614   7.244   6.124   3.466
 1557TIP3   OH2 4615   5.117   6.098   6.084
 1557TIP3    H1 4616   5.040   6.051   6.115
 1557TIP3    H2 4617   5.186   6.076   6.146
 1558TIP3   OH2 4618   0.768   0.184   4.149
 1558TIP3    H1 4619   0.764   0.198   4.055
 1558TIP3    H2 4620   0.853   0.219   4.175
 1559TIP3   OH2 4621   6.578   1.929   3.236
 1559TIP3    H1 4622   6.668   1.926   3.205
 1559TIP3    H2 4623   6.526   1.943   3.157
 1560TIP3   OH2 4624   0.842   4.687   5.340
 1560TIP3    H1 4625   0.856   4.702   5.433
 1560TIP3    H2 4626   0.919   4.725   5.298
 1561TIP3   OH2 4627   0.828   3.395   1.355
 1561TIP3    H1 4628   0.858   3.486   1.347
 1561TIP3    H2 4629   0.848   3.371   1.445
 1562TIP3   OH2 4630   6.974   7.648   2.420
 1562TIP3    H1 4631   7.022   7.565   2.416
 1562TIP3    H2 4632   6.941   7.660   2.331
 1563TIP3   OH2 4633   2.169   4.938   1.872
 1563TIP3    H1 4634   2.179   4.843   1.860
 1563TIP3    H2 4635   2.108   4.964   1.802
 1564TIP3   OH2 4636   3.237   4.719   3.343
 1564TIP3    H1 4637   3.185   4.783   3.295
 1564TIP3    H2 4638   3.201   4.634   3.317
 1565TIP3   OH2 4639   5.842   4.473   4.845
 1565TIP3    H1 4640   5.865   4.420   4.921
 1565TIP3    H2 4641   5.756   4.510   4.867
 1566TIP3   OH2 4642   6.452   7.038   2.065
 1566TIP3    H1 4643   6.396   7.090   2.007
 1566TIP3    H2 4644   6.427   7.064   2.153
 1567TIP3   OH2 4645   4.285   2.494   1.683
 1567TIP3    H1 4646   4.346   2.424   1.663
 1567TIP3    H2 4647   4.271   2.488   1.777
 1568TIP3   OH2 4648   3.321   4.585   2.192
 1568TIP3    H1 4649   3.415   4.593   2.176
 1568TIP3    H2 4650   3.303   4.491   2.184
 1569TIP3   OH2 4651   3.588   7.063   0.515
 1569TIP3    H1 4652   3.677   7.088   0.488
 1569TIP3    H2 4653   3.531   7.121   0.465
 1570TIP3   OH2 4654   2.327   5.431   3.389
 1570TIP3    H1 4655   2.239   5.429   3.352
 1570TIP3    H2 4656   2.347   5.340   3.409
 1571TIP3   OH2 4657   2.641   4.365   2.317
 1571TIP3    H1 4658   2.638   4.455   2.285
 1571TIP3    H2 4659   2.573   4.361   2.385
 1572TIP3   OH2 4660   0.735   1.951   5.865
 1572TIP3    H1 4661   0.692   2.014   5.922
 1572TIP3    H2 4662   0.676   1.942   5.790
 1573TIP3   OH2 4663   6.408   2.725   1.820
 1573TIP3    H1 4664   6.336   2.681   1.776
 1573TIP3    H2 4665   6.382   2.728   1.913
 1574TIP3   OH2 4666   7.430   0.318   4.365
 1574TIP3    H1 4667   7.435   0.298   4.272
 1574TIP3    H2 4668   7.336   0.319   4.385
 1575TIP3   OH2 4669   7.141   3.607   1.673
 1575TIP3    H1 4670   7.108   3.518   1.678
 1575TIP3    H2 4671   7.193   3.609   1.592
 1576TIP3   OH2 4672   5.098   2.317   6.068
 1576TIP3    H1 4673   5.033   2.314   5.997
 1576TIP3    H2 4674   5.046   2.339   6.146
 1577TIP3   OH2 4675   7.002   2.330   2.636
 1577TIP3    H1 4676   6.955   2.389   2.695
 1577TIP3    H2 4677   6.936   2.300   2.574
 1578TIP3   OH2 4678   7.792   4.513   1.839
 1578TIP3    H1 4679   7.788   4.579   1.909
 1578TIP3    H2 4680   7.783   4.429   1.884
 1579TIP3   OH2 4681   2.730   4.421   3.653
 1579TIP3    H1 4682   2.683   4.350   3.696
 1579TIP3    H2 4683   2.666   4.492   3.647
 1580TIP3   OH2 4684   1.958   6.475   2.675
 1580TIP3    H1 4685   2.011   6.554   2.686
 1580TIP3    H2 4686   1.900   6.495   2.602
 1581TIP3   OH2 4687   3.479   5.392   5.736
 1581TIP3    H1 4688   3.518   5.402   5.823
 1581TIP3    H2 4689   3.403   5.336   5.749
 1582TIP3   OH2 4690   0.600   6.610   0.090
 1582TIP3    H1 4691   0.618   6.543   0.025
 1582TIP3    H2 4692   0.671   6.674   0.080
 1583TIP3   OH2 4693   7.224   5.488   1.177
 1583TIP3    H1 4694   7.156   5.522   1.234
 1583TIP3    H2 4695   7.268   5.565   1.142
 1584TIP3   OH2 4696   5.419   2.625   2.599
 1584TIP3    H1 4697   5.475   2.637   2.522
 1584TIP3    H2 4698   5.352   2.562   2.570
 1585TIP3   OH2 4699   0.629   4.250   2.974
 1585TIP3    H1 4700   0.719   4.234   3.001
 1585TIP3    H2 4701   0.631   4.335   2.930
 1586TIP3   OH2 4702   7.478   2.255   6.720
 1586TIP3    H1 4703   7.516   2.343   6.724
 1586TIP3    H2 4704   7.446   2.246   6.630
 1587TIP3   OH2 4705   2.902   7.397   6.592
 1587TIP3    H1 4706   2.871   7.393   6.502
 1587TIP3    H2 4707   2.875   7.314   6.631
 1588TIP3   OH2 4708   7.487   5.489   4.163
 1588TIP3    H1 4709   7.487   5.466   4.070
 1588TIP3    H2 4710   7.579   5.491   4.187
 1589TIP3   OH2 4711   5.322   5.725   3.119
 1589TIP3    H1 4712   5.345   5.673   3.197
 1589TIP3    H2 4713   5.380   5.801   3.124
 1590TIP3   OH2 4714   1.809   6.426   4.101
 1590TIP3    H1 4715   1.782   6.390   4.016
 1590TIP3    H2 4716   1.806   6.351   4.161
 1591TIP3   OH2 4717   5.736   1.430  -0.062
 1591TIP3    H1 4718   5.772   1.430   0.027
 1591TIP3    H2 4719   5.727   1.337  -0.084
 1592TIP3   OH2 4720   3.311   1.197   0.784
 1592TIP3    H1 4721   3.316   1.124   0.722
 1592TIP3    H2 4722   3.242   1.171   0.846
 1593TIP3   OH2 4723   0.679   2.553   2.379
 1593TIP3    H1 4724   0.705   2.474   2.425
 1593TIP3    H2 4725   0.704   2.625   2.438
 1594TIP3   OH2 4726   4.577   7.638   4.224
 1594TIP3    H1 4727   4.600   7.566   4.282
 1594TIP3    H2 4728   4.591   7.717   4.276
 1595TIP3   OH2 4729   2.097   5.162   5.859
 1595TIP3    H1 4730   2.062   5.175   5.771
 1595TIP3    H2 4731   2.137   5.075   5.856
 1596TIP3   OH2 4732   2.732   5.740   0.532
 1596TIP3    H1 4733   2.652   5.739   0.480
 1596TIP3    H2 4734   2.784   5.667   0.498
 1597TIP3   OH2 4735   5.038   7.658   6.431
 1597TIP3    H1 4736   5.012   7.566   6.437
 1597TIP3    H2 4737   5.093   7.662   6.353
 1598TIP3   OH2 4738   5.111   3.864   0.917
 1598TIP3    H1 4739   5.198   3.849   0.879
 1598TIP3    H2 4740   5.050   3.848   0.845
 1599TIP3   OH2 4741   0.234   5.358   1.085
 1599TIP3    H1 4742   0.293   5.291   1.052
 1599TIP3    H2 4743   0.155   5.348   1.032
 1600TIP3   OH2 4744   2.978   5.116   5.796
 1600TIP3    H1 4745   2.962   5.211   5.793
 1600TIP3    H2 4746   2.954   5.084   5.709
 1601TIP3   OH2 4747   4.904   0.233   4.787
 1601TIP3    H1 4748   4.979   0.262   4.839
 1601TIP3    H2 4749   4.943   0.197   4.707
 1602TIP3   OH2 4750   3.328   7.733   4.709
 1602TIP3    H1 4751   3.404   7.701   4.759
 1602TIP3    H2 4752   3.325   7.827   4.728
 1603TIP3   OH2 4753   5.974   5.963   5.774
 1603TIP3    H1 4754   5.959   5.878   5.732
 1603TIP3    H2 4755   5.984   6.024   5.702
 1604TIP3   OH2 4756   4.188   7.035   2.084
 1604TIP3    H1 4757   4.174   7.123   2.117
 1604TIP3    H2 4758   4.147   6.978   2.150
 1605TIP3   OH2 4759   5.950   1.539   2.736
 1605TIP3    H1 4760   6.002   1.564   2.812
 1605TIP3    H2 4761   5.919   1.621   2.699
 1606TIP3   OH2 4762   8.131   7.096   0.596
 1606TIP3    H1 4763   8.154   7.048   0.676
 1606TIP3    H2 4764   8.040   7.072   0.578
 1607TIP3   OH2 4765   0.491   0.474   2.615
 1607TIP3    H1 4766   0.494   0.569   2.605
 1607TIP3    H2 4767   0.581   0.445   2.604
 1608TIP3   OH2 4768   0.045   2.254   0.928
 1608TIP3    H1 4769   0.036   2.323   0.993
 1608TIP3    H2 4770   0.137   2.228   0.932
 1609TIP3   OH2 4771   5.470   5.889   0.705
 1609TIP3    H1 4772   5.526   5.811   0.704
 1609TIP3    H2 4773   5.516   5.952   0.760
 1610TIP3   OH2 4774   2.739   2.485   1.234
 1610TIP3    H1 4775   2.757   2.563   1.287
 1610TIP3    H2 4776   2.778   2.505   1.149
 1611TIP3   OH2 4777   1.635   2.290   3.638
 1611TIP3    H1 4778   1.600   2.374   3.608
 1611TIP3    H2 4779   1.730   2.303   3.640
 1612TIP3   OH2 4780   2.470   4.143   6.751
 1612TIP3    H1 4781   2.418   4.095   6.815
 1612TIP3    H2 4782   2.432   4.231   6.752
 1613TIP3   OH2 4783   5.249   1.414   6.053
 1613TIP3    H1 4784   5.336   1.393   6.021
 1613TIP3    H2 4785   5.197   1.427   5.973
 1614TIP3   OH2 4786   7.539   2.879   5.695
 1614TIP3    H1 4787   7.453   2.919   5.684
 1614TIP3    H2 4788   7.600   2.945   5.664
 1615TIP3   OH2 4789   0.727   5.543   1.279
 1615TIP3    H1 4790   0.763   5.618   1.232
 1615TIP3    H2 4791   0.713   5.477   1.212
 1616TIP3   OH2 4792   4.962   4.426   1.828
 1616TIP3    H1 4793   4.999   4.355   1.775
 1616TIP3    H2 4794   4.927   4.488   1.764
 1617TIP3   OH2 4795   3.345   2.345   2.760
 1617TIP3    H1 4796   3.307   2.433   2.756
 1617TIP3    H2 4797   3.437   2.357   2.737
 1618TIP3   OH2 4798   5.089   1.823   5.213
 1618TIP3    H1 4799   5.175   1.864   5.223
 1618TIP3    H2 4800   5.110   1.731   5.194
 1619TIP3   OH2 4801   0.089   2.675   3.627
 1619TIP3    H1 4802   0.131   2.740   3.570
 1619TIP3    H2 4803   0.067   2.723   3.706
 1620TIP3   OH2 4804   4.161   6.658   1.353
 1620TIP3    H1 4805   4.184   6.727   1.414
 1620TIP3    H2 4806   4.081   6.619   1.389
 1621TIP3   OH2 4807   6.220   1.728   2.615
 1621TIP3    H1 4808   6.270   1.725   2.533
 1621TIP3    H2 4809   6.129   1.722   2.588
 1622TIP3   OH2 4810   4.601   0.419   3.128
 1622TIP3    H1 4811   4.638   0.352   3.186
 1622TIP3    H2 4812   4.563   0.369   3.056
 1623TIP3   OH2 4813   2.527   4.267   3.737
 1623TIP3    H1 4814   2.451   4.307   3.780
 1623TIP3    H2 4815   2.533   4.179   3.774
 1624TIP3   OH2 4816   1.752   0.063   0.648
 1624TIP3    H1 4817   1.678   0.122   0.663
 1624TIP3    H2 4818   1.821   0.096   0.706
 1625TIP3   OH2 4819   4.286   2.647   1.320
 1625TIP3    H1 4820   4.303   2.699   1.398
 1625TIP3    H2 4821   4.195   2.618   1.329
 1626TIP3   OH2 4822   7.979   7.551   2.654
 1626TIP3    H1 4823   8.007   7.481   2.714
 1626TIP3    H2 4824   8.034   7.540   2.577
 1627TIP3   OH2 4825   0.165   6.337   1.772
 1627TIP3    H1 4826   0.103   6.267   1.752
 1627TIP3    H2 4827   0.250   6.301   1.747
 1628TIP3   OH2 4828   6.539   3.599   1.373
 1628TIP3    H1 4829   6.630   3.619   1.394
 1628TIP3    H2 4830   6.543   3.556   1.287
 1629TIP3   OH2 4831   1.880   7.275   4.909
 1629TIP3    H1 4832   1.915   7.194   4.946
 1629TIP3    H2 4833   1.956   7.334   4.906
 1630TIP3   OH2 4834   2.154   7.216   4.619
 1630TIP3    H1 4835   2.174   7.173   4.703
 1630TIP3    H2 4836   2.137   7.307   4.643
 1631TIP3   OH2 4837   0.174   6.266   4.440
 1631TIP3    H1 4838   0.089   6.311   4.444
 1631TIP3    H2 4839   0.215   6.299   4.361
 1632TIP3   OH2 4840   6.055   2.499   3.320
 1632TIP3    H1 4841   6.051   2.434   3.390
 1632TIP3    H2 4842   6.120   2.562   3.349
 1633TIP3   OH2 4843   7.552   5.130   2.232
 1633TIP3    H1 4844   7.516   5.152   2.318
 1633TIP3    H2 4845   7.543   5.210   2.180
 1634TIP3   OH2 4846   5.590   5.324   4.766
 1634TIP3    H1 4847   5.602   5.229   4.766
 1634TIP3    H2 4848   5.591   5.348   4.858
 1635TIP3   OH2 4849   4.364   1.954   4.962
 1635TIP3    H1 4850   4.458   1.954   4.943
 1635TIP3    H2 4851   4.354   2.014   5.036
 1636TIP3   OH2 4852   3.496   4.234   4.546
 1636TIP3    H1 4853   3.504   4.143   4.517
 1636TIP3    H2 4854   3.553   4.239   4.623
 1637TIP3   OH2 4855   4.881   3.720   5.907
 1637TIP3    H1 4856   4.931   3.639   5.912
 1637TIP3    H2 4857   4.897   3.752   5.818
 1638TIP3   OH2 4858   0.859   5.892   2.877
 1638TIP3    H1 4859   0.945   5.902   2.838
 1638TIP3    H2 4860   0.854   5.799   2.901
 1639TIP3   OH2 4861   4.047   4.897   1.340
 1639TIP3    H1 4862   4.110   4.965   1.316
 1639TIP3    H2 4863   4.022   4.917   1.430
 1640TIP3   OH2 4864   5.487   6.860   0.624
 1640TIP3    H1 4865   5.443   6.829   0.545
 1640TIP3    H2 4866   5.579   6.871   0.598
 1641TIP3   OH2 4867   5.174   4.610   0.123
 1641TIP3    H1 4868   5.225   4.691   0.113
 1641TIP3    H2 4869   5.160   4.581   0.033
 1642TIP3   OH2 4870   4.257   1.061   3.261
 1642TIP3    H1 4871   4.168   1.097   3.266
 1642TIP3    H2 4872   4.313   1.132   3.293
 1643TIP3   OH2 4873   1.943   0.158   5.473
 1643TIP3    H1 4874   2.009   0.148   5.543
 1643TIP3    H2 4875   1.970   0.096   5.406
 1644TIP3   OH2 4876   6.298   0.409   0.325
 1644TIP3    H1 4877   6.359   0.460   0.378
 1644TIP3    H2 4878   6.282   0.330   0.376
 1645TIP3   OH2 4879   4.210   7.570   3.753
 1645TIP3    H1 4880   4.298   7.595   3.726
 1645TIP3    H2 4881   4.203   7.602   3.843
 1646TIP3   OH2 4882   0.375   4.027   6.292
 1646TIP3    H1 4883   0.385   4.081   6.214
 1646TIP3    H2 4884   0.393   4.086   6.365
 1647TIP3   OH2 4885   4.451   1.773   3.896
 1647TIP3    H1 4886   4.490   1.801   3.814
 1647TIP3    H2 4887   4.490   1.687   3.913
 1648TIP3   OH2 4888   3.165   0.945   5.238
 1648TIP3    H1 4889   3.093   0.949   5.301
 1648TIP3    H2 4890   3.210   1.029   5.248
 1649TIP3   OH2 4891   0.162   2.375   0.696
 1649TIP3    H1 4892   0.116   2.458   0.711
 1649TIP3    H2 4893   0.109   2.310   0.741
 1650TIP3   OH2 4894   7.682   5.008   1.222
 1650TIP3    H1 4895   7.770   5.020   1.188
 1650TIP3    H2 4896   7.671   4.914   1.229
 1651TIP3   OH2 4897   3.339   0.793   3.648
 1651TIP3    H1 4898   3.336   0.852   3.573
 1651TIP3    H2 4899   3.432   0.776   3.662
 1652TIP3   OH2 4900   3.280   2.000   4.481
 1652TIP3    H1 4901   3.212   2.011   4.414
 1652TIP3    H2 4902   3.272   2.078   4.536
 1653TIP3   OH2 4903   1.053   4.825   5.246
 1653TIP3    H1 4904   1.041   4.920   5.258
 1653TIP3    H2 4905   1.142   4.817   5.213
 1654TIP3   OH2 4906   7.509   0.571   4.557
 1654TIP3    H1 4907   7.536   0.500   4.498
 1654TIP3    H2 4908   7.533   0.540   4.644
 1655TIP3   OH2 4909   6.333   2.322   2.091
 1655TIP3    H1 4910   6.276   2.248   2.071
 1655TIP3    H2 4911   6.296   2.396   2.042
 1656TIP3   OH2 4912   2.062   4.379   6.422
 1656TIP3    H1 4913   2.039   4.472   6.420
 1656TIP3    H2 4914   2.157   4.378   6.422
 1657TIP3   OH2 4915   0.869   4.008   0.236
 1657TIP3    H1 4916   0.850   4.016   0.329
 1657TIP3    H2 4917   0.836   4.089   0.197
 1658TIP3   OH2 4918   7.881   6.898   3.796
 1658TIP3    H1 4919   7.900   6.847   3.874
 1658TIP3    H2 4920   7.930   6.980   3.808
 1659TIP3   OH2 4921   5.157   7.311   3.229
 1659TIP3    H1 4922   5.138   7.237   3.173
 1659TIP3    H2 4923   5.101   7.298   3.306
 1660TIP3   OH2 4924   0.834   6.396   0.903
 1660TIP3    H1 4925   0.749   6.370   0.940
 1660TIP3    H2 4926   0.822   6.488   0.880
 1661TIP3   OH2 4927   0.278   1.775   4.028
 1661TIP3    H1 4928   0.372   1.784   4.012
 1661TIP3    H2 4929   0.257   1.847   4.088
 1662TIP3   OH2 4930   1.766   5.211   4.843
 1662TIP3    H1 4931   1.808   5.267   4.909
 1662TIP3    H2 4932   1.673   5.222   4.859
 1663TIP3   OH2 4933   3.905   6.302   5.688
 1663TIP3    H1 4934   3.946   6.372   5.637
 1663TIP3    H2 4935   3.978   6.261   5.734
 1664TIP3   OH2 4936   7.473   4.914   6.512
 1664TIP3    H1 4937   7.488   4.998   6.469
 1664TIP3    H2 4938   7.547   4.904   6.572
 1665TIP3   OH2 4939   6.052   0.271   3.376
 1665TIP3    H1 4940   6.069   0.241   3.287
 1665TIP3    H2 4941   6.020   0.192   3.421
 1666TIP3   OH2 4942   4.549   3.664   1.468
 1666TIP3    H1 4943   4.539   3.606   1.544
 1666TIP3    H2 4944   4.492   3.739   1.488
 1667TIP3   OH2 4945   2.219   3.792   3.537
 1667TIP3    H1 4946   2.161   3.841   3.595
 1667TIP3    H2 4947   2.176   3.706   3.528
 1668TIP3   OH2 4948   0.132   5.574   6.563
 1668TIP3    H1 4949   0.076   5.602   6.636
 1668TIP3    H2 4950   0.161   5.486   6.588
 1669TIP3   OH2 4951   2.782   0.997   1.595
 1669TIP3    H1 4952   2.742   0.934   1.654
 1669TIP3    H2 4953   2.709   1.032   1.544
 1670TIP3   OH2 4954   3.121   4.983   3.995
 1670TIP3    H1 4955   3.181   5.049   4.032
 1670TIP3    H2 4956   3.056   4.969   4.064
 1671TIP3   OH2 4957   7.458   5.436   3.655
 1671TIP3    H1 4958   7.415   5.520   3.644
 1671TIP3    H2 4959   7.540   5.456   3.699
 1672TIP3   OH2 4960   2.261   4.728   3.688
 1672TIP3    H1 4961   2.225   4.661   3.745
 1672TIP3    H2 4962   2.263   4.687   3.601
 1673TIP3   OH2 4963   6.900   1.859   1.194
 1673TIP3    H1 4964   6.897   1.955   1.194
 1673TIP3    H2 4965   6.929   1.836   1.282
 1674TIP3   OH2 4966   7.432   1.132   1.743
 1674TIP3    H1 4967   7.413   1.141   1.837
 1674TIP3    H2 4968   7.409   1.217   1.706
 1675TIP3   OH2 4969   3.329   0.566   5.454
 1675TIP3    H1 4970   3.403   0.613   5.492
 1675TIP3    H2 4971   3.311   0.613   5.373
 1676TIP3   OH2 4972   3.855   7.662   4.073
 1676TIP3    H1 4973   3.868   7.744   4.026
 1676TIP3    H2 4974   3.908   7.671   4.152
 1677TIP3   OH2 4975   6.619   4.970   2.028
 1677TIP3    H1 4976   6.585   4.913   1.959
 1677TIP3    H2 4977   6.554   4.963   2.099
 1678TIP3   OH2 4978   1.658   6.787   5.092
 1678TIP3    H1 4979   1.615   6.785   5.178
 1678TIP3    H2 4980   1.738   6.736   5.104
 1679TIP3   OH2 4981   4.989   2.344   4.313
 1679TIP3    H1 4982   4.984   2.379   4.224
 1679TIP3    H2 4983   4.920   2.279   4.317
 1680TIP3   OH2 4984   4.311   7.683   2.289
 1680TIP3    H1 4985   4.370   7.609   2.272
 1680TIP3    H2 4986   4.226   7.642   2.309
 1681TIP3   OH2 4987   5.961   6.520   3.750
 1681TIP3    H1 4988   5.995   6.595   3.701
 1681TIP3    H2 4989   5.881   6.495   3.705
 1682TIP3   OH2 4990   6.352   0.013   6.493
 1682TIP3    H1 4991   6.423  -0.038   6.530
 1682TIP3    H2 4992   6.391   0.097   6.470
 1683TIP3   OH2 4993   1.396   6.630   2.045
 1683TIP3    H1 4994   1.355   6.711   2.074
 1683TIP3    H2 4995   1.476   6.657   2.000
 1684TIP3   OH2 4996   7.637   2.283   3.461
 1684TIP3    H1 4997   7.562   2.323   3.418
 1684TIP3    H2 4998   7.654   2.203   3.411
 1685TIP3   OH2 4999   2.330   1.228   3.245
 1685TIP3    H1 5000   2.258   1.266   3.294
 1685TIP3    H2 5001   2.365   1.160   3.302
 1686TIP3   OH2 5002   2.847   2.936   0.864
 1686TIP3    H1 5003   2.929   2.888   0.880
 1686TIP3    H2 5004   2.875   3.016   0.820
 1687TIP3   OH2 5005   4.739   4.374   6.485
 1687TIP3    H1 5006   4.753   4.427   6.564
 1687TIP3    H2 5007   4.697   4.294   6.517
 1688TIP3   OH2 5008   2.504   5.422   2.442
 1688TIP3    H1 5009   2.529   5.513   2.426
 1688TIP3    H2 5010   2.585   5.373   2.430
 1689TIP3   OH2 5011   3.331   1.521   1.285
 1689TIP3    H1 5012   3.351   1.547   1.375
 1689TIP3    H2 5013   3.353   1.428   1.282
 1690TIP3   OH2 5014   4.672   7.672   0.867
 1690TIP3    H1 5015   4.749   7.721   0.840
 1690TIP3    H2 5016   4.616   7.670   0.790
 1691TIP3   OH2 5017   0.091   3.333   0.754
 1691TIP3    H1 5018   0.048   3.418   0.758
 1691TIP3    H2 5019   0.185   3.353   0.756
 1692TIP3   OH2 5020   1.766   0.392   1.303
 1692TIP3    H1 5021   1.705   0.374   1.231
 1692TIP3    H2 5022   1.762   0.487   1.314
 1693TIP3   OH2 5023   5.398   3.609   2.967
 1693TIP3    H1 5024   5.315   3.611   3.013
 1693TIP3    H2 5025   5.422   3.517   2.964
 1694TIP3   OH2 5026   7.169   6.395   5.214
 1694TIP3    H1 5027   7.199   6.402   5.124
 1694TIP3    H2 5028   7.223   6.325   5.252
 1695TIP3   OH2 5029   5.297   4.679   1.890
 1695TIP3    H1 5030   5.216   4.669   1.939
 1695TIP3    H2 5031   5.334   4.591   1.886
 1696TIP3   OH2 5032   3.445   6.356   4.050
 1696TIP3    H1 5033   3.529   6.365   4.005
 1696TIP3    H2 5034   3.406   6.443   4.047
 1697TIP3   OH2 5035   2.208   3.079   1.909
 1697TIP3    H1 5036   2.237   3.001   1.956
 1697TIP3    H2 5037   2.174   3.137   1.977
 1698TIP3   OH2 5038   0.398   2.448   5.490
 1698TIP3    H1 5039   0.354   2.463   5.406
 1698TIP3    H2 5040   0.463   2.518   5.496
 1699TIP3   OH2 5041   3.105   4.802   4.465
 1699TIP3    H1 5042   3.067   4.887   4.487
 1699TIP3    H2 5043   3.084   4.747   4.540
 1700TIP3   OH2 5044   6.299   0.354   1.186
 1700TIP3    H1 5045   6.342   0.314   1.262
 1700TIP3    H2 5046   6.367   0.410   1.147
 1701TIP3   OH2 5047   7.150   6.952   0.915
 1701TIP3    H1 5048   7.100   6.909   0.985
 1701TIP3    H2 5049   7.140   7.046   0.933
 1702TIP3   OH2 5050   4.762   6.470   3.430
 1702TIP3    H1 5051   4.728   6.492   3.517
 1702TIP3    H2 5052   4.823   6.398   3.445
 1703TIP3   OH2 5053   0.365   6.924   0.224
 1703TIP3    H1 5054   0.444   6.978   0.221
 1703TIP3    H2 5055   0.368   6.873   0.143
 1704TIP3   OH2 5056   7.671   6.665   4.372
 1704TIP3    H1 5057   7.723   6.606   4.318
 1704TIP3    H2 5058   7.721   6.747   4.373
 1705TIP3   OH2 5059   8.161   5.189   0.163
 1705TIP3    H1 5060   8.109   5.143   0.097
 1705TIP3    H2 5061   8.245   5.144   0.163
 1706TIP3   OH2 5062   1.297   6.304   3.011
 1706TIP3    H1 5063   1.213   6.336   2.978
 1706TIP3    H2 5064   1.351   6.294   2.933
 1707TIP3   OH2 5065   4.406   2.247   3.666
 1707TIP3    H1 5066   4.440   2.337   3.672
 1707TIP3    H2 5067   4.318   2.253   3.704
 1708TIP3   OH2 5068   4.531   0.550   1.680
 1708TIP3    H1 5069   4.563   0.576   1.767
 1708TIP3    H2 5070   4.443   0.518   1.696
 1709TIP3   OH2 5071   7.610   0.762   5.655
 1709TIP3    H1 5072   7.542   0.695   5.643
 1709TIP3    H2 5073   7.593   0.798   5.742
 1710TIP3   OH2 5074   5.372   7.146   2.977
 1710TIP3    H1 5075   5.341   7.079   3.039
 1710TIP3    H2 5076   5.416   7.097   2.908
 1711TIP3   OH2 5077   1.194   1.264   4.003
 1711TIP3    H1 5078   1.143   1.268   3.922
 1711TIP3    H2 5079   1.170   1.180   4.042
 1712TIP3   OH2 5080   1.329   1.663   2.868
 1712TIP3    H1 5081   1.382   1.691   2.942
 1712TIP3    H2 5082   1.324   1.741   2.812
 1713TIP3   OH2 5083   2.136   4.908   5.763
 1713TIP3    H1 5084   2.054   4.923   5.716
 1713TIP3    H2 5085   2.161   4.819   5.740
 1714TIP3   OH2 5086   8.105   6.782   0.249
 1714TIP3    H1 5087   8.122   6.810   0.339
 1714TIP3    H2 5088   8.128   6.857   0.196
 1715TIP3   OH2 5089   0.674   3.620   0.688
 1715TIP3    H1 5090   0.681   3.648   0.597
 1715TIP3    H2 5091   0.675   3.701   0.739
 1716TIP3   OH2 5092   1.631   5.005   3.464
 1716TIP3    H1 5093   1.601   5.002   3.555
 1716TIP3    H2 5094   1.597   4.925   3.425
 1717TIP3   OH2 5095   3.354   5.225   2.097
 1717TIP3    H1 5096   3.420   5.187   2.039
 1717TIP3    H2 5097   3.288   5.261   2.038
 1718TIP3   OH2 5098   4.001   5.527   3.727
 1718TIP3    H1 5099   4.000   5.622   3.740
 1718TIP3    H2 5100   4.001   5.491   3.816
 1719TIP3   OH2 5101   1.310   4.017   5.938
 1719TIP3    H1 5102   1.395   3.995   5.902
 1719TIP3    H2 5103   1.279   4.090   5.886
 1720TIP3   OH2 5104   1.404   5.208   4.180
 1720TIP3    H1 5105   1.392   5.117   4.207
 1720TIP3    H2 5106   1.337   5.222   4.113
 1721TIP3   OH2 5107   0.214   3.246   0.332
 1721TIP3    H1 5108   0.269   3.262   0.255
 1721TIP3    H2 5109   0.153   3.319   0.333
 1722TIP3   OH2 5110   0.900   5.746   5.925
 1722TIP3    H1 5111   0.826   5.748   5.864
 1722TIP3    H2 5112   0.865   5.705   6.004
 1723TIP3   OH2 5113   2.195   2.495   4.413
 1723TIP3    H1 5114   2.123   2.509   4.351
 1723TIP3    H2 5115   2.227   2.407   4.393
 1724TIP3   OH2 5116   0.809   1.765   4.216
 1724TIP3    H1 5117   0.753   1.689   4.195
 1724TIP3    H2 5118   0.761   1.811   4.285
 1725TIP3   OH2 5119   1.982   4.704   3.989
 1725TIP3    H1 5120   1.925   4.642   3.944
 1725TIP3    H2 5121   1.954   4.790   3.958
 1726TIP3   OH2 5122   2.034   6.145   3.423
 1726TIP3    H1 5123   2.096   6.162   3.353
 1726TIP3    H2 5124   1.965   6.210   3.412
 1727TIP3   OH2 5125   6.762   4.108   2.867
 1727TIP3    H1 5126   6.667   4.122   2.874
 1727TIP3    H2 5127   6.798   4.197   2.865
 1728TIP3   OH2 5128   0.231   3.803   3.018
 1728TIP3    H1 5129   0.155   3.745   3.013
 1728TIP3    H2 5130   0.207   3.869   3.082
 1729TIP3   OH2 5131   6.264   3.839   6.243
 1729TIP3    H1 5132   6.271   3.835   6.338
 1729TIP3    H2 5133   6.193   3.778   6.222
 1730TIP3   OH2 5134   3.482   0.668   4.409
 1730TIP3    H1 5135   3.433   0.588   4.426
 1730TIP3    H2 5136   3.572   0.647   4.435
 1731TIP3   OH2 5137   7.641   4.035   3.519
 1731TIP3    H1 5138   7.560   3.987   3.539
 1731TIP3    H2 5139   7.614   4.101   3.456
 1732TIP3   OH2 5140   1.963   4.855   4.226
 1732TIP3    H1 5141   1.974   4.781   4.167
 1732TIP3    H2 5142   1.875   4.887   4.208
 1733TIP3   OH2 5143   5.120   7.376   6.560
 1733TIP3    H1 5144   5.199   7.402   6.513
 1733TIP3    H2 5145   5.124   7.280   6.563
 1734TIP3   OH2 5146   1.847   4.133   2.211
 1734TIP3    H1 5147   1.841   4.042   2.183
 1734TIP3    H2 5148   1.757   4.165   2.205
 1735TIP3   OH2 5149   1.672   3.982   4.275
 1735TIP3    H1 5150   1.756   4.025   4.264
 1735TIP3    H2 5151   1.670   3.915   4.206
 1736TIP3   OH2 5152   3.531   4.912   6.301
 1736TIP3    H1 5153   3.512   4.818   6.297
 1736TIP3    H2 5154   3.590   4.921   6.376
 1737TIP3   OH2 5155   8.128   4.204   5.662
 1737TIP3    H1 5156   8.196   4.271   5.659
 1737TIP3    H2 5157   8.128   4.166   5.574
 1738TIP3   OH2 5158   4.076   7.173   0.800
 1738TIP3    H1 5159   4.003   7.112   0.808
 1738TIP3    H2 5160   4.113   7.180   0.888
 1739TIP3   OH2 5161   7.272   0.673   4.026
 1739TIP3    H1 5162   7.232   0.755   3.997
 1739TIP3    H2 5163   7.218   0.645   4.100
 1740TIP3   OH2 5164   3.366   2.205   3.026
 1740TIP3    H1 5165   3.276   2.231   3.044
 1740TIP3    H2 5166   3.386   2.242   2.940
 1741TIP3   OH2 5167   0.577   3.952   1.340
 1741TIP3    H1 5168   0.500   3.930   1.392
 1741TIP3    H2 5169   0.617   3.868   1.319
 1742TIP3   OH2 5170   7.974   0.416   2.653
 1742TIP3    H1 5171   8.048   0.425   2.593
 1742TIP3    H2 5172   7.975   0.324   2.679
 1743TIP3   OH2 5173   7.260   6.099   5.990
 1743TIP3    H1 5174   7.265   6.189   6.021
 1743TIP3    H2 5175   7.352   6.071   5.982
 1744TIP3   OH2 5176   4.658   4.693   1.416
 1744TIP3    H1 5177   4.593   4.688   1.346
 1744TIP3    H2 5178   4.618   4.649   1.490
 1745TIP3   OH2 5179   2.392   2.280   6.780
 1745TIP3    H1 5180   2.334   2.335   6.727
 1745TIP3    H2 5181   2.398   2.198   6.733
 1746TIP3   OH2 5182   6.159   7.524   6.261
 1746TIP3    H1 5183   6.070   7.544   6.231
 1746TIP3    H2 5184   6.148   7.453   6.324
 1747TIP3   OH2 5185   4.053   2.389   0.283
 1747TIP3    H1 5186   4.102   2.326   0.229
 1747TIP3    H2 5187   3.963   2.358   0.280
 1748TIP3   OH2 5188   5.248   0.591   2.659
 1748TIP3    H1 5189   5.299   0.671   2.645
 1748TIP3    H2 5190   5.277   0.558   2.743
 1749TIP3   OH2 5191   7.254   0.916   3.237
 1749TIP3    H1 5192   7.301   0.833   3.243
 1749TIP3    H2 5193   7.198   0.918   3.314
 1750TIP3   OH2 5194   5.800   0.804   4.899
 1750TIP3    H1 5195   5.826   0.878   4.954
 1750TIP3    H2 5196   5.705   0.812   4.891
 1751TIP3   OH2 5197   4.844   2.109   2.378
 1751TIP3    H1 5198   4.915   2.089   2.316
 1751TIP3    H2 5199   4.772   2.141   2.323
 1752TIP3   OH2 5200   8.302   7.540   0.674
 1752TIP3    H1 5201   8.303   7.636   0.672
 1752TIP3    H2 5202   8.209   7.518   0.663
 1753TIP3   OH2 5203   6.309   6.429   3.414
 1753TIP3    H1 5204   6.314   6.345   3.460
 1753TIP3    H2 5205   6.252   6.483   3.468
 1754TIP3   OH2 5206   3.771   3.903   6.597
 1754TIP3    H1 5207   3.851   3.861   6.566
 1754TIP3    H2 5208   3.716   3.830   6.628
 1755TIP3   OH2 5209   1.885   7.205   6.047
 1755TIP3    H1 5210   1.847   7.142   5.986
 1755TIP3    H2 5211   1.854   7.290   6.016
 1756TIP3   OH2 5212   7.637   3.358   2.749
 1756TIP3    H1 5213   7.661   3.347   2.657
 1756TIP3    H2 5214   7.721   3.363   2.795
 1757TIP3   OH2 5215   3.495   6.653   3.430
 1757TIP3    H1 5216   3.553   6.577   3.429
 1757TIP3    H2 5217   3.488   6.676   3.523
 1758TIP3   OH2 5218   5.323   1.990   5.558
 1758TIP3    H1 5219   5.286   1.991   5.470
 1758TIP3    H2 5220   5.327   1.897   5.582
 1759TIP3   OH2 5221   5.620   2.832   1.620
 1759TIP3    H1 5222   5.579   2.838   1.706
 1759TIP3    H2 5223   5.630   2.738   1.605
 1760TIP3   OH2 5224   2.514   1.444   2.062
 1760TIP3    H1 5225   2.460   1.523   2.053
 1760TIP3    H2 5226   2.451   1.372   2.058
 1761TIP3   OH2 5227   6.289   3.711   2.604
 1761TIP3    H1 5228   6.349   3.765   2.552
 1761TIP3    H2 5229   6.346   3.667   2.667
 1762TIP3   OH2 5230   3.402   3.823   3.869
 1762TIP3    H1 5231   3.498   3.826   3.866
 1762TIP3    H2 5232   3.379   3.737   3.835
 1763TIP3   OH2 5233   3.679   5.649   1.884
 1763TIP3    H1 5234   3.742   5.677   1.949
 1763TIP3    H2 5235   3.679   5.719   1.818
 1764TIP3   OH2 5236   7.990   2.755   0.449
 1764TIP3    H1 5237   8.050   2.826   0.469
 1764TIP3    H2 5238   8.003   2.692   0.520
 1765TIP3   OH2 5239   2.237   3.774   1.984
 1765TIP3    H1 5240   2.264   3.844   2.044
 1765TIP3    H2 5241   2.301   3.704   1.998
 1766TIP3   OH2 5242   5.360   0.654   4.373
 1766TIP3    H1 5243   5.363   0.628   4.464
 1766TIP3    H2 5244   5.354   0.750   4.375
 1767TIP3   OH2 5245   0.529   6.483   4.152
 1767TIP3    H1 5246   0.537   6.413   4.086
 1767TIP3    H2 5247   0.451   6.531   4.126
 1768TIP3   OH2 5248   0.912   6.932   1.223
 1768TIP3    H1 5249   0.943   6.958   1.309
 1768TIP3    H2 5250   0.988   6.943   1.166
 1769TIP3   OH2 5251   3.196   7.336   5.414
 1769TIP3    H1 5252   3.143   7.339   5.494
 1769TIP3    H2 5253   3.172   7.415   5.366
 1770TIP3   OH2 5254   6.042   3.786   0.921
 1770TIP3    H1 5255   6.028   3.881   0.928
 1770TIP3    H2 5256   5.968   3.748   0.968
 1771TIP3   OH2 5257   5.813   3.438   1.957
 1771TIP3    H1 5258   5.901   3.455   1.923
 1771TIP3    H2 5259   5.823   3.440   2.052
 1772TIP3   OH2 5260   1.527   0.722   5.942
 1772TIP3    H1 5261   1.587   0.742   6.014
 1772TIP3    H2 5262   1.489   0.637   5.965
 1773TIP3   OH2 5263   4.541   4.881   5.873
 1773TIP3    H1 5264   4.608   4.821   5.842
 1773TIP3    H2 5265   4.576   4.968   5.853
 1774TIP3   OH2 5266   5.461   2.311   6.338
 1774TIP3    H1 5267   5.554   2.326   6.355
 1774TIP3    H2 5268   5.447   2.219   6.362
 1775TIP3   OH2 5269   1.008   6.967   4.061
 1775TIP3    H1 5270   0.992   6.883   4.019
 1775TIP3    H2 5271   0.991   7.032   3.992
 1776TIP3   OH2 5272   6.926   3.841   0.849
 1776TIP3    H1 5273   7.001   3.800   0.807
 1776TIP3    H2 5274   6.870   3.869   0.776
 1777TIP3   OH2 5275   3.198   0.809   2.386
 1777TIP3    H1 5276   3.166   0.766   2.307
 1777TIP3    H2 5277   3.136   0.783   2.454
 1778TIP3   OH2 5278   4.383   0.119   6.638
 1778TIP3    H1 5279   4.397   0.030   6.605
 1778TIP3    H2 5280   4.297   0.115   6.680
 1779TIP3   OH2 5281   6.811   6.854   5.344
 1779TIP3    H1 5282   6.888   6.875   5.397
 1779TIP3    H2 5283   6.736   6.871   5.401
 1780TIP3   OH2 5284   2.566   0.646   6.121
 1780TIP3    H1 5285   2.491   0.611   6.071
 1780TIP3    H2 5286   2.580   0.581   6.190
 1781TIP3   OH2 5287   3.050   6.789   4.602
 1781TIP3    H1 5288   2.982   6.797   4.669
 1781TIP3    H2 5289   3.079   6.698   4.608
 1782TIP3   OH2 5290   2.418   7.004   0.089
 1782TIP3    H1 5291   2.406   6.949   0.166
 1782TIP3    H2 5292   2.332   7.006   0.047
 1783TIP3   OH2 5293   5.871   0.433   3.504
 1783TIP3    H1 5294   5.788   0.387   3.517
 1783TIP3    H2 5295   5.927   0.369   3.460
 1784TIP3   OH2 5296   2.902   4.257   3.469
 1784TIP3    H1 5297   2.831   4.302   3.515
 1784TIP3    H2 5298   2.982   4.299   3.501
 1785TIP3   OH2 5299   4.651   3.891   0.872
 1785TIP3    H1 5300   4.714   3.831   0.912
 1785TIP3    H2 5301   4.690   3.914   0.787
 1786TIP3   OH2 5302   2.637   7.286   6.448
 1786TIP3    H1 5303   2.620   7.200   6.487
 1786TIP3    H2 5304   2.552   7.329   6.448
 1787TIP3   OH2 5305   5.160   2.291   2.123
 1787TIP3    H1 5306   5.135   2.383   2.115
 1787TIP3    H2 5307   5.234   2.282   2.063
 1788TIP3   OH2 5308   7.770   5.106   2.558
 1788TIP3    H1 5309   7.782   5.069   2.646
 1788TIP3    H2 5310   7.795   5.198   2.569
 1789TIP3   OH2 5311   6.154   1.387   3.910
 1789TIP3    H1 5312   6.063   1.358   3.916
 1789TIP3    H2 5313   6.206   1.309   3.927
 1790TIP3   OH2 5314   7.242   4.706   1.077
 1790TIP3    H1 5315   7.325   4.754   1.076
 1790TIP3    H2 5316   7.201   4.730   1.160
 1791TIP3   OH2 5317   4.424   6.746   3.760
 1791TIP3    H1 5318   4.414   6.651   3.759
 1791TIP3    H2 5319   4.334   6.779   3.759
 1792TIP3   OH2 5320   3.477   3.366   5.100
 1792TIP3    H1 5321   3.420   3.414   5.160
 1792TIP3    H2 5322   3.423   3.350   5.023
 1793TIP3   OH2 5323   5.607   6.924   6.397
 1793TIP3    H1 5324   5.517   6.953   6.384
 1793TIP3    H2 5325   5.605   6.830   6.378
 1794TIP3   OH2 5326   3.012   7.350   3.322
 1794TIP3    H1 5327   3.070   7.335   3.396
 1794TIP3    H2 5328   3.008   7.265   3.277
 1795TIP3   OH2 5329   8.234   6.646   0.562
 1795TIP3    H1 5330   8.220   6.551   0.564
 1795TIP3    H2 5331   8.322   6.656   0.525
 1796TIP3   OH2 5332   5.935   6.181   4.330
 1796TIP3    H1 5333   6.004   6.247   4.336
 1796TIP3    H2 5334   5.982   6.099   4.315
 1797TIP3   OH2 5335   2.722   1.377   2.262
 1797TIP3    H1 5336   2.798   1.388   2.206
 1797TIP3    H2 5337   2.647   1.401   2.208
 1798TIP3   OH2 5338   2.268   2.289   2.225
 1798TIP3    H1 5339   2.213   2.285   2.148
 1798TIP3    H2 5340   2.291   2.198   2.244
 1799TIP3   OH2 5341   5.635   2.243   5.602
 1799TIP3    H1 5342   5.604   2.306   5.667
 1799TIP3    H2 5343   5.704   2.290   5.555
 1800TIP3   OH2 5344   5.710   5.754   2.641
 1800TIP3    H1 5345   5.745   5.667   2.662
 1800TIP3    H2 5346   5.622   5.737   2.609
 1801TIP3   OH2 5347   4.354   2.798   5.492
 1801TIP3    H1 5348   4.380   2.885   5.461
 1801TIP3    H2 5349   4.433   2.761   5.531
 1802TIP3   OH2 5350   8.216   7.214   2.557
 1802TIP3    H1 5351   8.306   7.191   2.581
 1802TIP3    H2 5352   8.226   7.288   2.497
 1803TIP3   OH2 5353   3.498   1.111   3.397
 1803TIP3    H1 5354   3.553   1.052   3.345
 1803TIP3    H2 5355   3.441   1.152   3.333
 1804TIP3   OH2 5356   3.955   3.659   1.735
 1804TIP3    H1 5357   3.912   3.742   1.715
 1804TIP3    H2 5358   3.927   3.639   1.825
 1805TIP3   OH2 5359   5.087   1.275   3.018
 1805TIP3    H1 5360   5.018   1.332   3.051
 1805TIP3    H2 5361   5.088   1.291   2.923
 1806TIP3   OH2 5362   0.130   4.477   4.208
 1806TIP3    H1 5363   0.100   4.561   4.173
 1806TIP3    H2 5364   0.080   4.465   4.289
 1807TIP3   OH2 5365   6.250   5.841   5.753
 1807TIP3    H1 5366   6.229   5.897   5.679
 1807TIP3    H2 5367   6.299   5.768   5.716
 1808TIP3   OH2 5368   0.366   5.036   5.860
 1808TIP3    H1 5369   0.276   5.068   5.869
 1808TIP3    H2 5370   0.388   5.002   5.947
 1809TIP3   OH2 5371   5.384   7.696   4.445
 1809TIP3    H1 5372   5.395   7.687   4.540
 1809TIP3    H2 5373   5.311   7.637   4.424
 1810TIP3   OH2 5374   6.319   4.410   6.414
 1810TIP3    H1 5375   6.230   4.442   6.399
 1810TIP3    H2 5376   6.324   4.330   6.361
 1811TIP3   OH2 5377   3.103   4.392   4.783
 1811TIP3    H1 5378   3.009   4.393   4.804
 1811TIP3    H2 5379   3.142   4.342   4.855
 1812TIP3   OH2 5380   2.701   1.751   2.598
 1812TIP3    H1 5381   2.607   1.740   2.585
 1812TIP3    H2 5382   2.725   1.824   2.541
 1813TIP3   OH2 5383   0.441   1.715   5.039
 1813TIP3    H1 5384   0.362   1.736   4.988
 1813TIP3    H2 5385   0.459   1.623   5.018
 1814TIP3   OH2 5386   4.818   3.793   4.089
 1814TIP3    H1 5387   4.901   3.776   4.045
 1814TIP3    H2 5388   4.803   3.887   4.077
 1815TIP3   OH2 5389   6.042   6.491   5.633
 1815TIP3    H1 5390   6.102   6.519   5.565
 1815TIP3    H2 5391   6.017   6.572   5.678
 1816TIP3   OH2 5392   0.587   3.257   3.391
 1816TIP3    H1 5393   0.652   3.190   3.414
 1816TIP3    H2 5394   0.510   3.207   3.364
 1817TIP3   OH2 5395   3.377   0.008   3.723
 1817TIP3    H1 5396   3.466  -0.027   3.730
 1817TIP3    H2 5397   3.386   0.086   3.669
 1818TIP3   OH2 5398   7.628   7.050   4.826
 1818TIP3    H1 5399   7.571   6.974   4.831
 1818TIP3    H2 5400   7.716   7.014   4.811
 1819TIP3   OH2 5401   7.830   7.849   4.345
 1819TIP3    H1 5402   7.782   7.770   4.369
 1819TIP3    H2 5403   7.918   7.817   4.323
 1820TIP3   OH2 5404   0.213   5.706   4.097
 1820TIP3    H1 5405   0.157   5.655   4.039
 1820TIP3    H2 5406   0.171   5.792   4.102
 1821TIP3   OH2 5407   7.719   0.054   4.007
 1821TIP3    H1 5408   7.716  -0.039   4.028
 1821TIP3    H2 5409   7.766   0.058   3.924
 1822TIP3   OH2 5410   3.498   2.629   0.834
 1822TIP3    H1 5411   3.575   2.603   0.784
 1822TIP3    H2 5412   3.533   2.672   0.912
 1823TIP3   OH2 5413   4.734   2.097   4.762
 1823TIP3    H1 5414   4.705   2.188   4.748
 1823TIP3    H2 5415   4.778   2.073   4.680
 1824TIP3   OH2 5416   0.001   0.209   1.596
 1824TIP3    H1 5417  -0.021   0.131   1.545
 1824TIP3    H2 5418   0.094   0.224   1.577
 1825TIP3   OH2 5419   4.489   0.307   2.899
 1825TIP3    H1 5420   4.534   0.223   2.886
 1825TIP3    H2 5421   4.527   0.365   2.832
 1826TIP3   OH2 5422   7.487   0.058   2.144
 1826TIP3    H1 5423   7.445   0.116   2.080
 1826TIP3    H2 5424   7.453   0.087   2.229
 1827TIP3   OH2 5425   5.074   4.445   6.008
 1827TIP3    H1 5426   5.069   4.413   6.098
 1827TIP3    H2 5427   5.134   4.384   5.964
 1828TIP3   OH2 5428   5.041   7.071   2.854
 1828TIP3    H1 5429   5.086   6.988   2.865
 1828TIP3    H2 5430   4.970   7.052   2.792
 1829TIP3   OH2 5431   2.869   2.313   6.146
 1829TIP3    H1 5432   2.955   2.296   6.108
 1829TIP3    H2 5433   2.883   2.308   6.240
 1830TIP3   OH2 5434   2.895   3.777   1.069
 1830TIP3    H1 5435   2.859   3.708   1.126
 1830TIP3    H2 5436   2.849   3.856   1.096
 1831TIP3   OH2 5437   0.129   7.060   5.523
 1831TIP3    H1 5438   0.185   7.134   5.547
 1831TIP3    H2 5439   0.184   7.006   5.468
 1832TIP3   OH2 5440   4.992   4.339   0.498
 1832TIP3    H1 5441   5.069   4.386   0.466
 1832TIP3    H2 5442   5.023   4.289   0.573
 1833TIP3   OH2 5443   0.829   1.583   0.854
 1833TIP3    H1 5444   0.826   1.572   0.949
 1833TIP3    H2 5445   0.742   1.556   0.824
 1834TIP3   OH2 5446   2.499   2.047   0.253
 1834TIP3    H1 5447   2.422   2.084   0.296
 1834TIP3    H2 5448   2.485   1.952   0.256
 1835TIP3   OH2 5449   4.947   0.267   6.021
 1835TIP3    H1 5450   5.000   0.229   5.951
 1835TIP3    H2 5451   4.859   0.234   6.005
 1836TIP3   OH2 5452   6.870   4.259   0.808
 1836TIP3    H1 5453   6.874   4.226   0.897
 1836TIP3    H2 5454   6.780   4.290   0.798
 1837TIP3   OH2 5455   7.964   5.608   3.606
 1837TIP3    H1 5456   8.041   5.629   3.554
 1837TIP3    H2 5457   7.953   5.684   3.664
 1838TIP3   OH2 5458   6.793   2.218   3.088
 1838TIP3    H1 5459   6.859   2.258   3.144
 1838TIP3    H2 5460   6.829   2.132   3.066
 1839TIP3   OH2 5461   3.458   2.177   1.964
 1839TIP3    H1 5462   3.517   2.125   2.019
 1839TIP3    H2 5463   3.490   2.164   1.875
 1840TIP3   OH2 5464   0.619   5.812   2.015
 1840TIP3    H1 5465   0.622   5.795   2.109
 1840TIP3    H2 5466   0.537   5.772   1.985
 1841TIP3   OH2 5467   7.642   4.798   1.453
 1841TIP3    H1 5468   7.577   4.852   1.497
 1841TIP3    H2 5469   7.715   4.791   1.515
 1842TIP3   OH2 5470   0.467   4.205   6.520
 1842TIP3    H1 5471   0.517   4.286   6.508
 1842TIP3    H2 5472   0.391   4.232   6.570
 1843TIP3   OH2 5473   5.164   4.960   3.061
 1843TIP3    H1 5474   5.208   4.971   2.977
 1843TIP3    H2 5475   5.071   4.955   3.038
 1844TIP3   OH2 5476   0.460   5.087   2.771
 1844TIP3    H1 5477   0.529   5.062   2.832
 1844TIP3    H2 5478   0.443   5.009   2.720
 1845TIP3   OH2 5479   3.132   5.463   6.725
 1845TIP3    H1 5480   3.195   5.425   6.664
 1845TIP3    H2 5481   3.131   5.556   6.703
 1846TIP3   OH2 5482   7.138   2.671   5.709
 1846TIP3    H1 5483   7.234   2.671   5.708
 1846TIP3    H2 5484   7.115   2.603   5.773
 1847TIP3   OH2 5485   5.675   4.766   0.987
 1847TIP3    H1 5486   5.659   4.686   1.035
 1847TIP3    H2 5487   5.593   4.815   0.994
 1848TIP3   OH2 5488   3.136   0.737   5.535
 1848TIP3    H1 5489   3.217   0.687   5.526
 1848TIP3    H2 5490   3.145   0.783   5.619
 1849TIP3   OH2 5491   4.609   6.261   6.201
 1849TIP3    H1 5492   4.636   6.254   6.292
 1849TIP3    H2 5493   4.597   6.354   6.186
 1850TIP3   OH2 5494   7.122   1.043   2.899
 1850TIP3    H1 5495   7.112   1.138   2.901
 1850TIP3    H2 5496   7.217   1.029   2.890
 1851TIP3   OH2 5497   1.243   5.352   1.795
 1851TIP3    H1 5498   1.286   5.290   1.736
 1851TIP3    H2 5499   1.217   5.425   1.739
 1852TIP3   OH2 5500   1.591   4.613   1.665
 1852TIP3    H1 5501   1.676   4.618   1.622
 1852TIP3    H2 5502   1.532   4.662   1.608
 1853TIP3   OH2 5503   5.662   5.594   4.143
 1853TIP3    H1 5504   5.637   5.641   4.223
 1853TIP3    H2 5505   5.626   5.506   4.156
 1854TIP3   OH2 5506   0.788   1.615   3.582
 1854TIP3    H1 5507   0.863   1.564   3.615
 1854TIP3    H2 5508   0.812   1.706   3.598
 1855TIP3   OH2 5509   2.424   4.346   0.992
 1855TIP3    H1 5510   2.512   4.308   0.990
 1855TIP3    H2 5511   2.366   4.272   1.008
 1856TIP3   OH2 5512   0.237   4.260   1.390
 1856TIP3    H1 5513   0.148   4.226   1.401
 1856TIP3    H2 5514   0.226   4.338   1.335
 1857TIP3   OH2 5515   1.922   5.407   0.480
 1857TIP3    H1 5516   1.978   5.341   0.439
 1857TIP3    H2 5517   1.897   5.369   0.564
 1858TIP3   OH2 5518   0.588   0.411   1.834
 1858TIP3    H1 5519   0.664   0.422   1.890
 1858TIP3    H2 5520   0.597   0.478   1.766
 1859TIP3   OH2 5521   4.873   4.067   0.940
 1859TIP3    H1 5522   4.944   4.087   1.001
 1859TIP3    H2 5523   4.847   3.978   0.962
 1860TIP3   OH2 5524   4.132   5.614   5.614
 1860TIP3    H1 5525   4.112   5.708   5.616
 1860TIP3    H2 5526   4.204   5.607   5.552
 1861TIP3   OH2 5527   5.345   4.485   4.487
 1861TIP3    H1 5528   5.316   4.483   4.579
 1861TIP3    H2 5529   5.276   4.438   4.440
 1862TIP3   OH2 5530   7.491   6.935   5.895
 1862TIP3    H1 5531   7.482   6.955   5.802
 1862TIP3    H2 5532   7.488   7.020   5.939
 1863TIP3   OH2 5533   6.127   6.790   0.865
 1863TIP3    H1 5534   6.096   6.702   0.889
 1863TIP3    H2 5535   6.214   6.776   0.829
 1864TIP3   OH2 5536   6.425   6.219   0.967
 1864TIP3    H1 5537   6.440   6.124   0.974
 1864TIP3    H2 5538   6.330   6.227   0.953
 1865TIP3   OH2 5539   2.900   5.569   1.806
 1865TIP3    H1 5540   2.905   5.577   1.901
 1865TIP3    H2 5541   2.978   5.519   1.782
 1866TIP3   OH2 5542   0.973   1.211   6.749
 1866TIP3    H1 5543   0.968   1.212   6.653
 1866TIP3    H2 5544   1.067   1.202   6.768
 1867TIP3   OH2 5545   4.183   0.730   4.079
 1867TIP3    H1 5546   4.166   0.740   4.173
 1867TIP3    H2 5547   4.158   0.639   4.060
 1868TIP3   OH2 5548   7.343   4.970   3.990
 1868TIP3    H1 5549   7.415   4.987   3.930
 1868TIP3    H2 5550   7.343   4.875   4.001
 1869TIP3   OH2 5551   5.369   4.005   6.388
 1869TIP3    H1 5552   5.279   3.975   6.398
 1869TIP3    H2 5553   5.422   3.935   6.427
 1870TIP3   OH2 5554   0.417   0.847   3.616
 1870TIP3    H1 5555   0.334   0.801   3.623
 1870TIP3    H2 5556   0.481   0.778   3.599
 1871TIP3   OH2 5557   2.601   3.855   5.842
 1871TIP3    H1 5558   2.618   3.805   5.921
 1871TIP3    H2 5559   2.534   3.805   5.795
 1872TIP3   OH2 5560   0.883   0.664   1.429
 1872TIP3    H1 5561   0.922   0.751   1.427
 1872TIP3    H2 5562   0.796   0.675   1.391
 1873TIP3   OH2 5563   2.613   5.463   0.704
 1873TIP3    H1 5564   2.527   5.435   0.672
 1873TIP3    H2 5565   2.667   5.469   0.626
 1874TIP3   OH2 5566   4.840   1.254   0.921
 1874TIP3    H1 5567   4.770   1.226   0.863
 1874TIP3    H2 5568   4.816   1.343   0.948
 1875TIP3   OH2 5569   2.652   3.104   5.354
 1875TIP3    H1 5570   2.563   3.117   5.386
 1875TIP3    H2 5571   2.686   3.193   5.341
 1876TIP3   OH2 5572   0.593   4.088   0.950
 1876TIP3    H1 5573   0.532   4.093   1.023
 1876TIP3    H2 5574   0.604   4.179   0.921
 1877TIP3   OH2 5575   0.269   0.994   0.727
 1877TIP3    H1 5576   0.296   1.082   0.699
 1877TIP3    H2 5577   0.217   1.009   0.805
 1878TIP3   OH2 5578   5.928   2.153   1.732
 1878TIP3    H1 5579   5.845   2.120   1.768
 1878TIP3    H2 5580   5.979   2.178   1.808
 1879TIP3   OH2 5581   7.437   4.253   5.441
 1879TIP3    H1 5582   7.496   4.278   5.512
 1879TIP3    H2 5583   7.367   4.204   5.483
 1880TIP3   OH2 5584   4.092   7.039   3.242
 1880TIP3    H1 5585   4.135   7.118   3.275
 1880TIP3    H2 5586   4.032   7.013   3.311
 1881TIP3   OH2 5587   3.857   4.723   1.178
 1881TIP3    H1 5588   3.916   4.729   1.253
 1881TIP3    H2 5589   3.915   4.722   1.101
 1882TIP3   OH2 5590   4.596   1.914   3.297
 1882TIP3    H1 5591   4.542   1.838   3.317
 1882TIP3    H2 5592   4.582   1.974   3.370
 1883TIP3   OH2 5593   0.742   7.481   1.911
 1883TIP3    H1 5594   0.777   7.494   1.823
 1883TIP3    H2 5595   0.655   7.521   1.909
 1884TIP3   OH2 5596   2.734   6.809   2.650
 1884TIP3    H1 5597   2.732   6.803   2.746
 1884TIP3    H2 5598   2.688   6.890   2.630
 1885TIP3   OH2 5599   3.933   1.564   6.687
 1885TIP3    H1 5600   3.967   1.518   6.763
 1885TIP3    H2 5601   3.996   1.546   6.617
 1886TIP3   OH2 5602   5.313   2.646   5.169
 1886TIP3    H1 5603   5.220   2.645   5.146
 1886TIP3    H2 5604   5.320   2.589   5.245
 1887TIP3   OH2 5605   7.681   1.131   3.722
 1887TIP3    H1 5606   7.616   1.061   3.735
 1887TIP3    H2 5607   7.681   1.178   3.806
 1888TIP3   OH2 5608   2.878   7.309   4.942
 1888TIP3    H1 5609   2.846   7.257   4.868
 1888TIP3    H2 5610   2.974   7.305   4.933
 1889TIP3   OH2 5611   4.372   4.717   5.587
 1889TIP3    H1 5612   4.464   4.691   5.575
 1889TIP3    H2 5613   4.364   4.729   5.682
 1890TIP3   OH2 5614   2.916   4.529   5.709
 1890TIP3    H1 5615   2.839   4.472   5.717
 1890TIP3    H2 5616   2.882   4.617   5.721
 1891TIP3   OH2 5617   4.674   3.685   2.924
 1891TIP3    H1 5618   4.677   3.658   2.832
 1891TIP3    H2 5619   4.727   3.765   2.927
 1892TIP3   OH2 5620   8.167   6.519   6.825
 1892TIP3    H1 5621   8.105   6.584   6.792
 1892TIP3    H2 5622   8.132   6.436   6.794
 1893TIP3   OH2 5623   6.157   5.590   6.718
 1893TIP3    H1 5624   6.214   5.663   6.694
 1893TIP3    H2 5625   6.157   5.533   6.641
 1894TIP3   OH2 5626   5.492   2.337   2.057
 1894TIP3    H1 5627   5.497   2.244   2.033
 1894TIP3    H2 5628   5.475   2.382   1.975
 1895TIP3   OH2 5629   2.010   1.766   5.847
 1895TIP3    H1 5630   2.039   1.810   5.927
 1895TIP3    H2 5631   1.952   1.696   5.878
 1896TIP3   OH2 5632   0.478   1.593   0.507
 1896TIP3    H1 5633   0.397   1.591   0.556
 1896TIP3    H2 5634   0.485   1.684   0.477
 1897TIP3   OH2 5635   6.153   5.121   6.251
 1897TIP3    H1 5636   6.248   5.130   6.244
 1897TIP3    H2 5637   6.130   5.058   6.183
 1898TIP3   OH2 5638   3.668   5.852   1.685
 1898TIP3    H1 5639   3.612   5.885   1.614
 1898TIP3    H2 5640   3.741   5.913   1.688
 1899TIP3   OH2 5641   6.974   6.288   3.191
 1899TIP3    H1 5642   7.042   6.345   3.155
 1899TIP3    H2 5643   6.982   6.206   3.142
 1900TIP3   OH2 5644   1.578   4.521   2.907
 1900TIP3    H1 5645   1.617   4.434   2.899
 1900TIP3    H2 5646   1.536   4.536   2.822
 1901TIP3   OH2 5647   7.815   3.825   6.195
 1901TIP3    H1 5648   7.863   3.756   6.149
 1901TIP3    H2 5649   7.804   3.791   6.284
 1902TIP3   OH2 5650   6.488   1.000   4.985
 1902TIP3    H1 5651   6.436   1.080   4.991
 1902TIP3    H2 5652   6.437   0.934   5.032
 1903TIP3   OH2 5653   7.453   5.972   3.254
 1903TIP3    H1 5654   7.399   6.034   3.204
 1903TIP3    H2 5655   7.520   5.943   3.192
 1904TIP3   OH2 5656   7.492   5.336   6.669
 1904TIP3    H1 5657   7.474   5.321   6.762
 1904TIP3    H2 5658   7.587   5.337   6.663
 1905TIP3   OH2 5659   7.980   4.732   3.108
 1905TIP3    H1 5660   8.073   4.751   3.118
 1905TIP3    H2 5661   7.939   4.775   3.182
 1906TIP3   OH2 5662   4.333   5.824   5.791
 1906TIP3    H1 5663   4.249   5.840   5.749
 1906TIP3    H2 5664   4.338   5.890   5.861
 1907TIP3   OH2 5665   5.075   4.236   3.291
 1907TIP3    H1 5666   5.104   4.256   3.380
 1907TIP3    H2 5667   5.056   4.321   3.252
 1908TIP3   OH2 5668   1.153   3.749   4.208
 1908TIP3    H1 5669   1.081   3.719   4.263
 1908TIP3    H2 5670   1.223   3.685   4.224
 1909TIP3   OH2 5671   3.823   5.097   5.253
 1909TIP3    H1 5672   3.784   5.185   5.255
 1909TIP3    H2 5673   3.762   5.045   5.201
 1910TIP3   OH2 5674   6.294   3.215   0.084
 1910TIP3    H1 5675   6.257   3.188   0.000
 1910TIP3    H2 5676   6.297   3.311   0.079
 1911TIP3   OH2 5677   4.115   2.414   2.236
 1911TIP3    H1 5678   4.104   2.336   2.290
 1911TIP3    H2 5679   4.184   2.464   2.280
 1912TIP3   OH2 5680   3.165   4.924   3.159
 1912TIP3    H1 5681   3.236   4.955   3.102
 1912TIP3    H2 5682   3.086   4.932   3.105
 1913TIP3   OH2 5683   0.632   6.234   1.434
 1913TIP3    H1 5684   0.716   6.189   1.429
 1913TIP3    H2 5685   0.646   6.317   1.388
 1914TIP3   OH2 5686   5.617   2.275   3.098
 1914TIP3    H1 5687   5.572   2.345   3.145
 1914TIP3    H2 5688   5.556   2.250   3.028
 1915TIP3   OH2 5689   4.258   1.748   6.422
 1915TIP3    H1 5690   4.217   1.833   6.403
 1915TIP3    H2 5691   4.289   1.718   6.337
 1916TIP3   OH2 5692   6.995   6.863   2.982
 1916TIP3    H1 5693   6.908   6.839   2.951
 1916TIP3    H2 5694   7.045   6.781   2.978
 1917TIP3   OH2 5695   1.305   3.678   6.616
 1917TIP3    H1 5696   1.313   3.666   6.522
 1917TIP3    H2 5697   1.225   3.730   6.627
 1918TIP3   OH2 5698   1.988   7.500   0.464
 1918TIP3    H1 5699   1.934   7.571   0.499
 1918TIP3    H2 5700   2.076   7.537   0.462
 1919TIP3   OH2 5701   7.945   3.128   5.448
 1919TIP3    H1 5702   7.945   3.204   5.390
 1919TIP3    H2 5703   7.983   3.058   5.395
 1920TIP3   OH2 5704   7.965   5.321   0.679
 1920TIP3    H1 5705   7.928   5.409   0.679
 1920TIP3    H2 5706   7.889   5.263   0.672
 1921TIP3   OH2 5707   7.717   5.159   4.327
 1921TIP3    H1 5708   7.640   5.106   4.306
 1921TIP3    H2 5709   7.789   5.116   4.280
 1922TIP3   OH2 5710   5.271   5.282   6.071
 1922TIP3    H1 5711   5.249   5.206   6.017
 1922TIP3    H2 5712   5.208   5.280   6.143
 1923TIP3   OH2 5713   2.120   0.653   1.018
 1923TIP3    H1 5714   2.130   0.558   1.010
 1923TIP3    H2 5715   2.123   0.685   0.928
 1924TIP3   OH2 5716   3.969   3.984   1.033
 1924TIP3    H1 5717   4.064   3.986   1.031
 1924TIP3    H2 5718   3.945   4.035   1.110
 1925TIP3   OH2 5719   4.877   0.437   0.080
 1925TIP3    H1 5720   4.874   0.522   0.125
 1925TIP3    H2 5721   4.798   0.392   0.111
 1926TIP3   OH2 5722   1.585   0.425   5.324
 1926TIP3    H1 5723   1.536   0.357   5.278
 1926TIP3    H2 5724   1.593   0.393   5.414
 1927TIP3   OH2 5725   5.710   2.026   0.222
 1927TIP3    H1 5726   5.709   1.968   0.299
 1927TIP3    H2 5727   5.621   2.019   0.186
 1928TIP3   OH2 5728   5.807   7.353   6.538
 1928TIP3    H1 5729   5.775   7.398   6.617
 1928TIP3    H2 5730   5.775   7.407   6.466
 1929TIP3   OH2 5731   4.113   2.088   6.734
 1929TIP3    H1 5732   4.021   2.060   6.725
 1929TIP3    H2 5733   4.130   2.140   6.656
 1930TIP3   OH2 5734   8.284   1.245   3.691
 1930TIP3    H1 5735   8.188   1.244   3.684
 1930TIP3    H2 5736   8.309   1.153   3.696
 1931TIP3   OH2 5737   0.891   7.812   4.647
 1931TIP3    H1 5738   0.958   7.745   4.662
 1931TIP3    H2 5739   0.908   7.844   4.559
 1932TIP3   OH2 5740   2.268   6.012   1.044
 1932TIP3    H1 5741   2.346   5.992   1.095
 1932TIP3    H2 5742   2.277   6.105   1.021
 1933TIP3   OH2 5743   5.823   4.455   0.433
 1933TIP3    H1 5744   5.733   4.480   0.451
 1933TIP3    H2 5745   5.873   4.536   0.442
 1934TIP3   OH2 5746   5.423   5.105   3.096
 1934TIP3    H1 5747   5.356   5.045   3.129
 1934TIP3    H2 5748   5.496   5.048   3.072
 1935TIP3   OH2 5749   3.717   6.653   0.882
 1935TIP3    H1 5750   3.703   6.587   0.815
 1935TIP3    H2 5751   3.674   6.732   0.847
 1936TIP3   OH2 5752   1.382   3.161   2.838
 1936TIP3    H1 5753   1.328   3.083   2.850
 1936TIP3    H2 5754   1.321   3.230   2.815
 1937TIP3   OH2 5755   5.703   4.092   2.844
 1937TIP3    H1 5756   5.755   4.167   2.872
 1937TIP3    H2 5757   5.613   4.115   2.868
 1938TIP3   OH2 5758   6.802   6.437   5.354
 1938TIP3    H1 5759   6.785   6.343   5.364
 1938TIP3    H2 5760   6.734   6.479   5.407
 1939TIP3   OH2 5761   8.266   7.296   0.917
 1939TIP3    H1 5762   8.223   7.248   0.988
 1939TIP3    H2 5763   8.237   7.386   0.928
 1940TIP3   OH2 5764   2.280   3.790   6.727
 1940TIP3    H1 5765   2.366   3.816   6.694
 1940TIP3    H2 5766   2.247   3.868   6.772
 1941TIP3   OH2 5767   1.495   0.581  -0.019
 1941TIP3    H1 5768   1.476   0.637   0.056
 1941TIP3    H2 5769   1.434   0.508  -0.010
 1942TIP3   OH2 5770   2.884   7.255   2.312
 1942TIP3    H1 5771   2.927   7.173   2.288
 1942TIP3    H2 5772   2.856   7.242   2.402
 1943TIP3   OH2 5773   1.408   0.324  -0.014
 1943TIP3    H1 5774   1.327   0.278   0.009
 1943TIP3    H2 5775   1.446   0.271  -0.084
 1944TIP3   OH2 5776   2.239   0.377   3.416
 1944TIP3    H1 5777   2.334   0.378   3.419
 1944TIP3    H2 5778   2.216   0.452   3.360
 1945TIP3   OH2 5779   3.821   2.944   3.136
 1945TIP3    H1 5780   3.859   2.858   3.117
 1945TIP3    H2 5781   3.813   2.946   3.231
 1946TIP3   OH2 5782   2.949   4.137   4.520
 1946TIP3    H1 5783   2.889   4.210   4.534
 1946TIP3    H2 5784   3.001   4.164   4.444
 1947TIP3   OH2 5785   2.310   6.806   1.684
 1947TIP3    H1 5786   2.379   6.772   1.741
 1947TIP3    H2 5787   2.305   6.744   1.612
 1948TIP3   OH2 5788   4.980   0.812   0.896
 1948TIP3    H1 5789   4.900   0.800   0.946
 1948TIP3    H2 5790   4.965   0.890   0.843
 1949TIP3   OH2 5791   2.442   4.098   5.650
 1949TIP3    H1 5792   2.380   4.171   5.644
 1949TIP3    H2 5793   2.525   4.140   5.676
 1950TIP3   OH2 5794   4.703   3.420   4.211
 1950TIP3    H1 5795   4.783   3.414   4.263
 1950TIP3    H2 5796   4.723   3.371   4.131
 1951TIP3   OH2 5797   0.280   1.487   1.434
 1951TIP3    H1 5798   0.265   1.404   1.480
 1951TIP3    H2 5799   0.278   1.464   1.341
 1952TIP3   OH2 5800   2.778   6.891   5.186
 1952TIP3    H1 5801   2.843   6.821   5.180
 1952TIP3    H2 5802   2.705   6.860   5.132
 1953TIP3   OH2 5803   5.264   1.162   5.709
 1953TIP3    H1 5804   5.329   1.193   5.646
 1953TIP3    H2 5805   5.301   1.083   5.747
 1954TIP3   OH2 5806   7.002   0.352   6.226
 1954TIP3    H1 5807   7.018   0.263   6.194
 1954TIP3    H2 5808   7.066   0.363   6.297
 1955TIP3   OH2 5809   3.315   2.535   4.208
 1955TIP3    H1 5810   3.278   2.511   4.123
 1955TIP3    H2 5811   3.351   2.623   4.194
 1956TIP3   OH2 5812   1.277   0.415   0.761
 1956TIP3    H1 5813   1.226   0.475   0.707
 1956TIP3    H2 5814   1.216   0.344   0.782
 1957TIP3   OH2 5815   8.220   6.357   0.340
 1957TIP3    H1 5816   8.289   6.315   0.289
 1957TIP3    H2 5817   8.187   6.426   0.282
 1958TIP3   OH2 5818   0.518   6.899   4.196
 1958TIP3    H1 5819   0.425   6.878   4.193
 1958TIP3    H2 5820   0.550   6.878   4.108
 1959TIP3   OH2 5821   6.317   4.153   1.350
 1959TIP3    H1 5822   6.336   4.069   1.308
 1959TIP3    H2 5823   6.224   4.169   1.329
 1960TIP3   OH2 5824   7.566   6.756   6.366
 1960TIP3    H1 5825   7.500   6.717   6.308
 1960TIP3    H2 5826   7.591   6.684   6.425
 1961TIP3   OH2 5827   6.276   3.681   0.838
 1961TIP3    H1 5828   6.321   3.606   0.877
 1961TIP3    H2 5829   6.223   3.717   0.909
 1962TIP3   OH2 5830   6.237   4.202   0.642
 1962TIP3    H1 5831   6.218   4.283   0.594
 1962TIP3    H2 5832   6.324   4.176   0.613
 1963TIP3   OH2 5833   6.151   2.549   0.421
 1963TIP3    H1 5834   6.102   2.579   0.344
 1963TIP3    H2 5835   6.233   2.516   0.385
 1964TIP3   OH2 5836   1.853   5.136   1.424
 1964TIP3    H1 5837   1.942   5.138   1.389
 1964TIP3    H2 5838   1.830   5.043   1.426
 1965TIP3   OH2 5839   2.288   1.736   0.757
 1965TIP3    H1 5840   2.206   1.756   0.802
 1965TIP3    H2 5841   2.344   1.812   0.773
 1966TIP3   OH2 5842   6.129   4.662   0.322
 1966TIP3    H1 5843   6.088   4.664   0.236
 1966TIP3    H2 5844   6.064   4.699   0.381
 1967TIP3   OH2 5845   2.670   5.712   5.250
 1967TIP3    H1 5846   2.760   5.703   5.220
 1967TIP3    H2 5847   2.617   5.685   5.175
 1968TIP3   OH2 5848   7.433   3.764   1.910
 1968TIP3    H1 5849   7.473   3.744   1.825
 1968TIP3    H2 5850   7.341   3.742   1.899
 1969TIP3   OH2 5851   6.072   4.034   2.309
 1969TIP3    H1 5852   6.140   3.972   2.284
 1969TIP3    H2 5853   6.088   4.052   2.402
 1970TIP3   OH2 5854   4.184   6.657   1.753
 1970TIP3    H1 5855   4.173   6.562   1.751
 1970TIP3    H2 5856   4.261   6.671   1.809
 1971TIP3   OH2 5857   3.271   5.005   6.710
 1971TIP3    H1 5858   3.240   4.914   6.715
 1971TIP3    H2 5859   3.277   5.022   6.616
 1972TIP3   OH2 5860   6.104   2.251   1.229
 1972TIP3    H1 5861   6.195   2.276   1.247
 1972TIP3    H2 5862   6.069   2.227   1.315
 1973TIP3   OH2 5863   6.233   5.880   1.251
 1973TIP3    H1 5864   6.181   5.943   1.300
 1973TIP3    H2 5865   6.298   5.933   1.205
 1974TIP3   OH2 5866   4.758   0.834   6.232
 1974TIP3    H1 5867   4.700   0.871   6.166
 1974TIP3    H2 5868   4.700   0.796   6.297
 1975TIP3   OH2 5869   4.033   7.082   1.602
 1975TIP3    H1 5870   4.053   7.164   1.555
 1975TIP3    H2 5871   4.012   7.111   1.691
 1976TIP3   OH2 5872   6.957   3.203   6.445
 1976TIP3    H1 5873   6.968   3.112   6.475
 1976TIP3    H2 5874   6.952   3.254   6.526
 1977TIP3   OH2 5875   6.955   6.432   4.936
 1977TIP3    H1 5876   7.047   6.458   4.940
 1977TIP3    H2 5877   6.944   6.372   5.010
 1978TIP3   OH2 5878   7.125   0.945   0.675
 1978TIP3    H1 5879   7.111   0.968   0.767
 1978TIP3    H2 5880   7.107   1.025   0.627
 1979TIP3   OH2 5881   7.409   6.913   0.057
 1979TIP3    H1 5882   7.419   6.857   0.134
 1979TIP3    H2 5883   7.333   6.967   0.076
 1980TIP3   OH2 5884   3.332   3.734   4.276
 1980TIP3    H1 5885   3.247   3.695   4.294
 1980TIP3    H2 5886   3.312   3.818   4.236
 1981TIP3   OH2 5887   5.363   6.883   1.014
 1981TIP3    H1 5888   5.349   6.972   1.046
 1981TIP3    H2 5889   5.442   6.853   1.060
 1982TIP3   OH2 5890   0.112   2.978   0.361
 1982TIP3    H1 5891   0.153   3.065   0.362
 1982TIP3    H2 5892   0.160   2.928   0.427
 1983TIP3   OH2 5893   0.274   6.111   3.245
 1983TIP3    H1 5894   0.216   6.163   3.302
 1983TIP3    H2 5895   0.247   6.134   3.156
 1984TIP3   OH2 5896   4.072   1.470   5.118
 1984TIP3    H1 5897   4.014   1.454   5.192
 1984TIP3    H2 5898   4.115   1.553   5.140
 1985TIP3   OH2 5899   4.670   2.612   3.736
 1985TIP3    H1 5900   4.756   2.572   3.726
 1985TIP3    H2 5901   4.622   2.551   3.791
 1986TIP3   OH2 5902   7.478  -0.019   5.303
 1986TIP3    H1 5903   7.572  -0.019   5.320
 1986TIP3    H2 5904   7.444   0.051   5.359
 1987TIP3   OH2 5905   3.434   7.767   2.719
 1987TIP3    H1 5906   3.385   7.802   2.646
 1987TIP3    H2 5907   3.415   7.673   2.718
 1988TIP3   OH2 5908   0.596   0.991   6.025
 1988TIP3    H1 5909   0.536   1.024   6.092
 1988TIP3    H2 5910   0.661   0.941   6.073
 1989TIP3   OH2 5911   6.334   2.733   5.214
 1989TIP3    H1 5912   6.386   2.661   5.178
 1989TIP3    H2 5913   6.395   2.808   5.217
 1990TIP3   OH2 5914   3.274   2.665   3.775
 1990TIP3    H1 5915   3.266   2.610   3.697
 1990TIP3    H2 5916   3.235   2.614   3.845
 1991TIP3   OH2 5917   0.585   4.390   1.156
 1991TIP3    H1 5918   0.520   4.443   1.203
 1991TIP3    H2 5919   0.569   4.410   1.064
 1992TIP3   OH2 5920   0.125   3.229   6.628
 1992TIP3    H1 5921   0.048   3.173   6.638
 1992TIP3    H2 5922   0.147   3.256   6.717
 1993TIP3   OH2 5923   7.389   2.202   1.157
 1993TIP3    H1 5924   7.453   2.194   1.227
 1993TIP3    H2 5925   7.308   2.229   1.201
 1994TIP3   OH2 5926   0.813   4.485   1.310
 1994TIP3    H1 5927   0.732   4.454   1.269
 1994TIP3    H2 5928   0.847   4.409   1.356
 1995TIP3   OH2 5929   4.109   1.703   2.164
 1995TIP3    H1 5930   4.028   1.654   2.148
 1995TIP3    H2 5931   4.082   1.776   2.220
 1996TIP3   OH2 5932   1.460   0.191   0.726
 1996TIP3    H1 5933   1.425   0.280   0.717
 1996TIP3    H2 5934   1.413   0.140   0.660
 1997TIP3   OH2 5935   1.123   6.973   3.040
 1997TIP3    H1 5936   1.117   7.066   3.015
 1997TIP3    H2 5937   1.045   6.933   3.003
 1998TIP3   OH2 5938   6.842   4.127  -0.027
 1998TIP3    H1 5939   6.803   4.055   0.022
 1998TIP3    H2 5940   6.912   4.159   0.030
 1999TIP3   OH2 5941   7.119   2.688   2.711
 1999TIP3    H1 5942   7.147   2.748   2.779
 1999TIP3    H2 5943   7.024   2.691   2.712
 2000TIP3   OH2 5944   7.673   7.658   1.544
 2000TIP3    H1 5945   7.674   7.572   1.587
 2000TIP3    H2 5946   7.599   7.704   1.584
 2001TIP3   OH2 5947   7.744   0.871   1.961
 2001TIP3    H1 5948   7.651   0.861   1.980
 2001TIP3    H2 5949   7.767   0.955   1.999
 2002TIP3   OH2 5950   0.941   7.616   1.200
 2002TIP3    H1 5951   0.887   7.616   1.121
 2002TIP3    H2 5952   0.898   7.679   1.259
 2003TIP3   OH2 5953   5.312   7.424   2.564
 2003TIP3    H1 5954   5.313   7.517   2.587
 2003TIP3    H2 5955   5.236   7.388   2.610
 2004TIP3   OH2 5956   4.316   0.515   6.558
 2004TIP3    H1 5957   4.385   0.448   6.556
 2004TIP3    H2 5958   4.310   0.541   6.649
 2005TIP3   OH2 5959   2.650   1.856   1.180
 2005TIP3    H1 5960   2.724   1.795   1.174
 2005TIP3    H2 5961   2.589   1.814   1.241
 2006TIP3   OH2 5962   2.975   3.861   1.361
 2006TIP3    H1 5963   2.920   3.782   1.359
 2006TIP3    H2 5964   3.064   3.828   1.364
 2007TIP3   OH2 5965   5.656   4.707   2.940
 2007TIP3    H1 5966   5.722   4.710   3.010
 2007TIP3    H2 5967   5.593   4.641   2.969
 2008TIP3   OH2 5968   2.602   4.585   2.156
 2008TIP3    H1 5969   2.523   4.626   2.122
 2008TIP3    H2 5970   2.667   4.656   2.159
 2009TIP3   OH2 5971   7.987   7.494   6.795
 2009TIP3    H1 5972   8.062   7.511   6.738
 2009TIP3    H2 5973   7.989   7.400   6.810
 2010TIP3   OH2 5974   0.347   6.510   4.700
 2010TIP3    H1 5975   0.262   6.469   4.682
 2010TIP3    H2 5976   0.373   6.547   4.615
 2011TIP3   OH2 5977   3.817   3.172   6.359
 2011TIP3    H1 5978   3.785   3.247   6.309
 2011TIP3    H2 5979   3.743   3.147   6.415
 2012TIP3   OH2 5980   4.427   3.219   3.262
 2012TIP3    H1 5981   4.356   3.154   3.262
 2012TIP3    H2 5982   4.471   3.206   3.345
 2013TIP3   OH2 5983   0.032   3.028   6.418
 2013TIP3    H1 5984  -0.026   3.099   6.392
 2013TIP3    H2 5985   0.006   3.009   6.508
 2014TIP3   OH2 5986   4.199   1.938   5.721
 2014TIP3    H1 5987   4.264   1.979   5.779
 2014TIP3    H2 5988   4.125   1.998   5.720
 2015TIP3   OH2 5989   7.800   0.938   4.975
 2015TIP3    H1 5990   7.880   0.912   4.929
 2015TIP3    H2 5991   7.745   0.977   4.907
 2016TIP3   OH2 5992   0.754   5.682   2.523
 2016TIP3    H1 5993   0.760   5.587   2.520
 2016TIP3    H2 5994   0.701   5.701   2.600
 2017TIP3   OH2 5995   1.168   3.601   2.075
 2017TIP3    H1 5996   1.263   3.588   2.076
 2017TIP3    H2 5997   1.156   3.692   2.103
 2018TIP3   OH2 5998   6.241   6.534   3.808
 2018TIP3    H1 5999   6.146   6.543   3.819
 2018TIP3    H2 6000   6.274   6.623   3.820
 2019TIP3   OH2 6001   3.570   6.031   4.071
 2019TIP3    H1 6002   3.628   5.958   4.047
 2019TIP3    H2 6003   3.500   6.029   4.006
 2020TIP3   OH2 6004   0.896   3.776   0.116
 2020TIP3    H1 6005   0.899   3.864   0.155
 2020TIP3    H2 6006   0.972   3.731   0.154
 2021TIP3   OH2 6007   0.840   5.001   3.400
 2021TIP3    H1 6008   0.918   4.961   3.438
 2021TIP3    H2 6009   0.861   5.094   3.393
 2022TIP3   OH2 6010   6.772   0.971   3.662
 2022TIP3    H1 6011   6.739   1.026   3.591
 2022TIP3    H2 6012   6.838   0.916   3.621
 2023TIP3   OH2 6013   2.034   5.686   1.566
 2023TIP3    H1 6014   1.963   5.710   1.506
 2023TIP3    H2 6015   2.014   5.595   1.590
 2024TIP3   OH2 6016   7.622   3.099   3.252
 2024TIP3    H1 6017   7.606   3.033   3.185
 2024TIP3    H2 6018   7.612   3.183   3.206
 2025TIP3   OH2 6019   6.306   1.640   2.198
 2025TIP3    H1 6020   6.389   1.629   2.244
 2025TIP3    H2 6021   6.325   1.702   2.127
 2026TIP3   OH2 6022   3.816   5.757   5.470
 2026TIP3    H1 6023   3.879   5.703   5.421
 2026TIP3    H2 6024   3.731   5.735   5.431
 2027TIP3   OH2 6025   2.284   7.096   3.995
 2027TIP3    H1 6026   2.216   7.133   4.051
 2027TIP3    H2 6027   2.241   7.022   3.952
 2028TIP3   OH2 6028   3.683   3.995   6.338
 2028TIP3    H1 6029   3.729   3.954   6.411
 2028TIP3    H2 6030   3.697   3.935   6.264
 2029TIP3   OH2 6031   2.679   6.764   1.520
 2029TIP3    H1 6032   2.623   6.839   1.496
 2029TIP3    H2 6033   2.691   6.717   1.438
 2030TIP3   OH2 6034   1.324   7.279   2.543
 2030TIP3    H1 6035   1.401   7.336   2.546
 2030TIP3    H2 6036   1.291   7.279   2.633
 2031TIP3   OH2 6037   0.296   1.626   6.607
 2031TIP3    H1 6038   0.246   1.611   6.687
 2031TIP3    H2 6039   0.359   1.694   6.631
 2032TIP3   OH2 6040   2.403   2.019   2.582
 2032TIP3    H1 6041   2.456   2.006   2.661
 2032TIP3    H2 6042   2.329   1.959   2.593
 2033TIP3   OH2 6043   3.727   5.390   2.014
 2033TIP3    H1 6044   3.686   5.390   2.101
 2033TIP3    H2 6045   3.765   5.477   2.005
 2034TIP3   OH2 6046   7.212   4.996   3.049
 2034TIP3    H1 6047   7.298   5.034   3.062
 2034TIP3    H2 6048   7.182   4.973   3.137
 2035TIP3   OH2 6049   2.833   3.975   3.850
 2035TIP3    H1 6050   2.882   4.019   3.781
 2035TIP3    H2 6051   2.826   3.884   3.820
 2036TIP3   OH2 6052   4.144   2.830   3.155
 2036TIP3    H1 6053   4.147   2.887   3.232
 2036TIP3    H2 6054   4.148   2.741   3.191
 2037TIP3   OH2 6055   5.481   6.957   2.338
 2037TIP3    H1 6056   5.416   6.996   2.280
 2037TIP3    H2 6057   5.490   7.020   2.410
 2038TIP3   OH2 6058   1.932   5.293   0.732
 2038TIP3    H1 6059   1.862   5.319   0.792
 2038TIP3    H2 6060   1.914   5.202   0.711
 2039TIP3   OH2 6061   5.040   0.433   4.282
 2039TIP3    H1 6062   5.020   0.496   4.352
 2039TIP3    H2 6063   4.970   0.445   4.218
 2040TIP3   OH2 6064   4.053   2.003   3.036
 2040TIP3    H1 6065   4.029   1.913   3.013
 2040TIP3    H2 6066   3.998   2.024   3.112
 2041TIP3   OH2 6067   7.111   1.521   0.471
 2041TIP3    H1 6068   7.205   1.508   0.485
 2041TIP3    H2 6069   7.092   1.605   0.513
 2042TIP3   OH2 6070   4.686   0.359   2.272
 2042TIP3    H1 6071   4.723   0.444   2.246
 2042TIP3    H2 6072   4.737   0.295   2.222
 2043TIP3   OH2 6073   1.506   4.535   3.986
 2043TIP3    H1 6074   1.495   4.583   4.068
 2043TIP3    H2 6075   1.429   4.478   3.981
 2044TIP3   OH2 6076   4.957   1.169   2.630
 2044TIP3    H1 6077   5.011   1.094   2.652
 2044TIP3    H2 6078   4.958   1.224   2.708
 2045TIP3   OH2 6079   1.563   3.265   0.637
 2045TIP3    H1 6080   1.470   3.283   0.651
 2045TIP3    H2 6081   1.578   3.285   0.545
 2046TIP3   OH2 6082   2.731   0.295   2.795
 2046TIP3    H1 6083   2.745   0.253   2.879
 2046TIP3    H2 6084   2.654   0.252   2.758
 2047TIP3   OH2 6085   7.923   6.271   4.797
 2047TIP3    H1 6086   7.887   6.182   4.793
 2047TIP3    H2 6087   7.993   6.272   4.732
 2048TIP3   OH2 6088   0.984   5.696   6.411
 2048TIP3    H1 6089   0.928   5.749   6.467
 2048TIP3    H2 6090   0.926   5.630   6.374
 2049TIP3   OH2 6091   0.886   0.389   5.622
 2049TIP3    H1 6092   0.893   0.463   5.562
 2049TIP3    H2 6093   0.858   0.427   5.705
 2050TIP3   OH2 6094   8.251   7.011   4.768
 2050TIP3    H1 6095   8.305   7.066   4.825
 2050TIP3    H2 6096   8.203   6.955   4.829
 2051TIP3   OH2 6097   6.276   2.282   4.408
 2051TIP3    H1 6098   6.363   2.254   4.437
 2051TIP3    H2 6099   6.292   2.366   4.365
 2052TIP3   OH2 6100   4.152   5.253   5.082
 2052TIP3    H1 6101   4.234   5.257   5.032
 2052TIP3    H2 6102   4.096   5.319   5.040
 2053TIP3   OH2 6103   2.711   0.583   4.410
 2053TIP3    H1 6104   2.617   0.566   4.406
 2053TIP3    H2 6105   2.751   0.496   4.414
 2054TIP3   OH2 6106   6.327   5.012   4.132
 2054TIP3    H1 6107   6.383   5.088   4.150
 2054TIP3    H2 6108   6.326   5.005   4.037
 2055TIP3   OH2 6109   7.188   5.628   3.548
 2055TIP3    H1 6110   7.249   5.697   3.522
 2055TIP3    H2 6111   7.125   5.673   3.604
 2056TIP3   OH2 6112   2.974   5.215   6.518
 2056TIP3    H1 6113   2.955   5.302   6.553
 2056TIP3    H2 6114   3.010   5.232   6.431
 2057TIP3   OH2 6115   2.668   3.821   0.025
 2057TIP3    H1 6116   2.750   3.811   0.074
 2057TIP3    H2 6117   2.608   3.861   0.087
 2058TIP3   OH2 6118   3.532   1.065   5.052
 2058TIP3    H1 6119   3.462   1.064   4.986
 2058TIP3    H2 6120   3.486   1.066   5.136
 2059TIP3   OH2 6121   0.072   4.588   3.546
 2059TIP3    H1 6122  -0.024   4.578   3.543
 2059TIP3    H2 6123   0.106   4.500   3.533
 2060TIP3   OH2 6124   3.862   7.331   5.347
 2060TIP3    H1 6125   3.909   7.250   5.328
 2060TIP3    H2 6126   3.775   7.303   5.376
 2061TIP3   OH2 6127   0.536   2.623   4.672
 2061TIP3    H1 6128   0.616   2.629   4.724
 2061TIP3    H2 6129   0.509   2.531   4.680
 2062TIP3   OH2 6130   5.148   7.350   1.509
 2062TIP3    H1 6131   5.193   7.350   1.593
 2062TIP3    H2 6132   5.182   7.427   1.463
 2063TIP3   OH2 6133   6.830   2.846   2.901
 2063TIP3    H1 6134   6.875   2.871   2.820
 2063TIP3    H2 6135   6.813   2.752   2.890
 2064TIP3   OH2 6136   6.344   7.260   6.657
 2064TIP3    H1 6137   6.280   7.265   6.586
 2064TIP3    H2 6138   6.408   7.328   6.637
 2065TIP3   OH2 6139   1.854   7.652   2.339
 2065TIP3    H1 6140   1.793   7.725   2.349
 2065TIP3    H2 6141   1.892   7.665   2.252
 2066TIP3   OH2 6142   5.198   0.998   3.436
 2066TIP3    H1 6143   5.174   1.005   3.344
 2066TIP3    H2 6144   5.294   1.002   3.436
 2067TIP3   OH2 6145   3.564   0.466   4.198
 2067TIP3    H1 6146   3.543   0.528   4.267
 2067TIP3    H2 6147   3.581   0.384   4.244
 2068TIP3   OH2 6148   4.154   5.575   2.227
 2068TIP3    H1 6149   4.114   5.492   2.255
 2068TIP3    H2 6150   4.206   5.552   2.150
 2069TIP3   OH2 6151   2.737   3.904   5.497
 2069TIP3    H1 6152   2.828   3.881   5.513
 2069TIP3    H2 6153   2.724   3.987   5.542
 2070TIP3   OH2 6154   1.170   2.108   4.460
 2070TIP3    H1 6155   1.243   2.104   4.522
 2070TIP3    H2 6156   1.094   2.131   4.513
 2071TIP3   OH2 6157   2.051   3.690   0.633
 2071TIP3    H1 6158   1.974   3.705   0.687
 2071TIP3    H2 6159   2.023   3.622   0.570
 2072TIP3   OH2 6160   1.832   0.221   1.914
 2072TIP3    H1 6161   1.801   0.134   1.936
 2072TIP3    H2 6162   1.761   0.280   1.940
 2073TIP3   OH2 6163   4.824   5.275   6.426
 2073TIP3    H1 6164   4.749   5.216   6.425
 2073TIP3    H2 6165   4.808   5.334   6.499
 2074TIP3   OH2 6166   0.641   3.495   2.587
 2074TIP3    H1 6167   0.627   3.556   2.514
 2074TIP3    H2 6168   0.561   3.500   2.638
 2075TIP3   OH2 6169   6.253   4.521   4.546
 2075TIP3    H1 6170   6.271   4.442   4.496
 2075TIP3    H2 6171   6.198   4.492   4.619
 2076TIP3   OH2 6172   1.859   7.456   1.653
 2076TIP3    H1 6173   1.831   7.461   1.744
 2076TIP3    H2 6174   1.816   7.529   1.609
 2077TIP3   OH2 6175   5.291   6.756   4.545
 2077TIP3    H1 6176   5.299   6.672   4.590
 2077TIP3    H2 6177   5.357   6.812   4.586
 2078TIP3   OH2 6178   0.672   2.538   0.825
 2078TIP3    H1 6179   0.723   2.461   0.850
 2078TIP3    H2 6180   0.583   2.506   0.813
 2079TIP3   OH2 6181   5.551   6.339   1.025
 2079TIP3    H1 6182   5.497   6.262   1.039
 2079TIP3    H2 6183   5.491   6.413   1.033
 2080TIP3   OH2 6184   6.304   5.610   4.872
 2080TIP3    H1 6185   6.314   5.537   4.932
 2080TIP3    H2 6186   6.348   5.582   4.791
 2081TIP3   OH2 6187   3.881   2.747   4.445
 2081TIP3    H1 6188   3.964   2.706   4.469
 2081TIP3    H2 6189   3.823   2.731   4.520
 2082TIP3   OH2 6190   8.029   3.121   1.876
 2082TIP3    H1 6191   8.111   3.157   1.911
 2082TIP3    H2 6192   7.972   3.197   1.866
 2083TIP3   OH2 6193   1.673   2.715   4.595
 2083TIP3    H1 6194   1.673   2.811   4.598
 2083TIP3    H2 6195   1.674   2.694   4.502
 2084TIP3   OH2 6196   4.014   4.529   1.392
 2084TIP3    H1 6197   3.920   4.518   1.407
 2084TIP3    H2 6198   4.053   4.453   1.434
 2085TIP3   OH2 6199   2.510   3.954   4.203
 2085TIP3    H1 6200   2.577   3.962   4.270
 2085TIP3    H2 6201   2.556   3.973   4.121
 2086TIP3   OH2 6202   3.167   2.634   2.349
 2086TIP3    H1 6203   3.228   2.575   2.394
 2086TIP3    H2 6204   3.209   2.654   2.266
 2087TIP3   OH2 6205   3.937   0.790   5.124
 2087TIP3    H1 6206   3.890   0.846   5.063
 2087TIP3    H2 6207   4.023   0.832   5.134
 2088TIP3   OH2 6208   5.250   2.613   5.907
 2088TIP3    H1 6209   5.328   2.649   5.865
 2088TIP3    H2 6210   5.260   2.518   5.899
 2089TIP3   OH2 6211   4.482   3.210   2.546
 2089TIP3    H1 6212   4.544   3.282   2.545
 2089TIP3    H2 6213   4.498   3.166   2.630
 2090TIP3   OH2 6214   1.480   3.849   6.706
 2090TIP3    H1 6215   1.417   3.784   6.676
 2090TIP3    H2 6216   1.533   3.869   6.628
 2091TIP3   OH2 6217   4.822   4.049   5.770
 2091TIP3    H1 6218   4.752   4.049   5.704
 2091TIP3    H2 6219   4.839   4.142   5.787
 2092TIP3   OH2 6220   4.658   7.626   1.554
 2092TIP3    H1 6221   4.596   7.553   1.560
 2092TIP3    H2 6222   4.744   7.584   1.549
 2093TIP3   OH2 6223   4.788   5.666   2.630
 2093TIP3    H1 6224   4.697   5.658   2.657
 2093TIP3    H2 6225   4.836   5.686   2.710
 2094TIP3   OH2 6226   1.635   5.759   6.505
 2094TIP3    H1 6227   1.627   5.805   6.421
 2094TIP3    H2 6228   1.544   5.742   6.532
 2095TIP3   OH2 6229   1.772   1.833   4.584
 2095TIP3    H1 6230   1.715   1.903   4.615
 2095TIP3    H2 6231   1.743   1.816   4.495
 2096TIP3   OH2 6232   4.438   1.227   6.415
 2096TIP3    H1 6233   4.456   1.301   6.357
 2096TIP3    H2 6234   4.358   1.188   6.380
 2097TIP3   OH2 6235   2.321   3.340   1.494
 2097TIP3    H1 6236   2.261   3.317   1.564
 2097TIP3    H2 6237   2.398   3.284   1.508
 2098TIP3   OH2 6238   6.650   3.946   6.527
 2098TIP3    H1 6239   6.594   4.023   6.524
 2098TIP3    H2 6240   6.623   3.894   6.452
 2099TIP3   OH2 6241   2.248   5.074   4.538
 2099TIP3    H1 6242   2.160   5.046   4.513
 2099TIP3    H2 6243   2.305   5.041   4.468
 2100TIP3   OH2 6244   3.244   2.119   2.405
 2100TIP3    H1 6245   3.161   2.101   2.450
 2100TIP3    H2 6246   3.223   2.115   2.312
 2101TIP3   OH2 6247   3.623   5.943   6.179
 2101TIP3    H1 6248   3.564   6.018   6.178
 2101TIP3    H2 6249   3.568   5.869   6.153
 2102TIP3   OH2 6250   6.836   6.769   2.061
 2102TIP3    H1 6251   6.872   6.764   1.973
 2102TIP3    H2 6252   6.818   6.678   2.085
 2103TIP3   OH2 6253   7.800   2.724   0.945
 2103TIP3    H1 6254   7.822   2.783   0.873
 2103TIP3    H2 6255   7.873   2.661   0.948
 2104TIP3   OH2 6256   6.699   0.447   2.169
 2104TIP3    H1 6257   6.714   0.379   2.103
 2104TIP3    H2 6258   6.606   0.442   2.189
 2105TIP3   OH2 6259   3.359   2.428   2.376
 2105TIP3    H1 6260   3.312   2.345   2.383
 2105TIP3    H2 6261   3.424   2.414   2.307
 2106TIP3   OH2 6262   3.996   5.277   6.150
 2106TIP3    H1 6263   4.036   5.364   6.143
 2106TIP3    H2 6264   4.031   5.241   6.231
 2107TIP3   OH2 6265   1.190   3.977   2.993
 2107TIP3    H1 6266   1.205   3.921   2.917
 2107TIP3    H2 6267   1.233   4.060   2.971
 2108TIP3   OH2 6268   6.356   3.145   1.234
 2108TIP3    H1 6269   6.261   3.132   1.231
 2108TIP3    H2 6270   6.368   3.217   1.296
 2109TIP3   OH2 6271   3.069   2.761   0.884
 2109TIP3    H1 6272   3.114   2.709   0.951
 2109TIP3    H2 6273   3.132   2.830   0.861
 2110TIP3   OH2 6274   7.785   1.637   0.793
 2110TIP3    H1 6275   7.842   1.711   0.813
 2110TIP3    H2 6276   7.823   1.564   0.843
 2111TIP3   OH2 6277   4.931   4.492   2.851
 2111TIP3    H1 6278   4.959   4.569   2.902
 2111TIP3    H2 6279   4.936   4.420   2.914
 2112TIP3   OH2 6280   4.769   6.822   4.445
 2112TIP3    H1 6281   4.837   6.886   4.465
 2112TIP3    H2 6282   4.816   6.746   4.411
 2113TIP3   OH2 6283   6.098   1.641   0.753
 2113TIP3    H1 6284   6.177   1.588   0.761
 2113TIP3    H2 6285   6.079   1.668   0.843
 2114TIP3   OH2 6286   4.838   3.358   0.216
 2114TIP3    H1 6287   4.915   3.325   0.263
 2114TIP3    H2 6288   4.851   3.328   0.126
 2115TIP3   OH2 6289   7.625   7.261   1.709
 2115TIP3    H1 6290   7.659   7.176   1.737
 2115TIP3    H2 6291   7.631   7.316   1.787
 2116TIP3   OH2 6292   0.271   4.522   4.599
 2116TIP3    H1 6293   0.247   4.593   4.658
 2116TIP3    H2 6294   0.318   4.565   4.528
 2117TIP3   OH2 6295   2.035   4.487   1.353
 2117TIP3    H1 6296   2.118   4.492   1.401
 2117TIP3    H2 6297   1.990   4.411   1.391
 2118TIP3   OH2 6298   7.917   4.595   5.852
 2118TIP3    H1 6299   8.010   4.618   5.843
 2118TIP3    H2 6300   7.917   4.511   5.898
 2119TIP3   OH2 6301   2.474   1.165   0.235
 2119TIP3    H1 6302   2.550   1.107   0.232
 2119TIP3    H2 6303   2.407   1.119   0.185
 2120TIP3   OH2 6304   3.517   7.336   1.024
 2120TIP3    H1 6305   3.569   7.324   0.945
 2120TIP3    H2 6306   3.545   7.267   1.083
 2121TIP3   OH2 6307   7.595   6.278   1.254
 2121TIP3    H1 6308   7.593   6.363   1.298
 2121TIP3    H2 6309   7.679   6.240   1.280
 2122TIP3   OH2 6310   0.720   5.537   4.579
 2122TIP3    H1 6311   0.749   5.481   4.652
 2122TIP3    H2 6312   0.636   5.573   4.609
 2123TIP3   OH2 6313   2.174   2.385   0.034
 2123TIP3    H1 6314   2.266   2.361   0.023
 2123TIP3    H2 6315   2.126   2.305   0.014
 2124TIP3   OH2 6316   0.908   3.678   6.043
 2124TIP3    H1 6317   0.927   3.592   6.081
 2124TIP3    H2 6318   0.980   3.694   5.981
 2125TIP3   OH2 6319   4.087   5.392   0.074
 2125TIP3    H1 6320   3.996   5.385   0.044
 2125TIP3    H2 6321   4.106   5.486   0.072
 2126TIP3   OH2 6322   5.138   6.631   3.890
 2126TIP3    H1 6323   5.149   6.726   3.890
 2126TIP3    H2 6324   5.202   6.600   3.825
 2127TIP3   OH2 6325   0.205   4.611   5.178
 2127TIP3    H1 6326   0.110   4.623   5.187
 2127TIP3    H2 6327   0.236   4.599   5.267
 2128TIP3   OH2 6328   4.874   3.922   3.274
 2128TIP3    H1 6329   4.883   4.011   3.239
 2128TIP3    H2 6330   4.925   3.867   3.214
 2129TIP3   OH2 6331   1.904   0.132   6.337
 2129TIP3    H1 6332   1.867   0.219   6.349
 2129TIP3    H2 6333   1.848   0.075   6.391
 2130TIP3   OH2 6334   7.673   5.642   2.363
 2130TIP3    H1 6335   7.746   5.631   2.424
 2130TIP3    H2 6336   7.715   5.657   2.278
 2131TIP3   OH2 6337   6.318   4.861   1.715
 2131TIP3    H1 6338   6.231   4.888   1.744
 2131TIP3    H2 6339   6.359   4.942   1.685
 2132TIP3   OH2 6340   1.208   5.113   3.357
 2132TIP3    H1 6341   1.173   5.084   3.441
 2132TIP3    H2 6342   1.195   5.038   3.298
 2133TIP3   OH2 6343   3.657   0.710   0.568
 2133TIP3    H1 6344   3.712   0.686   0.494
 2133TIP3    H2 6345   3.580   0.654   0.560
 2134TIP3   OH2 6346   1.152   4.430   6.178
 2134TIP3    H1 6347   1.115   4.351   6.217
 2134TIP3    H2 6348   1.110   4.502   6.226
 2135TIP3   OH2 6349   7.280   7.105   5.392
 2135TIP3    H1 6350   7.274   7.043   5.319
 2135TIP3    H2 6351   7.190   7.114   5.423
 2136TIP3   OH2 6352   7.475   5.283   2.527
 2136TIP3    H1 6353   7.515   5.318   2.607
 2136TIP3    H2 6354   7.418   5.353   2.496
 2137TIP3   OH2 6355   4.943   2.985   3.404
 2137TIP3    H1 6356   5.002   2.918   3.438
 2137TIP3    H2 6357   4.942   2.970   3.309
 2138TIP3   OH2 6358   2.146   0.609   3.251
 2138TIP3    H1 6359   2.210   0.635   3.185
 2138TIP3    H2 6360   2.062   0.617   3.207
 2139TIP3   OH2 6361   2.672   5.419   5.275
 2139TIP3    H1 6362   2.748   5.395   5.221
 2139TIP3    H2 6363   2.706   5.421   5.365
 2140TIP3   OH2 6364   2.271   2.939   6.481
 2140TIP3    H1 6365   2.209   3.012   6.478
 2140TIP3    H2 6366   2.351   2.977   6.517
 2141TIP3   OH2 6367   1.529   6.533   1.522
 2141TIP3    H1 6368   1.550   6.440   1.516
 2141TIP3    H2 6369   1.530   6.564   1.431
 2142TIP3   OH2 6370   7.449   3.105   5.926
 2142TIP3    H1 6371   7.502   3.170   5.879
 2142TIP3    H2 6372   7.374   3.154   5.960
 2143TIP3   OH2 6373   1.424   3.455   4.795
 2143TIP3    H1 6374   1.392   3.536   4.835
 2143TIP3    H2 6375   1.501   3.432   4.846
 2144TIP3   OH2 6376   2.938   7.687   3.097
 2144TIP3    H1 6377   3.007   7.740   3.057
 2144TIP3    H2 6378   2.974   7.660   3.181
 2145TIP3   OH2 6379   7.481   5.674   4.785
 2145TIP3    H1 6380   7.470   5.600   4.724
 2145TIP3    H2 6381   7.561   5.653   4.833
 2146TIP3   OH2 6382   5.469   7.523   5.931
 2146TIP3    H1 6383   5.470   7.618   5.918
 2146TIP3    H2 6384   5.378   7.498   5.916
 2147TIP3   OH2 6385   1.577   1.701   1.033
 2147TIP3    H1 6386   1.500   1.750   1.005
 2147TIP3    H2 6387   1.604   1.653   0.955
 2148TIP3   OH2 6388   4.463   2.862   4.174
 2148TIP3    H1 6389   4.437   2.804   4.245
 2148TIP3    H2 6390   4.413   2.832   4.098
 2149TIP3   OH2 6391   1.480   2.516   3.559
 2149TIP3    H1 6392   1.482   2.550   3.469
 2149TIP3    H2 6393   1.460   2.592   3.613
 2150TIP3   OH2 6394   0.080   0.514   1.857
 2150TIP3    H1 6395   0.158   0.486   1.809
 2150TIP3    H2 6396   0.020   0.545   1.789
 2151TIP3   OH2 6397   6.751   4.272   1.634
 2151TIP3    H1 6398   6.752   4.205   1.565
 2151TIP3    H2 6399   6.676   4.327   1.613
 2152TIP3   OH2 6400   2.420   1.735   6.467
 2152TIP3    H1 6401   2.337   1.688   6.466
 2152TIP3    H2 6402   2.439   1.754   6.375
 2153TIP3   OH2 6403   7.010   2.360   0.665
 2153TIP3    H1 6404   7.090   2.366   0.614
 2153TIP3    H2 6405   6.986   2.268   0.663
 2154TIP3   OH2 6406   3.437   3.085   4.082
 2154TIP3    H1 6407   3.374   3.156   4.071
 2154TIP3    H2 6408   3.477   3.102   4.167
 2155TIP3   OH2 6409   4.072   5.813   0.936
 2155TIP3    H1 6410   4.101   5.733   0.893
 2155TIP3    H2 6411   4.055   5.787   1.027
 2156TIP3   OH2 6412   5.379   2.755   0.708
 2156TIP3    H1 6413   5.414   2.667   0.692
 2156TIP3    H2 6414   5.289   2.751   0.677
 2157TIP3   OH2 6415   2.150   1.449   4.896
 2157TIP3    H1 6416   2.114   1.537   4.898
 2157TIP3    H2 6417   2.083   1.394   4.937
 2158TIP3   OH2 6418   8.290   0.144   0.827
 2158TIP3    H1 6419   8.254   0.116   0.743
 2158TIP3    H2 6420   8.223   0.202   0.864
 2159TIP3   OH2 6421   8.232   5.959   5.790
 2159TIP3    H1 6422   8.288   5.998   5.723
 2159TIP3    H2 6423   8.204   6.033   5.843
 2160TIP3   OH2 6424   3.524   3.411   0.914
 2160TIP3    H1 6425   3.592   3.348   0.889
 2160TIP3    H2 6426   3.573   3.485   0.950
 2161TIP3   OH2 6427   0.621   7.385   4.411
 2161TIP3    H1 6428   0.559   7.347   4.349
 2161TIP3    H2 6429   0.586   7.471   4.431
 2162TIP3   OH2 6430   1.416   2.827   2.539
 2162TIP3    H1 6431   1.364   2.747   2.533
 2162TIP3    H2 6432   1.503   2.797   2.565
 2163TIP3   OH2 6433   5.523   0.579   0.410
 2163TIP3    H1 6434   5.472   0.511   0.454
 2163TIP3    H2 6435   5.614   0.554   0.427
 2164TIP3   OH2 6436   1.607   2.270   1.234
 2164TIP3    H1 6437   1.678   2.325   1.267
 2164TIP3    H2 6438   1.580   2.313   1.153
 2165TIP3   OH2 6439   0.870   5.016   4.692
 2165TIP3    H1 6440   0.822   5.088   4.734
 2165TIP3    H2 6441   0.810   4.983   4.625
 2166TIP3   OH2 6442   4.966   0.426   3.209
 2166TIP3    H1 6443   4.874   0.407   3.226
 2166TIP3    H2 6444   4.996   0.353   3.156
 2167TIP3   OH2 6445   2.226   4.157   0.900
 2167TIP3    H1 6446   2.202   4.230   0.844
 2167TIP3    H2 6447   2.292   4.109   0.851
 2168TIP3   OH2 6448  -0.003   4.084   0.716
 2168TIP3    H1 6449   0.073   4.040   0.755
 2168TIP3    H2 6450   0.034   4.156   0.665
 2169TIP3   OH2 6451   1.047   5.113   1.618
 2169TIP3    H1 6452   1.091   5.191   1.583
 2169TIP3    H2 6453   1.004   5.144   1.698
 2170TIP3   OH2 6454   2.295   4.411   5.801
 2170TIP3    H1 6455   2.378   4.412   5.848
 2170TIP3    H2 6456   2.319   4.423   5.709
 2171TIP3   OH2 6457   5.800   6.416   0.186
 2171TIP3    H1 6458   5.833   6.340   0.137
 2171TIP3    H2 6459   5.710   6.392   0.208
 2172TIP3   OH2 6460   7.073   4.339   0.102
 2172TIP3    H1 6461   7.008   4.402   0.070
 2172TIP3    H2 6462   7.154   4.390   0.109
 2173TIP3   OH2 6463   3.511   3.881   4.687
 2173TIP3    H1 6464   3.563   3.863   4.608
 2173TIP3    H2 6465   3.485   3.973   4.678
 2174TIP3   OH2 6466   3.087   7.415   3.848
 2174TIP3    H1 6467   3.125   7.331   3.873
 2174TIP3    H2 6468   3.025   7.436   3.917
 2175TIP3   OH2 6469   2.513   2.524   0.406
 2175TIP3    H1 6470   2.513   2.573   0.488
 2175TIP3    H2 6471   2.554   2.440   0.428
 2176TIP3   OH2 6472   4.536   3.125   0.220
 2176TIP3    H1 6473   4.574   3.164   0.141
 2176TIP3    H2 6474   4.513   3.200   0.275
 2177TIP3   OH2 6475   4.384   5.790   4.119
 2177TIP3    H1 6476   4.373   5.745   4.036
 2177TIP3    H2 6477   4.476   5.818   4.119
 2178TIP3   OH2 6478   4.054   0.457   2.512
 2178TIP3    H1 6479   4.030   0.411   2.593
 2178TIP3    H2 6480   4.082   0.543   2.542
 2179TIP3   OH2 6481   5.313   0.841   5.409
 2179TIP3    H1 6482   5.280   0.825   5.497
 2179TIP3    H2 6483   5.343   0.755   5.379
 2180TIP3   OH2 6484   0.234   2.364   4.034
 2180TIP3    H1 6485   0.182   2.297   3.990
 2180TIP3    H2 6486   0.299   2.390   3.969
 2181TIP3   OH2 6487   3.228   2.138   2.117
 2181TIP3    H1 6488   3.194   2.222   2.088
 2181TIP3    H2 6489   3.301   2.120   2.058
 2182TIP3   OH2 6490   8.060   5.287   1.924
 2182TIP3    H1 6491   8.016   5.230   1.986
 2182TIP3    H2 6492   8.153   5.272   1.939
 2183TIP3   OH2 6493   2.291   4.829   0.271
 2183TIP3    H1 6494   2.267   4.818   0.363
 2183TIP3    H2 6495   2.243   4.907   0.243
 2184TIP3   OH2 6496   3.282   4.537   1.685
 2184TIP3    H1 6497   3.326   4.621   1.669
 2184TIP3    H2 6498   3.213   4.534   1.619
 2185TIP3   OH2 6499   2.791   5.092   3.835
 2185TIP3    H1 6500   2.862   5.031   3.817
 2185TIP3    H2 6501   2.721   5.037   3.870
 2186TIP3   OH2 6502   5.846   1.316   6.382
 2186TIP3    H1 6503   5.767   1.324   6.435
 2186TIP3    H2 6504   5.918   1.324   6.444
 2187TIP3   OH2 6505   3.618   2.019   5.433
 2187TIP3    H1 6506   3.594   2.029   5.341
 2187TIP3    H2 6507   3.676   2.093   5.450
 2188TIP3   OH2 6508   0.758   6.586   3.167
 2188TIP3    H1 6509   0.838   6.581   3.220
 2188TIP3    H2 6510   0.774   6.526   3.094
 2189TIP3   OH2 6511   3.881   6.986   5.797
 2189TIP3    H1 6512   3.838   6.979   5.882
 2189TIP3    H2 6513   3.876   7.079   5.775
 2190TIP3   OH2 6514   7.693   4.836   6.179
 2190TIP3    H1 6515   7.685   4.809   6.271
 2190TIP3    H2 6516   7.614   4.803   6.138
 2191TIP3   OH2 6517   2.272   2.883   2.094
 2191TIP3    H1 6518   2.201   2.896   2.157
 2191TIP3    H2 6519   2.321   2.809   2.129
 2192TIP3   OH2 6520   4.856   6.661   3.174
 2192TIP3    H1 6521   4.846   6.740   3.226
 2192TIP3    H2 6522   4.950   6.643   3.173
 2193TIP3   OH2 6523   7.825   0.538   5.863
 2193TIP3    H1 6524   7.730   0.547   5.862
 2193TIP3    H2 6525   7.846   0.520   5.954
 2194TIP3   OH2 6526   2.386   6.747   4.849
 2194TIP3    H1 6527   2.362   6.798   4.926
 2194TIP3    H2 6528   2.471   6.782   4.822
 2195TIP3   OH2 6529   4.245   6.752   4.714
 2195TIP3    H1 6530   4.174   6.740   4.778
 2195TIP3    H2 6531   4.289   6.667   4.711
 2196TIP3   OH2 6532   5.131   2.549   3.110
 2196TIP3    H1 6533   5.165   2.517   3.194
 2196TIP3    H2 6534   5.205   2.543   3.050
 2197TIP3   OH2 6535   0.252   5.660   2.739
 2197TIP3    H1 6536   0.188   5.669   2.668
 2197TIP3    H2 6537   0.264   5.750   2.772
 2198TIP3   OH2 6538   6.666   5.875   3.827
 2198TIP3    H1 6539   6.645   5.963   3.859
 2198TIP3    H2 6540   6.754   5.858   3.858
 2199TIP3   OH2 6541   0.507   1.751   6.720
 2199TIP3    H1 6542   0.584   1.794   6.684
 2199TIP3    H2 6543   0.534   1.660   6.733
 2200TIP3   OH2 6544   1.410   5.974   4.571
 2200TIP3    H1 6545   1.324   5.933   4.583
 2200TIP3    H2 6546   1.464   5.905   4.531
 2201TIP3   OH2 6547   2.136   2.467   5.240
 2201TIP3    H1 6548   2.058   2.499   5.194
 2201TIP3    H2 6549   2.189   2.426   5.171
 2202TIP3   OH2 6550   0.097   7.521   0.373
 2202TIP3    H1 6551   0.041   7.450   0.342
 2202TIP3    H2 6552   0.088   7.518   0.469
 2203TIP3   OH2 6553   6.500   1.975   2.278
 2203TIP3    H1 6554   6.544   1.982   2.193
 2203TIP3    H2 6555   6.505   1.881   2.299
 2204TIP3   OH2 6556   0.045   1.294   5.563
 2204TIP3    H1 6557  -0.011   1.225   5.526
 2204TIP3    H2 6558   0.130   1.251   5.578
 2205TIP3   OH2 6559   2.481   4.732   1.322
 2205TIP3    H1 6560   2.406   4.769   1.369
 2205TIP3    H2 6561   2.458   4.640   1.309
 2206TIP3   OH2 6562   1.077   2.660   5.531
 2206TIP3    H1 6563   1.128   2.596   5.480
 2206TIP3    H2 6564   1.142   2.706   5.584
 2207TIP3   OH2 6565   3.670   2.959   6.009
 2207TIP3    H1 6566   3.605   2.984   6.074
 2207TIP3    H2 6567   3.660   2.864   6.000
 2208TIP3   OH2 6568   1.990   7.071   5.065
 2208TIP3    H1 6569   2.018   7.004   5.002
 2208TIP3    H2 6570   2.065   7.084   5.122
 2209TIP3   OH2 6571   0.879   1.121   3.417
 2209TIP3    H1 6572   0.939   1.196   3.418
 2209TIP3    H2 6573   0.797   1.156   3.451
 2210TIP3   OH2 6574   0.759   5.450   6.295
 2210TIP3    H1 6575   0.712   5.477   6.374
 2210TIP3    H2 6576   0.758   5.355   6.297
 2211TIP3   OH2 6577   4.571   6.649   2.281
 2211TIP3    H1 6578   4.553   6.606   2.365
 2211TIP3    H2 6579   4.540   6.739   2.294
 2212TIP3   OH2 6580   4.187   0.932   2.733
 2212TIP3    H1 6581   4.171   0.929   2.827
 2212TIP3    H2 6582   4.229   1.016   2.717
 2213TIP3   OH2 6583   1.399   0.502   1.759
 2213TIP3    H1 6584   1.439   0.572   1.811
 2213TIP3    H2 6585   1.349   0.547   1.691
 2214TIP3   OH2 6586   6.906   3.476   1.330
 2214TIP3    H1 6587   6.995   3.494   1.301
 2214TIP3    H2 6588   6.880   3.399   1.280
 2215TIP3   OH2 6589   2.468   7.333   6.146
 2215TIP3    H1 6590   2.441   7.422   6.125
 2215TIP3    H2 6591   2.503   7.298   6.064
 2216TIP3   OH2 6592   4.689   3.113   3.383
 2216TIP3    H1 6593   4.782   3.107   3.404
 2216TIP3    H2 6594   4.646   3.062   3.451
 2217TIP3   OH2 6595   7.841   0.682   3.523
 2217TIP3    H1 6596   7.909   0.625   3.488
 2217TIP3    H2 6597   7.881   0.769   3.524
 2218TIP3   OH2 6598   0.675   1.166   4.166
 2218TIP3    H1 6599   0.625   1.219   4.104
 2218TIP3    H2 6600   0.730   1.229   4.212
 2219TIP3   OH2 6601   4.216   5.359   4.769
 2219TIP3    H1 6602   4.257   5.414   4.836
 2219TIP3    H2 6603   4.189   5.421   4.701
 2220TIP3   OH2 6604   2.589   2.304   0.930
 2220TIP3    H1 6605   2.653   2.367   0.897
 2220TIP3    H2 6606   2.642   2.241   0.979
 2221TIP3   OH2 6607   1.997   0.725   2.370
 2221TIP3    H1 6608   2.033   0.636   2.373
 2221TIP3    H2 6609   2.035   0.770   2.445
 2222TIP3   OH2 6610   5.026   6.283   5.887
 2222TIP3    H1 6611   5.049   6.221   5.957
 2222TIP3    H2 6612   5.107   6.294   5.838
 2223TIP3   OH2 6613   1.981   3.801   1.863
 2223TIP3    H1 6614   2.074   3.807   1.887
 2223TIP3    H2 6615   1.968   3.871   1.799
 2224TIP3   OH2 6616   4.966   2.231   6.699
 2224TIP3    H1 6617   4.883   2.267   6.669
 2224TIP3    H2 6618   4.993   2.288   6.770
 2225TIP3   OH2 6619   7.416   0.870   0.277
 2225TIP3    H1 6620   7.376   0.942   0.325
 2225TIP3    H2 6621   7.363   0.859   0.199
 2226TIP3   OH2 6622   7.679   5.539   3.773
 2226TIP3    H1 6623   7.670   5.610   3.710
 2226TIP3    H2 6624   7.689   5.584   3.857
 2227TIP3   OH2 6625   5.195   7.345   0.409
 2227TIP3    H1 6626   5.138   7.385   0.343
 2227TIP3    H2 6627   5.143   7.348   0.490
 2228TIP3   OH2 6628   3.617   6.747   6.587
 2228TIP3    H1 6629   3.675   6.675   6.563
 2228TIP3    H2 6630   3.646   6.772   6.675
 2229TIP3   OH2 6631   7.828   1.903   4.678
 2229TIP3    H1 6632   7.842   1.996   4.657
 2229TIP3    H2 6633   7.805   1.903   4.771
 2230TIP3   OH2 6634   0.270   5.863   6.210
 2230TIP3    H1 6635   0.277   5.836   6.301
 2230TIP3    H2 6636   0.182   5.899   6.201
 2231TIP3   OH2 6637   3.548   2.071   5.174
 2231TIP3    H1 6638   3.529   2.161   5.203
 2231TIP3    H2 6639   3.560   2.079   5.079
 2232TIP3   OH2 6640   0.834   6.609   5.110
 2232TIP3    H1 6641   0.795   6.593   5.196
 2232TIP3    H2 6642   0.771   6.666   5.066
 2233TIP3   OH2 6643   5.777   3.041   1.524
 2233TIP3    H1 6644   5.859   2.998   1.499
 2233TIP3    H2 6645   5.727   2.972   1.568
 2234TIP3   OH2 6646   3.629   1.687   4.753
 2234TIP3    H1 6647   3.621   1.721   4.841
 2234TIP3    H2 6648   3.722   1.669   4.742
 2235TIP3   OH2 6649   2.088   5.880   3.535
 2235TIP3    H1 6650   2.137   5.882   3.618
 2235TIP3    H2 6651   2.076   5.972   3.512
 2236TIP3   OH2 6652   0.571   0.440   5.175
 2236TIP3    H1 6653   0.505   0.394   5.227
 2236TIP3    H2 6654   0.588   0.521   5.224
 2237TIP3   OH2 6655   7.004   7.493   1.585
 2237TIP3    H1 6656   6.910   7.474   1.592
 2237TIP3    H2 6657   7.009   7.572   1.532
 2238TIP3   OH2 6658   0.392   1.089   6.194
 2238TIP3    H1 6659   0.328   1.156   6.220
 2238TIP3    H2 6660   0.348   1.006   6.214
 2239TIP3   OH2 6661   7.712   2.644   4.869
 2239TIP3    H1 6662   7.663   2.705   4.925
 2239TIP3    H2 6663   7.804   2.668   4.883
 2240TIP3   OH2 6664   2.319   7.740   3.589
 2240TIP3    H1 6665   2.316   7.780   3.502
 2240TIP3    H2 6666   2.248   7.677   3.589
 2241TIP3   OH2 6667   7.531   5.434   1.295
 2241TIP3    H1 6668   7.606   5.401   1.344
 2241TIP3    H2 6669   7.476   5.477   1.360
 2242TIP3   OH2 6670   3.042   0.066   3.185
 2242TIP3    H1 6671   3.103   0.019   3.128
 2242TIP3    H2 6672   3.097   0.125   3.236
 2243TIP3   OH2 6673   0.362   5.502   5.008
 2243TIP3    H1 6674   0.364   5.535   5.097
 2243TIP3    H2 6675   0.327   5.575   4.956
 2244TIP3   OH2 6676   7.224   6.319   3.532
 2244TIP3    H1 6677   7.259   6.388   3.588
 2244TIP3    H2 6678   7.262   6.335   3.446
 2245TIP3   OH2 6679   7.149   2.294   6.259
 2245TIP3    H1 6680   7.188   2.363   6.205
 2245TIP3    H2 6681   7.101   2.340   6.327
 2246TIP3   OH2 6682   6.511   3.204   1.753
 2246TIP3    H1 6683   6.572   3.197   1.827
 2246TIP3    H2 6684   6.541   3.281   1.704
 2247TIP3   OH2 6685   3.960   6.673   0.992
 2247TIP3    H1 6686   4.002   6.605   0.940
 2247TIP3    H2 6687   3.866   6.660   0.979
 2248TIP3   OH2 6688   7.301   1.799   2.497
 2248TIP3    H1 6689   7.377   1.844   2.460
 2248TIP3    H2 6690   7.297   1.715   2.451
 2249TIP3   OH2 6691   2.766   4.244   1.744
 2249TIP3    H1 6692   2.702   4.185   1.784
 2249TIP3    H2 6693   2.851   4.213   1.776
 2250TIP3   OH2 6694   4.486   6.329   6.566
 2250TIP3    H1 6695   4.444   6.399   6.516
 2250TIP3    H2 6696   4.515   6.266   6.501
 2251TIP3   OH2 6697   5.431   3.829   5.977
 2251TIP3    H1 6698   5.427   3.857   5.886
 2251TIP3    H2 6699   5.445   3.910   6.026
 2252TIP3   OH2 6700   3.328   7.676   2.109
 2252TIP3    H1 6701   3.262   7.744   2.121
 2252TIP3    H2 6702   3.392   7.692   2.179
 2253TIP3   OH2 6703   8.138   5.256   3.866
 2253TIP3    H1 6704   8.227   5.291   3.861
 2253TIP3    H2 6705   8.142   5.171   3.823
 2254TIP3   OH2 6706   6.431   3.613   0.611
 2254TIP3    H1 6707   6.522   3.614   0.643
 2254TIP3    H2 6708   6.379   3.637   0.687
 2255TIP3   OH2 6709   6.654   5.692   0.190
 2255TIP3    H1 6710   6.707   5.711   0.112
 2255TIP3    H2 6711   6.695   5.743   0.259
 2256TIP3   OH2 6712   5.575   4.188   6.424
 2256TIP3    H1 6713   5.480   4.187   6.436
 2256TIP3    H2 6714   5.600   4.279   6.436
 2257TIP3   OH2 6715   2.375   4.183   4.740
 2257TIP3    H1 6716   2.294   4.191   4.791
 2257TIP3    H2 6717   2.375   4.093   4.709
 2258TIP3   OH2 6718   0.755   7.299   0.598
 2258TIP3    H1 6719   0.774   7.210   0.626
 2258TIP3    H2 6720   0.839   7.344   0.604
 2259TIP3   OH2 6721   2.658   1.307   3.354
 2259TIP3    H1 6722   2.580   1.361   3.339
 2259TIP3    H2 6723   2.697   1.342   3.434
 2260TIP3   OH2 6724   4.077   4.466   2.039
 2260TIP3    H1 6725   4.010   4.510   1.987
 2260TIP3    H2 6726   4.112   4.534   2.097
 2261TIP3   OH2 6727   2.999   4.763   4.994
 2261TIP3    H1 6728   3.058   4.766   5.069
 2261TIP3    H2 6729   2.971   4.671   4.989
 2262TIP3   OH2 6730   3.825   7.487   5.085
 2262TIP3    H1 6731   3.871   7.547   5.144
 2262TIP3    H2 6732   3.833   7.401   5.127
 2263TIP3   OH2 6733   3.617   2.098   4.922
 2263TIP3    H1 6734   3.710   2.116   4.932
 2263TIP3    H2 6735   3.596   2.124   4.832
 2264TIP3   OH2 6736   7.442   2.185   1.425
 2264TIP3    H1 6737   7.403   2.270   1.404
 2264TIP3    H2 6738   7.431   2.176   1.519
 2265TIP3   OH2 6739   6.805   5.608   5.980
 2265TIP3    H1 6740   6.790   5.577   6.069
 2265TIP3    H2 6741   6.817   5.529   5.928
 2266TIP3   OH2 6742   4.224   6.342   0.665
 2266TIP3    H1 6743   4.310   6.351   0.704
 2266TIP3    H2 6744   4.231   6.265   0.608
 2267TIP3   OH2 6745   4.628   5.738   5.805
 2267TIP3    H1 6746   4.708   5.789   5.810
 2267TIP3    H2 6747   4.558   5.803   5.794
 2268TIP3   OH2 6748   6.032   3.188   2.159
 2268TIP3    H1 6749   5.978   3.113   2.186
 2268TIP3    H2 6750   5.979   3.234   2.095
 2269TIP3   OH2 6751   1.547   3.045   6.566
 2269TIP3    H1 6752   1.557   3.109   6.495
 2269TIP3    H2 6753   1.624   2.990   6.560
 2270TIP3   OH2 6754   4.646   6.064   3.700
 2270TIP3    H1 6755   4.700   6.140   3.722
 2270TIP3    H2 6756   4.603   6.088   3.617
 2271TIP3   OH2 6757   7.280   2.571   1.092
 2271TIP3    H1 6758   7.339   2.646   1.098
 2271TIP3    H2 6759   7.272   2.555   0.998
 2272TIP3   OH2 6760   0.595   7.785   0.154
 2272TIP3    H1 6761   0.554   7.867   0.180
 2272TIP3    H2 6762   0.604   7.735   0.235
 2273TIP3   OH2 6763   0.450   5.669   6.179
 2273TIP3    H1 6764   0.380   5.734   6.186
 2273TIP3    H2 6765   0.437   5.612   6.255
 2274TIP3   OH2 6766   2.329   4.816   0.556
 2274TIP3    H1 6767   2.404   4.758   0.573
 2274TIP3    H2 6768   2.361   4.903   0.579
 2275TIP3   OH2 6769   1.515   7.682   1.777
 2275TIP3    H1 6770   1.602   7.670   1.739
 2275TIP3    H2 6771   1.528   7.673   1.872
 2276TIP3   OH2 6772   3.845   4.533   5.946
 2276TIP3    H1 6773   3.908   4.489   5.890
 2276TIP3    H2 6774   3.839   4.477   6.024
 2277TIP3   OH2 6775   3.097   1.390   1.495
 2277TIP3    H1 6776   3.113   1.484   1.489
 2277TIP3    H2 6777   3.057   1.378   1.582
 2278TIP3   OH2 6778   3.379   4.465   0.485
 2278TIP3    H1 6779   3.361   4.393   0.425
 2278TIP3    H2 6780   3.371   4.543   0.430
 2279TIP3   OH2 6781   5.499   6.269   1.361
 2279TIP3    H1 6782   5.541   6.191   1.396
 2279TIP3    H2 6783   5.554   6.341   1.389
 2280TIP3   OH2 6784   6.548   4.642   1.121
 2280TIP3    H1 6785   6.524   4.587   1.047
 2280TIP3    H2 6786   6.471   4.640   1.178
 2281TIP3   OH2 6787   0.835   2.324   0.863
 2281TIP3    H1 6788   0.892   2.335   0.787
 2281TIP3    H2 6789   0.779   2.250   0.840
 2282TIP3   OH2 6790   6.463   5.348   1.008
 2282TIP3    H1 6791   6.389   5.356   0.948
 2282TIP3    H2 6792   6.427   5.303   1.085
 2283TIP3   OH2 6793   1.476   6.010   6.287
 2283TIP3    H1 6794   1.398   6.060   6.264
 2283TIP3    H2 6795   1.457   5.921   6.258
 2284TIP3   OH2 6796   0.197   0.808   1.917
 2284TIP3    H1 6797   0.240   0.773   1.838
 2284TIP3    H2 6798   0.104   0.799   1.899
 2285TIP3   OH2 6799   2.405   4.959   2.682
 2285TIP3    H1 6800   2.395   5.041   2.635
 2285TIP3    H2 6801   2.316   4.927   2.697
 2286TIP3   OH2 6802   3.618   4.164   1.136
 2286TIP3    H1 6803   3.579   4.225   1.199
 2286TIP3    H2 6804   3.659   4.221   1.071
 2287TIP3   OH2 6805   1.541   0.187   3.104
 2287TIP3    H1 6806   1.487   0.264   3.121
 2287TIP3    H2 6807   1.558   0.189   3.010
 2288TIP3   OH2 6808   5.469   7.660   6.249
 2288TIP3    H1 6809   5.391   7.715   6.238
 2288TIP3    H2 6810   5.501   7.644   6.160
 2289TIP3   OH2 6811   4.898   7.283   3.021
 2289TIP3    H1 6812   4.849   7.327   2.953
 2289TIP3    H2 6813   4.970   7.239   2.975
 2290TIP3   OH2 6814   7.423   6.707   1.781
 2290TIP3    H1 6815   7.362   6.634   1.767
 2290TIP3    H2 6816   7.501   6.667   1.817
 2291TIP3   OH2 6817   1.439   0.030   4.654
 2291TIP3    H1 6818   1.416   0.021   4.746
 2291TIP3    H2 6819   1.358   0.060   4.612
 2292TIP3   OH2 6820   6.041   3.870   3.418
 2292TIP3    H1 6821   5.994   3.799   3.461
 2292TIP3    H2 6822   6.035   3.943   3.479
 2293TIP3   OH2 6823   8.039   3.771   3.205
 2293TIP3    H1 6824   7.994   3.730   3.131
 2293TIP3    H2 6825   8.103   3.830   3.165
 2294TIP3   OH2 6826   3.598   2.330   2.593
 2294TIP3    H1 6827   3.621   2.237   2.593
 2294TIP3    H2 6828   3.631   2.362   2.509
 2295TIP3   OH2 6829   7.783   7.456   5.872
 2295TIP3    H1 6830   7.870   7.494   5.859
 2295TIP3    H2 6831   7.723   7.522   5.837
 2296TIP3   OH2 6832   0.025   7.055   3.766
 2296TIP3    H1 6833   0.068   6.982   3.810
 2296TIP3    H2 6834  -0.049   7.015   3.720
 2297TIP3   OH2 6835   4.217   2.877   6.283
 2297TIP3    H1 6836   4.289   2.869   6.345
 2297TIP3    H2 6837   4.173   2.959   6.308
 2298TIP3   OH2 6838   3.561   1.646   0.414
 2298TIP3    H1 6839   3.583   1.735   0.387
 2298TIP3    H2 6840   3.549   1.598   0.332
 2299TIP3   OH2 6841   4.105   2.988   3.605
 2299TIP3    H1 6842   4.026   3.038   3.626
 2299TIP3    H2 6843   4.176   3.039   3.642
 2300TIP3   OH2 6844   1.177   4.404   0.485
 2300TIP3    H1 6845   1.175   4.390   0.579
 2300TIP3    H2 6846   1.145   4.323   0.447
 2301TIP3   OH2 6847   2.303   3.557   3.196
 2301TIP3    H1 6848   2.242   3.630   3.200
 2301TIP3    H2 6849   2.374   3.588   3.139
 2302TIP3   OH2 6850   7.420   2.998   6.277
 2302TIP3    H1 6851   7.507   3.018   6.244
 2302TIP3    H2 6852   7.367   2.983   6.198
 2303TIP3   OH2 6853   4.862   4.700   1.190
 2303TIP3    H1 6854   4.778   4.689   1.145
 2303TIP3    H2 6855   4.838   4.723   1.280
 2304TIP3   OH2 6856   1.080   4.644   2.434
 2304TIP3    H1 6857   1.105   4.735   2.447
 2304TIP3    H2 6858   1.095   4.627   2.341
 2305TIP3   OH2 6859   0.964   4.719   6.598
 2305TIP3    H1 6860   0.974   4.790   6.535
 2305TIP3    H2 6861   0.918   4.650   6.550
 2306TIP3   OH2 6862   2.613   6.184   0.148
 2306TIP3    H1 6863   2.610   6.119   0.078
 2306TIP3    H2 6864   2.522   6.194   0.175
 2307TIP3   OH2 6865   3.671   1.584   0.779
 2307TIP3    H1 6866   3.641   1.508   0.729
 2307TIP3    H2 6867   3.672   1.553   0.870
 2308TIP3   OH2 6868   6.875   4.579   0.425
 2308TIP3    H1 6869   6.864   4.673   0.443
 2308TIP3    H2 6870   6.959   4.573   0.380
 2309TIP3   OH2 6871   5.049   4.654   3.044
 2309TIP3    H1 6872   5.096   4.703   2.978
 2309TIP3    H2 6873   5.079   4.690   3.127
 2310TIP3   OH2 6874   0.159   2.961   2.653
 2310TIP3    H1 6875   0.239   2.964   2.600
 2310TIP3    H2 6876   0.092   3.002   2.598
 2311TIP3   OH2 6877   4.276   0.606   4.962
 2311TIP3    H1 6878   4.264   0.541   4.893
 2311TIP3    H2 6879   4.248   0.562   5.042
 2312TIP3   OH2 6880   6.742   2.612   2.395
 2312TIP3    H1 6881   6.669   2.584   2.340
 2312TIP3    H2 6882   6.780   2.530   2.428
 2313TIP3   OH2 6883   5.655   7.501   1.203
 2313TIP3    H1 6884   5.710   7.427   1.229
 2313TIP3    H2 6885   5.568   7.478   1.233
 2314TIP3   OH2 6886   4.073   7.144   3.704
 2314TIP3    H1 6887   4.130   7.171   3.775
 2314TIP3    H2 6888   4.115   7.066   3.668
 2315TIP3   OH2 6889   6.749   2.383   0.225
 2315TIP3    H1 6890   6.774   2.467   0.187
 2315TIP3    H2 6891   6.662   2.365   0.190
 2316TIP3   OH2 6892   4.038   0.125   4.349
 2316TIP3    H1 6893   4.050   0.042   4.396
 2316TIP3    H2 6894   3.944   0.142   4.355
 2317TIP3   OH2 6895   1.936   2.474   1.697
 2317TIP3    H1 6896   2.009   2.433   1.651
 2317TIP3    H2 6897   1.965   2.564   1.713
 2318TIP3   OH2 6898   0.402   0.647   0.096
 2318TIP3    H1 6899   0.399   0.559   0.059
 2318TIP3    H2 6900   0.321   0.688   0.067
 2319TIP3   OH2 6901   4.016   6.755   1.950
 2319TIP3    H1 6902   4.085   6.746   1.884
 2319TIP3    H2 6903   3.946   6.802   1.904
 2320TIP3   OH2 6904   7.607   6.514   3.209
 2320TIP3    H1 6905   7.581   6.598   3.249
 2320TIP3    H2 6906   7.701   6.523   3.194
 2321TIP3   OH2 6907   4.794   4.176   6.106
 2321TIP3    H1 6908   4.865   4.113   6.112
 2321TIP3    H2 6909   4.810   4.224   6.025
 2322TIP3   OH2 6910   1.725   4.049   4.828
 2322TIP3    H1 6911   1.635   4.025   4.806
 2322TIP3    H2 6912   1.779   3.993   4.771
 2323TIP3   OH2 6913   3.030   7.576   2.089
 2323TIP3    H1 6914   3.058   7.668   2.090
 2323TIP3    H2 6915   2.937   7.579   2.068
 2324TIP3   OH2 6916   6.995   5.696   4.577
 2324TIP3    H1 6917   7.024   5.692   4.669
 2324TIP3    H2 6918   7.006   5.788   4.553
 2325TIP3   OH2 6919   3.317   0.885   1.670
 2325TIP3    H1 6920   3.332   0.791   1.665
 2325TIP3    H2 6921   3.243   0.901   1.611
 2326TIP3   OH2 6922   1.966   4.312   3.931
 2326TIP3    H1 6923   1.941   4.277   4.016
 2326TIP3    H2 6924   1.933   4.249   3.868
 2327TIP3   OH2 6925   7.145   0.407   6.465
 2327TIP3    H1 6926   7.163   0.379   6.555
 2327TIP3    H2 6927   7.222   0.458   6.440
 2328TIP3   OH2 6928   4.418   6.742   0.501
 2328TIP3    H1 6929   4.426   6.648   0.487
 2328TIP3    H2 6930   4.502   6.778   0.471
 2329TIP3   OH2 6931   3.726   6.208   3.619
 2329TIP3    H1 6932   3.821   6.208   3.611
 2329TIP3    H2 6933   3.707   6.132   3.675
 2330TIP3   OH2 6934   5.436   2.874   2.719
 2330TIP3    H1 6935   5.410   2.783   2.707
 2330TIP3    H2 6936   5.371   2.925   2.670
 2331TIP3   OH2 6937   0.803   0.032   3.350
 2331TIP3    H1 6938   0.783   0.122   3.378
 2331TIP3    H2 6939   0.768  -0.023   3.420
 2332TIP3   OH2 6940   6.859   0.905   2.311
 2332TIP3    H1 6941   6.939   0.854   2.328
 2332TIP3    H2 6942   6.891   0.994   2.297
 2333TIP3   OH2 6943   8.156   6.150   5.947
 2333TIP3    H1 6944   8.069   6.173   5.980
 2333TIP3    H2 6945   8.204   6.233   5.949
 2334TIP3   OH2 6946   0.803   1.744   4.952
 2334TIP3    H1 6947   0.787   1.838   4.941
 2334TIP3    H2 6948   0.799   1.730   5.047
 2335TIP3   OH2 6949   1.853   3.656   4.338
 2335TIP3    H1 6950   1.936   3.610   4.326
 2335TIP3    H2 6951   1.839   3.653   4.433
 2336TIP3   OH2 6952   5.832   7.437   2.305
 2336TIP3    H1 6953   5.903   7.472   2.358
 2336TIP3    H2 6954   5.874   7.377   2.244
 2337TIP3   OH2 6955   0.268   7.794   5.387
 2337TIP3    H1 6956   0.222   7.710   5.389
 2337TIP3    H2 6957   0.361   7.772   5.385
 2338TIP3   OH2 6958   1.026   5.541   4.637
 2338TIP3    H1 6959   0.941   5.502   4.618
 2338TIP3    H2 6960   1.089   5.470   4.620
 2339TIP3   OH2 6961   4.011   5.510   6.685
 2339TIP3    H1 6962   3.981   5.441   6.627
 2339TIP3    H2 6963   3.940   5.522   6.748
 2340TIP3   OH2 6964   2.552   3.786   1.717
 2340TIP3    H1 6965   2.545   3.694   1.744
 2340TIP3    H2 6966   2.496   3.792   1.640
 2341TIP3   OH2 6967   3.376   1.163   2.614
 2341TIP3    H1 6968   3.418   1.079   2.629
 2341TIP3    H2 6969   3.333   1.184   2.697
 2342TIP3   OH2 6970   0.624   5.293   1.196
 2342TIP3    H1 6971   0.659   5.225   1.138
 2342TIP3    H2 6972   0.555   5.335   1.146
 2343TIP3   OH2 6973   5.746   4.796  -0.012
 2343TIP3    H1 6974   5.699   4.713  -0.007
 2343TIP3    H2 6975   5.818   4.786   0.051
 2344TIP3   OH2 6976   6.426   7.528   6.524
 2344TIP3    H1 6977   6.341   7.526   6.568
 2344TIP3    H2 6978   6.409   7.569   6.439
 2345TIP3   OH2 6979   7.673   4.996   5.693
 2345TIP3    H1 6980   7.705   4.959   5.776
 2345TIP3    H2 6981   7.596   4.943   5.672
 2346TIP3   OH2 6982   6.425   1.097   2.637
 2346TIP3    H1 6983   6.511   1.079   2.601
 2346TIP3    H2 6984   6.434   1.182   2.680
 2347TIP3   OH2 6985   0.787   0.846   5.677
 2347TIP3    H1 6986   0.793   0.846   5.773
 2347TIP3    H2 6987   0.702   0.886   5.659
 2348TIP3   OH2 6988   6.781   3.651   1.498
 2348TIP3    H1 6989   6.813   3.600   1.424
 2348TIP3    H2 6990   6.848   3.717   1.513
 2349TIP3   OH2 6991   4.952   4.068   5.355
 2349TIP3    H1 6992   5.024   4.021   5.312
 2349TIP3    H2 6993   4.902   3.999   5.400
 2350TIP3   OH2 6994   7.867   6.199   3.284
 2350TIP3    H1 6995   7.956   6.223   3.313
 2350TIP3    H2 6996   7.861   6.105   3.301
 2351TIP3   OH2 6997   7.273   7.491   1.936
 2351TIP3    H1 6998   7.321   7.421   1.980
 2351TIP3    H2 6999   7.215   7.445   1.875
 2352TIP3   OH2 7000   1.105   2.171   4.968
 2352TIP3    H1 7001   1.199   2.174   4.986
 2352TIP3    H2 7002   1.098   2.129   4.882
 2353TIP3   OH2 7003   1.700   1.296   5.545
 2353TIP3    H1 7004   1.764   1.237   5.584
 2353TIP3    H2 7005   1.644   1.323   5.617
 2354TIP3   OH2 7006   7.879   6.875   4.438
 2354TIP3    H1 7007   7.927   6.793   4.435
 2354TIP3    H2 7008   7.875   6.897   4.531
 2355TIP3   OH2 7009   6.566   3.441   6.571
 2355TIP3    H1 7010   6.542   3.481   6.488
 2355TIP3    H2 7011   6.598   3.513   6.625
 2356TIP3   OH2 7012   2.128   0.760   6.084
 2356TIP3    H1 7013   2.154   0.670   6.069
 2356TIP3    H2 7014   2.153   0.777   6.175
 2357TIP3   OH2 7015   0.578   6.854   1.431
 2357TIP3    H1 7016   0.642   6.801   1.479
 2357TIP3    H2 7017   0.494   6.831   1.469
 2358TIP3   OH2 7018   1.632   5.829   5.910
 2358TIP3    H1 7019   1.538   5.839   5.919
 2358TIP3    H2 7020   1.669   5.876   5.985
 2359TIP3   OH2 7021   7.740   5.169   1.544
 2359TIP3    H1 7022   7.657   5.152   1.500
 2359TIP3    H2 7023   7.735   5.119   1.626
 2360TIP3   OH2 7024   5.671   2.607   4.028
 2360TIP3    H1 7025   5.753   2.656   4.014
 2360TIP3    H2 7026   5.644   2.582   3.939
 2361TIP3   OH2 7027   2.546   0.291   1.608
 2361TIP3    H1 7028   2.522   0.200   1.588
 2361TIP3    H2 7029   2.631   0.284   1.651
 2362TIP3   OH2 7030   2.898   0.773   2.045
 2362TIP3    H1 7031   2.900   0.807   1.955
 2362TIP3    H2 7032   2.842   0.695   2.040
 2363TIP3   OH2 7033   5.525   0.215   2.820
 2363TIP3    H1 7034   5.491   0.128   2.841
 2363TIP3    H2 7035   5.447   0.270   2.811
 2364TIP3   OH2 7036   3.913   2.785   1.752
 2364TIP3    H1 7037   3.868   2.868   1.767
 2364TIP3    H2 7038   4.000   2.797   1.788
 2365TIP3   OH2 7039   6.087   1.297   3.361
 2365TIP3    H1 7040   6.106   1.219   3.309
 2365TIP3    H2 7041   6.000   1.280   3.398
 2366TIP3   OH2 7042   7.317   4.501   4.508
 2366TIP3    H1 7043   7.328   4.409   4.482
 2366TIP3    H2 7044   7.312   4.548   4.425
 2367TIP3   OH2 7045   5.528   5.987   6.122
 2367TIP3    H1 7046   5.457   6.044   6.153
 2367TIP3    H2 7047   5.607   6.026   6.159
 2368TIP3   OH2 7048   6.942   7.660   2.866
 2368TIP3    H1 7049   7.018   7.656   2.925
 2368TIP3    H2 7050   6.872   7.615   2.914
 2369TIP3   OH2 7051   3.146   1.771   4.245
 2369TIP3    H1 7052   3.136   1.730   4.331
 2369TIP3    H2 7053   3.101   1.855   4.254
 2370TIP3   OH2 7054   5.502   4.458   3.843
 2370TIP3    H1 7055   5.414   4.496   3.848
 2370TIP3    H2 7056   5.558   4.522   3.887
 2371TIP3   OH2 7057   7.214   2.547   6.550
 2371TIP3    H1 7058   7.266   2.542   6.631
 2371TIP3    H2 7059   7.272   2.590   6.487
 2372TIP3   OH2 7060   2.603   4.036   1.843
 2372TIP3    H1 7061   2.628   3.951   1.806
 2372TIP3    H2 7062   2.606   4.024   1.938
 2373TIP3   OH2 7063   0.254   3.327   3.177
 2373TIP3    H1 7064   0.171   3.327   3.225
 2373TIP3    H2 7065   0.310   3.387   3.226
 2374TIP3   OH2 7066   8.002   7.666   0.377
 2374TIP3    H1 7067   7.919   7.712   0.370
 2374TIP3    H2 7068   8.017   7.630   0.290
 2375TIP3   OH2 7069   4.162   2.298   4.569
 2375TIP3    H1 7070   4.121   2.282   4.484
 2375TIP3    H2 7071   4.151   2.215   4.617
 2376TIP3   OH2 7072   1.377   3.397   2.422
 2376TIP3    H1 7073   1.414   3.414   2.335
 2376TIP3    H2 7074   1.362   3.302   2.423
 2377TIP3   OH2 7075   4.721   5.628   1.290
 2377TIP3    H1 7076   4.768   5.689   1.233
 2377TIP3    H2 7077   4.629   5.655   1.283
 2378TIP3   OH2 7078   6.484   0.889   3.711
 2378TIP3    H1 7079   6.435   0.807   3.717
 2378TIP3    H2 7080   6.576   0.862   3.707
 2379TIP3   OH2 7081   5.388   1.808   6.748
 2379TIP3    H1 7082   5.339   1.832   6.670
 2379TIP3    H2 7083   5.323   1.769   6.807
 2380TIP3   OH2 7084   1.314   6.999   0.899
 2380TIP3    H1 7085   1.296   6.988   0.805
 2380TIP3    H2 7086   1.397   6.954   0.913
 2381TIP3   OH2 7087   3.611   7.202   1.280
 2381TIP3    H1 7088   3.688   7.145   1.276
 2381TIP3    H2 7089   3.646   7.289   1.299
 2382TIP3   OH2 7090   3.870   2.334   2.135
 2382TIP3    H1 7091   3.903   2.262   2.082
 2382TIP3    H2 7092   3.947   2.387   2.156
 2383TIP3   OH2 7093   3.743   6.318   0.484
 2383TIP3    H1 7094   3.749   6.322   0.389
 2383TIP3    H2 7095   3.834   6.316   0.514
 2384TIP3   OH2 7096   7.015   2.115   6.497
 2384TIP3    H1 7097   6.946   2.124   6.563
 2384TIP3    H2 7098   7.021   2.202   6.457
 2385TIP3   OH2 7099   7.823   0.518   5.155
 2385TIP3    H1 7100   7.795   0.585   5.093
 2385TIP3    H2 7101   7.792   0.435   5.118
 2386TIP3   OH2 7102   5.499   1.885   1.830
 2386TIP3    H1 7103   5.543   1.838   1.760
 2386TIP3    H2 7104   5.407   1.857   1.824
 2387TIP3   OH2 7105   4.678   6.479   5.106
 2387TIP3    H1 7106   4.652   6.523   5.188
 2387TIP3    H2 7107   4.754   6.427   5.130
 2388TIP3   OH2 7108   7.667   4.269   1.466
 2388TIP3    H1 7109   7.577   4.235   1.465
 2388TIP3    H2 7110   7.656   4.364   1.457
 2389TIP3   OH2 7111   7.019   4.245   6.181
 2389TIP3    H1 7112   6.937   4.220   6.223
 2389TIP3    H2 7113   7.086   4.226   6.246
 2390TIP3   OH2 7114   5.056   5.479   3.942
 2390TIP3    H1 7115   5.092   5.516   3.862
 2390TIP3    H2 7116   5.124   5.491   4.007
 2391TIP3   OH2 7117   5.765   2.633   6.093
 2391TIP3    H1 7118   5.838   2.583   6.057
 2391TIP3    H2 7119   5.695   2.568   6.103
 2392TIP3   OH2 7120   2.201   6.267   1.338
 2392TIP3    H1 7121   2.220   6.314   1.256
 2392TIP3    H2 7122   2.116   6.226   1.323
 2393TIP3   OH2 7123   1.244   2.947   4.997
 2393TIP3    H1 7124   1.157   2.978   4.971
 2393TIP3    H2 7125   1.227   2.883   5.067
 2394TIP3   OH2 7126   5.047   2.628   5.071
 2394TIP3    H1 7127   5.000   2.709   5.050
 2394TIP3    H2 7128   5.023   2.567   5.001
 2395TIP3   OH2 7129   2.997   6.783   3.729
 2395TIP3    H1 7130   2.985   6.767   3.823
 2395TIP3    H2 7131   2.916   6.825   3.701
 2396TIP3   OH2 7132   6.073   1.903   0.239
 2396TIP3    H1 7133   6.099   1.857   0.319
 2396TIP3    H2 7134   6.063   1.834   0.174
 2397TIP3   OH2 7135   5.401   3.374   3.527
 2397TIP3    H1 7136   5.485   3.419   3.518
 2397TIP3    H2 7137   5.392   3.360   3.621
 2398TIP3   OH2 7138   0.180   7.108   3.247
 2398TIP3    H1 7139   0.259   7.063   3.218
 2398TIP3    H2 7140   0.212   7.188   3.289
 2399TIP3   OH2 7141   6.494   2.877   6.223
 2399TIP3    H1 7142   6.520   2.786   6.207
 2399TIP3    H2 7143   6.460   2.908   6.139
 2400TIP3   OH2 7144   0.072   4.964   2.723
 2400TIP3    H1 7145   0.058   4.974   2.817
 2400TIP3    H2 7146   0.144   5.022   2.702
 2401TIP3   OH2 7147   7.394   1.407   3.517
 2401TIP3    H1 7148   7.366   1.316   3.514
 2401TIP3    H2 7149   7.428   1.418   3.606
 2402TIP3   OH2 7150   1.987   0.394   5.770
 2402TIP3    H1 7151   1.925   0.466   5.788
 2402TIP3    H2 7152   1.932   0.316   5.771
 2403TIP3   OH2 7153   5.537   0.381   1.034
 2403TIP3    H1 7154   5.625   0.362   0.999
 2403TIP3    H2 7155   5.554   0.417   1.122
 2404TIP3   OH2 7156   2.964   0.402   2.709
 2404TIP3    H1 7157   2.881   0.384   2.752
 2404TIP3    H2 7158   3.024   0.336   2.743
 2405TIP3   OH2 7159   4.619   0.278   0.191
 2405TIP3    H1 7160   4.541   0.322   0.223
 2405TIP3    H2 7161   4.638   0.211   0.258
 2406TIP3   OH2 7162   2.947   5.699   5.146
 2406TIP3    H1 7163   2.927   5.734   5.059
 2406TIP3    H2 7164   3.004   5.766   5.186
 2407TIP3   OH2 7165   3.464   7.662   6.309
 2407TIP3    H1 7166   3.401   7.723   6.271
 2407TIP3    H2 7167   3.498   7.708   6.386
 2408TIP3   OH2 7168   2.153   1.112   2.996
 2408TIP3    H1 7169   2.094   1.187   2.989
 2408TIP3    H2 7170   2.231   1.138   2.948
 2409TIP3   OH2 7171   3.505   6.346   3.372
 2409TIP3    H1 7172   3.599   6.350   3.384
 2409TIP3    H2 7173   3.469   6.355   3.460
 2410TIP3   OH2 7174   3.090   4.713   0.771
 2410TIP3    H1 7175   3.156   4.653   0.736
 2410TIP3    H2 7176   3.115   4.726   0.862
 2411TIP3   OH2 7177   4.541   6.585   1.476
 2411TIP3    H1 7178   4.624   6.601   1.522
 2411TIP3    H2 7179   4.502   6.672   1.466
 2412TIP3   OH2 7180   7.634   7.445   1.915
 2412TIP3    H1 7181   7.714   7.487   1.944
 2412TIP3    H2 7182   7.580   7.515   1.879
 2413TIP3   OH2 7183   0.489   4.113   4.786
 2413TIP3    H1 7184   0.405   4.158   4.777
 2413TIP3    H2 7185   0.549   4.180   4.818
 2414TIP3   OH2 7186   4.966   0.260   0.850
 2414TIP3    H1 7187   4.968   0.349   0.885
 2414TIP3    H2 7188   4.977   0.270   0.756
 2415TIP3   OH2 7189   3.484   2.453   3.067
 2415TIP3    H1 7190   3.444   2.484   2.986
 2415TIP3    H2 7191   3.435   2.375   3.090
 2416TIP3   OH2 7192   1.266   1.920   0.690
 2416TIP3    H1 7193   1.315   1.987   0.643
 2416TIP3    H2 7194   1.188   1.904   0.636
 2417TIP3   OH2 7195   8.222   0.802   6.420
 2417TIP3    H1 7196   8.291   0.868   6.412
 2417TIP3    H2 7197   8.216   0.763   6.333
 2418TIP3   OH2 7198   6.956   0.889   1.277
 2418TIP3    H1 7199   6.898   0.865   1.349
 2418TIP3    H2 7200   6.954   0.985   1.275
 2419TIP3   OH2 7201   6.887   0.198   5.769
 2419TIP3    H1 7202   6.962   0.214   5.825
 2419TIP3    H2 7203   6.811   0.217   5.824
 2420TIP3   OH2 7204   4.828   3.869   2.132
 2420TIP3    H1 7205   4.853   3.804   2.067
 2420TIP3    H2 7206   4.769   3.929   2.085
 2421TIP3   OH2 7207   2.764   6.242   6.482
 2421TIP3    H1 7208   2.757   6.146   6.476
 2421TIP3    H2 7209   2.847   6.262   6.439
 2422TIP3   OH2 7210   4.032   4.454   3.558
 2422TIP3    H1 7211   4.058   4.388   3.622
 2422TIP3    H2 7212   3.999   4.404   3.483
 2423TIP3   OH2 7213   6.058   2.459   0.999
 2423TIP3    H1 7214   5.973   2.502   1.004
 2423TIP3    H2 7215   6.083   2.445   1.091
 2424TIP3   OH2 7216   3.393   5.278   6.638
 2424TIP3    H1 7217   3.432   5.363   6.655
 2424TIP3    H2 7218   3.467   5.220   6.622
 2425TIP3   OH2 7219   4.904   4.034   6.493
 2425TIP3    H1 7220   4.834   3.971   6.475
 2425TIP3    H2 7221   4.985   3.988   6.470
 2426TIP3   OH2 7222   7.601   3.980   6.125
 2426TIP3    H1 7223   7.665   3.909   6.132
 2426TIP3    H2 7224   7.652   4.055   6.096
 2427TIP3   OH2 7225   4.348   0.120   5.367
 2427TIP3    H1 7226   4.352   0.033   5.407
 2427TIP3    H2 7227   4.287   0.109   5.293
 2428TIP3   OH2 7228   6.578   3.160   2.265
 2428TIP3    H1 7229   6.600   3.087   2.323
 2428TIP3    H2 7230   6.505   3.128   2.212
 2429TIP3   OH2 7231   4.127   5.150   6.375
 2429TIP3    H1 7232   4.111   5.068   6.329
 2429TIP3    H2 7233   4.222   5.150   6.391
 2430TIP3   OH2 7234   3.577   1.459   4.267
 2430TIP3    H1 7235   3.530   1.524   4.215
 2430TIP3    H2 7236   3.527   1.452   4.348
 2431TIP3   OH2 7237   8.249   0.660   3.772
 2431TIP3    H1 7238   8.159   0.667   3.802
 2431TIP3    H2 7239   8.288   0.594   3.829
 2432TIP3   OH2 7240   0.719   4.020   1.568
 2432TIP3    H1 7241   0.764   3.936   1.574
 2432TIP3    H2 7242   0.669   4.014   1.486
 2433TIP3   OH2 7243   6.381   2.245   0.877
 2433TIP3    H1 7244   6.319   2.295   0.824
 2433TIP3    H2 7245   6.453   2.224   0.817
 2434TIP3   OH2 7246   0.175   7.315   3.495
 2434TIP3    H1 7247   0.235   7.386   3.518
 2434TIP3    H2 7248   0.222   7.236   3.522
 2435TIP3   OH2 7249   1.524   4.766   1.055
 2435TIP3    H1 7250   1.490   4.681   1.027
 2435TIP3    H2 7251   1.516   4.764   1.150
 2436TIP3   OH2 7252   4.778   2.302   3.839
 2436TIP3    H1 7253   4.684   2.301   3.820
 2436TIP3    H2 7254   4.787   2.253   3.920
 2437TIP3   OH2 7255   1.683   1.446   5.101
 2437TIP3    H1 7256   1.669   1.471   5.193
 2437TIP3    H2 7257   1.596   1.453   5.061
 2438TIP3   OH2 7258   7.595   6.587   0.166
 2438TIP3    H1 7259   7.689   6.597   0.181
 2438TIP3    H2 7260   7.561   6.677   0.170
 2439TIP3   OH2 7261   0.523   1.421   5.217
 2439TIP3    H1 7262   0.606   1.374   5.211
 2439TIP3    H2 7263   0.547   1.510   5.243
 2440TIP3   OH2 7264   1.800   5.060   0.707
 2440TIP3    H1 7265   1.794   4.968   0.731
 2440TIP3    H2 7266   1.743   5.069   0.631
 2441TIP3   OH2 7267   4.734   0.435   4.450
 2441TIP3    H1 7268   4.728   0.466   4.360
 2441TIP3    H2 7269   4.772   0.348   4.444
 2442TIP3   OH2 7270   5.415   6.126   1.118
 2442TIP3    H1 7271   5.486   6.091   1.172
 2442TIP3    H2 7272   5.336   6.112   1.170
 2443TIP3   OH2 7273   1.679   3.215   6.358
 2443TIP3    H1 7274   1.740   3.181   6.292
 2443TIP3    H2 7275   1.695   3.309   6.359
 2444TIP3   OH2 7276   6.811   7.682   0.858
 2444TIP3    H1 7277   6.765   7.740   0.798
 2444TIP3    H2 7278   6.886   7.649   0.808
 2445TIP3   OH2 7279   0.061   5.321   2.330
 2445TIP3    H1 7280   0.131   5.354   2.273
 2445TIP3    H2 7281   0.106   5.263   2.392
 2446TIP3   OH2 7282   3.732   0.884   0.187
 2446TIP3    H1 7283   3.636   0.881   0.180
 2446TIP3    H2 7284   3.753   0.822   0.257
 2447TIP3   OH2 7285   5.094   1.821   0.679
 2447TIP3    H1 7286   5.019   1.787   0.630
 2447TIP3    H2 7287   5.160   1.752   0.673
 2448TIP3   OH2 7288   3.125   0.546   6.506
 2448TIP3    H1 7289   3.112   0.470   6.562
 2448TIP3    H2 7290   3.151   0.616   6.566
 2449TIP3   OH2 7291   4.775   4.817   2.602
 2449TIP3    H1 7292   4.700   4.848   2.552
 2449TIP3    H2 7293   4.739   4.751   2.661
 2450TIP3   OH2 7294   3.965   0.336   0.844
 2450TIP3    H1 7295   3.907   0.320   0.919
 2450TIP3    H2 7296   3.906   0.357   0.772
 2451TIP3   OH2 7297   5.884   4.017   3.603
 2451TIP3    H1 7298   5.929   4.061   3.676
 2451TIP3    H2 7299   5.803   3.983   3.642
 2452TIP3   OH2 7300   2.146   4.935   6.165
 2452TIP3    H1 7301   2.230   4.912   6.126
 2452TIP3    H2 7302   2.160   4.926   6.259
 2453TIP3   OH2 7303   8.125   3.721   1.225
 2453TIP3    H1 7304   8.031   3.737   1.234
 2453TIP3    H2 7305   8.159   3.726   1.314
 2454TIP3   OH2 7306   4.684   3.532   6.065
 2454TIP3    H1 7307   4.740   3.596   6.021
 2454TIP3    H2 7308   4.632   3.493   5.994
 2455TIP3   OH2 7309   0.495   0.618   4.570
 2455TIP3    H1 7310   0.444   0.559   4.626
 2455TIP3    H2 7311   0.460   0.604   4.482
 2456TIP3   OH2 7312   4.469   4.264   6.738
 2456TIP3    H1 7313   4.526   4.238   6.666
 2456TIP3    H2 7314   4.412   4.331   6.701
 2457TIP3   OH2 7315   4.407   0.922   4.736
 2457TIP3    H1 7316   4.395   1.009   4.700
 2457TIP3    H2 7317   4.322   0.899   4.775
 2458TIP3   OH2 7318   7.007   6.277   4.315
 2458TIP3    H1 7319   7.005   6.221   4.393
 2458TIP3    H2 7320   7.076   6.240   4.260
 2459TIP3   OH2 7321   6.025   6.800   3.659
 2459TIP3    H1 7322   5.957   6.833   3.600
 2459TIP3    H2 7323   5.984   6.805   3.746
 2460TIP3   OH2 7324   4.101   7.318   6.564
 2460TIP3    H1 7325   4.027   7.348   6.617
 2460TIP3    H2 7326   4.155   7.397   6.553
 2461TIP3   OH2 7327   4.881   1.493   3.030
 2461TIP3    H1 7328   4.821   1.561   3.061
 2461TIP3    H2 7329   4.826   1.432   2.982
 2462TIP3   OH2 7330   5.435   4.202   3.687
 2462TIP3    H1 7331   5.398   4.215   3.600
 2462TIP3    H2 7332   5.427   4.287   3.730
 2463TIP3   OH2 7333   8.090   5.525   0.523
 2463TIP3    H1 7334   8.086   5.436   0.558
 2463TIP3    H2 7335   8.086   5.581   0.600
 2464TIP3   OH2 7336   5.068   7.167   5.057
 2464TIP3    H1 7337   4.998   7.192   5.118
 2464TIP3    H2 7338   5.108   7.090   5.097
 2465TIP3   OH2 7339   8.145   0.175   2.425
 2465TIP3    H1 7340   8.148   0.252   2.367
 2465TIP3    H2 7341   8.200   0.110   2.382
 2466TIP3   OH2 7342   7.256   1.255   3.900
 2466TIP3    H1 7343   7.201   1.269   3.976
 2466TIP3    H2 7344   7.198   1.216   3.834
 2467TIP3   OH2 7345   4.678   5.962   5.045
 2467TIP3    H1 7346   4.661   5.917   4.962
 2467TIP3    H2 7347   4.615   6.034   5.046
 2468TIP3   OH2 7348   6.126   7.386   1.709
 2468TIP3    H1 7349   6.184   7.408   1.636
 2468TIP3    H2 7350   6.110   7.470   1.753
 2469TIP3   OH2 7351   5.418   2.083   2.022
 2469TIP3    H1 7352   5.468   2.002   2.010
 2469TIP3    H2 7353   5.345   2.077   1.960
 2470TIP3   OH2 7354   1.418   2.649   4.197
 2470TIP3    H1 7355   1.399   2.687   4.282
 2470TIP3    H2 7356   1.344   2.590   4.179
 2471TIP3   OH2 7357   3.187   2.081   5.796
 2471TIP3    H1 7358   3.191   2.173   5.770
 2471TIP3    H2 7359   3.166   2.083   5.889
 2472TIP3   OH2 7360   1.906   2.734   1.526
 2472TIP3    H1 7361   2.002   2.735   1.535
 2472TIP3    H2 7362   1.891   2.729   1.431
 2473TIP3   OH2 7363   2.106   1.780   0.110
 2473TIP3    H1 7364   2.016   1.812   0.112
 2473TIP3    H2 7365   2.125   1.756   0.201
 2474TIP3   OH2 7366   3.525   4.664   1.191
 2474TIP3    H1 7367   3.519   4.627   1.103
 2474TIP3    H2 7368   3.619   4.667   1.211
 2475TIP3   OH2 7369   5.344   3.567   6.619
 2475TIP3    H1 7370   5.433   3.543   6.591
 2475TIP3    H2 7371   5.293   3.486   6.609
 2476TIP3   OH2 7372   4.308   7.509   6.263
 2476TIP3    H1 7373   4.374   7.578   6.275
 2476TIP3    H2 7374   4.235   7.536   6.319
 2477TIP3   OH2 7375   0.736   3.075   0.892
 2477TIP3    H1 7376   0.815   3.053   0.941
 2477TIP3    H2 7377   0.709   2.992   0.852
 2478TIP3   OH2 7378   2.750   5.304   3.664
 2478TIP3    H1 7379   2.715   5.272   3.580
 2478TIP3    H2 7380   2.772   5.224   3.712
 2479TIP3   OH2 7381   5.465   5.775   4.723
 2479TIP3    H1 7382   5.502   5.740   4.804
 2479TIP3    H2 7383   5.444   5.698   4.671
 2480TIP3   OH2 7384   0.880   0.638   4.119
 2480TIP3    H1 7385   0.831   0.716   4.145
 2480TIP3    H2 7386   0.948   0.630   4.186
 2481TIP3   OH2 7387   3.471   0.589   3.145
 2481TIP3    H1 7388   3.406   0.604   3.077
 2481TIP3    H2 7389   3.552   0.571   3.098
 2482TIP3   OH2 7390   0.461   7.117   2.455
 2482TIP3    H1 7391   0.383   7.172   2.467
 2482TIP3    H2 7392   0.527   7.177   2.420
 2483TIP3   OH2 7393   6.334   0.556   3.211
 2483TIP3    H1 7394   6.394   0.493   3.251
 2483TIP3    H2 7395   6.391   0.612   3.158
 2484TIP3   OH2 7396   8.192   7.819   5.331
 2484TIP3    H1 7397   8.148   7.774   5.258
 2484TIP3    H2 7398   8.140   7.794   5.408
 2485TIP3   OH2 7399   0.701   4.163   5.370
 2485TIP3    H1 7400   0.669   4.114   5.294
 2485TIP3    H2 7401   0.736   4.245   5.332
 2486TIP3   OH2 7402   7.533   5.947   4.881
 2486TIP3    H1 7403   7.514   5.854   4.868
 2486TIP3    H2 7404   7.498   5.989   4.802
 2487TIP3   OH2 7405   4.395   4.528   1.861
 2487TIP3    H1 7406   4.429   4.548   1.948
 2487TIP3    H2 7407   4.329   4.596   1.845
 2488TIP3   OH2 7408   5.783   7.404   3.420
 2488TIP3    H1 7409   5.765   7.443   3.506
 2488TIP3    H2 7410   5.878   7.404   3.413
 2489TIP3   OH2 7411   7.237   4.779   0.043
 2489TIP3    H1 7412   7.244   4.864   0.085
 2489TIP3    H2 7413   7.160   4.786  -0.013
 2490TIP3   OH2 7414   4.971   6.196   2.396
 2490TIP3    H1 7415   4.935   6.283   2.411
 2490TIP3    H2 7416   4.929   6.141   2.463
 2491TIP3   OH2 7417   6.866   5.921   4.219
 2491TIP3    H1 7418   6.776   5.892   4.237
 2491TIP3    H2 7419   6.899   5.949   4.305
 2492TIP3   OH2 7420   2.533   6.205   5.795
 2492TIP3    H1 7421   2.534   6.299   5.813
 2492TIP3    H2 7422   2.461   6.172   5.849
 2493TIP3   OH2 7423   6.755   2.031   4.438
 2493TIP3    H1 7424   6.698   1.999   4.369
 2493TIP3    H2 7425   6.831   2.067   4.392
 2494TIP3   OH2 7426   1.504   4.506   5.572
 2494TIP3    H1 7427   1.525   4.416   5.597
 2494TIP3    H2 7428   1.428   4.529   5.625
 2495TIP3   OH2 7429   8.200   3.401   2.517
 2495TIP3    H1 7430   8.190   3.452   2.598
 2495TIP3    H2 7431   8.295   3.393   2.506
 2496TIP3   OH2 7432   3.178   3.782   2.172
 2496TIP3    H1 7433   3.144   3.800   2.084
 2496TIP3    H2 7434   3.267   3.817   2.171
 2497TIP3   OH2 7435   8.007   3.262   0.387
 2497TIP3    H1 7436   7.949   3.205   0.337
 2497TIP3    H2 7437   8.040   3.206   0.458
 2498TIP3   OH2 7438   2.099   0.351   4.264
 2498TIP3    H1 7439   2.088   0.310   4.349
 2498TIP3    H2 7440   2.135   0.437   4.283
 2499TIP3   OH2 7441   7.580   5.468   2.811
 2499TIP3    H1 7442   7.672   5.444   2.817
 2499TIP3    H2 7443   7.580   5.563   2.797
 2500TIP3   OH2 7444   6.720   5.070   1.547
 2500TIP3    H1 7445   6.704   4.988   1.500
 2500TIP3    H2 7446   6.710   5.138   1.480
 2501TIP3   OH2 7447   4.052   1.798   0.133
 2501TIP3    H1 7448   3.980   1.847   0.174
 2501TIP3    H2 7449   4.085   1.858   0.065
 2502TIP3   OH2 7450   1.889   7.401   6.534
 2502TIP3    H1 7451   1.837   7.329   6.498
 2502TIP3    H2 7452   1.834   7.478   6.524
 2503TIP3   OH2 7453   7.221   3.417   5.085
 2503TIP3    H1 7454   7.208   3.416   5.180
 2503TIP3    H2 7455   7.145   3.370   5.050
 2504TIP3   OH2 7456   0.888   4.858   5.880
 2504TIP3    H1 7457   0.805   4.881   5.838
 2504TIP3    H2 7458   0.862   4.802   5.954
 2505TIP3   OH2 7459   4.789   4.149   0.389
 2505TIP3    H1 7460   4.826   4.226   0.433
 2505TIP3    H2 7461   4.842   4.139   0.310
 2506TIP3   OH2 7462   0.109   4.963   5.965
 2506TIP3    H1 7463   0.030   5.007   5.998
 2506TIP3    H2 7464   0.167   4.957   6.040
 2507TIP3   OH2 7465   0.984   0.911   1.372
 2507TIP3    H1 7466   1.071   0.873   1.376
 2507TIP3    H2 7467   0.998   1.005   1.381
 2508TIP3   OH2 7468   7.771   1.095   6.349
 2508TIP3    H1 7469   7.811   1.030   6.291
 2508TIP3    H2 7470   7.792   1.063   6.437
 2509TIP3   OH2 7471   7.655   5.743   1.568
 2509TIP3    H1 7472   7.626   5.730   1.658
 2509TIP3    H2 7473   7.582   5.714   1.513
 2510TIP3   OH2 7474   3.794   6.438   6.279
 2510TIP3    H1 7475   3.841   6.362   6.314
 2510TIP3    H2 7476   3.789   6.499   6.353
 2511TIP3   OH2 7477   0.510   0.953   1.080
 2511TIP3    H1 7478   0.421   0.936   1.110
 2511TIP3    H2 7479   0.503   1.032   1.026
 2512TIP3   OH2 7480   5.361   4.233   2.726
 2512TIP3    H1 7481   5.410   4.167   2.774
 2512TIP3    H2 7482   5.318   4.285   2.794
 2513TIP3   OH2 7483   6.361   1.390   3.480
 2513TIP3    H1 7484   6.333   1.314   3.430
 2513TIP3    H2 7485   6.289   1.452   3.471
 2514TIP3   OH2 7486   5.831   3.842   4.391
 2514TIP3    H1 7487   5.834   3.844   4.296
 2514TIP3    H2 7488   5.777   3.917   4.415
 2515TIP3   OH2 7489   7.259   0.968   4.486
 2515TIP3    H1 7490   7.176   1.004   4.454
 2515TIP3    H2 7491   7.270   0.885   4.439
 2516TIP3   OH2 7492   6.709   3.661   5.401
 2516TIP3    H1 7493   6.769   3.671   5.327
 2516TIP3    H2 7494   6.765   3.673   5.478
 2517TIP3   OH2 7495   3.643   6.347   0.890
 2517TIP3    H1 7496   3.630   6.289   0.814
 2517TIP3    H2 7497   3.680   6.290   0.957
 2518TIP3   OH2 7498   0.787   6.352   3.018
 2518TIP3    H1 7499   0.699   6.345   2.981
 2518TIP3    H2 7500   0.798   6.270   3.066
 2519TIP3   OH2 7501   6.826   4.471   3.416
 2519TIP3    H1 7502   6.873   4.474   3.499
 2519TIP3    H2 7503   6.892   4.444   3.352
 2520TIP3   OH2 7504   6.168   3.198   4.077
 2520TIP3    H1 7505   6.198   3.160   4.159
 2520TIP3    H2 7506   6.107   3.268   4.104
 2521TIP3   OH2 7507   0.796   5.742   4.861
 2521TIP3    H1 7508   0.844   5.822   4.883
 2521TIP3    H2 7509   0.863   5.680   4.834
 2522TIP3   OH2 7510   7.958   1.758   1.469
 2522TIP3    H1 7511   7.903   1.724   1.398
 2522TIP3    H2 7512   7.904   1.825   1.511
 2523TIP3   OH2 7513   8.006   5.861   4.834
 2523TIP3    H1 7514   8.053   5.838   4.914
 2523TIP3    H2 7515   8.055   5.816   4.764
 2524TIP3   OH2 7516   5.836   4.165   1.501
 2524TIP3    H1 7517   5.828   4.260   1.513
 2524TIP3    H2 7518   5.908   4.155   1.439
 2525TIP3   OH2 7519   4.301   7.425   1.210
 2525TIP3    H1 7520   4.254   7.351   1.248
 2525TIP3    H2 7521   4.243   7.500   1.226
 2526TIP3   OH2 7522   5.378   5.226   6.392
 2526TIP3    H1 7523   5.425   5.308   6.401
 2526TIP3    H2 7524   5.332   5.214   6.475
 2527TIP3   OH2 7525   5.613   2.836   1.311
 2527TIP3    H1 7526   5.632   2.861   1.402
 2527TIP3    H2 7527   5.654   2.750   1.301
 2528TIP3   OH2 7528   5.911   5.916   1.080
 2528TIP3    H1 7529   5.981   5.903   1.016
 2528TIP3    H2 7530   5.953   5.960   1.154
 2529TIP3   OH2 7531   6.539   5.470   6.341
 2529TIP3    H1 7532   6.484   5.544   6.365
 2529TIP3    H2 7533   6.582   5.445   6.422
 2530TIP3   OH2 7534   2.174   5.204   1.631
 2530TIP3    H1 7535   2.138   5.148   1.563
 2530TIP3    H2 7536   2.186   5.289   1.590
 2531TIP3   OH2 7537   0.692   4.097   6.284
 2531TIP3    H1 7538   0.676   4.007   6.256
 2531TIP3    H2 7539   0.613   4.145   6.257
 2532TIP3   OH2 7540   2.481   4.175   6.126
 2532TIP3    H1 7541   2.548   4.221   6.177
 2532TIP3    H2 7542   2.401   4.224   6.141
 2533TIP3   OH2 7543   5.448   7.412   5.426
 2533TIP3    H1 7544   5.509   7.447   5.361
 2533TIP3    H2 7545   5.504   7.361   5.485
 2534TIP3   OH2 7546   4.752   1.701   6.187
 2534TIP3    H1 7547   4.721   1.652   6.263
 2534TIP3    H2 7548   4.764   1.790   6.219
 2535TIP3   OH2 7549   0.347   4.926   0.835
 2535TIP3    H1 7550   0.343   4.926   0.931
 2535TIP3    H2 7551   0.292   4.999   0.808
 2536TIP3   OH2 7552   2.334   4.313   6.399
 2536TIP3    H1 7553   2.349   4.219   6.410
 2536TIP3    H2 7554   2.406   4.355   6.445
 2537TIP3   OH2 7555   6.842   4.708   2.270
 2537TIP3    H1 7556   6.905   4.703   2.197
 2537TIP3    H2 7557   6.788   4.629   2.260
 2538TIP3   OH2 7558   7.980   2.253   5.113
 2538TIP3    H1 7559   7.933   2.248   5.196
 2538TIP3    H2 7560   7.911   2.264   5.047
 2539TIP3   OH2 7561   2.174   5.456   0.227
 2539TIP3    H1 7562   2.090   5.412   0.240
 2539TIP3    H2 7563   2.169   5.493   0.139
 2540TIP3   OH2 7564   6.452   4.934   2.249
 2540TIP3    H1 7565   6.364   4.965   2.229
 2540TIP3    H2 7566   6.441   4.840   2.264
 2541TIP3   OH2 7567   7.378   7.823   3.614
 2541TIP3    H1 7568   7.438   7.787   3.549
 2541TIP3    H2 7569   7.291   7.802   3.580
 2542TIP3   OH2 7570   3.833   7.443   3.885
 2542TIP3    H1 7571   3.852   7.501   3.960
 2542TIP3    H2 7572   3.851   7.497   3.808
 2543TIP3   OH2 7573   6.297   0.379   3.526
 2543TIP3    H1 7574   6.234   0.348   3.460
 2543TIP3    H2 7575   6.249   0.377   3.608
 2544TIP3   OH2 7576   1.932   6.633   5.008
 2544TIP3    H1 7577   1.957   6.543   5.030
 2544TIP3    H2 7578   1.916   6.631   4.913
 2545TIP3   OH2 7579   4.291   0.627   3.555
 2545TIP3    H1 7580   4.379   0.643   3.521
 2545TIP3    H2 7581   4.238   0.699   3.520
 2546TIP3   OH2 7582   6.267   0.686   0.707
 2546TIP3    H1 7583   6.272   0.773   0.747
 2546TIP3    H2 7584   6.285   0.701   0.614
 2547TIP3   OH2 7585   5.454   6.363   0.723
 2547TIP3    H1 7586   5.376   6.358   0.668
 2547TIP3    H2 7587   5.461   6.455   0.748
 2548TIP3   OH2 7588   1.929   2.520   0.998
 2548TIP3    H1 7589   1.887   2.504   1.082
 2548TIP3    H2 7590   2.023   2.517   1.017
 2549TIP3   OH2 7591   3.993   2.902   2.625
 2549TIP3    H1 7592   3.961   2.992   2.638
 2549TIP3    H2 7593   4.035   2.879   2.708
 2550TIP3   OH2 7594   0.712   2.050   3.952
 2550TIP3    H1 7595   0.764   2.109   3.898
 2550TIP3    H2 7596   0.754   2.054   4.039
 2551TIP3   OH2 7597   4.416   3.487   3.307
 2551TIP3    H1 7598   4.396   3.396   3.288
 2551TIP3    H2 7599   4.484   3.511   3.244
 2552TIP3   OH2 7600   4.395   0.760   0.505
 2552TIP3    H1 7601   4.341   0.829   0.543
 2552TIP3    H2 7602   4.441   0.722   0.579
 2553TIP3   OH2 7603   4.915   1.648   3.915
 2553TIP3    H1 7604   4.842   1.586   3.919
 2553TIP3    H2 7605   4.945   1.656   4.005
 2554TIP3   OH2 7606   3.344   3.622   1.884
 2554TIP3    H1 7607   3.403   3.662   1.948
 2554TIP3    H2 7608   3.345   3.529   1.906
 2555TIP3   OH2 7609   1.637   6.946   4.821
 2555TIP3    H1 7610   1.627   7.039   4.802
 2555TIP3    H2 7611   1.683   6.911   4.744
 2556TIP3   OH2 7612   5.814   3.799   1.103
 2556TIP3    H1 7613   5.797   3.790   1.197
 2556TIP3    H2 7614   5.728   3.820   1.065
 2557TIP3   OH2 7615   1.636   6.803   1.913
 2557TIP3    H1 7616   1.579   6.878   1.927
 2557TIP3    H2 7617   1.703   6.835   1.853
 2558TIP3   OH2 7618   4.133   5.672   0.070
 2558TIP3    H1 7619   4.115   5.732  -0.002
 2558TIP3    H2 7620   4.085   5.709   0.144
 2559TIP3   OH2 7621   5.717   4.077   3.387
 2559TIP3    H1 7622   5.755   4.128   3.316
 2559TIP3    H2 7623   5.792   4.053   3.442
 2560TIP3   OH2 7624   6.672   0.565   0.219
 2560TIP3    H1 7625   6.676   0.648   0.170
 2560TIP3    H2 7626   6.606   0.514   0.173
 2561TIP3   OH2 7627   3.447   4.621   5.720
 2561TIP3    H1 7628   3.374   4.675   5.750
 2561TIP3    H2 7629   3.432   4.535   5.760
 2562TIP3   OH2 7630   8.229   2.365   5.150
 2562TIP3    H1 7631   8.151   2.311   5.137
 2562TIP3    H2 7632   8.199   2.455   5.138
 2563TIP3   OH2 7633   7.080   2.953   4.527
 2563TIP3    H1 7634   7.012   2.955   4.461
 2563TIP3    H2 7635   7.121   3.039   4.522
 2564TIP3   OH2 7636   3.332   5.377   5.113
 2564TIP3    H1 7637   3.331   5.321   5.191
 2564TIP3    H2 7638   3.333   5.466   5.146
 2565TIP3   OH2 7639   1.447   6.230   1.647
 2565TIP3    H1 7640   1.448   6.186   1.732
 2565TIP3    H2 7641   1.540   6.243   1.626
 2566TIP3   OH2 7642   2.317   3.805   1.266
 2566TIP3    H1 7643   2.338   3.797   1.173
 2566TIP3    H2 7644   2.338   3.895   1.288
 2567TIP3   OH2 7645   1.316   0.898   4.209
 2567TIP3    H1 7646   1.290   0.855   4.127
 2567TIP3    H2 7647   1.392   0.848   4.239
 2568TIP3   OH2 7648   2.631   1.058   2.832
 2568TIP3    H1 7649   2.638   0.974   2.878
 2568TIP3    H2 7650   2.609   1.121   2.901
 2569TIP3   OH2 7651   1.649   7.675   5.531
 2569TIP3    H1 7652   1.659   7.580   5.517
 2569TIP3    H2 7653   1.578   7.682   5.594
 2570TIP3   OH2 7654   0.368   0.540   5.007
 2570TIP3    H1 7655   0.328   0.610   5.058
 2570TIP3    H2 7656   0.439   0.508   5.063
 2571TIP3   OH2 7657   1.355   5.198   4.503
 2571TIP3    H1 7658   1.313   5.164   4.582
 2571TIP3    H2 7659   1.293   5.261   4.467
 2572TIP3   OH2 7660   5.313   2.049   0.615
 2572TIP3    H1 7661   5.306   1.969   0.668
 2572TIP3    H2 7662   5.380   2.101   0.660
 2573TIP3   OH2 7663   1.147   4.910   2.495
 2573TIP3    H1 7664   1.175   5.001   2.495
 2573TIP3    H2 7665   1.084   4.903   2.566
 2574TIP3   OH2 7666   1.605   1.754   6.258
 2574TIP3    H1 7667   1.671   1.821   6.275
 2574TIP3    H2 7668   1.633   1.713   6.176
 2575TIP3   OH2 7669   3.632   6.035   5.711
 2575TIP3    H1 7670   3.560   5.986   5.670
 2575TIP3    H2 7671   3.588   6.089   5.777
 2576TIP3   OH2 7672   7.448   1.326   6.509
 2576TIP3    H1 7673   7.420   1.274   6.584
 2576TIP3    H2 7674   7.457   1.262   6.437
 2577TIP3   OH2 7675   2.063   6.260   5.572
 2577TIP3    H1 7676   2.116   6.335   5.598
 2577TIP3    H2 7677   2.107   6.224   5.495
 2578TIP3   OH2 7678   5.948   4.909   2.447
 2578TIP3    H1 7679   6.013   4.847   2.413
 2578TIP3    H2 7680   5.870   4.894   2.393
 2579TIP3   OH2 7681   6.449   2.874   0.925
 2579TIP3    H1 7682   6.527   2.824   0.903
 2579TIP3    H2 7683   6.418   2.835   1.007
 2580TIP3   OH2 7684   2.924   1.875   1.867
 2580TIP3    H1 7685   2.835   1.907   1.853
 2580TIP3    H2 7686   2.966   1.880   1.781
 2581TIP3   OH2 7687   5.372   4.163   4.338
 2581TIP3    H1 7688   5.296   4.164   4.397
 2581TIP3    H2 7689   5.354   4.091   4.278
 2582TIP3   OH2 7690   0.250   5.158   0.026
 2582TIP3    H1 7691   0.207   5.088   0.074
 2582TIP3    H2 7692   0.252   5.231   0.087
 2583TIP3   OH2 7693   6.244   4.297   1.013
 2583TIP3    H1 7694   6.258   4.391   1.005
 2583TIP3    H2 7695   6.318   4.266   1.065
 2584TIP3   OH2 7696   2.231   4.831   5.060
 2584TIP3    H1 7697   2.315   4.794   5.087
 2584TIP3    H2 7698   2.207   4.891   5.130
 2585TIP3   OH2 7699   3.193   4.755   1.024
 2585TIP3    H1 7700   3.287   4.759   1.004
 2585TIP3    H2 7701   3.179   4.826   1.087
 2586TIP3   OH2 7702   3.186   0.219   3.380
 2586TIP3    H1 7703   3.277   0.245   3.389
 2586TIP3    H2 7704   3.151   0.222   3.469
 2587TIP3   OH2 7705   5.923   2.854   3.371
 2587TIP3    H1 7706   5.855   2.914   3.402
 2587TIP3    H2 7707   5.998   2.870   3.429
 2588TIP3   OH2 7708   3.497   3.917   1.212
 2588TIP3    H1 7709   3.533   3.984   1.153
 2588TIP3    H2 7710   3.509   3.954   1.300
 2589TIP3   OH2 7711   5.615   2.278   0.268
 2589TIP3    H1 7712   5.628   2.334   0.344
 2589TIP3    H2 7713   5.679   2.207   0.280
 2590TIP3   OH2 7714   2.256   6.766   3.825
 2590TIP3    H1 7715   2.291   6.732   3.907
 2590TIP3    H2 7716   2.225   6.689   3.778
 2591TIP3   OH2 7717   2.614   3.425   1.988
 2591TIP3    H1 7718   2.660   3.493   2.038
 2591TIP3    H2 7719   2.655   3.343   2.016
 2592TIP3   OH2 7720   1.789   2.030   3.623
 2592TIP3    H1 7721   1.701   2.068   3.629
 2592TIP3    H2 7722   1.830   2.078   3.551
 2593TIP3   OH2 7723   2.095   4.163   2.063
 2593TIP3    H1 7724   2.148   4.239   2.088
 2593TIP3    H2 7725   2.019   4.167   2.120
 2594TIP3   OH2 7726   0.735   4.864   4.114
 2594TIP3    H1 7727   0.779   4.820   4.188
 2594TIP3    H2 7728   0.646   4.879   4.145
 2595TIP3   OH2 7729   6.528   2.639  -0.037
 2595TIP3    H1 7730   6.535   2.654   0.058
 2595TIP3    H2 7731   6.577   2.558  -0.052
 2596TIP3   OH2 7732   4.561   4.600   6.458
 2596TIP3    H1 7733   4.599   4.535   6.517
 2596TIP3    H2 7734   4.558   4.556   6.373
 2597TIP3   OH2 7735   4.014   3.779   6.152
 2597TIP3    H1 7736   4.075   3.837   6.198
 2597TIP3    H2 7737   4.068   3.704   6.126
 2598TIP3   OH2 7738   7.847   2.195   5.353
 2598TIP3    H1 7739   7.795   2.115   5.342
 2598TIP3    H2 7740   7.868   2.197   5.447
 2599TIP3   OH2 7741   4.837   5.214   3.618
 2599TIP3    H1 7742   4.818   5.125   3.588
 2599TIP3    H2 7743   4.834   5.209   3.713
 2600TIP3   OH2 7744   1.646   2.784   0.738
 2600TIP3    H1 7745   1.724   2.731   0.751
 2600TIP3    H2 7746   1.680   2.872   0.719
 2601TIP3   OH2 7747   5.502   3.514   4.440
 2601TIP3    H1 7748   5.509   3.502   4.535
 2601TIP3    H2 7749   5.423   3.465   4.416
 2602TIP3   OH2 7750   5.984   2.370   2.712
 2602TIP3    H1 7751   6.007   2.463   2.718
 2602TIP3    H2 7752   5.986   2.339   2.802
 2603TIP3   OH2 7753   6.289   5.929   3.547
 2603TIP3    H1 7754   6.375   5.890   3.557
 2603TIP3    H2 7755   6.229   5.855   3.542
 2604TIP3   OH2 7756   6.689   1.437   1.818
 2604TIP3    H1 7757   6.604   1.461   1.856
 2604TIP3    H2 7758   6.749   1.506   1.849
 2605TIP3   OH2 7759   7.951   4.240   4.432
 2605TIP3    H1 7760   7.994   4.325   4.439
 2605TIP3    H2 7761   7.870   4.259   4.384
 2606TIP3   OH2 7762   2.847   6.196   4.210
 2606TIP3    H1 7763   2.906   6.167   4.280
 2606TIP3    H2 7764   2.896   6.264   4.164
 2607TIP3   OH2 7765   7.393   3.835   2.501
 2607TIP3    H1 7766   7.461   3.817   2.436
 2607TIP3    H2 7767   7.311   3.821   2.453
 2608TIP3   OH2 7768   5.235   2.937   4.837
 2608TIP3    H1 7769   5.271   2.995   4.769
 2608TIP3    H2 7770   5.275   2.852   4.818
 2609TIP3   OH2 7771   3.812   7.167   0.401
 2609TIP3    H1 7772   3.862   7.112   0.340
 2609TIP3    H2 7773   3.877   7.199   0.463
 2610TIP3   OH2 7774   1.511   1.081   6.633
 2610TIP3    H1 7775   1.467   1.085   6.548
 2610TIP3    H2 7776   1.603   1.099   6.613
 2611TIP3   OH2 7777   0.312   3.601   5.968
 2611TIP3    H1 7778   0.241   3.626   5.910
 2611TIP3    H2 7779   0.370   3.547   5.914
 2612TIP3   OH2 7780   4.278   4.365   3.719
 2612TIP3    H1 7781   4.351   4.305   3.701
 2612TIP3    H2 7782   4.296   4.442   3.665
 2613TIP3   OH2 7783   1.981   6.890   1.357
 2613TIP3    H1 7784   1.901   6.936   1.330
 2613TIP3    H2 7785   2.041   6.960   1.382
 2614TIP3   OH2 7786   5.088   0.554   5.196
 2614TIP3    H1 7787   5.091   0.629   5.255
 2614TIP3    H2 7788   4.996   0.546   5.171
 2615TIP3   OH2 7789   2.039   6.177   3.961
 2615TIP3    H1 7790   2.011   6.090   3.932
 2615TIP3    H2 7791   1.963   6.232   3.946
 2616TIP3   OH2 7792   4.088   2.189   5.446
 2616TIP3    H1 7793   4.169   2.139   5.448
 2616TIP3    H2 7794   4.050   2.177   5.533
 2617TIP3   OH2 7795   3.786   4.012   2.500
 2617TIP3    H1 7796   3.871   3.990   2.462
 2617TIP3    H2 7797   3.781   4.108   2.495
 2618TIP3   OH2 7798   2.391   7.281   3.044
 2618TIP3    H1 7799   2.305   7.319   3.029
 2618TIP3    H2 7800   2.453   7.350   3.022
 2619TIP3   OH2 7801   1.081   5.998   0.965
 2619TIP3    H1 7802   0.989   5.969   0.965
 2619TIP3    H2 7803   1.102   6.012   1.057
 2620TIP3   OH2 7804   4.669   3.352   6.339
 2620TIP3    H1 7805   4.649   3.259   6.340
 2620TIP3    H2 7806   4.745   3.361   6.396
 2621TIP3   OH2 7807   0.888   5.204   6.639
 2621TIP3    H1 7808   0.958   5.181   6.578
 2621TIP3    H2 7809   0.908   5.156   6.719
 2622TIP3   OH2 7810   7.833   5.374   1.044
 2622TIP3    H1 7811   7.802   5.354   1.133
 2622TIP3    H2 7812   7.799   5.462   1.026
 2623TIP3   OH2 7813   1.785   1.713   5.499
 2623TIP3    H1 7814   1.761   1.671   5.582
 2623TIP3    H2 7815   1.845   1.652   5.457
 2624TIP3   OH2 7816   1.272   4.102   5.494
 2624TIP3    H1 7817   1.269   4.144   5.579
 2624TIP3    H2 7818   1.256   4.010   5.512
 2625TIP3   OH2 7819   3.335   6.596   4.344
 2625TIP3    H1 7820   3.419   6.574   4.303
 2625TIP3    H2 7821   3.356   6.614   4.435
 2626TIP3   OH2 7822   6.044   3.956   5.687
 2626TIP3    H1 7823   5.966   3.901   5.699
 2626TIP3    H2 7824   6.117   3.895   5.692
 2627TIP3   OH2 7825   1.088   2.198   6.155
 2627TIP3    H1 7826   1.104   2.219   6.247
 2627TIP3    H2 7827   1.059   2.280   6.116
 2628TIP3   OH2 7828   7.123   4.415   2.374
 2628TIP3    H1 7829   7.075   4.483   2.421
 2628TIP3    H2 7830   7.065   4.340   2.375
 2629TIP3   OH2 7831   8.105   0.319   1.432
 2629TIP3    H1 7832   8.169   0.389   1.420
 2629TIP3    H2 7833   8.109   0.298   1.525
 2630TIP3   OH2 7834   5.024   4.626   5.183
 2630TIP3    H1 7835   4.957   4.647   5.118
 2630TIP3    H2 7836   5.052   4.711   5.216
 2631TIP3   OH2 7837   2.299   5.831   3.742
 2631TIP3    H1 7838   2.290   5.742   3.707
 2631TIP3    H2 7839   2.393   5.846   3.746
 2632TIP3   OH2 7840   5.288   0.376   0.968
 2632TIP3    H1 7841   5.382   0.371   0.989
 2632TIP3    H2 7842   5.244   0.358   1.052
 2633TIP3   OH2 7843   5.455   5.949   3.107
 2633TIP3    H1 7844   5.546   5.948   3.079
 2633TIP3    H2 7845   5.454   6.006   3.185
 2634TIP3   OH2 7846   6.913   5.337   4.713
 2634TIP3    H1 7847   6.880   5.423   4.686
 2634TIP3    H2 7848   6.982   5.357   4.777
 2635TIP3   OH2 7849   6.612   1.076   3.445
 2635TIP3    H1 7850   6.563   1.131   3.385
 2635TIP3    H2 7851   6.578   0.988   3.430
 2636TIP3   OH2 7852   5.443   7.085   3.601
 2636TIP3    H1 7853   5.504   7.019   3.633
 2636TIP3    H2 7854   5.488   7.125   3.526
 2637TIP3   OH2 7855   2.368   7.349   0.400
 2637TIP3    H1 7856   2.436   7.284   0.382
 2637TIP3    H2 7857   2.344   7.382   0.314
 2638TIP3   OH2 7858   3.326   0.163   4.442
 2638TIP3    H1 7859   3.333   0.101   4.515
 2638TIP3    H2 7860   3.265   0.230   4.473
 2639TIP3   OH2 7861   4.401   3.218   5.078
 2639TIP3    H1 7862   4.495   3.240   5.072
 2639TIP3    H2 7863   4.391   3.142   5.021
 2640TIP3   OH2 7864   4.165   0.093   1.604
 2640TIP3    H1 7865   4.126   0.013   1.637
 2640TIP3    H2 7866   4.240   0.109   1.662
 2641TIP3   OH2 7867   2.715   1.016   4.683
 2641TIP3    H1 7868   2.686   1.084   4.744
 2641TIP3    H2 7869   2.728   0.938   4.738
 2642TIP3   OH2 7870   0.048   5.378   0.894
 2642TIP3    H1 7871   0.081   5.467   0.885
 2642TIP3    H2 7872  -0.044   5.389   0.918
 2643TIP3   OH2 7873   3.481   4.630   2.612
 2643TIP3    H1 7874   3.416   4.609   2.680
 2643TIP3    H2 7875   3.546   4.560   2.618
 2644TIP3   OH2 7876   4.335   0.625   5.395
 2644TIP3    H1 7877   4.248   0.607   5.431
 2644TIP3    H2 7878   4.327   0.604   5.302
 2645TIP3   OH2 7879   2.946   1.776   5.368
 2645TIP3    H1 7880   2.939   1.803   5.277
 2645TIP3    H2 7881   2.979   1.854   5.413
 2646TIP3   OH2 7882   1.782   4.600   2.228
 2646TIP3    H1 7883   1.824   4.553   2.156
 2646TIP3    H2 7884   1.848   4.599   2.298
 2647TIP3   OH2 7885   1.623   6.893   3.303
 2647TIP3    H1 7886   1.706   6.937   3.280
 2647TIP3    H2 7887   1.564   6.915   3.231
 2648TIP3   OH2 7888   6.804   3.793   6.762
 2648TIP3    H1 7889   6.790   3.854   6.835
 2648TIP3    H2 7890   6.758   3.833   6.688
 2649TIP3   OH2 7891   2.389   0.313   6.764
 2649TIP3    H1 7892   2.483   0.296   6.752
 2649TIP3    H2 7893   2.377   0.401   6.728
 2650TIP3   OH2 7894   3.554   7.635   5.147
 2650TIP3    H1 7895   3.561   7.709   5.208
 2650TIP3    H2 7896   3.639   7.631   5.104
 2651TIP3   OH2 7897   2.362   1.853   3.507
 2651TIP3    H1 7898   2.438   1.795   3.507
 2651TIP3    H2 7899   2.391   1.931   3.459
 2652TIP3   OH2 7900   4.735   0.410   4.902
 2652TIP3    H1 7901   4.793   0.343   4.865
 2652TIP3    H2 7902   4.746   0.485   4.843
 2653TIP3   OH2 7903   0.302   0.104   1.253
 2653TIP3    H1 7904   0.271   0.037   1.314
 2653TIP3    H2 7905   0.351   0.055   1.187
 2654TIP3   OH2 7906   4.384   2.493   4.560
 2654TIP3    H1 7907   4.395   2.491   4.656
 2654TIP3    H2 7908   4.342   2.409   4.539
 2655TIP3   OH2 7909   0.269   1.405   0.927
 2655TIP3    H1 7910   0.281   1.494   0.893
 2655TIP3    H2 7911   0.174   1.397   0.940
 2656TIP3   OH2 7912   8.035   7.131   3.852
 2656TIP3    H1 7913   8.130   7.132   3.847
 2656TIP3    H2 7914   8.010   7.223   3.857
 2657TIP3   OH2 7915   7.664   3.552   6.579
 2657TIP3    H1 7916   7.686   3.616   6.646
 2657TIP3    H2 7917   7.730   3.565   6.511
 2658TIP3   OH2 7918   0.814   6.344   5.652
 2658TIP3    H1 7919   0.890   6.317   5.601
 2658TIP3    H2 7920   0.752   6.378   5.586
 2659TIP3   OH2 7921   3.625   7.229   0.169
 2659TIP3    H1 7922   3.644   7.272   0.086
 2659TIP3    H2 7923   3.709   7.226   0.215
 2660TIP3   OH2 7924   8.127   4.526   1.908
 2660TIP3    H1 7925   8.133   4.575   1.990
 2660TIP3    H2 7926   8.171   4.443   1.927
 2661TIP3   OH2 7927   5.375   4.668   5.351
 2661TIP3    H1 7928   5.372   4.732   5.422
 2661TIP3    H2 7929   5.351   4.719   5.273
 2662TIP3   OH2 7930   2.908   2.524   3.190
 2662TIP3    H1 7931   2.904   2.493   3.100
 2662TIP3    H2 7932   2.819   2.509   3.224
 2663TIP3   OH2 7933   7.337   5.050   2.402
 2663TIP3    H1 7934   7.373   5.101   2.474
 2663TIP3    H2 7935   7.313   5.116   2.336
 2664TIP3   OH2 7936   7.773   2.681   4.578
 2664TIP3    H1 7937   7.851   2.639   4.541
 2664TIP3    H2 7938   7.757   2.634   4.660
 2665TIP3   OH2 7939   0.008   6.494   1.948
 2665TIP3    H1 7940   0.074   6.444   1.901
 2665TIP3    H2 7941   0.045   6.581   1.956
 2666TIP3   OH2 7942   4.838   2.532   2.411
 2666TIP3    H1 7943   4.857   2.464   2.476
 2666TIP3    H2 7944   4.857   2.614   2.456
 2667TIP3   OH2 7945   7.923   6.265   6.024
 2667TIP3    H1 7946   7.956   6.350   5.993
 2667TIP3    H2 7947   7.832   6.263   5.996
 2668TIP3   OH2 7948   3.906   2.610   3.710
 2668TIP3    H1 7949   3.879   2.700   3.728
 2668TIP3    H2 7950   3.835   2.556   3.744
 2669TIP3   OH2 7951   5.819   1.239   3.423
 2669TIP3    H1 7952   5.728   1.268   3.424
 2669TIP3    H2 7953   5.818   1.155   3.470
 2670TIP3   OH2 7954   6.380   3.442   0.948
 2670TIP3    H1 7955   6.299   3.471   0.990
 2670TIP3    H2 7956   6.364   3.351   0.925
 2671TIP3   OH2 7957   3.003   3.585   5.412
 2671TIP3    H1 7958   2.960   3.618   5.491
 2671TIP3    H2 7959   3.018   3.493   5.430
 2672TIP3   OH2 7960   4.311   1.782   3.001
 2672TIP3    H1 7961   4.219   1.781   2.977
 2672TIP3    H2 7962   4.356   1.820   2.925
 2673TIP3   OH2 7963   5.506   1.401   2.437
 2673TIP3    H1 7964   5.584   1.438   2.477
 2673TIP3    H2 7965   5.465   1.351   2.507
 2674TIP3   OH2 7966   6.235   6.878   6.714
 2674TIP3    H1 7967   6.198   6.860   6.627
 2674TIP3    H2 7968   6.248   6.791   6.752
 2675TIP3   OH2 7969   6.003   2.606   5.931
 2675TIP3    H1 7970   5.960   2.579   5.850
 2675TIP3    H2 7971   6.017   2.700   5.920
 2676TIP3   OH2 7972   4.930   1.130   1.601
 2676TIP3    H1 7973   5.009   1.076   1.592
 2676TIP3    H2 7974   4.866   1.073   1.643
 2677TIP3   OH2 7975   4.543   3.088   2.821
 2677TIP3    H1 7976   4.546   3.114   2.913
 2677TIP3    H2 7977   4.627   3.043   2.807
 2678TIP3   OH2 7978   7.215   5.750   6.075
 2678TIP3    H1 7979   7.193   5.786   5.989
 2678TIP3    H2 7980   7.162   5.671   6.083
 2679TIP3   OH2 7981   5.476   6.838   0.020
 2679TIP3    H1 7982   5.563   6.839  -0.018
 2679TIP3    H2 7983   5.486   6.882   0.104
 2680TIP3   OH2 7984   1.784   6.344   6.707
 2680TIP3    H1 7985   1.843   6.312   6.639
 2680TIP3    H2 7986   1.726   6.270   6.725
 2681TIP3   OH2 7987   4.839   5.129   0.042
 2681TIP3    H1 7988   4.771   5.114   0.108
 2681TIP3    H2 7989   4.919   5.094   0.082
 2682TIP3   OH2 7990   2.797   4.422   1.528
 2682TIP3    H1 7991   2.779   4.413   1.435
 2682TIP3    H2 7992   2.782   4.335   1.564
 2683TIP3   OH2 7993   7.091   3.042   5.810
 2683TIP3    H1 7994   7.166   3.032   5.751
 2683TIP3    H2 7995   7.103   3.129   5.849
 2684TIP3   OH2 7996   0.136   4.249   5.087
 2684TIP3    H1 7997   0.172   4.321   5.035
 2684TIP3    H2 7998   0.049   4.278   5.113
 2685TIP3   OH2 7999   5.641   4.921   3.419
 2685TIP3    H1 8000   5.584   4.998   3.427
 2685TIP3    H2 8001   5.660   4.915   3.326
 2686TIP3   OH2 8002   4.576   1.419   1.893
 2686TIP3    H1 8003   4.622   1.444   1.813
 2686TIP3    H2 8004   4.645   1.411   1.959
 2687TIP3   OH2 8005   1.707   2.527   2.556
 2687TIP3    H1 8006   1.744   2.476   2.629
 2687TIP3    H2 8007   1.763   2.507   2.482
 2688TIP3   OH2 8008   1.476   4.225   3.162
 2688TIP3    H1 8009   1.382   4.237   3.149
 2688TIP3    H2 8010   1.488   4.131   3.172
 2689TIP3   OH2 8011   0.211   4.691   3.776
 2689TIP3    H1 8012   0.247   4.685   3.687
 2689TIP3    H2 8013   0.118   4.669   3.766
 2690TIP3   OH2 8014   6.502   3.236   0.714
 2690TIP3    H1 8015   6.472   3.223   0.803
 2690TIP3    H2 8016   6.560   3.162   0.696
 2691TIP3   OH2 8017   5.619   2.116   3.753
 2691TIP3    H1 8018   5.675   2.169   3.696
 2691TIP3    H2 8019   5.574   2.179   3.809
 2692TIP3   OH2 8020   4.875   0.237   3.519
 2692TIP3    H1 8021   4.949   0.275   3.566
 2692TIP3    H2 8022   4.873   0.145   3.548
 2693TIP3   OH2 8023   6.163   5.851   0.081
 2693TIP3    H1 8024   6.157   5.946   0.072
 2693TIP3    H2 8025   6.072   5.822   0.083
 2694TIP3   OH2 8026   0.625   2.066   0.453
 2694TIP3    H1 8027   0.647   2.140   0.396
 2694TIP3    H2 8028   0.555   2.098   0.509
 2695TIP3   OH2 8029   4.510   6.117   5.173
 2695TIP3    H1 8030   4.484   6.026   5.160
 2695TIP3    H2 8031   4.457   6.147   5.247
 2696TIP3   OH2 8032   3.517   2.763   3.780
 2696TIP3    H1 8033   3.522   2.741   3.873
 2696TIP3    H2 8034   3.425   2.750   3.757
 2697TIP3   OH2 8035   4.147   6.865   0.058
 2697TIP3    H1 8036   4.117   6.864  -0.033
 2697TIP3    H2 8037   4.091   6.802   0.103
 2698TIP3   OH2 8038   3.351   0.320   6.516
 2698TIP3    H1 8039   3.361   0.376   6.593
 2698TIP3    H2 8040   3.343   0.231   6.552
 2699TIP3   OH2 8041   4.620   4.635   5.557
 2699TIP3    H1 8042   4.683   4.598   5.618
 2699TIP3    H2 8043   4.636   4.590   5.475
 2700TIP3   OH2 8044   1.093   2.804   5.183
 2700TIP3    H1 8045   1.045   2.834   5.106
 2700TIP3    H2 8046   1.049   2.724   5.211
 2701TIP3   OH2 8047   7.870   7.324   0.506
 2701TIP3    H1 8048   7.776   7.323   0.487
 2701TIP3    H2 8049   7.912   7.312   0.421
 2702TIP3   OH2 8050   0.875   3.766   5.211
 2702TIP3    H1 8051   0.924   3.743   5.291
 2702TIP3    H2 8052   0.834   3.684   5.184
 2703TIP3   OH2 8053   5.751   2.172   2.290
 2703TIP3    H1 8054   5.809   2.098   2.307
 2703TIP3    H2 8055   5.771   2.234   2.360
 2704TIP3   OH2 8056   3.782   1.376   4.014
 2704TIP3    H1 8057   3.723   1.444   3.980
 2704TIP3    H2 8058   3.723   1.304   4.037
 2705TIP3   OH2 8059   7.794   6.667   4.699
 2705TIP3    H1 8060   7.854   6.707   4.762
 2705TIP3    H2 8061   7.844   6.662   4.618
 2706TIP3   OH2 8062   7.787   3.942   2.207
 2706TIP3    H1 8063   7.821   4.022   2.168
 2706TIP3    H2 8064   7.700   3.931   2.167
 2707TIP3   OH2 8065   7.772   6.337   1.586
 2707TIP3    H1 8066   7.824   6.300   1.657
 2707TIP3    H2 8067   7.786   6.278   1.512
 2708TIP3   OH2 8068   4.993   7.823   3.471
 2708TIP3    H1 8069   4.979   7.731   3.493
 2708TIP3    H2 8070   5.085   7.827   3.442
 2709TIP3   OH2 8071   0.601   5.656   2.972
 2709TIP3    H1 8072   0.572   5.746   2.960
 2709TIP3    H2 8073   0.571   5.610   2.893
 2710TIP3   OH2 8074   1.060   3.765   6.288
 2710TIP3    H1 8075   0.993   3.730   6.230
 2710TIP3    H2 8076   1.075   3.854   6.254
 2711TIP3   OH2 8077   1.086   7.679   1.588
 2711TIP3    H1 8078   1.125   7.696   1.673
 2711TIP3    H2 8079   1.110   7.755   1.534
 2712TIP3   OH2 8080   4.299   2.915   5.863
 2712TIP3    H1 8081   4.240   2.887   5.792
 2712TIP3    H2 8082   4.337   2.998   5.831
 2713TIP3   OH2 8083   8.229   4.654   3.819
 2713TIP3    H1 8084   8.249   4.582   3.879
 2713TIP3    H2 8085   8.140   4.680   3.843
 2714TIP3   OH2 8086   7.871   3.104   4.073
 2714TIP3    H1 8087   7.868   3.101   4.168
 2714TIP3    H2 8088   7.862   3.012   4.046
 2715TIP3   OH2 8089   4.925   6.560   4.098
 2715TIP3    H1 8090   4.945   6.637   4.045
 2715TIP3    H2 8091   4.997   6.500   4.082
 2716TIP3   OH2 8092   0.905   6.770   3.901
 2716TIP3    H1 8093   0.852   6.849   3.902
 2716TIP3    H2 8094   0.848   6.702   3.936
 2717TIP3   OH2 8095   0.734   4.217   2.042
 2717TIP3    H1 8096   0.820   4.175   2.037
 2717TIP3    H2 8097   0.697   4.204   1.954
 2718TIP3   OH2 8098   7.140   0.516   0.835
 2718TIP3    H1 8099   7.229   0.486   0.820
 2718TIP3    H2 8100   7.085   0.456   0.784
 2719TIP3   OH2 8101   3.091   1.223   2.699
 2719TIP3    H1 8102   3.035   1.178   2.636
 2719TIP3    H2 8103   3.133   1.293   2.648
 2720TIP3   OH2 8104   8.188   6.456   2.889
 2720TIP3    H1 8105   8.284   6.458   2.890
 2720TIP3    H2 8106   8.162   6.540   2.928
 2721TIP3   OH2 8107   8.138   4.824   6.546
 2721TIP3    H1 8108   8.130   4.910   6.505
 2721TIP3    H2 8109   8.231   4.816   6.567
 2722TIP3   OH2 8110   4.082   4.395   4.569
 2722TIP3    H1 8111   4.106   4.373   4.659
 2722TIP3    H2 8112   4.089   4.313   4.521
 2723TIP3   OH2 8113   3.609   0.188   6.767
 2723TIP3    H1 8114   3.704   0.193   6.763
 2723TIP3    H2 8115   3.581   0.170   6.678
 2724TIP3   OH2 8116   4.220   0.204   6.429
 2724TIP3    H1 8117   4.283   0.183   6.498
 2724TIP3    H2 8118   4.183   0.120   6.403
 2725TIP3   OH2 8119   2.297   5.625   4.515
 2725TIP3    H1 8120   2.299   5.533   4.541
 2725TIP3    H2 8121   2.204   5.646   4.509
 2726TIP3   OH2 8122   2.878   4.788   3.340
 2726TIP3    H1 8123   2.853   4.765   3.429
 2726TIP3    H2 8124   2.973   4.772   3.337
 2727TIP3   OH2 8125   0.871   4.576   4.948
 2727TIP3    H1 8126   0.783   4.608   4.970
 2727TIP3    H2 8127   0.875   4.581   4.852
 2728TIP3   OH2 8128   4.366   7.269   6.714
 2728TIP3    H1 8129   4.397   7.181   6.732
 2728TIP3    H2 8130   4.392   7.285   6.623
 2729TIP3   OH2 8131   4.456   3.919   6.507
 2729TIP3    H1 8132   4.461   3.870   6.425
 2729TIP3    H2 8133   4.436   3.852   6.573
 2730TIP3   OH2 8134   5.032   3.383   1.725
 2730TIP3    H1 8135   4.996   3.423   1.646
 2730TIP3    H2 8136   5.106   3.330   1.693
 2731TIP3   OH2 8137   1.165   2.738   1.937
 2731TIP3    H1 8138   1.090   2.791   1.964
 2731TIP3    H2 8139   1.127   2.670   1.881
 2732TIP3   OH2 8140   3.261   0.187   0.274
 2732TIP3    H1 8141   3.312   0.211   0.352
 2732TIP3    H2 8142   3.194   0.127   0.306
 2733TIP3   OH2 8143   2.106   7.153   4.168
 2733TIP3    H1 8144   2.148   7.122   4.248
 2733TIP3    H2 8145   2.014   7.166   4.192
 2734TIP3   OH2 8146   7.294   4.104   2.065
 2734TIP3    H1 8147   7.245   4.055   2.131
 2734TIP3    H2 8148   7.272   4.061   1.982
 2735TIP3   OH2 8149   4.306  -0.089   2.314
 2735TIP3    H1 8150   4.247  -0.060   2.383
 2735TIP3    H2 8151   4.350  -0.009   2.285
 2736TIP3   OH2 8152   2.064   5.603   3.463
 2736TIP3    H1 8153   2.099   5.691   3.460
 2736TIP3    H2 8154   2.037   5.590   3.554
 2737TIP3   OH2 8155   4.103   3.403   4.076
 2737TIP3    H1 8156   4.150   3.325   4.046
 2737TIP3    H2 8157   4.027   3.368   4.123
 2738TIP3   OH2 8158   5.373   1.556   2.749
 2738TIP3    H1 8159   5.367   1.624   2.816
 2738TIP3    H2 8160   5.457   1.573   2.705
 2739TIP3   OH2 8161   3.061   3.663   4.235
 2739TIP3    H1 8162   3.079   3.668   4.141
 2739TIP3    H2 8163   2.969   3.688   4.243
 2740TIP3   OH2 8164   6.070   4.103   0.896
 2740TIP3    H1 8165   6.129   4.152   0.954
 2740TIP3    H2 8166   6.098   4.128   0.808
 2741TIP3   OH2 8167   4.703   3.032   0.388
 2741TIP3    H1 8168   4.646   2.999   0.458
 2741TIP3    H2 8169   4.643   3.055   0.317
 2742TIP3   OH2 8170   3.169   2.902   6.008
 2742TIP3    H1 8171   3.183   2.880   5.916
 2742TIP3    H2 8172   3.196   2.823   6.056
 2743TIP3   OH2 8173   1.453   3.743   5.752
 2743TIP3    H1 8174   1.507   3.819   5.772
 2743TIP3    H2 8175   1.476   3.678   5.818
 2744TIP3   OH2 8176   4.045   5.194   1.258
 2744TIP3    H1 8177   3.958   5.234   1.260
 2744TIP3    H2 8178   4.092   5.236   1.330
 2745TIP3   OH2 8179   0.536   7.273   3.642
 2745TIP3    H1 8180   0.597   7.264   3.569
 2745TIP3    H2 8181   0.474   7.340   3.614
 2746TIP3   OH2 8182   4.051   6.104   3.568
 2746TIP3    H1 8183   4.121   6.091   3.504
 2746TIP3    H2 8184   4.061   6.195   3.596
 2747TIP3   OH2 8185   7.162   1.970   0.688
 2747TIP3    H1 8186   7.101   2.039   0.661
 2747TIP3    H2 8187   7.155   1.968   0.783
 2748TIP3   OH2 8188   7.930   0.195   1.669
 2748TIP3    H1 8189   7.963   0.108   1.692
 2748TIP3    H2 8190   7.853   0.179   1.615
 2749TIP3   OH2 8191   2.515   7.238   1.547
 2749TIP3    H1 8192   2.460   7.193   1.611
 2749TIP3    H2 8193   2.497   7.331   1.560
 2750TIP3   OH2 8194   1.872   3.155   4.700
 2750TIP3    H1 8195   1.928   3.091   4.744
 2750TIP3    H2 8196   1.783   3.126   4.718
 2751TIP3   OH2 8197   3.834   5.093   5.638
 2751TIP3    H1 8198   3.840   5.171   5.583
 2751TIP3    H2 8199   3.744   5.094   5.671
 2752TIP3   OH2 8200   7.487   3.691   6.258
 2752TIP3    H1 8201   7.462   3.776   6.293
 2752TIP3    H2 8202   7.435   3.628   6.308
 2753TIP3   OH2 8203   7.999   6.325   2.725
 2753TIP3    H1 8204   7.920   6.363   2.764
 2753TIP3    H2 8205   8.071   6.363   2.775
 2754TIP3   OH2 8206   2.870   7.247   6.079
 2754TIP3    H1 8207   2.847   7.307   6.150
 2754TIP3    H2 8208   2.843   7.292   6.000
 2755TIP3   OH2 8209   5.212   7.130   5.440
 2755TIP3    H1 8210   5.201   7.172   5.355
 2755TIP3    H2 8211   5.136   7.072   5.447
 2756TIP3   OH2 8212   8.217   1.577   2.242
 2756TIP3    H1 8213   8.193   1.506   2.183
 2756TIP3    H2 8214   8.227   1.654   2.185
 2757TIP3   OH2 8215   7.041   2.525   5.500
 2757TIP3    H1 8216   7.099   2.498   5.428
 2757TIP3    H2 8217   7.099   2.572   5.561
 2758TIP3   OH2 8218   3.213   1.024   6.620
 2758TIP3    H1 8219   3.119   1.026   6.602
 2758TIP3    H2 8220   3.246   0.949   6.570
 2759TIP3   OH2 8221   0.938   5.440   3.097
 2759TIP3    H1 8222   0.905   5.384   3.168
 2759TIP3    H2 8223   1.033   5.435   3.105
 2760TIP3   OH2 8224   3.561   5.568   1.612
 2760TIP3    H1 8225   3.506   5.600   1.541
 2760TIP3    H2 8226   3.587   5.646   1.660
 2761TIP3   OH2 8227   2.734   6.898   2.930
 2761TIP3    H1 8228   2.753   6.835   3.000
 2761TIP3    H2 8229   2.696   6.974   2.976
 2762TIP3   OH2 8230   6.760   1.668   1.497
 2762TIP3    H1 8231   6.778   1.575   1.483
 2762TIP3    H2 8232   6.674   1.669   1.541
 2763TIP3   OH2 8233   7.219   1.875   0.268
 2763TIP3    H1 8234   7.212   1.893   0.174
 2763TIP3    H2 8235   7.142   1.822   0.289
 2764TIP3   OH2 8236   0.323   6.612   1.396
 2764TIP3    H1 8237   0.276   6.549   1.451
 2764TIP3    H2 8238   0.260   6.684   1.383
 2765TIP3   OH2 8239   1.153   3.700   5.931
 2765TIP3    H1 8240   1.200   3.732   6.008
 2765TIP3    H2 8241   1.222   3.670   5.872
 2766TIP3   OH2 8242   3.323   0.145   2.516
 2766TIP3    H1 8243   3.258   0.214   2.501
 2766TIP3    H2 8244   3.406   0.184   2.489
 2767TIP3   OH2 8245   6.408   6.781   5.566
 2767TIP3    H1 8246   6.374   6.796   5.654
 2767TIP3    H2 8247   6.332   6.754   5.514
 2768TIP3   OH2 8248   0.515   2.709   5.401
 2768TIP3    H1 8249   0.591   2.744   5.448
 2768TIP3    H2 8250   0.553   2.655   5.332
 2769TIP3   OH2 8251   7.134   5.922   4.587
 2769TIP3    H1 8252   7.187   5.861   4.535
 2769TIP3    H2 8253   7.184   5.935   4.668
 2770TIP3   OH2 8254   6.984   6.918   0.608
 2770TIP3    H1 8255   7.041   6.971   0.554
 2770TIP3    H2 8256   6.939   6.980   0.665
 2771TIP3   OH2 8257   2.010   7.354   6.780
 2771TIP3    H1 8258   2.076   7.413   6.815
 2771TIP3    H2 8259   1.980   7.397   6.699
 2772TIP3   OH2 8260   2.955   0.315   6.191
 2772TIP3    H1 8261   2.964   0.406   6.217
 2772TIP3    H2 8262   2.940   0.318   6.097
 2773TIP3   OH2 8263   5.984   5.237   3.933
 2773TIP3    H1 8264   6.034   5.201   3.860
 2773TIP3    H2 8265   5.963   5.326   3.906
 2774TIP3   OH2 8266   1.960   7.000   4.625
 2774TIP3    H1 8267   2.015   6.996   4.703
 2774TIP3    H2 8268   1.968   7.091   4.596
 2775TIP3   OH2 8269   3.470   7.078   1.601
 2775TIP3    H1 8270   3.460   7.012   1.532
 2775TIP3    H2 8271   3.448   7.031   1.682
 2776TIP3   OH2 8272   2.953   7.063   5.581
 2776TIP3    H1 8273   2.885   7.002   5.612
 2776TIP3    H2 8274   2.969   7.037   5.490
 2777TIP3   OH2 8275   5.842   3.861   4.884
 2777TIP3    H1 8276   5.930   3.828   4.863
 2777TIP3    H2 8277   5.849   3.890   4.975
 2778TIP3   OH2 8278   5.968   1.008   6.747
 2778TIP3    H1 8279   5.938   1.026   6.658
 2778TIP3    H2 8280   6.062   1.027   6.744
 2779TIP3   OH2 8281   8.073   6.459   3.522
 2779TIP3    H1 8282   7.984   6.425   3.524
 2779TIP3    H2 8283   8.067   6.546   3.562
 2780TIP3   OH2 8284   0.339   2.207   3.465
 2780TIP3    H1 8285   0.424   2.176   3.496
 2780TIP3    H2 8286   0.286   2.128   3.456
 2781TIP3   OH2 8287   4.260   2.196   4.900
 2781TIP3    H1 8288   4.279   2.105   4.922
 2781TIP3    H2 8289   4.237   2.236   4.984
 2782TIP3   OH2 8290   3.355   3.314   6.102
 2782TIP3    H1 8291   3.398   3.336   6.020
 2782TIP3    H2 8292   3.310   3.231   6.084
 2783TIP3   OH2 8293   1.965   0.926   0.306
 2783TIP3    H1 8294   1.880   0.933   0.262
 2783TIP3    H2 8295   2.027   0.967   0.245
 2784TIP3   OH2 8296   3.319   3.073   2.887
 2784TIP3    H1 8297   3.310   2.987   2.928
 2784TIP3    H2 8298   3.282   3.062   2.800
 2785TIP3   OH2 8299   6.001   4.173   5.498
 2785TIP3    H1 8300   6.055   4.224   5.559
 2785TIP3    H2 8301   5.985   4.090   5.544
 2786TIP3   OH2 8302   7.532   2.239   0.091
 2786TIP3    H1 8303   7.489   2.260   0.173
 2786TIP3    H2 8304   7.619   2.208   0.116
 2787TIP3   OH2 8305   7.296   1.645   3.996
 2787TIP3    H1 8306   7.346   1.690   4.064
 2787TIP3    H2 8307   7.204   1.655   4.022
 2788TIP3   OH2 8308   0.472   0.697   5.630
 2788TIP3    H1 8309   0.463   0.693   5.725
 2788TIP3    H2 8310   0.456   0.608   5.600
 2789TIP3   OH2 8311   2.791   3.874   6.754
 2789TIP3    H1 8312   2.850   3.849   6.684
 2789TIP3    H2 8313   2.720   3.810   6.749
 2790TIP3   OH2 8314   7.446   0.110   0.068
 2790TIP3    H1 8315   7.491   0.142   0.146
 2790TIP3    H2 8316   7.453   0.015   0.073
 2791TIP3   OH2 8317   4.246   4.004   2.195
 2791TIP3    H1 8318   4.309   4.072   2.220
 2791TIP3    H2 8319   4.278   3.972   2.111
 2792TIP3   OH2 8320   8.066   2.478   4.174
 2792TIP3    H1 8321   8.026   2.391   4.185
 2792TIP3    H2 8322   7.991   2.538   4.170
 2793TIP3   OH2 8323   6.156   1.422   3.648
 2793TIP3    H1 8324   6.224   1.356   3.639
 2793TIP3    H2 8325   6.131   1.419   3.741
 2794TIP3   OH2 8326   7.854   1.524   2.218
 2794TIP3    H1 8327   7.839   1.618   2.206
 2794TIP3    H2 8328   7.897   1.517   2.303
 2795TIP3   OH2 8329   6.238   4.422   2.803
 2795TIP3    H1 8330   6.247   4.362   2.729
 2795TIP3    H2 8331   6.260   4.508   2.767
 2796TIP3   OH2 8332   7.691   4.688   6.669
 2796TIP3    H1 8333   7.606   4.666   6.630
 2796TIP3    H2 8334   7.669   4.728   6.753
 2797TIP3   OH2 8335   1.775   3.772   6.042
 2797TIP3    H1 8336   1.721   3.794   6.118
 2797TIP3    H2 8337   1.726   3.807   5.967
 2798TIP3   OH2 8338   3.379   6.707   1.204
 2798TIP3    H1 8339   3.463   6.747   1.228
 2798TIP3    H2 8340   3.400   6.648   1.132
 2799TIP3   OH2 8341   3.662   3.933   2.189
 2799TIP3    H1 8342   3.717   3.945   2.112
 2799TIP3    H2 8343   3.663   4.018   2.233
 2800TIP3   OH2 8344   6.811   2.606   2.802
 2800TIP3    H1 8345   6.728   2.562   2.784
 2800TIP3    H2 8346   6.864   2.539   2.848
 2801TIP3   OH2 8347   2.893   1.490   1.235
 2801TIP3    H1 8348   2.954   1.564   1.233
 2801TIP3    H2 8349   2.948   1.413   1.219
 2802TIP3   OH2 8350   1.270   0.117   2.778
 2802TIP3    H1 8351   1.302   0.027   2.771
 2802TIP3    H2 8352   1.340   0.169   2.739
 2803TIP3   OH2 8353   5.303   5.180   2.306
 2803TIP3    H1 8354   5.331   5.265   2.271
 2803TIP3    H2 8355   5.222   5.200   2.353
 2804TIP3   OH2 8356   6.124   4.288   5.150
 2804TIP3    H1 8357   6.194   4.263   5.210
 2804TIP3    H2 8358   6.117   4.383   5.157
 2805TIP3   OH2 8359   2.209   4.111   0.311
 2805TIP3    H1 8360   2.250   4.057   0.244
 2805TIP3    H2 8361   2.214   4.059   0.390
 2806TIP3   OH2 8362   7.544   1.642   3.565
 2806TIP3    H1 8363   7.508   1.575   3.508
 2806TIP3    H2 8364   7.479   1.652   3.635
 2807TIP3   OH2 8365   2.219   4.619   6.397
 2807TIP3    H1 8366   2.313   4.599   6.393
 2807TIP3    H2 8367   2.188   4.600   6.308
 2808TIP3   OH2 8368   1.391   6.275   0.541
 2808TIP3    H1 8369   1.377   6.338   0.471
 2808TIP3    H2 8370   1.320   6.212   0.532
 2809TIP3   OH2 8371   4.972   7.604   0.635
 2809TIP3    H1 8372   5.058   7.642   0.649
 2809TIP3    H2 8373   4.911   7.667   0.673
 2810TIP3   OH2 8374   5.218   3.288   6.055
 2810TIP3    H1 8375   5.299   3.337   6.044
 2810TIP3    H2 8376   5.239   3.200   6.022
 2811TIP3   OH2 8377   6.187   0.769   4.835
 2811TIP3    H1 8378   6.168   0.684   4.873
 2811TIP3    H2 8379   6.121   0.779   4.766
 2812TIP3   OH2 8380   0.138   2.798   2.337
 2812TIP3    H1 8381   0.112   2.858   2.267
 2812TIP3    H2 8382   0.134   2.711   2.296
 2813TIP3   OH2 8383   7.105   0.101   2.914
 2813TIP3    H1 8384   7.114   0.183   2.865
 2813TIP3    H2 8385   7.137   0.122   3.001
 2814TIP3   OH2 8386   3.714   2.061   2.650
 2814TIP3    H1 8387   3.630   2.055   2.604
 2814TIP3    H2 8388   3.777   2.020   2.590
 2815TIP3   OH2 8389   5.066   2.716   0.646
 2815TIP3    H1 8390   5.045   2.655   0.576
 2815TIP3    H2 8391   5.017   2.795   0.625
 2816TIP3   OH2 8392   0.736   2.316   5.652
 2816TIP3    H1 8393   0.663   2.346   5.707
 2816TIP3    H2 8394   0.800   2.281   5.714
 2817TIP3   OH2 8395   2.892   0.441   5.933
 2817TIP3    H1 8396   2.815   0.481   5.892
 2817TIP3    H2 8397   2.960   0.444   5.865
 2818TIP3   OH2 8398   6.235   2.700   3.482
 2818TIP3    H1 8399   6.213   2.791   3.501
 2818TIP3    H2 8400   6.221   2.654   3.565
 2819TIP3   OH2 8401   2.111   0.664   1.624
 2819TIP3    H1 8402   2.136   0.656   1.716
 2819TIP3    H2 8403   2.080   0.576   1.601
 2820TIP3   OH2 8404   4.552   6.908   0.813
 2820TIP3    H1 8405   4.512   6.968   0.750
 2820TIP3    H2 8406   4.496   6.913   0.891
 2821TIP3   OH2 8407   8.234   6.220   6.322
 2821TIP3    H1 8408   8.238   6.316   6.325
 2821TIP3    H2 8409   8.141   6.200   6.314
 2822TIP3   OH2 8410   6.932   6.735   0.990
 2822TIP3    H1 8411   6.965   6.801   1.051
 2822TIP3    H2 8412   6.838   6.752   0.985
 2823TIP3   OH2 8413   4.953   1.963   6.014
 2823TIP3    H1 8414   4.910   2.037   5.971
 2823TIP3    H2 8415   5.006   2.002   6.083
 2824TIP3   OH2 8416   5.332   6.196   1.661
 2824TIP3    H1 8417   5.394   6.268   1.674
 2824TIP3    H2 8418   5.275   6.226   1.590
 2825TIP3   OH2 8419   1.549   5.120   6.737
 2825TIP3    H1 8420   1.465   5.145   6.700
 2825TIP3    H2 8421   1.610   5.124   6.664
 2826TIP3   OH2 8422   2.337   2.950   6.224
 2826TIP3    H1 8423   2.335   2.934   6.319
 2826TIP3    H2 8424   2.429   2.968   6.205
 2827TIP3   OH2 8425   4.812   1.300   3.547
 2827TIP3    H1 8426   4.865   1.378   3.527
 2827TIP3    H2 8427   4.832   1.280   3.638
 2828TIP3   OH2 8428   5.546   2.310   1.217
 2828TIP3    H1 8429   5.626   2.285   1.264
 2828TIP3    H2 8430   5.506   2.378   1.270
 2829TIP3   OH2 8431   3.374   1.237   6.524
 2829TIP3    H1 8432   3.325   1.173   6.576
 2829TIP3    H2 8433   3.403   1.302   6.588
 2830TIP3   OH2 8434   1.592   0.962   3.804
 2830TIP3    H1 8435   1.603   0.926   3.716
 2830TIP3    H2 8436   1.497   0.963   3.818
 2831TIP3   OH2 8437   2.848   2.325   3.713
 2831TIP3    H1 8438   2.918   2.355   3.770
 2831TIP3    H2 8439   2.871   2.359   3.626
 2832TIP3   OH2 8440   4.461   2.416   5.296
 2832TIP3    H1 8441   4.377   2.408   5.340
 2832TIP3    H2 8442   4.467   2.508   5.272
 2833TIP3   OH2 8443   4.950   0.862   1.934
 2833TIP3    H1 8444   4.895   0.807   1.990
 2833TIP3    H2 8445   5.018   0.895   1.992
 2834TIP3   OH2 8446   4.658   5.063   0.577
 2834TIP3    H1 8447   4.601   5.137   0.559
 2834TIP3    H2 8448   4.649   5.007   0.499
 2835TIP3   OH2 8449   4.395   5.243   0.038
 2835TIP3    H1 8450   4.361   5.319   0.086
 2835TIP3    H2 8451   4.360   5.168   0.086
 2836TIP3   OH2 8452   3.289   0.661   6.705
 2836TIP3    H1 8453   3.339   0.581   6.724
 2836TIP3    H2 8454   3.298   0.713   6.784
 2837TIP3   OH2 8455   6.389   2.585   1.579
 2837TIP3    H1 8456   6.483   2.603   1.578
 2837TIP3    H2 8457   6.349   2.660   1.537
 2838TIP3   OH2 8458   2.095   3.683   2.865
 2838TIP3    H1 8459   2.065   3.773   2.851
 2838TIP3    H2 8460   2.051   3.655   2.945
 2839TIP3   OH2 8461   7.138   7.779   1.519
 2839TIP3    H1 8462   7.134   7.822   1.604
 2839TIP3    H2 8463   7.123   7.849   1.455
 2840TIP3   OH2 8464   5.949   2.874   5.818
 2840TIP3    H1 8465   5.878   2.911   5.872
 2840TIP3    H2 8466   5.903   2.822   5.752
 2841TIP3   OH2 8467   2.993   1.062   4.764
 2841TIP3    H1 8468   2.999   0.971   4.792
 2841TIP3    H2 8469   2.934   1.103   4.827
 2842TIP3   OH2 8470   1.209   4.220   3.699
 2842TIP3    H1 8471   1.226   4.212   3.605
 2842TIP3    H2 8472   1.122   4.183   3.711
 2843TIP3   OH2 8473   0.174   3.715   2.525
 2843TIP3    H1 8474   0.113   3.649   2.558
 2843TIP3    H2 8475   0.228   3.737   2.601
 2844TIP3   OH2 8476   1.913   6.250   6.456
 2844TIP3    H1 8477   1.975   6.180   6.433
 2844TIP3    H2 8478   1.967   6.329   6.461
 2845TIP3   OH2 8479   0.191   6.345   6.395
 2845TIP3    H1 8480   0.161   6.424   6.440
 2845TIP3    H2 8481   0.117   6.285   6.400
 2846TIP3   OH2 8482   5.421   6.661   1.822
 2846TIP3    H1 8483   5.443   6.742   1.869
 2846TIP3    H2 8484   5.333   6.639   1.852
 2847TIP3   OH2 8485   1.987   3.272   4.066
 2847TIP3    H1 8486   2.006   3.239   4.154
 2847TIP3    H2 8487   1.912   3.221   4.036
 2848TIP3   OH2 8488   4.664   2.553   2.973
 2848TIP3    H1 8489   4.595   2.583   3.032
 2848TIP3    H2 8490   4.737   2.530   3.030
 2849TIP3   OH2 8491   5.893   1.889   0.848
 2849TIP3    H1 8492   5.923   1.960   0.906
 2849TIP3    H2 8493   5.899   1.810   0.902
 2850TIP3   OH2 8494   0.415   3.567   0.466
 2850TIP3    H1 8495   0.460   3.652   0.469
 2850TIP3    H2 8496   0.400   3.552   0.373
 2851TIP3   OH2 8497   6.127   5.761   5.161
 2851TIP3    H1 8498   6.131   5.702   5.086
 2851TIP3    H2 8499   6.186   5.722   5.226
 2852TIP3   OH2 8500   6.709   3.163   3.688
 2852TIP3    H1 8501   6.671   3.193   3.771
 2852TIP3    H2 8502   6.728   3.071   3.702
 2853TIP3   OH2 8503   3.666   3.858   3.193
 2853TIP3    H1 8504   3.611   3.781   3.175
 2853TIP3    H2 8505   3.668   3.864   3.289
 2854TIP3   OH2 8506   6.686   3.975   2.237
 2854TIP3    H1 8507   6.704   3.938   2.323
 2854TIP3    H2 8508   6.654   4.064   2.255
 2855TIP3   OH2 8509   1.967   0.932   1.862
 2855TIP3    H1 8510   1.973   0.838   1.873
 2855TIP3    H2 8511   2.051   0.966   1.895
 2856TIP3   OH2 8512   5.681   6.280   6.478
 2856TIP3    H1 8513   5.590   6.276   6.507
 2856TIP3    H2 8514   5.732   6.270   6.558
 2857TIP3   OH2 8515   0.199   0.517   6.617
 2857TIP3    H1 8516   0.267   0.462   6.579
 2857TIP3    H2 8517   0.164   0.466   6.690
 2858TIP3   OH2 8518   2.964   1.833   6.214
 2858TIP3    H1 8519   2.922   1.844   6.129
 2858TIP3    H2 8520   2.956   1.739   6.233
 2859TIP3   OH2 8521   0.035   2.003   1.945
 2859TIP3    H1 8522   0.066   1.915   1.922
 2859TIP3    H2 8523   0.109   2.060   1.924
 2860TIP3   OH2 8524   5.478   1.811   5.157
 2860TIP3    H1 8525   5.508   1.897   5.187
 2860TIP3    H2 8526   5.426   1.777   5.231
 2861TIP3   OH2 8527   2.076   0.726   4.578
 2861TIP3    H1 8528   2.158   0.774   4.595
 2861TIP3    H2 8529   2.067   0.726   4.483
 2862TIP3   OH2 8530   0.456   4.210   1.583
 2862TIP3    H1 8531   0.423   4.176   1.667
 2862TIP3    H2 8532   0.414   4.155   1.517
 2863TIP3   OH2 8533   7.651   6.890   5.288
 2863TIP3    H1 8534   7.672   6.964   5.232
 2863TIP3    H2 8535   7.686   6.915   5.374
 2864TIP3   OH2 8536   0.626   3.338   4.159
 2864TIP3    H1 8537   0.572   3.416   4.164
 2864TIP3    H2 8538   0.699   3.363   4.101
 2865TIP3   OH2 8539   0.743   3.566   5.096
 2865TIP3    H1 8540   0.757   3.596   5.006
 2865TIP3    H2 8541   0.784   3.480   5.100
 2866TIP3   OH2 8542   0.213   3.056   5.657
 2866TIP3    H1 8543   0.140   2.994   5.657
 2866TIP3    H2 8544   0.274   3.020   5.592
 2867TIP3   OH2 8545   3.904   3.809   4.045
 2867TIP3    H1 8546   3.938   3.871   4.109
 2867TIP3    H2 8547   3.822   3.849   4.015
 2868TIP3   OH2 8548   1.485   6.693   3.721
 2868TIP3    H1 8549   1.577   6.705   3.743
 2868TIP3    H2 8550   1.438   6.746   3.786
 2869TIP3   OH2 8551   4.977   7.534   1.714
 2869TIP3    H1 8552   4.895   7.492   1.740
 2869TIP3    H2 8553   4.972   7.540   1.619
 2870TIP3   OH2 8554   3.706   0.966   3.922
 2870TIP3    H1 8555   3.655   0.885   3.920
 2870TIP3    H2 8556   3.659   1.024   3.982
 2871TIP3   OH2 8557   2.376   0.643   6.604
 2871TIP3    H1 8558   2.464   0.673   6.581
 2871TIP3    H2 8559   2.349   0.589   6.529
 2872TIP3   OH2 8560   0.745   1.036   0.849
 2872TIP3    H1 8561   0.814   1.038   0.915
 2872TIP3    H2 8562   0.676   1.092   0.885
 2873TIP3   OH2 8563   0.098   6.920   0.319
 2873TIP3    H1 8564   0.183   6.937   0.278
 2873TIP3    H2 8565   0.109   6.835   0.362
 2874TIP3   OH2 8566   4.210   0.216   5.101
 2874TIP3    H1 8567   4.164   0.171   5.030
 2874TIP3    H2 8568   4.301   0.187   5.093
 2875TIP3   OH2 8569   6.818   3.264   1.121
 2875TIP3    H1 8570   6.783   3.318   1.051
 2875TIP3    H2 8571   6.773   3.180   1.112
 2876TIP3   OH2 8572   6.963   6.961   1.132
 2876TIP3    H1 8573   6.925   6.948   1.219
 2876TIP3    H2 8574   6.934   7.049   1.106
 2877TIP3   OH2 8575   1.713   7.381   5.878
 2877TIP3    H1 8576   1.631   7.429   5.868
 2877TIP3    H2 8577   1.781   7.445   5.859
 2878TIP3   OH2 8578   3.332   0.743   5.258
 2878TIP3    H1 8579   3.313   0.706   5.171
 2878TIP3    H2 8580   3.273   0.818   5.265
 2879TIP3   OH2 8581   6.924   2.821   1.667
 2879TIP3    H1 8582   6.828   2.813   1.668
 2879TIP3    H2 8583   6.951   2.775   1.588
 2880TIP3   OH2 8584   0.350   7.592   4.908
 2880TIP3    H1 8585   0.353   7.518   4.847
 2880TIP3    H2 8586   0.359   7.552   4.994
 2881TIP3   OH2 8587   5.484   3.514   1.118
 2881TIP3    H1 8588   5.428   3.551   1.186
 2881TIP3    H2 8589   5.440   3.433   1.092
 2882TIP3   OH2 8590   8.302   2.228   4.767
 2882TIP3    H1 8591   8.220   2.186   4.741
 2882TIP3    H2 8592   8.292   2.319   4.739
 2883TIP3   OH2 8593   1.753   6.121   5.461
 2883TIP3    H1 8594   1.774   6.074   5.380
 2883TIP3    H2 8595   1.662   6.148   5.450
 2884TIP3   OH2 8596   4.362   5.180   4.078
 2884TIP3    H1 8597   4.282   5.224   4.107
 2884TIP3    H2 8598   4.343   5.087   4.085
 2885TIP3   OH2 8599   2.444   5.064   0.600
 2885TIP3    H1 8600   2.536   5.065   0.624
 2885TIP3    H2 8601   2.434   5.140   0.542
 2886TIP3   OH2 8602   3.170   6.411   3.435
 2886TIP3    H1 8603   3.175   6.448   3.524
 2886TIP3    H2 8604   3.189   6.485   3.378
 2887TIP3   OH2 8605   7.817   5.475   5.594
 2887TIP3    H1 8606   7.834   5.539   5.524
 2887TIP3    H2 8607   7.723   5.483   5.611
 2888TIP3   OH2 8608   7.326   0.406   3.449
 2888TIP3    H1 8609   7.417   0.394   3.420
 2888TIP3    H2 8610   7.282   0.448   3.375
 2889TIP3   OH2 8611   8.306   1.295   0.884
 2889TIP3    H1 8612   8.300   1.319   0.792
 2889TIP3    H2 8613   8.329   1.202   0.883
 2890TIP3   OH2 8614   7.807   4.209   1.210
 2890TIP3    H1 8615   7.811   4.305   1.216
 2890TIP3    H2 8616   7.778   4.180   1.296
 2891TIP3   OH2 8617   6.467   7.375   1.327
 2891TIP3    H1 8618   6.543   7.355   1.382
 2891TIP3    H2 8619   6.464   7.304   1.264
 2892TIP3   OH2 8620   7.862   3.299   6.079
 2892TIP3    H1 8621   7.950   3.327   6.051
 2892TIP3    H2 8622   7.804   3.369   6.051
 2893TIP3   OH2 8623   3.439   2.911   2.484
 2893TIP3    H1 8624   3.526   2.948   2.495
 2893TIP3    H2 8625   3.454   2.821   2.454
 2894TIP3   OH2 8626   0.971   2.383   5.066
 2894TIP3    H1 8627   1.014   2.379   5.152
 2894TIP3    H2 8628   1.015   2.316   5.014
 2895TIP3   OH2 8629   5.800   0.325   2.588
 2895TIP3    H1 8630   5.883   0.325   2.636
 2895TIP3    H2 8631   5.734   0.345   2.654
 2896TIP3   OH2 8632   0.603   7.190   5.269
 2896TIP3    H1 8633   0.578   7.242   5.345
 2896TIP3    H2 8634   0.662   7.123   5.304
 2897TIP3   OH2 8635   8.184   7.611   4.055
 2897TIP3    H1 8636   8.128   7.639   4.127
 2897TIP3    H2 8637   8.261   7.667   4.061
 2898TIP3   OH2 8638   7.257   4.359   6.340
 2898TIP3    H1 8639   7.175   4.384   6.382
 2898TIP3    H2 8640   7.300   4.441   6.319
 2899TIP3   OH2 8641   6.760   5.935   2.439
 2899TIP3    H1 8642   6.755   5.918   2.533
 2899TIP3    H2 8643   6.841   5.986   2.429
 2900TIP3   OH2 8644   7.274   1.696   4.458
 2900TIP3    H1 8645   7.307   1.607   4.474
 2900TIP3    H2 8646   7.211   1.711   4.529
 2901TIP3   OH2 8647   8.104   5.659   5.523
 2901TIP3    H1 8648   8.019   5.648   5.481
 2901TIP3    H2 8649   8.133   5.746   5.495
 2902TIP3   OH2 8650   2.767   7.248   0.839
 2902TIP3    H1 8651   2.852   7.291   0.825
 2902TIP3    H2 8652   2.784   7.155   0.822
 2903TIP3   OH2 8653   0.842   0.119   2.521
 2903TIP3    H1 8654   0.896   0.154   2.451
 2903TIP3    H2 8655   0.764   0.085   2.477
 2904TIP3   OH2 8656   1.798   7.578   2.586
 2904TIP3    H1 8657   1.742   7.648   2.620
 2904TIP3    H2 8658   1.809   7.600   2.493
 2905TIP3   OH2 8659   0.004   4.462   4.549
 2905TIP3    H1 8660  -0.015   4.536   4.491
 2905TIP3    H2 8661   0.089   4.483   4.587
 2906TIP3   OH2 8662   4.516   4.785   2.063
 2906TIP3    H1 8663   4.428   4.790   2.099
 2906TIP3    H2 8664   4.572   4.816   2.134
 2907TIP3   OH2 8665   7.156   5.913   1.565
 2907TIP3    H1 8666   7.119   5.995   1.534
 2907TIP3    H2 8667   7.168   5.860   1.486
 2908TIP3   OH2 8668   4.534   5.017   3.738
 2908TIP3    H1 8669   4.470   4.946   3.726
 2908TIP3    H2 8670   4.488   5.082   3.791
 2909TIP3   OH2 8671   0.933   1.522   4.524
 2909TIP3    H1 8672   0.959   1.472   4.602
 2909TIP3    H2 8673   0.944   1.613   4.550
 2910TIP3   OH2 8674   3.429   4.401   4.775
 2910TIP3    H1 8675   3.418   4.390   4.681
 2910TIP3    H2 8676   3.438   4.311   4.808
 2911TIP3   OH2 8677   6.848   6.256   0.800
 2911TIP3    H1 8678   6.819   6.207   0.723
 2911TIP3    H2 8679   6.937   6.224   0.817
 2912TIP3   OH2 8680   6.077   3.877   0.653
 2912TIP3    H1 8681   6.058   3.815   0.724
 2912TIP3    H2 8682   6.143   3.936   0.691
 2913TIP3   OH2 8683   4.326   4.840   3.737
 2913TIP3    H1 8684   4.246   4.806   3.698
 2913TIP3    H2 8685   4.345   4.781   3.810
 2914TIP3   OH2 8686   3.392   1.921   1.522
 2914TIP3    H1 8687   3.415   1.952   1.434
 2914TIP3    H2 8688   3.474   1.890   1.559
 2915TIP3   OH2 8689   7.386   2.285   1.990
 2915TIP3    H1 8690   7.326   2.278   2.064
 2915TIP3    H2 8691   7.440   2.206   1.995
 2916TIP3   OH2 8692   0.541   6.616   2.315
 2916TIP3    H1 8693   0.510   6.688   2.370
 2916TIP3    H2 8694   0.477   6.546   2.328
 2917TIP3   OH2 8695   5.742   3.927   2.591
 2917TIP3    H1 8696   5.829   3.961   2.569
 2917TIP3    H2 8697   5.730   3.853   2.530
 2918TIP3   OH2 8698   3.789   7.594   5.393
 2918TIP3    H1 8699   3.809   7.500   5.397
 2918TIP3    H2 8700   3.745   7.612   5.476
 2919TIP3   OH2 8701   3.642   5.626   1.187
 2919TIP3    H1 8702   3.726   5.591   1.156
 2919TIP3    H2 8703   3.665   5.674   1.267
 2920TIP3   OH2 8704   7.016   1.684   4.005
 2920TIP3    H1 8705   6.951   1.744   4.044
 2920TIP3    H2 8706   6.965   1.608   3.979
 2921TIP3   OH2 8707   1.355   3.945   3.447
 2921TIP3    H1 8708   1.344   3.873   3.386
 2921TIP3    H2 8709   1.266   3.975   3.466
 2922TIP3   OH2 8710   4.493   0.716   2.360
 2922TIP3    H1 8711   4.422   0.765   2.400
 2922TIP3    H2 8712   4.565   0.720   2.423
 2923TIP3   OH2 8713   6.294   0.549   6.308
 2923TIP3    H1 8714   6.295   0.644   6.297
 2923TIP3    H2 8715   6.348   0.516   6.236
 2924TIP3   OH2 8716   6.886   2.706   5.079
 2924TIP3    H1 8717   6.893   2.798   5.054
 2924TIP3    H2 8718   6.905   2.705   5.173
 2925TIP3   OH2 8719   3.023   5.604   5.414
 2925TIP3    H1 8720   2.966   5.545   5.363
 2925TIP3    H2 8721   3.067   5.657   5.348
 2926TIP3   OH2 8722   0.822   7.111   1.018
 2926TIP3    H1 8723   0.873   7.061   0.954
 2926TIP3    H2 8724   0.843   7.072   1.102
 2927TIP3   OH2 8725   2.568   6.438   1.375
 2927TIP3    H1 8726   2.532   6.457   1.288
 2927TIP3    H2 8727   2.495   6.453   1.435
 2928TIP3   OH2 8728   5.936   0.088   5.557
 2928TIP3    H1 8729   6.029   0.099   5.578
 2928TIP3    H2 8730   5.932   0.100   5.462
 2929TIP3   OH2 8731   1.210   2.314   1.107
 2929TIP3    H1 8732   1.261   2.292   1.185
 2929TIP3    H2 8733   1.224   2.240   1.047
 2930TIP3   OH2 8734   4.473   0.185   0.847
 2930TIP3    H1 8735   4.424   0.233   0.914
 2930TIP3    H2 8736   4.544   0.245   0.822
 2931TIP3   OH2 8737   7.306   4.445   3.054
 2931TIP3    H1 8738   7.242   4.388   3.013
 2931TIP3    H2 8739   7.278   4.534   3.031
 2932TIP3   OH2 8740   5.676   4.832   2.311
 2932TIP3    H1 8741   5.726   4.826   2.230
 2932TIP3    H2 8742   5.593   4.788   2.291
 2933TIP3   OH2 8743   5.436   2.740   4.102
 2933TIP3    H1 8744   5.507   2.679   4.083
 2933TIP3    H2 8745   5.358   2.686   4.104
 2934TIP3   OH2 8746   7.168   5.279   2.031
 2934TIP3    H1 8747   7.120   5.225   2.093
 2934TIP3    H2 8748   7.222   5.217   1.982
 2935TIP3   OH2 8749   4.500   3.306   0.428
 2935TIP3    H1 8750   4.527   3.251   0.502
 2935TIP3    H2 8751   4.417   3.344   0.455
 2936TIP3   OH2 8752   0.298   0.678   6.073
 2936TIP3    H1 8753   0.317   0.611   6.139
 2936TIP3    H2 8754   0.249   0.632   6.005
 2937TIP3   OH2 8755   1.776   4.370   6.537
 2937TIP3    H1 8756   1.872   4.370   6.534
 2937TIP3    H2 8757   1.754   4.304   6.602
 2938TIP3   OH2 8758   0.745   2.454   4.418
 2938TIP3    H1 8759   0.794   2.526   4.458
 2938TIP3    H2 8760   0.680   2.498   4.363
 2939TIP3   OH2 8761   2.731   6.340   6.728
 2939TIP3    H1 8762   2.738   6.299   6.642
 2939TIP3    H2 8763   2.761   6.273   6.789
 2940TIP3   OH2 8764   4.514   5.845   0.209
 2940TIP3    H1 8765   4.459   5.855   0.132
 2940TIP3    H2 8766   4.602   5.871   0.179
 2941TIP3   OH2 8767   0.696   1.946   1.830
 2941TIP3    H1 8768   0.684   2.041   1.837
 2941TIP3    H2 8769   0.609   1.909   1.843
 2942TIP3   OH2 8770   0.322   6.458   0.640
 2942TIP3    H1 8771   0.239   6.457   0.687
 2942TIP3    H2 8772   0.316   6.384   0.580
 2943TIP3   OH2 8773   0.281   1.512   3.499
 2943TIP3    H1 8774   0.284   1.419   3.521
 2943TIP3    H2 8775   0.373   1.538   3.492
 2944TIP3   OH2 8776   4.359   7.667   5.892
 2944TIP3    H1 8777   4.285   7.612   5.917
 2944TIP3    H2 8778   4.391   7.630   5.810
 2945TIP3   OH2 8779   2.447   1.786   0.453
 2945TIP3    H1 8780   2.428   1.799   0.546
 2945TIP3    H2 8781   2.541   1.771   0.449
 2946TIP3   OH2 8782   3.362   4.598   4.451
 2946TIP3    H1 8783   3.294   4.537   4.480
 2946TIP3    H2 8784   3.423   4.544   4.401
 2947TIP3   OH2 8785   1.046   5.164   3.666
 2947TIP3    H1 8786   1.130   5.208   3.675
 2947TIP3    H2 8787   1.067   5.079   3.627
 2948TIP3   OH2 8788   6.748   1.196   2.698
 2948TIP3    H1 8789   6.743   1.251   2.620
 2948TIP3    H2 8790   6.812   1.128   2.675
 2949TIP3   OH2 8791   5.781   4.343   2.898
 2949TIP3    H1 8792   5.762   4.387   2.815
 2949TIP3    H2 8793   5.844   4.399   2.942
 2950TIP3   OH2 8794   3.639   3.463   3.887
 2950TIP3    H1 8795   3.725   3.472   3.846
 2950TIP3    H2 8796   3.636   3.372   3.915
 2951TIP3   OH2 8797  -0.028   0.844   4.836
 2951TIP3    H1 8798  -0.058   0.755   4.816
 2951TIP3    H2 8799   0.055   0.831   4.881
 2952TIP3   OH2 8800   8.067   1.670   5.219
 2952TIP3    H1 8801   8.064   1.581   5.184
 2952TIP3    H2 8802   8.089   1.658   5.312
 2953TIP3   OH2 8803   5.854   6.857   3.383
 2953TIP3    H1 8804   5.759   6.858   3.396
 2953TIP3    H2 8805   5.879   6.766   3.394
 2954TIP3   OH2 8806   4.184   3.905   6.306
 2954TIP3    H1 8807   4.191   3.981   6.364
 2954TIP3    H2 8808   4.265   3.856   6.319
 2955TIP3   OH2 8809   5.152   2.399   0.707
 2955TIP3    H1 8810   5.102   2.470   0.747
 2955TIP3    H2 8811   5.163   2.334   0.777
 2956TIP3   OH2 8812   6.583   3.760   2.771
 2956TIP3    H1 8813   6.665   3.754   2.819
 2956TIP3    H2 8814   6.517   3.776   2.839
 2957TIP3   OH2 8815   4.445   7.441   6.497
 2957TIP3    H1 8816   4.393   7.521   6.504
 2957TIP3    H2 8817   4.437   7.415   6.405
 2958TIP3   OH2 8818   7.398   2.918   2.673
 2958TIP3    H1 8819   7.426   2.840   2.722
 2958TIP3    H2 8820   7.468   2.934   2.611
 2959TIP3   OH2 8821   3.222   7.669   4.102
 2959TIP3    H1 8822   3.139   7.637   4.138
 2959TIP3    H2 8823   3.209   7.764   4.094
 2960TIP3   OH2 8824   1.820   4.916   2.415
 2960TIP3    H1 8825   1.805   4.979   2.344
 2960TIP3    H2 8826   1.738   4.868   2.423
 2961TIP3   OH2 8827   1.472   4.748   4.727
 2961TIP3    H1 8828   1.527   4.806   4.675
 2961TIP3    H2 8829   1.534   4.690   4.773
 2962TIP3   OH2 8830   6.960   5.229   0.573
 2962TIP3    H1 8831   6.984   5.140   0.595
 2962TIP3    H2 8832   6.877   5.221   0.525
 2963TIP3   OH2 8833   5.017   3.712   1.972
 2963TIP3    H1 8834   5.076   3.720   1.898
 2963TIP3    H2 8835   4.955   3.644   1.947
 2964TIP3   OH2 8836   5.040   5.874   3.361
 2964TIP3    H1 8837   5.071   5.879   3.451
 2964TIP3    H2 8838   5.108   5.917   3.310
 2965TIP3   OH2 8839   0.231   6.002   5.941
 2965TIP3    H1 8840   0.196   6.017   6.029
 2965TIP3    H2 8841   0.192   5.919   5.914
 2966TIP3   OH2 8842   2.705   3.314   3.941
 2966TIP3    H1 8843   2.798   3.335   3.940
 2966TIP3    H2 8844   2.661   3.399   3.933
 2967TIP3   OH2 8845   1.513   7.007   3.865
 2967TIP3    H1 8846   1.566   7.050   3.798
 2967TIP3    H2 8847   1.430   7.055   3.864
 2968TIP3   OH2 8848   6.042   5.595   6.288
 2968TIP3    H1 8849   5.966   5.615   6.342
 2968TIP3    H2 8850   6.019   5.516   6.240
 2969TIP3   OH2 8851   7.350   2.446   1.403
 2969TIP3    H1 8852   7.345   2.514   1.470
 2969TIP3    H2 8853   7.348   2.494   1.320
 2970TIP3   OH2 8854   0.107   7.049   1.410
 2970TIP3    H1 8855   0.201   7.068   1.411
 2970TIP3    H2 8856   0.073   7.093   1.488
 2971TIP3   OH2 8857   2.828   6.407   1.973
 2971TIP3    H1 8858   2.887   6.339   2.005
 2971TIP3    H2 8859   2.768   6.362   1.914
 2972TIP3   OH2 8860   8.106   3.750   4.936
 2972TIP3    H1 8861   8.117   3.672   4.990
 2972TIP3    H2 8862   8.065   3.814   4.995
 2973TIP3   OH2 8863   5.201   5.675   1.971
 2973TIP3    H1 8864   5.195   5.668   1.876
 2973TIP3    H2 8865   5.110   5.675   2.001
 2974TIP3   OH2 8866   7.868   5.685   5.409
 2974TIP3    H1 8867   7.840   5.776   5.398
 2974TIP3    H2 8868   7.821   5.637   5.342
 2975TIP3   OH2 8869   1.251   6.631   4.171
 2975TIP3    H1 8870   1.253   6.695   4.242
 2975TIP3    H2 8871   1.301   6.672   4.101
 2976TIP3   OH2 8872   3.963   6.921   6.295
 2976TIP3    H1 8873   3.920   6.904   6.379
 2976TIP3    H2 8874   3.927   6.855   6.236
 2977TIP3   OH2 8875   2.991   2.084   5.244
 2977TIP3    H1 8876   2.928   2.034   5.192
 2977TIP3    H2 8877   3.021   2.153   5.185
 2978TIP3   OH2 8878   2.361   0.254   3.922
 2978TIP3    H1 8879   2.311   0.200   3.860
 2978TIP3    H2 8880   2.414   0.312   3.867
 2979TIP3   OH2 8881   1.512   2.560   5.742
 2979TIP3    H1 8882   1.422   2.526   5.740
 2979TIP3    H2 8883   1.533   2.566   5.836
 2980TIP3   OH2 8884   7.157   2.256   3.859
 2980TIP3    H1 8885   7.089   2.299   3.807
 2980TIP3    H2 8886   7.228   2.240   3.796
 2981TIP3   OH2 8887   0.070   2.820   5.631
 2981TIP3    H1 8888   0.042   2.818   5.540
 2981TIP3    H2 8889   0.160   2.788   5.630
 2982TIP3   OH2 8890   4.366   6.939   1.886
 2982TIP3    H1 8891   4.306   6.960   1.957
 2982TIP3    H2 8892   4.402   6.853   1.908
 2983TIP3   OH2 8893   6.390   4.430   4.913
 2983TIP3    H1 8894   6.307   4.395   4.880
 2983TIP3    H2 8895   6.365   4.480   4.991
 2984TIP3   OH2 8896   2.900   0.065   5.165
 2984TIP3    H1 8897   2.853   0.147   5.181
 2984TIP3    H2 8898   2.948   0.049   5.246
 2985TIP3   OH2 8899   1.070   0.124   5.083
 2985TIP3    H1 8900   1.120   0.159   5.009
 2985TIP3    H2 8901   1.027   0.201   5.121
 2986TIP3   OH2 8902   0.171   7.399   6.622
 2986TIP3    H1 8903   0.251   7.447   6.601
 2986TIP3    H2 8904   0.127   7.389   6.538
 2987TIP3   OH2 8905   3.068   3.204   4.101
 2987TIP3    H1 8906   2.986   3.167   4.134
 2987TIP3    H2 8907   3.133   3.178   4.166
 2988TIP3   OH2 8908   4.508   1.185   3.931
 2988TIP3    H1 8909   4.527   1.274   3.903
 2988TIP3    H2 8910   4.417   1.187   3.959
 2989TIP3   OH2 8911   7.025   4.753   0.904
 2989TIP3    H1 8912   7.110   4.743   0.948
 2989TIP3    H2 8913   7.027   4.689   0.833
 2990TIP3   OH2 8914   5.736   3.159   1.788
 2990TIP3    H1 8915   5.754   3.142   1.696
 2990TIP3    H2 8916   5.676   3.233   1.788
 2991TIP3   OH2 8917   1.457   1.999   4.227
 2991TIP3    H1 8918   1.513   1.986   4.151
 2991TIP3    H2 8919   1.507   2.057   4.285
 2992TIP3   OH2 8920   1.244   2.288   1.640
 2992TIP3    H1 8921   1.291   2.211   1.673
 2992TIP3    H2 8922   1.282   2.361   1.689
 2993TIP3   OH2 8923   3.493   6.873   1.872
 2993TIP3    H1 8924   3.533   6.826   1.945
 2993TIP3    H2 8925   3.502   6.965   1.894
 2994TIP3   OH2 8926   5.792   4.397   4.545
 2994TIP3    H1 8927   5.751   4.420   4.462
 2994TIP3    H2 8928   5.804   4.481   4.590
 2995TIP3   OH2 8929   2.632   3.788   4.854
 2995TIP3    H1 8930   2.582   3.840   4.917
 2995TIP3    H2 8931   2.713   3.836   4.841
 2996TIP3   OH2 8932   5.398   7.004   5.592
 2996TIP3    H1 8933   5.356   7.066   5.532
 2996TIP3    H2 8934   5.375   6.918   5.558
 2997TIP3   OH2 8935   6.226   2.305   0.054
 2997TIP3    H1 8936   6.203   2.232   0.112
 2997TIP3    H2 8937   6.147   2.358   0.048
 2998TIP3   OH2 8938   0.529   3.579   4.120
 2998TIP3    H1 8939   0.469   3.583   4.194
 2998TIP3    H2 8940   0.472   3.569   4.043
 2999TIP3   OH2 8941   1.512   5.563   5.070
 2999TIP3    H1 8942   1.490   5.655   5.079
 2999TIP3    H2 8943   1.490   5.525   5.156
 3000TIP3   OH2 8944   0.643   2.838   0.794
 3000TIP3    H1 8945   0.693   2.770   0.840
 3000TIP3    H2 8946   0.614   2.795   0.714
 3001TIP3   OH2 8947   1.575   6.628   4.840
 3001TIP3    H1 8948   1.627   6.569   4.894
 3001TIP3    H2 8949   1.516   6.570   4.791
 3002TIP3   OH2 8950   6.456   3.347   6.117
 3002TIP3    H1 8951   6.413   3.279   6.168
 3002TIP3    H2 8952   6.451   3.316   6.026
 3003TIP3   OH2 8953   7.108   7.206   1.032
 3003TIP3    H1 8954   7.082   7.298   1.025
 3003TIP3    H2 8955   7.163   7.203   1.111
 3004TIP3   OH2 8956   6.760   1.332   2.448
 3004TIP3    H1 8957   6.759   1.272   2.374
 3004TIP3    H2 8958   6.786   1.416   2.410
 3005TIP3   OH2 8959   0.094   4.078   5.796
 3005TIP3    H1 8960   0.063   4.129   5.722
 3005TIP3    H2 8961   0.019   4.071   5.854
 3006TIP3   OH2 8962  -0.015   0.948   3.660
 3006TIP3    H1 8963   0.066   0.957   3.710
 3006TIP3    H2 8964  -0.049   0.862   3.684
 3007TIP3   OH2 8965   2.701   2.463   6.335
 3007TIP3    H1 8966   2.788   2.499   6.315
 3007TIP3    H2 8967   2.642   2.509   6.276
 3008TIP3   OH2 8968   1.600   1.323   1.417
 3008TIP3    H1 8969   1.636   1.410   1.434
 3008TIP3    H2 8970   1.520   1.319   1.470
 3009TIP3   OH2 8971   0.444   1.175   0.928
 3009TIP3    H1 8972   0.398   1.249   0.966
 3009TIP3    H2 8973   0.423   1.179   0.834
 3010TIP3   OH2 8974   7.634   1.784   4.254
 3010TIP3    H1 8975   7.671   1.696   4.253
 3010TIP3    H2 8976   7.601   1.795   4.343
 3011TIP3   OH2 8977   1.221   1.893   4.317
 3011TIP3    H1 8978   1.291   1.956   4.296
 3011TIP3    H2 8979   1.169   1.938   4.383
 3012TIP3   OH2 8980   4.373   4.904   3.207
 3012TIP3    H1 8981   4.371   4.819   3.164
 3012TIP3    H2 8982   4.456   4.904   3.256
 3013TIP3   OH2 8983   7.425   1.587   2.325
 3013TIP3    H1 8984   7.401   1.554   2.239
 3013TIP3    H2 8985   7.503   1.639   2.310
 3014TIP3   OH2 8986   0.460   1.396   3.776
 3014TIP3    H1 8987   0.447   1.349   3.694
 3014TIP3    H2 8988   0.372   1.414   3.808
 3015TIP3   OH2 8989   5.645   0.240   3.539
 3015TIP3    H1 8990   5.671   0.148   3.544
 3015TIP3    H2 8991   5.557   0.238   3.500
 3016TIP3   OH2 8992   4.185   2.339   5.119
 3016TIP3    H1 8993   4.215   2.429   5.130
 3016TIP3    H2 8994   4.102   2.335   5.167
 3017TIP3   OH2 8995   2.340   4.600   4.290
 3017TIP3    H1 8996   2.309   4.686   4.260
 3017TIP3    H2 8997   2.280   4.537   4.251
 3018TIP3   OH2 8998   7.207   3.590   0.128
 3018TIP3    H1 8999   7.263   3.513   0.132
 3018TIP3    H2 9000   7.264   3.660   0.096
 3019TIP3   OH2 9001   6.646  -0.003   3.504
 3019TIP3    H1 9002   6.715   0.000   3.571
 3019TIP3    H2 9003   6.590   0.072   3.525
 3020TIP3   OH2 9004   6.381   1.419   4.173
 3020TIP3    H1 9005   6.364   1.341   4.226
 3020TIP3    H2 9006   6.307   1.477   4.192
 3021TIP3   OH2 9007   7.471   3.516   2.129
 3021TIP3    H1 9008   7.544   3.458   2.151
 3021TIP3    H2 9009   7.494   3.551   2.043
 3022TIP3   OH2 9010   4.082   7.445   0.066
 3022TIP3    H1 9011   4.164   7.396   0.070
 3022TIP3    H2 9012   4.089   7.498  -0.013
 3023TIP3   OH2 9013   5.126   3.357   6.634
 3023TIP3    H1 9014   5.171   3.352   6.550
 3023TIP3    H2 9015   5.149   3.276   6.680
 3024TIP3   OH2 9016   7.922   6.948   4.696
 3024TIP3    H1 9017   7.898   6.925   4.786
 3024TIP3    H2 9018   7.985   7.020   4.705
 3025TIP3   OH2 9019   2.816   1.675   5.587
 3025TIP3    H1 9020   2.743   1.630   5.546
 3025TIP3    H2 9021   2.874   1.698   5.513
 3026TIP3   OH2 9022   6.015   5.276   0.926
 3026TIP3    H1 9023   5.976   5.313   0.847
 3026TIP3    H2 9024   5.968   5.194   0.941
 3027TIP3   OH2 9025   8.254   6.164   1.687
 3027TIP3    H1 9026   8.276   6.093   1.625
 3027TIP3    H2 9027   8.211   6.119   1.760
 3028TIP3   OH2 9028   2.517   1.456   0.601
 3028TIP3    H1 9029   2.523   1.475   0.694
 3028TIP3    H2 9030   2.587   1.507   0.561
 3029TIP3   OH2 9031   6.958   5.187   6.553
 3029TIP3    H1 9032   6.886   5.181   6.489
 3029TIP3    H2 9033   7.006   5.265   6.527
 3030TIP3   OH2 9034   5.346   2.250   3.498
 3030TIP3    H1 9035   5.388   2.183   3.445
 3030TIP3    H2 9036   5.332   2.323   3.438
 3031TIP3   OH2 9037   5.650   0.339   1.466
 3031TIP3    H1 9038   5.639   0.318   1.559
 3031TIP3    H2 9039   5.638   0.255   1.421
 3032TIP3   OH2 9040   1.782   4.506   3.869
 3032TIP3    H1 9041   1.828   4.425   3.892
 3032TIP3    H2 9042   1.695   4.496   3.908
 3033TIP3   OH2 9043   5.209   4.452   3.768
 3033TIP3    H1 9044   5.154   4.529   3.782
 3033TIP3    H2 9045   5.189   4.394   3.841
 3034TIP3   OH2 9046   1.025   6.732   3.627
 3034TIP3    H1 9047   0.968   6.771   3.693
 3034TIP3    H2 9048   1.000   6.775   3.545
 3035TIP3   OH2 9049   7.464   2.513   4.801
 3035TIP3    H1 9050   7.548   2.558   4.793
 3035TIP3    H2 9051   7.445   2.483   4.712
 3036TIP3   OH2 9052   4.041   0.347   4.746
 3036TIP3    H1 9053   4.021   0.395   4.826
 3036TIP3    H2 9054   4.111   0.287   4.771
 3037TIP3   OH2 9055   6.717   2.079   0.837
 3037TIP3    H1 9056   6.668   2.015   0.889
 3037TIP3    H2 9057   6.654   2.110   0.772
 3038TIP3   OH2 9058   4.804   7.446   6.405
 3038TIP3    H1 9059   4.847   7.373   6.361
 3038TIP3    H2 9060   4.761   7.495   6.335
 3039TIP3   OH2 9061   0.834   2.333   2.494
 3039TIP3    H1 9062   0.769   2.265   2.476
 3039TIP3    H2 9063   0.816   2.361   2.583
 3040TIP3   OH2 9064   6.151   2.888   2.218
 3040TIP3    H1 9065   6.145   2.929   2.131
 3040TIP3    H2 9066   6.093   2.942   2.273
 3041TIP3   OH2 9067   5.561   4.160   2.443
 3041TIP3    H1 9068   5.642   4.120   2.473
 3041TIP3    H2 9069   5.554   4.134   2.351
 3042TIP3   OH2 9070   2.684   3.955   2.324
 3042TIP3    H1 9071   2.726   3.875   2.294
 3042TIP3    H2 9072   2.680   4.011   2.247
 3043TIP3   OH2 9073   5.993   3.363   2.575
 3043TIP3    H1 9074   6.004   3.346   2.668
 3043TIP3    H2 9075   5.900   3.386   2.565
 3044TIP3   OH2 9076   2.940   1.727   0.382
 3044TIP3    H1 9077   2.996   1.746   0.458
 3044TIP3    H2 9078   2.961   1.796   0.319
 3045TIP3   OH2 9079   0.320   4.993   1.603
 3045TIP3    H1 9080   0.283   4.922   1.550
 3045TIP3    H2 9081   0.247   5.021   1.659
 3046TIP3   OH2 9082   0.305   4.783   1.135
 3046TIP3    H1 9083   0.330   4.693   1.152
 3046TIP3    H2 9084   0.214   4.778   1.107
 3047TIP3   OH2 9085   5.436   2.304   4.157
 3047TIP3    H1 9086   5.520   2.289   4.200
 3047TIP3    H2 9087   5.459   2.326   4.067
 3048TIP3   OH2 9088   2.895   4.231   4.247
 3048TIP3    H1 9089   2.887   4.319   4.284
 3048TIP3    H2 9090   2.847   4.235   4.164
 3049TIP3   OH2 9091   6.721   0.721   4.043
 3049TIP3    H1 9092   6.669   0.677   4.111
 3049TIP3    H2 9093   6.712   0.665   3.966
 3050TIP3   OH2 9094   4.462   0.452   4.508
 3050TIP3    H1 9095   4.555   0.455   4.486
 3050TIP3    H2 9096   4.435   0.363   4.487
 3051TIP3   OH2 9097   2.048   6.940   3.894
 3051TIP3    H1 9098   2.094   6.864   3.857
 3051TIP3    H2 9099   2.015   6.908   3.978
 3052TIP3   OH2 9100   6.854   2.480   4.778
 3052TIP3    H1 9101   6.807   2.441   4.851
 3052TIP3    H2 9102   6.904   2.552   4.816
 3053TIP3   OH2 9103   1.643   1.298   5.898
 3053TIP3    H1 9104   1.642   1.286   5.993
 3053TIP3    H2 9105   1.672   1.213   5.864
 3054TIP3   OH2 9106   3.254   1.594   0.194
 3054TIP3    H1 9107   3.281   1.656   0.261
 3054TIP3    H2 9108   3.228   1.648   0.119
 3055TIP3   OH2 9109   2.614   3.643   6.037
 3055TIP3    H1 9110   2.696   3.685   6.061
 3055TIP3    H2 9111   2.619   3.556   6.078
 3056TIP3   OH2 9112   0.826   4.371   6.117
 3056TIP3    H1 9113   0.800   4.283   6.093
 3056TIP3    H2 9114   0.851   4.364   6.210
 3057TIP3   OH2 9115   3.695   5.472   3.807
 3057TIP3    H1 9116   3.747   5.411   3.860
 3057TIP3    H2 9117   3.613   5.482   3.854
 3058TIP3   OH2 9118   6.081   7.593   5.156
 3058TIP3    H1 9119   6.145   7.565   5.091
 3058TIP3    H2 9120   6.001   7.545   5.134
 3059TIP3   OH2 9121   4.824   2.586   6.496
 3059TIP3    H1 9122   4.756   2.631   6.445
 3059TIP3    H2 9123   4.781   2.506   6.526
 3060TIP3   OH2 9124   3.442   3.601   6.029
 3060TIP3    H1 9125   3.391   3.645   6.097
 3060TIP3    H2 9126   3.393   3.615   5.948
 3061TIP3   OH2 9127   3.723   6.136   1.060
 3061TIP3    H1 9128   3.747   6.044   1.074
 3061TIP3    H2 9129   3.647   6.149   1.116
 3062TIP3   OH2 9130   5.517   5.582   5.779
 3062TIP3    H1 9131   5.431   5.619   5.758
 3062TIP3    H2 9132   5.556   5.646   5.839
 3063TIP3   OH2 9133   1.172   5.468   0.221
 3063TIP3    H1 9134   1.168   5.387   0.171
 3063TIP3    H2 9135   1.173   5.439   0.313
 3064TIP3   OH2 9136   5.009   4.172   1.306
 3064TIP3    H1 9137   5.061   4.152   1.228
 3064TIP3    H2 9138   5.011   4.091   1.357
 3065TIP3   OH2 9139   5.222   3.282   1.364
 3065TIP3    H1 9140   5.179   3.318   1.287
 3065TIP3    H2 9141   5.304   3.331   1.371
 3066TIP3   OH2 9142   6.483   0.020   5.072
 3066TIP3    H1 9143   6.396   0.061   5.075
 3066TIP3    H2 9144   6.529   0.067   5.002
 3067TIP3   OH2 9145   3.513   4.322   1.656
 3067TIP3    H1 9146   3.425   4.359   1.655
 3067TIP3    H2 9147   3.571   4.398   1.650
 3068TIP3   OH2 9148   7.157   6.222   0.956
 3068TIP3    H1 9149   7.226   6.186   0.900
 3068TIP3    H2 9150   7.153   6.315   0.932
 3069TIP3   OH2 9151   5.101   2.746   1.010
 3069TIP3    H1 9152   5.112   2.782   1.098
 3069TIP3    H2 9153   5.175   2.685   1.001
 3070TIP3   OH2 9154   2.379   1.821   5.466
 3070TIP3    H1 9155   2.325   1.833   5.387
 3070TIP3    H2 9156   2.419   1.907   5.480
 3071TIP3   OH2 9157   2.600   2.170   3.582
 3071TIP3    H1 9158   2.692   2.195   3.586
 3071TIP3    H2 9159   2.598   2.081   3.617
 3072TIP3   OH2 9160   4.028   2.032   2.033
 3072TIP3    H1 9161   4.093   2.037   2.103
 3072TIP3    H2 9162   4.022   1.939   2.013
 3073TIP3   OH2 9163   4.660   1.253   1.444
 3073TIP3    H1 9164   4.607   1.321   1.401
 3073TIP3    H2 9165   4.708   1.300   1.512
 3074TIP3   OH2 9166   0.208   1.080   1.323
 3074TIP3    H1 9167   0.251   1.047   1.402
 3074TIP3    H2 9168   0.204   1.004   1.265
 3075TIP3   OH2 9169   0.960   5.169   4.905
 3075TIP3    H1 9170   0.958   5.073   4.909
 3075TIP3    H2 9171   0.920   5.198   4.987
 3076TIP3   OH2 9172   3.215   6.837   1.431
 3076TIP3    H1 9173   3.256   6.800   1.353
 3076TIP3    H2 9174   3.137   6.783   1.445
 3077TIP3   OH2 9175   5.813   2.292   1.244
 3077TIP3    H1 9176   5.906   2.298   1.219
 3077TIP3    H2 9177   5.812   2.230   1.316
 3078TIP3   OH2 9178   6.558   2.694   3.969
 3078TIP3    H1 9179   6.618   2.622   3.985
 3078TIP3    H2 9180   6.557   2.743   4.051
 3079TIP3   OH2 9181   4.258   7.301   1.861
 3079TIP3    H1 9182   4.209   7.239   1.914
 3079TIP3    H2 9183   4.331   7.250   1.827
 3080TIP3   OH2 9184   1.206   2.458   6.558
 3080TIP3    H1 9185   1.151   2.449   6.636
 3080TIP3    H2 9186   1.145   2.488   6.490
 3081TIP3   OH2 9187   2.968   3.904   1.650
 3081TIP3    H1 9188   2.922   3.829   1.688
 3081TIP3    H2 9189   2.952   3.896   1.556
 3082TIP3   OH2 9190   6.707   6.794   4.299
 3082TIP3    H1 9191   6.690   6.878   4.341
 3082TIP3    H2 9192   6.704   6.813   4.205
 3083TIP3   OH2 9193   2.627   6.634   0.028
 3083TIP3    H1 9194   2.667   6.564   0.080
 3083TIP3    H2 9195   2.544   6.652   0.071
 3084TIP3   OH2 9196   7.820   6.958   0.523
 3084TIP3    H1 9197   7.888   6.896   0.548
 3084TIP3    H2 9198   7.764   6.965   0.600
 3085TIP3   OH2 9199   6.471   2.929   5.335
 3085TIP3    H1 9200   6.516   2.988   5.275
 3085TIP3    H2 9201   6.531   2.855   5.345
 3086TIP3   OH2 9202   7.459   3.915   6.417
 3086TIP3    H1 9203   7.528   3.982   6.416
 3086TIP3    H2 9204   7.395   3.948   6.480
 3087TIP3   OH2 9205   3.294   6.977   5.456
 3087TIP3    H1 9206   3.379   6.991   5.497
 3087TIP3    H2 9207   3.276   7.059   5.409
 3088TIP3   OH2 9208   7.851   3.246   2.569
 3088TIP3    H1 9209   7.862   3.287   2.654
 3088TIP3    H2 9210   7.789   3.175   2.585
 3089TIP3   OH2 9211   2.562   3.021   4.423
 3089TIP3    H1 9212   2.588   3.072   4.347
 3089TIP3    H2 9213   2.508   3.081   4.475
 3090TIP3   OH2 9214   7.511   0.256   1.812
 3090TIP3    H1 9215   7.547   0.168   1.822
 3090TIP3    H2 9216   7.540   0.284   1.724
 3091TIP3   OH2 9217   0.273   4.691   6.424
 3091TIP3    H1 9218   0.207   4.621   6.430
 3091TIP3    H2 9219   0.228   4.763   6.380
 3092TIP3   OH2 9220   8.242   1.795   4.937
 3092TIP3    H1 9221   8.182   1.738   4.985
 3092TIP3    H2 9222   8.192   1.876   4.922
 3093TIP3   OH2 9223   6.822   7.804   1.435
 3093TIP3    H1 9224   6.779   7.738   1.380
 3093TIP3    H2 9225   6.857   7.868   1.374
 3094TIP3   OH2 9226   6.081   0.825   3.624
 3094TIP3    H1 9227   6.165   0.814   3.580
 3094TIP3    H2 9228   6.090   0.776   3.706
 3095TIP3   OH2 9229   1.069   6.199   2.868
 3095TIP3    H1 9230   1.069   6.286   2.828
 3095TIP3    H2 9231   0.979   6.185   2.896
 3096TIP3   OH2 9232   0.436   7.335   2.188
 3096TIP3    H1 9233   0.361   7.360   2.136
 3096TIP3    H2 9234   0.492   7.412   2.190
 3097TIP3   OH2 9235   2.171   3.050   5.315
 3097TIP3    H1 9236   2.258   3.069   5.351
 3097TIP3    H2 9237   2.118   3.026   5.391
 3098TIP3   OH2 9238   0.775   6.908   3.198
 3098TIP3    H1 9239   0.804   6.823   3.164
 3098TIP3    H2 9240   0.724   6.946   3.126
 3099TIP3   OH2 9241   4.487   0.507   5.588
 3099TIP3    H1 9242   4.425   0.547   5.527
 3099TIP3    H2 9243   4.573   0.535   5.555
 3100TIP3   OH2 9244   5.403   1.532   5.121
 3100TIP3    H1 9245   5.420   1.487   5.204
 3100TIP3    H2 9246   5.425   1.623   5.138
 3101TIP3   OH2 9247   7.783   6.407   6.645
 3101TIP3    H1 9248   7.797   6.382   6.553
 3101TIP3    H2 9249   7.811   6.331   6.695
 3102TIP3   OH2 9250   0.922   5.636   3.494
 3102TIP3    H1 9251   0.862   5.676   3.432
 3102TIP3    H2 9252   0.870   5.568   3.538
 3103TIP3   OH2 9253   7.218   4.603   2.042
 3103TIP3    H1 9254   7.279   4.534   2.068
 3103TIP3    H2 9255   7.227   4.670   2.110
 3104TIP3   OH2 9256   6.521   4.275   4.205
 3104TIP3    H1 9257   6.547   4.192   4.165
 3104TIP3    H2 9258   6.566   4.277   4.289
 3105TIP3   OH2 9259   1.999   6.420   0.244
 3105TIP3    H1 9260   2.053   6.458   0.314
 3105TIP3    H2 9261   1.996   6.327   0.266
 3106TIP3   OH2 9262   0.319   1.685   0.877
 3106TIP3    H1 9263   0.285   1.663   0.790
 3106TIP3    H2 9264   0.263   1.757   0.907
 3107TIP3   OH2 9265   5.291   6.659   1.254
 3107TIP3    H1 9266   5.207   6.706   1.258
 3107TIP3    H2 9267   5.308   6.647   1.161
 3108TIP3   OH2 9268   5.302   3.702   0.266
 3108TIP3    H1 9269   5.285   3.668   0.178
 3108TIP3    H2 9270   5.220   3.745   0.291
 3109TIP3   OH2 9271   1.222   0.767   3.647
 3109TIP3    H1 9272   1.172   0.814   3.581
 3109TIP3    H2 9273   1.186   0.678   3.646
 3110TIP3   OH2 9274   5.727   6.799   2.892
 3110TIP3    H1 9275   5.645   6.750   2.886
 3110TIP3    H2 9276   5.700   6.887   2.921
 3111TIP3   OH2 9277   1.271   7.358   0.614
 3111TIP3    H1 9278   1.248   7.269   0.588
 3111TIP3    H2 9279   1.245   7.412   0.540
 3112TIP3   OH2 9280   6.848   4.546   1.120
 3112TIP3    H1 9281   6.929   4.579   1.158
 3112TIP3    H2 9282   6.787   4.540   1.194
 3113TIP3   OH2 9283   3.583   3.104   4.311
 3113TIP3    H1 9284   3.666   3.061   4.331
 3113TIP3    H2 9285   3.588   3.188   4.355
 3114TIP3   OH2 9286   2.720   0.743   6.727
 3114TIP3    H1 9287   2.654   0.678   6.750
 3114TIP3    H2 9288   2.677   0.800   6.664
 3115TIP3   OH2 9289   7.563   4.949   0.157
 3115TIP3    H1 9290   7.600   4.929   0.071
 3115TIP3    H2 9291   7.526   4.866   0.187
 3116TIP3   OH2 9292   2.701   7.202   3.886
 3116TIP3    H1 9293   2.619   7.192   3.838
 3116TIP3    H2 9294   2.764   7.230   3.820
 3117TIP3   OH2 9295   1.583   2.155   6.463
 3117TIP3    H1 9296   1.527   2.164   6.386
 3117TIP3    H2 9297   1.670   2.178   6.432
 3118TIP3   OH2 9298   6.728   5.029   5.586
 3118TIP3    H1 9299   6.750   5.011   5.678
 3118TIP3    H2 9300   6.747   4.947   5.541
 3119TIP3   OH2 9301   5.888   7.111   3.609
 3119TIP3    H1 9302   5.869   7.125   3.702
 3119TIP3    H2 9303   5.810   7.066   3.576
 3120TIP3   OH2 9304   7.379   6.194   1.577
 3120TIP3    H1 9305   7.447   6.152   1.524
 3120TIP3    H2 9306   7.302   6.137   1.568
 3121TIP3   OH2 9307   3.844   2.245   3.495
 3121TIP3    H1 9308   3.779   2.291   3.548
 3121TIP3    H2 9309   3.853   2.160   3.538
 3122TIP3   OH2 9310   0.367   3.506   0.187
 3122TIP3    H1 9311   0.273   3.503   0.207
 3122TIP3    H2 9312   0.373   3.562   0.109
 3123TIP3   OH2 9313   3.319   5.861   1.672
 3123TIP3    H1 9314   3.233   5.858   1.630
 3123TIP3    H2 9315   3.374   5.912   1.612
 3124TIP3   OH2 9316   2.277   6.248   0.534
 3124TIP3    H1 9317   2.193   6.280   0.503
 3124TIP3    H2 9318   2.259   6.158   0.562
 3125TIP3   OH2 9319   3.404   4.897   1.170
 3125TIP3    H1 9320   3.458   4.819   1.181
 3125TIP3    H2 9321   3.325   4.879   1.221
 3126TIP3   OH2 9322   5.766   5.616   6.409
 3126TIP3    H1 9323   5.766   5.684   6.342
 3126TIP3    H2 9324   5.728   5.539   6.365
 3127TIP3   OH2 9325   0.152   0.209   5.936
 3127TIP3    H1 9326   0.079   0.167   5.982
 3127TIP3    H2 9327   0.223   0.145   5.940
 3128TIP3   OH2 9328   5.934   7.201   4.829
 3128TIP3    H1 9329   5.865   7.173   4.768
 3128TIP3    H2 9330   5.957   7.121   4.877
 3129TIP3   OH2 9331   7.494   5.958   2.502
 3129TIP3    H1 9332   7.544   5.903   2.563
 3129TIP3    H2 9333   7.420   5.903   2.475
 3130TIP3   OH2 9334   6.276   4.053   2.531
 3130TIP3    H1 9335   6.204   4.040   2.593
 3130TIP3    H2 9336   6.355   4.054   2.585
 3131TIP3   OH2 9337   2.155   7.767   4.274
 3131TIP3    H1 9338   2.234   7.748   4.224
 3131TIP3    H2 9339   2.138   7.687   4.324
 3132TIP3   OH2 9340   6.356   2.894   5.945
 3132TIP3    H1 9341   6.271   2.924   5.979
 3132TIP3    H2 9342   6.384   2.964   5.886
 3133TIP3   OH2 9343   0.669   5.894   0.608
 3133TIP3    H1 9344   0.688   5.986   0.594
 3133TIP3    H2 9345   0.574   5.888   0.604
 3134TIP3   OH2 9346   5.413   5.528   1.871
 3134TIP3    H1 9347   5.356   5.596   1.906
 3134TIP3    H2 9348   5.397   5.452   1.928
 3135TIP3   OH2 9349   1.214   7.612   5.765
 3135TIP3    H1 9350   1.178   7.701   5.758
 3135TIP3    H2 9351   1.144   7.556   5.732
 3136TIP3   OH2 9352   6.125   4.236   1.595
 3136TIP3    H1 9353   6.078   4.154   1.611
 3136TIP3    H2 9354   6.212   4.208   1.566
 3137TIP3   OH2 9355   2.194   3.797   3.219
 3137TIP3    H1 9356   2.156   3.883   3.199
 3137TIP3    H2 9357   2.213   3.801   3.313
 3138TIP3   OH2 9358   1.461  -0.054   3.188
 3138TIP3    H1 9359   1.550  -0.074   3.158
 3138TIP3    H2 9360   1.444   0.035   3.157
 3139TIP3   OH2 9361   1.820   4.024   2.555
 3139TIP3    H1 9362   1.816   4.115   2.585
 3139TIP3    H2 9363   1.729   3.995   2.555
 3140TIP3   OH2 9364   1.859   1.596   0.953
 3140TIP3    H1 9365   1.888   1.570   1.040
 3140TIP3    H2 9366   1.913   1.672   0.932
 3141TIP3   OH2 9367   1.066   6.107   4.379
 3141TIP3    H1 9368   1.005   6.136   4.447
 3141TIP3    H2 9369   1.110   6.186   4.350
 3142TIP3   OH2 9370   1.035   6.703   6.427
 3142TIP3    H1 9371   1.121   6.668   6.404
 3142TIP3    H2 9372   1.039   6.718   6.521
 3143TIP3   OH2 9373   1.554   6.853   0.869
 3143TIP3    H1 9374   1.566   6.761   0.845
 3143TIP3    H2 9375   1.624   6.900   0.823
 3144TIP3   OH2 9376   5.169   3.124   0.772
 3144TIP3    H1 9377   5.206   3.109   0.859
 3144TIP3    H2 9378   5.226   3.075   0.713
 3145TIP3   OH2 9379   5.666   1.078   0.326
 3145TIP3    H1 9380   5.754   1.056   0.357
 3145TIP3    H2 9381   5.615   1.094   0.405
 3146TIP3   OH2 9382   7.939   7.813   1.018
 3146TIP3    H1 9383   7.846   7.810   1.041
 3146TIP3    H2 9384   7.941   7.787   0.926
 3147TIP3   OH2 9385   3.388   4.090   4.298
 3147TIP3    H1 9386   3.371   4.070   4.206
 3147TIP3    H2 9387   3.317   4.150   4.323
 3148TIP3   OH2 9388   5.779   5.332   0.768
 3148TIP3    H1 9389   5.709   5.267   0.769
 3148TIP3    H2 9390   5.750   5.400   0.830
 3149TIP3   OH2 9391   0.796   6.943   1.935
 3149TIP3    H1 9392   0.782   7.038   1.929
 3149TIP3    H2 9393   0.772   6.921   2.024
 3150TIP3   OH2 9394   6.268   7.191   2.932
 3150TIP3    H1 9395   6.335   7.205   2.999
 3150TIP3    H2 9396   6.318   7.170   2.853
 3151TIP3   OH2 9397   5.926   7.431   1.541
 3151TIP3    H1 9398   5.976   7.390   1.612
 3151TIP3    H2 9399   5.923   7.365   1.472
 3152TIP3   OH2 9400   3.266   4.472   5.004
 3152TIP3    H1 9401   3.285   4.562   5.033
 3152TIP3    H2 9402   3.320   4.460   4.926
 3153TIP3   OH2 9403   6.896   5.940   5.779
 3153TIP3    H1 9404   6.899   5.943   5.874
 3153TIP3    H2 9405   6.881   6.031   5.752
 3154TIP3   OH2 9406   5.469   2.737   3.052
 3154TIP3    H1 9407   5.441   2.794   3.124
 3154TIP3    H2 9408   5.389   2.721   3.002
 3155TIP3   OH2 9409   5.594   0.766   0.957
 3155TIP3    H1 9410   5.610   0.694   0.896
 3155TIP3    H2 9411   5.500   0.781   0.953
 3156TIP3   OH2 9412   0.521   1.915   5.357
 3156TIP3    H1 9413   0.443   1.964   5.382
 3156TIP3    H2 9414   0.561   1.968   5.288
 3157TIP3   OH2 9415   0.025   3.095   3.921
 3157TIP3    H1 9416   0.108   3.141   3.930
 3157TIP3    H2 9417  -0.027   3.122   3.997
 3158TIP3   OH2 9418   7.083   7.367   6.214
 3158TIP3    H1 9419   7.044   7.441   6.168
 3158TIP3    H2 9420   7.027   7.355   6.291
 3159TIP3   OH2 9421   2.636   5.550   3.725
 3159TIP3    H1 9422   2.688   5.572   3.802
 3159TIP3    H2 9423   2.662   5.461   3.703
 3160TIP3   OH2 9424   3.539   5.665   4.485
 3160TIP3    H1 9425   3.493   5.581   4.478
 3160TIP3    H2 9426   3.572   5.665   4.575
 3161TIP3   OH2 9427   3.922   5.975   5.150
 3161TIP3    H1 9428   3.913   6.043   5.216
 3161TIP3    H2 9429   4.016   5.957   5.148
 3162TIP3   OH2 9430   1.409   0.900   1.635
 3162TIP3    H1 9431   1.448   0.817   1.607
 3162TIP3    H2 9432   1.380   0.941   1.554
 3163TIP3   OH2 9433   7.452   5.043   2.697
 3163TIP3    H1 9434   7.471   5.106   2.628
 3163TIP3    H2 9435   7.533   4.994   2.709
 3164TIP3   OH2 9436   3.338   4.752   1.476
 3164TIP3    H1 9437   3.271   4.685   1.462
 3164TIP3    H2 9438   3.289   4.833   1.488
 3165TIP3   OH2 9439   4.460   1.494   3.997
 3165TIP3    H1 9440   4.381   1.447   3.970
 3165TIP3    H2 9441   4.477   1.464   4.086
 3166TIP3   OH2 9442   1.050   6.971   6.295
 3166TIP3    H1 9443   1.094   6.943   6.215
 3166TIP3    H2 9444   1.049   6.894   6.351
 3167TIP3   OH2 9445   5.866   2.635   3.625
 3167TIP3    H1 9446   5.791   2.609   3.572
 3167TIP3    H2 9447   5.831   2.701   3.685
 3168TIP3   OH2 9448   3.751   6.497   4.615
 3168TIP3    H1 9449   3.707   6.442   4.551
 3168TIP3    H2 9450   3.831   6.525   4.572
 3169TIP3   OH2 9451   1.666   7.776   4.169
 3169TIP3    H1 9452   1.671   7.854   4.225
 3169TIP3    H2 9453   1.743   7.782   4.113
 3170TIP3   OH2 9454   4.991   5.885   6.721
 3170TIP3    H1 9455   4.938   5.845   6.790
 3170TIP3    H2 9456   4.998   5.817   6.654
 3171TIP3   OH2 9457   5.377   2.903   3.262
 3171TIP3    H1 9458   5.327   2.984   3.247
 3171TIP3    H2 9459   5.467   2.933   3.274
 3172TIP3   OH2 9460   0.519   3.644   4.680
 3172TIP3    H1 9461   0.524   3.740   4.676
 3172TIP3    H2 9462   0.425   3.625   4.681
 3173TIP3   OH2 9463   2.719   1.582   0.467
 3173TIP3    H1 9464   2.724   1.519   0.394
 3173TIP3    H2 9465   2.797   1.637   0.456
 3174TIP3   OH2 9466   6.701   3.881   0.047
 3174TIP3    H1 9467   6.747   3.865   0.129
 3174TIP3    H2 9468   6.610   3.858   0.065
 3175TIP3   OH2 9469   0.319   1.400   6.183
 3175TIP3    H1 9470   0.228   1.376   6.198
 3175TIP3    H2 9471   0.315   1.482   6.134
 3176TIP3   OH2 9472   2.057   3.002   1.054
 3176TIP3    H1 9473   2.089   2.933   1.112
 3176TIP3    H2 9474   2.126   3.068   1.054
 3177TIP3   OH2 9475   7.711   3.794   5.783
 3177TIP3    H1 9476   7.729   3.772   5.691
 3177TIP3    H2 9477   7.657   3.873   5.778
 3178TIP3   OH2 9478   2.525   6.685   2.485
 3178TIP3    H1 9479   2.472   6.671   2.564
 3178TIP3    H2 9480   2.592   6.748   2.512
 3179TIP3   OH2 9481   1.572   7.282   1.996
 3179TIP3    H1 9482   1.505   7.311   2.057
 3179TIP3    H2 9483   1.626   7.360   1.981
 3180TIP3   OH2 9484   0.147   7.698   4.134
 3180TIP3    H1 9485   0.239   7.712   4.155
 3180TIP3    H2 9486   0.121   7.622   4.186
 3181TIP3   OH2 9487   3.379   6.080   2.530
 3181TIP3    H1 9488   3.410   6.101   2.442
 3181TIP3    H2 9489   3.436   6.007   2.558
 3182TIP3   OH2 9490   5.366   3.876   0.828
 3182TIP3    H1 9491   5.456   3.900   0.805
 3182TIP3    H2 9492   5.326   3.852   0.744
 3183TIP3   OH2 9493   2.164   3.707   5.893
 3183TIP3    H1 9494   2.146   3.752   5.975
 3183TIP3    H2 9495   2.129   3.619   5.905
 3184TIP3   OH2 9496   2.237   4.652   1.555
 3184TIP3    H1 9497   2.141   4.658   1.557
 3184TIP3    H2 9498   2.266   4.740   1.533
 3185TIP3   OH2 9499   8.050   1.036   4.847
 3185TIP3    H1 9500   8.125   0.980   4.824
 3185TIP3    H2 9501   7.989   1.026   4.774
 3186TIP3   OH2 9502   0.558   5.464   0.988
 3186TIP3    H1 9503   0.581   5.476   0.896
 3186TIP3    H2 9504   0.466   5.439   0.987
 3187TIP3   OH2 9505   2.078   4.350   0.752
 3187TIP3    H1 9506   2.111   4.425   0.702
 3187TIP3    H2 9507   2.050   4.288   0.685
 3188TIP3   OH2 9508   3.149   1.154   0.402
 3188TIP3    H1 9509   3.198   1.231   0.373
 3188TIP3    H2 9510   3.064   1.163   0.358
 3189TIP3   OH2 9511   0.743   3.415   2.969
 3189TIP3    H1 9512   0.716   3.329   3.000
 3189TIP3    H2 9513   0.803   3.397   2.897
 3190TIP3   OH2 9514   7.571   4.834   2.271
 3190TIP3    H1 9515   7.587   4.836   2.176
 3190TIP3    H2 9516   7.547   4.924   2.292
 3191TIP3   OH2 9517   6.645   2.806   1.705
 3191TIP3    H1 9518   6.593   2.874   1.663
 3191TIP3    H2 9519   6.582   2.757   1.759
 3192TIP3   OH2 9520   0.488   3.153   2.849
 3192TIP3    H1 9521   0.570   3.166   2.897
 3192TIP3    H2 9522   0.513   3.164   2.757
 3193TIP3   OH2 9523   5.054   5.265   6.270
 3193TIP3    H1 9524   4.975   5.275   6.323
 3193TIP3    H2 9525   5.044   5.329   6.200
 3194TIP3   OH2 9526   4.159   4.013   5.916
 3194TIP3    H1 9527   4.121   3.951   5.977
 3194TIP3    H2 9528   4.134   3.981   5.830
 3195TIP3   OH2 9529   2.727   6.643   0.948
 3195TIP3    H1 9530   2.784   6.609   0.880
 3195TIP3    H2 9531   2.669   6.705   0.903
 3196TIP3   OH2 9532   7.177   7.225   4.776
 3196TIP3    H1 9533   7.214   7.139   4.754
 3196TIP3    H2 9534   7.086   7.220   4.747
 3197TIP3   OH2 9535   7.396   6.578   4.316
 3197TIP3    H1 9536   7.412   6.488   4.288
 3197TIP3    H2 9537   7.482   6.620   4.312
 3198TIP3   OH2 9538   7.864   3.766   1.273
 3198TIP3    H1 9539   7.837   3.768   1.365
 3198TIP3    H2 9540   7.786   3.792   1.224
 3199TIP3   OH2 9541   0.146   0.436   5.622
 3199TIP3    H1 9542   0.162   0.480   5.706
 3199TIP3    H2 9543   0.224   0.456   5.569
 3200TIP3   OH2 9544   0.950   5.090   2.216
 3200TIP3    H1 9545   0.991   5.127   2.138
 3200TIP3    H2 9546   0.971   4.997   2.212
 3201TIP3   OH2 9547   1.939   6.161   3.142
 3201TIP3    H1 9548   1.937   6.237   3.084
 3201TIP3    H2 9549   1.848   6.147   3.168
 3202TIP3   OH2 9550   6.881   7.209   1.547
 3202TIP3    H1 9551   6.896   7.155   1.625
 3202TIP3    H2 9552   6.959   7.265   1.541
 3203TIP3   OH2 9553   7.170   1.300   2.189
 3203TIP3    H1 9554   7.188   1.336   2.102
 3203TIP3    H2 9555   7.255   1.295   2.231
 3204TIP3   OH2 9556   1.526   5.267   3.060
 3204TIP3    H1 9557   1.516   5.189   3.004
 3204TIP3    H2 9558   1.517   5.234   3.149
 3205TIP3   OH2 9559   6.564   4.574   1.921
 3205TIP3    H1 9560   6.567   4.664   1.889
 3205TIP3    H2 9561   6.473   4.546   1.907
 3206TIP3   OH2 9562   0.992   6.359   0.687
 3206TIP3    H1 9563   0.997   6.263   0.683
 3206TIP3    H2 9564   0.950   6.377   0.771
 3207TIP3   OH2 9565   4.195   5.929   1.727
 3207TIP3    H1 9566   4.218   6.007   1.676
 3207TIP3    H2 9567   4.271   5.913   1.783
 3208TIP3   OH2 9568   1.572   3.005   3.569
 3208TIP3    H1 9569   1.621   3.014   3.488
 3208TIP3    H2 9570   1.592   3.084   3.619
 3209TIP3   OH2 9571   8.302   4.709   4.162
 3209TIP3    H1 9572   8.257   4.754   4.091
 3209TIP3    H2 9573   8.257   4.738   4.241
 3210TIP3   OH2 9574   2.843   5.583   3.956
 3210TIP3    H1 9575   2.792   5.631   4.021
 3210TIP3    H2 9576   2.934   5.602   3.978
 3211TIP3   OH2 9577   7.109   7.457   4.954
 3211TIP3    H1 9578   7.055   7.396   5.005
 3211TIP3    H2 9579   7.101   7.427   4.864
 3212TIP3   OH2 9580   1.326   7.118   3.362
 3212TIP3    H1 9581   1.396   7.082   3.417
 3212TIP3    H2 9582   1.359   7.203   3.333
 3213TIP3   OH2 9583   5.873   0.143   0.457
 3213TIP3    H1 9584   5.838   0.118   0.542
 3213TIP3    H2 9585   5.800   0.183   0.411
 3214TIP3   OH2 9586   5.293   5.013   2.806
 3214TIP3    H1 9587   5.304   5.100   2.767
 3214TIP3    H2 9588   5.371   4.964   2.779
 3215TIP3   OH2 9589   4.754   7.426   1.840
 3215TIP3    H1 9590   4.682   7.377   1.800
 3215TIP3    H2 9591   4.712   7.496   1.889
 3216TIP3   OH2 9592   4.361   6.844   5.881
 3216TIP3    H1 9593   4.289   6.822   5.821
 3216TIP3    H2 9594   4.333   6.926   5.922
 3217TIP3   OH2 9595   4.642   4.649   0.933
 3217TIP3    H1 9596   4.579   4.691   0.875
 3217TIP3    H2 9597   4.615   4.676   1.021
 3218TIP3   OH2 9598   0.601   1.205   6.802
 3218TIP3    H1 9599   0.644   1.159   6.730
 3218TIP3    H2 9600   0.516   1.163   6.810
 3219TIP3   OH2 9601   3.485   6.557   1.012
 3219TIP3    H1 9602   3.572   6.549   0.974
 3219TIP3    H2 9603   3.457   6.466   1.028
 3220TIP3   OH2 9604   4.533   6.699   5.271
 3220TIP3    H1 9605   4.472   6.724   5.340
 3220TIP3    H2 9606   4.480   6.697   5.191
 3221TIP3   OH2 9607   1.235   0.743   4.893
 3221TIP3    H1 9608   1.270   0.831   4.882
 3221TIP3    H2 9609   1.140   0.755   4.899
 3222TIP3   OH2 9610   1.421   6.066   5.251
 3222TIP3    H1 9611   1.350   6.115   5.208
 3222TIP3    H2 9612   1.458   6.128   5.314
 3223TIP3   OH2 9613   1.192   0.830   5.926
 3223TIP3    H1 9614   1.278   0.847   5.887
 3223TIP3    H2 9615   1.138   0.798   5.854
 3224TIP3   OH2 9616   1.880   2.759   5.511
 3224TIP3    H1 9617   1.925   2.832   5.555
 3224TIP3    H2 9618   1.831   2.801   5.440
 3225TIP3   OH2 9619   5.476   4.770   4.132
 3225TIP3    H1 9620   5.566   4.756   4.104
 3225TIP3    H2 9621   5.483   4.788   4.226
 3226TIP3   OH2 9622   2.311   5.491   5.503
 3226TIP3    H1 9623   2.232   5.437   5.506
 3226TIP3    H2 9624   2.368   5.454   5.571
 3227TIP3   OH2 9625   1.051   3.737   4.565
 3227TIP3    H1 9626   1.083   3.823   4.538
 3227TIP3    H2 9627   1.000   3.705   4.490
 3228TIP3   OH2 9628   0.235   3.371   1.073
 3228TIP3    H1 9629   0.189   3.393   1.155
 3228TIP3    H2 9630   0.277   3.453   1.047
 3229TIP3   OH2 9631   1.009   4.224   1.086
 3229TIP3    H1 9632   1.026   4.303   1.137
 3229TIP3    H2 9633   0.917   4.231   1.061
 3230TIP3   OH2 9634   5.672   7.667   4.193
 3230TIP3    H1 9635   5.631   7.750   4.219
 3230TIP3    H2 9636   5.638   7.651   4.105
 3231TIP3   OH2 9637   0.625   2.600   1.562
 3231TIP3    H1 9638   0.714   2.609   1.530
 3231TIP3    H2 9639   0.575   2.668   1.517
 3232TIP3   OH2 9640   1.466   6.771   1.380
 3232TIP3    H1 9641   1.515   6.820   1.447
 3232TIP3    H2 9642   1.374   6.790   1.399
 3233TIP3   OH2 9643   2.088   7.320   3.567
 3233TIP3    H1 9644   2.054   7.291   3.651
 3233TIP3    H2 9645   2.183   7.319   3.577
 3234TIP3   OH2 9646   6.250   3.337   2.245
 3234TIP3    H1 9647   6.249   3.428   2.215
 3234TIP3    H2 9648   6.179   3.295   2.197
 3235TIP3   OH2 9649   1.594   2.138   4.430
 3235TIP3    H1 9650   1.516   2.156   4.483
 3235TIP3    H2 9651   1.665   2.181   4.477
 3236TIP3   OH2 9652   8.224   2.094   1.374
 3236TIP3    H1 9653   8.173   2.086   1.293
 3236TIP3    H2 9654   8.286   2.165   1.356
 3237TIP3   OH2 9655   0.857   6.365   0.446
 3237TIP3    H1 9656   0.884   6.361   0.355
 3237TIP3    H2 9657   0.937   6.385   0.495
 3238TIP3   OH2 9658   5.696   7.717   3.374
 3238TIP3    H1 9659   5.775   7.689   3.327
 3238TIP3    H2 9660   5.685   7.809   3.349
 3239TIP3   OH2 9661   1.081   5.865   0.541
 3239TIP3    H1 9662   1.099   5.846   0.448
 3239TIP3    H2 9663   1.141   5.807   0.589
 3240TIP3   OH2 9664   4.372   4.603   4.868
 3240TIP3    H1 9665   4.312   4.579   4.939
 3240TIP3    H2 9666   4.429   4.670   4.907
 3241TIP3   OH2 9667   0.162   1.862   1.044
 3241TIP3    H1 9668   0.219   1.908   1.105
 3241TIP3    H2 9669   0.091   1.827   1.097
 3242TIP3   OH2 9670   2.161   1.768   1.013
 3242TIP3    H1 9671   2.203   1.711   1.077
 3242TIP3    H2 9672   2.155   1.853   1.056
 3243TIP3   OH2 9673   2.309   7.351   4.380
 3243TIP3    H1 9674   2.380   7.334   4.318
 3243TIP3    H2 9675   2.280   7.264   4.408
 3244TIP3   OH2 9676   1.740   2.147   1.949
 3244TIP3    H1 9677   1.745   2.122   2.041
 3244TIP3    H2 9678   1.719   2.066   1.903
 3245TIP3   OH2 9679   1.749   6.717   3.797
 3245TIP3    H1 9680   1.767   6.792   3.853
 3245TIP3    H2 9681   1.787   6.740   3.713
 3246TIP3   OH2 9682   7.946   2.584   3.480
 3246TIP3    H1 9683   7.941   2.546   3.393
 3246TIP3    H2 9684   7.901   2.522   3.537
 3247TIP3   OH2 9685   4.222   1.804   1.895
 3247TIP3    H1 9686   4.199   1.749   1.971
 3247TIP3    H2 9687   4.241   1.890   1.932
 3248TIP3   OH2 9688   1.687   6.981   4.074
 3248TIP3    H1 9689   1.633   6.961   4.151
 3248TIP3    H2 9690   1.626   6.984   4.001
 3249TIP3   OH2 9691   0.378   1.690   3.158
 3249TIP3    H1 9692   0.319   1.748   3.111
 3249TIP3    H2 9693   0.346   1.691   3.248
 3250TIP3   OH2 9694   3.820   7.210   4.551
 3250TIP3    H1 9695   3.796   7.296   4.515
 3250TIP3    H2 9696   3.773   7.205   4.634
 3251TIP3   OH2 9697   7.111   5.551   1.948
 3251TIP3    H1 9698   7.107   5.550   1.852
 3251TIP3    H2 9699   7.150   5.466   1.971
 3252TIP3   OH2 9700   3.043   2.796   0.513
 3252TIP3    H1 9701   3.103   2.861   0.550
 3252TIP3    H2 9702   3.083   2.712   0.535
 3253TIP3   OH2 9703   3.715   3.473   4.972
 3253TIP3    H1 9704   3.712   3.548   4.912
 3253TIP3    H2 9705   3.623   3.454   4.992
 3254TIP3   OH2 9706   4.955   3.684   2.793
 3254TIP3    H1 9707   4.889   3.689   2.725
 3254TIP3    H2 9708   4.930   3.609   2.846
 3255TIP3   OH2 9709   3.713   6.572   4.197
 3255TIP3    H1 9710   3.689   6.498   4.253
 3255TIP3    H2 9711   3.669   6.647   4.235
 3256TIP3   OH2 9712   7.254   0.659   1.806
 3256TIP3    H1 9713   7.275   0.643   1.714
 3256TIP3    H2 9714   7.166   0.624   1.817
 3257TIP3   OH2 9715   1.765   6.808   4.577
 3257TIP3    H1 9716   1.845   6.856   4.596
 3257TIP3    H2 9717   1.785   6.718   4.602
 3258TIP3   OH2 9718   4.023   3.494   6.314
 3258TIP3    H1 9719   4.084   3.449   6.372
 3258TIP3    H2 9720   4.076   3.514   6.236
 3259TIP3   OH2 9721   8.092   0.535   3.506
 3259TIP3    H1 9722   8.145   0.580   3.573
 3259TIP3    H2 9723   8.150   0.468   3.471
 3260TIP3   OH2 9724   2.447   0.420   1.931
 3260TIP3    H1 9725   2.402   0.364   1.868
 3260TIP3    H2 9726   2.520   0.368   1.962
 3261TIP3   OH2 9727   5.835   6.063   0.306
 3261TIP3    H1 9728   5.897   6.008   0.353
 3261TIP3    H2 9729   5.889   6.123   0.255
 3262TIP3   OH2 9730   1.585   2.911   5.796
 3262TIP3    H1 9731   1.615   2.915   5.705
 3262TIP3    H2 9732   1.658   2.870   5.843
 3263TIP3   OH2 9733   7.642   5.924   3.849
 3263TIP3    H1 9734   7.698   6.003   3.848
 3263TIP3    H2 9735   7.657   5.883   3.764
 3264TIP3   OH2 9736   6.599   5.562   6.692
 3264TIP3    H1 9737   6.524   5.620   6.703
 3264TIP3    H2 9738   6.658   5.584   6.764
 3265TIP3   OH2 9739   6.472   2.414   3.476
 3265TIP3    H1 9740   6.552   2.405   3.422
 3265TIP3    H2 9741   6.501   2.394   3.565
 3266TIP3   OH2 9742   8.079   3.848   3.476
 3266TIP3    H1 9743   8.130   3.927   3.459
 3266TIP3    H2 9744   8.044   3.823   3.391
 3267TIP3   OH2 9745   3.886   2.822   0.351
 3267TIP3    H1 9746   3.930   2.854   0.430
 3267TIP3    H2 9747   3.837   2.898   0.318
 3268TIP3   OH2 9748   6.438   3.755   5.379
 3268TIP3    H1 9749   6.417   3.750   5.286
 3268TIP3    H2 9750   6.529   3.726   5.385
 3269TIP3   OH2 9751   4.665   4.858   0.347
 3269TIP3    H1 9752   4.752   4.824   0.327
 3269TIP3    H2 9753   4.605   4.792   0.314
 3270TIP3   OH2 9754   4.216   4.923   4.053
 3270TIP3    H1 9755   4.173   4.905   3.970
 3270TIP3    H2 9756   4.216   4.839   4.099
 3271TIP3   OH2 9757   0.775   3.871   3.779
 3271TIP3    H1 9758   0.843   3.817   3.819
 3271TIP3    H2 9759   0.728   3.811   3.721
 3272TIP3   OH2 9760   3.327   3.050   5.331
 3272TIP3    H1 9761   3.279   3.108   5.273
 3272TIP3    H2 9762   3.391   3.107   5.375
 3273TIP3   OH2 9763   3.526   0.439   3.362
 3273TIP3    H1 9764   3.616   0.472   3.363
 3273TIP3    H2 9765   3.493   0.464   3.276
 3274TIP3   OH2 9766   6.662   1.532   6.557
 3274TIP3    H1 9767   6.577   1.490   6.544
 3274TIP3    H2 9768   6.705   1.479   6.625
 3275TIP3   OH2 9769   0.264   0.861   6.597
 3275TIP3    H1 9770   0.329   0.889   6.533
 3275TIP3    H2 9771   0.182   0.900   6.567
 3276TIP3   OH2 9772   0.251   1.563   0.243
 3276TIP3    H1 9773   0.219   1.652   0.253
 3276TIP3    H2 9774   0.297   1.563   0.159
 3277TIP3   OH2 9775   7.186   1.453   3.302
 3277TIP3    H1 9776   7.254   1.387   3.283
 3277TIP3    H2 9777   7.130   1.410   3.367
 3278TIP3   OH2 9778   6.169   0.335   4.537
 3278TIP3    H1 9779   6.222   0.289   4.602
 3278TIP3    H2 9780   6.174   0.280   4.458
 3279TIP3   OH2 9781   4.174   3.907   1.748
 3279TIP3    H1 9782   4.102   3.907   1.684
 3279TIP3    H2 9783   4.155   3.981   1.805
 3280TIP3   OH2 9784   2.254   6.747   4.420
 3280TIP3    H1 9785   2.335   6.702   4.399
 3280TIP3    H2 9786   2.188   6.702   4.367
 3281TIP3   OH2 9787   4.678   2.775   2.812
 3281TIP3    H1 9788   4.770   2.798   2.819
 3281TIP3    H2 9789   4.665   2.707   2.878
 3282TIP3   OH2 9790   2.240   7.523   0.847
 3282TIP3    H1 9791   2.241   7.501   0.940
 3282TIP3    H2 9792   2.172   7.467   0.810
 3283TIP3   OH2 9793   2.006   2.743   4.436
 3283TIP3    H1 9794   2.062   2.702   4.502
 3283TIP3    H2 9795   1.998   2.677   4.367
 3284TIP3   OH2 9796   0.509   1.040   2.400
 3284TIP3    H1 9797   0.525   1.081   2.315
 3284TIP3    H2 9798   0.592   1.049   2.447
 3285TIP3   OH2 9799   2.478   7.508   1.586
 3285TIP3    H1 9800   2.549   7.572   1.578
 3285TIP3    H2 9801   2.398   7.560   1.582
 3286TIP3   OH2 9802   4.148   6.172   5.763
 3286TIP3    H1 9803   4.215   6.222   5.717
 3286TIP3    H2 9804   4.179   6.168   5.854
 3287TIP3   OH2 9805   1.622   3.568   3.038
 3287TIP3    H1 9806   1.639   3.483   3.078
 3287TIP3    H2 9807   1.580   3.547   2.954
 3288TIP3   OH2 9808   6.617   7.858   2.283
 3288TIP3    H1 9809   6.648   7.913   2.211
 3288TIP3    H2 9810   6.522   7.853   2.271
 3289TIP3   OH2 9811   4.889   3.119   6.267
 3289TIP3    H1 9812   4.810   3.071   6.292
 3289TIP3    H2 9813   4.885   3.200   6.318
 3290TIP3   OH2 9814   0.478   7.340   3.192
 3290TIP3    H1 9815   0.449   7.251   3.173
 3290TIP3    H2 9816   0.508   7.375   3.108
 3291TIP3   OH2 9817   1.088   3.809   5.360
 3291TIP3    H1 9818   1.149   3.871   5.321
 3291TIP3    H2 9819   1.111   3.808   5.453
 3292TIP3   OH2 9820   5.912   3.974   0.439
 3292TIP3    H1 9821   5.918   4.070   0.442
 3292TIP3    H2 9822   5.948   3.946   0.523
 3293TIP3   OH2 9823   3.548   3.587   6.392
 3293TIP3    H1 9824   3.487   3.660   6.396
 3293TIP3    H2 9825   3.619   3.618   6.337
 3294TIP3   OH2 9826   3.140   7.170   6.393
 3294TIP3    H1 9827   3.192   7.218   6.329
 3294TIP3    H2 9828   3.199   7.156   6.467
 3295TIP3   OH2 9829   5.631   0.660   3.744
 3295TIP3    H1 9830   5.536   0.658   3.732
 3295TIP3    H2 9831   5.662   0.727   3.683
 3296TIP3   OH2 9832   5.488   6.911   5.901
 3296TIP3    H1 9833   5.444   6.845   5.955
 3296TIP3    H2 9834   5.455   6.895   5.813
 3297TIP3   OH2 9835   4.444   5.639   0.396
 3297TIP3    H1 9836   4.480   5.692   0.325
 3297TIP3    H2 9837   4.509   5.645   0.466
 3298TIP3   OH2 9838   5.347   0.689   5.844
 3298TIP3    H1 9839   5.314   0.651   5.925
 3298TIP3    H2 9840   5.297   0.647   5.775
 3299TIP3   OH2 9841   7.416   3.905   3.625
 3299TIP3    H1 9842   7.411   3.809   3.628
 3299TIP3    H2 9843   7.326   3.933   3.611
 3300TIP3   OH2 9844   0.090   0.808   1.596
 3300TIP3    H1 9845   0.184   0.792   1.596
 3300TIP3    H2 9846   0.052   0.727   1.563
 3301TIP3   OH2 9847   7.595   2.514   0.761
 3301TIP3    H1 9848   7.603   2.605   0.791
 3301TIP3    H2 9849   7.588   2.462   0.841
 3302TIP3   OH2 9850   7.746   3.534   5.353
 3302TIP3    H1 9851   7.680   3.469   5.376
 3302TIP3    H2 9852   7.702   3.593   5.292
 3303TIP3   OH2 9853   3.033   3.829   5.636
 3303TIP3    H1 9854   3.005   3.897   5.698
 3303TIP3    H2 9855   3.090   3.875   5.575
 3304TIP3   OH2 9856   6.488   2.527   4.554
 3304TIP3    H1 9857   6.539   2.449   4.534
 3304TIP3    H2 9858   6.482   2.575   4.471
 3305TIP3   OH2 9859   5.944   4.389   6.713
 3305TIP3    H1 9860   5.939   4.323   6.644
 3305TIP3    H2 9861   5.930   4.472   6.668
 3306TIP3   OH2 9862   5.933   1.292   2.140
 3306TIP3    H1 9863   6.023   1.319   2.120
 3306TIP3    H2 9864   5.878   1.355   2.093
 3307TIP3   OH2 9865   6.621   4.353   0.634
 3307TIP3    H1 9866   6.687   4.346   0.565
 3307TIP3    H2 9867   6.583   4.266   0.640
 3308TIP3   OH2 9868   7.704   1.875   3.592
 3308TIP3    H1 9869   7.652   1.800   3.621
 3308TIP3    H2 9870   7.782   1.837   3.552
 3309TIP3   OH2 9871   2.479   2.451   2.294
 3309TIP3    H1 9872   2.403   2.404   2.259
 3309TIP3    H2 9873   2.479   2.429   2.387
 3310TIP3   OH2 9874   2.124   4.169   1.225
 3310TIP3    H1 9875   2.057   4.101   1.232
 3310TIP3    H2 9876   2.100   4.217   1.145
 3311TIP3   OH2 9877   1.113   3.103   4.461
 3311TIP3    H1 9878   1.190   3.147   4.425
 3311TIP3    H2 9879   1.039   3.140   4.413
 3312TIP3   OH2 9880   2.540   6.988   6.584
 3312TIP3    H1 9881   2.515   6.917   6.642
 3312TIP3    H2 9882   2.574   6.945   6.505
 3313TIP3   OH2 9883   2.105   0.403   0.937
 3313TIP3    H1 9884   2.014   0.398   0.967
 3313TIP3    H2 9885   2.118   0.324   0.886
 3314TIP3   OH2 9886   0.518   2.980   0.322
 3314TIP3    H1 9887   0.580   3.040   0.363
 3314TIP3    H2 9888   0.444   3.035   0.297
 3315TIP3   OH2 9889   3.421   6.432   1.601
 3315TIP3    H1 9890   3.345   6.459   1.653
 3315TIP3    H2 9891   3.491   6.420   1.665
 3316TIP3   OH2 9892   1.531   3.536   3.745
 3316TIP3    H1 9893   1.472   3.498   3.810
 3316TIP3    H2 9894   1.507   3.628   3.741
 3317TIP3   OH2 9895   3.120   4.204   4.980
 3317TIP3    H1 9896   3.140   4.112   4.963
 3317TIP3    H2 9897   3.026   4.206   4.995
 3318TIP3   OH2 9898   4.669   7.076   3.567
 3318TIP3    H1 9899   4.695   6.983   3.569
 3318TIP3    H2 9900   4.668   7.102   3.659
 3319TIP3   OH2 9901   0.020   1.145   5.886
 3319TIP3    H1 9902   0.111   1.143   5.916
 3319TIP3    H2 9903   0.005   1.236   5.860
 3320TIP3   OH2 9904   2.534   4.692   2.459
 3320TIP3    H1 9905   2.515   4.784   2.437
 3320TIP3    H2 9906   2.570   4.655   2.379
 3321TIP3   OH2 9907   0.010   0.659   0.063
 3321TIP3    H1 9908   0.081   0.704   0.016
 3321TIP3    H2 9909   0.054   0.592   0.115
 3322TIP3   OH2 9910   5.110   1.390   2.777
 3322TIP3    H1 9911   5.046   1.450   2.739
 3322TIP3    H2 9912   5.185   1.445   2.799
 3323TIP3   OH2 9913   4.892   3.466   2.913
 3323TIP3    H1 9914   4.979   3.425   2.906
 3323TIP3    H2 9915   4.886   3.494   3.004
 3324TIP3   OH2 9916   1.382   4.920   2.737
 3324TIP3    H1 9917   1.397   4.865   2.659
 3324TIP3    H2 9918   1.301   4.967   2.718
 3325TIP3   OH2 9919   3.273   4.206   1.295
 3325TIP3    H1 9920   3.207   4.182   1.360
 3325TIP3    H2 9921   3.283   4.128   1.240
 3326TIP3   OH2 9922   1.249   2.702   0.541
 3326TIP3    H1 9923   1.246   2.798   0.545
 3326TIP3    H2 9924   1.218   2.674   0.627
 3327TIP3   OH2 9925   0.109   5.975   5.550
 3327TIP3    H1 9926   0.174   6.030   5.506
 3327TIP3    H2 9927   0.154   5.892   5.564
 3328TIP3   OH2 9928   1.623   5.487   1.429
 3328TIP3    H1 9929   1.662   5.567   1.463
 3328TIP3    H2 9930   1.656   5.417   1.485
 3329TIP3   OH2 9931   2.655   1.683   0.173
 3329TIP3    H1 9932   2.570   1.722   0.150
 3329TIP3    H2 9933   2.641   1.647   0.261
 3330TIP3   OH2 9934   1.135   4.039   4.538
 3330TIP3    H1 9935   1.125   4.133   4.523
 3330TIP3    H2 9936   1.197   4.033   4.611
 3331TIP3   OH2 9937   5.664   5.272   2.050
 3331TIP3    H1 9938   5.669   5.259   2.145
 3331TIP3    H2 9939   5.580   5.235   2.025
 3332TIP3   OH2 9940   4.555   7.250   3.404
 3332TIP3    H1 9941   4.587   7.164   3.431
 3332TIP3    H2 9942   4.580   7.257   3.312
 3333TIP3   OH2 9943   0.620   4.301   2.442
 3333TIP3    H1 9944   0.535   4.275   2.476
 3333TIP3    H2 9945   0.645   4.231   2.381
 3334TIP3   OH2 9946   5.412   7.160   5.233
 3334TIP3    H1 9947   5.404   7.254   5.252
 3334TIP3    H2 9948   5.489   7.132   5.281
 3335TIP3   OH2 9949   7.164   2.970   6.458
 3335TIP3    H1 9950   7.258   2.950   6.462
 3335TIP3    H2 9951   7.124   2.906   6.516
 3336TIP3   OH2 9952   7.990   0.746   4.919
 3336TIP3    H1 9953   8.046   0.757   4.996
 3336TIP3    H2 9954   8.048   0.711   4.852
 3337TIP3   OH2 9955   6.652   2.137   5.711
 3337TIP3    H1 9956   6.631   2.067   5.772
 3337TIP3    H2 9957   6.702   2.200   5.763
 3338TIP3   OH2 9958   6.445   6.950   6.539
 3338TIP3    H1 9959   6.394   6.995   6.607
 3338TIP3    H2 9960   6.536   6.967   6.563
 3339TIP3   OH2 9961   1.210   6.557   6.129
 3339TIP3    H1 9962   1.116   6.539   6.139
 3339TIP3    H2 9963   1.250   6.507   6.200
 3340TIP3   OH2 9964   5.607   1.689   2.786
 3340TIP3    H1 9965   5.588   1.780   2.764
 3340TIP3    H2 9966   5.682   1.693   2.845
 3341TIP3   OH2 9967   3.338   3.671   5.076
 3341TIP3    H1 9968   3.365   3.694   4.987
 3341TIP3    H2 9969   3.277   3.599   5.064
 3342TIP3   OH2 9970   7.584   7.277   0.468
 3342TIP3    H1 9971   7.523   7.224   0.520
 3342TIP3    H2 9972   7.606   7.222   0.393
 3343TIP3   OH2 9973   3.149   2.735   1.281
 3343TIP3    H1 9974   3.205   2.797   1.235
 3343TIP3    H2 9975   3.135   2.775   1.367
 3344TIP3   OH2 9976   7.268   6.775   4.160
 3344TIP3    H1 9977   7.318   6.717   4.217
 3344TIP3    H2 9978   7.215   6.828   4.219
 3345TIP3   OH2 9979   5.079  -0.004   4.943
 3345TIP3    H1 9980   5.119   0.048   5.012
 3345TIP3    H2 9981   4.987  -0.012   4.970
 3346TIP3   OH2 9982   1.524   4.800   3.344
 3346TIP3    H1 9983   1.533   4.786   3.250
 3346TIP3    H2 9984   1.452   4.743   3.370
 3347TIP3   OH2 9985   4.133   2.996   0.009
 3347TIP3    H1 9986   4.221   3.020  -0.023
 3347TIP3    H2 9987   4.127   3.037   0.095
 3348TIP3   OH2 9988   1.239   6.733   2.961
 3348TIP3    H1 9989   1.311   6.796   2.953
 3348TIP3    H2 9990   1.164   6.786   2.986
 3349TIP3   OH2 9991   1.110   5.108   6.516
 3349TIP3    H1 9992   1.154   5.026   6.539
 3349TIP3    H2 9993   1.180   5.163   6.479
 3350TIP3   OH2 9994   7.157   0.067   0.365
 3350TIP3    H1 9995   7.166   0.101   0.276
 3350TIP3    H2 9996   7.104   0.132   0.410
 3351TIP3   OH2 9997   1.682   5.478   2.256
 3351TIP3    H1 9998   1.777   5.471   2.246
 3351TIP3    H2 9999   1.648   5.395   2.221
 3352TIP3   OH210000   7.051   1.749   0.593
 3352TIP3    H110001   7.122   1.809   0.615
 3352TIP3    H210002   6.982   1.770   0.656
 3353TIP3   OH210003   5.099   6.743   6.739
 3353TIP3    H110004   5.033   6.810   6.720
 3353TIP3    H210005   5.074   6.668   6.685
 3354TIP3   OH210006   7.569   2.714   6.564
 3354TIP3    H110007   7.648   2.675   6.527
 3354TIP3    H210008   7.550   2.660   6.642
 3355TIP3   OH210009   1.718   6.112   3.276
 3355TIP3    H110010   1.681   6.185   3.327
 3355TIP3    H210011   1.647   6.049   3.270
 3356TIP3   OH210012   3.156   4.176   2.980
 3356TIP3    H110013   3.143   4.160   3.073
 3356TIP3    H210014   3.209   4.256   2.977
 3357TIP3   OH210015   4.684   6.004   2.018
 3357TIP3    H110016   4.695   6.015   2.112
 3357TIP3    H210017   4.685   5.909   2.005
 3358TIP3   OH210018   2.198   7.588   1.386
 3358TIP3    H110019   2.211   7.502   1.426
 3358TIP3    H210020   2.247   7.584   1.304
 3359TIP3   OH210021   8.199   0.762   1.870
 3359TIP3    H110022   8.152   0.792   1.792
 3359TIP3    H210023   8.131   0.723   1.925
 3360TIP3   OH210024   8.247   7.265   0.372
 3360TIP3    H110025   8.212   7.227   0.453
 3360TIP3    H210026   8.170   7.274   0.315
 3361TIP3   OH210027   8.266   0.291   1.980
 3361TIP3    H110028   8.310   0.375   1.990
 3361TIP3    H210029   8.173   0.314   1.972
 3362TIP3   OH210030   7.882   3.627   3.007
 3362TIP3    H110031   7.791   3.638   3.034
 3362TIP3    H210032   7.884   3.541   2.965
 3363TIP3   OH210033   0.312   2.461   2.352
 3363TIP3    H110034   0.290   2.480   2.443
 3363TIP3    H210035   0.229   2.434   2.313
 3364TIP3   OH210036   5.708   7.403   6.041
 3364TIP3    H110037   5.668   7.316   6.042
 3364TIP3    H210038   5.639   7.461   6.010
 3365TIP3   OH210039   4.355   5.771   1.870
 3365TIP3    H110040   4.446   5.780   1.898
 3365TIP3    H210041   4.324   5.692   1.916
 3366TIP3   OH210042   2.372   5.354   0.583
 3366TIP3    H110043   2.335   5.367   0.495
 3366TIP3    H210044   2.302   5.380   0.643
 3367TIP3   OH210045   8.066   5.439   1.678
 3367TIP3    H110046   8.103   5.524   1.700
 3367TIP3    H210047   8.093   5.382   1.750
 3368TIP3   OH210048   4.426   1.554   2.535
 3368TIP3    H110049   4.503   1.519   2.580
 3368TIP3    H210050   4.438   1.529   2.443
 3369TIP3   OH210051   1.732   1.097   3.021
 3369TIP3    H110052   1.804   1.082   3.082
 3369TIP3    H210053   1.713   1.191   3.028
 3370TIP3   OH210054   2.889   5.540   5.991
 3370TIP3    H110055   2.952   5.490   5.939
 3370TIP3    H210056   2.940   5.614   6.024
 3371TIP3   OH210057   2.877   3.438   3.043
 3371TIP3    H110058   2.884   3.420   2.949
 3371TIP3    H210059   2.935   3.374   3.083
 3372TIP3   OH210060   4.783   4.962   5.558
 3372TIP3    H110061   4.692   4.957   5.530
 3372TIP3    H210062   4.796   5.054   5.581
 3373TIP3   OH210063   4.391   6.128   3.819
 3373TIP3    H110064   4.356   6.042   3.792
 3373TIP3    H210065   4.475   6.134   3.774
 3374TIP3   OH210066   7.837   6.021   4.701
 3374TIP3    H110067   7.911   5.978   4.744
 3374TIP3    H210068   7.768   5.955   4.701
 3375TIP3   OH210069   0.259   2.999   2.909
 3375TIP3    H110070   0.339   3.047   2.886
 3375TIP3    H210071   0.222   2.973   2.824
 3376TIP3   OH210072   4.006   0.260   0.322
 3376TIP3    H110073   4.020   0.296   0.234
 3376TIP3    H210074   4.021   0.334   0.381
 3377TIP3   OH210075   0.370   7.208   3.870
 3377TIP3    H110076   0.443   7.227   3.811
 3377TIP3    H210077   0.381   7.115   3.891
 3378TIP3   OH210078   2.203   4.333   5.095
 3378TIP3    H110079   2.149   4.374   5.163
 3378TIP3    H210080   2.205   4.240   5.120
 3379TIP3   OH210081   1.931   3.923   6.446
 3379TIP3    H110082   1.993   3.896   6.378
 3379TIP3    H210083   1.970   4.002   6.484
 3380TIP3   OH210084   4.012   6.541   4.182
 3380TIP3    H110085   4.043   6.589   4.259
 3380TIP3    H210086   3.929   6.583   4.160
 3381TIP3   OH210087   2.905   3.335   3.653
 3381TIP3    H110088   2.878   3.248   3.625
 3381TIP3    H210089   2.934   3.323   3.744
 3382TIP3   OH210090   5.327   0.290   6.013
 3382TIP3    H110091   5.307   0.265   6.103
 3382TIP3    H210092   5.296   0.381   6.006
 3383TIP3   OH210093   0.147   7.437   1.200
 3383TIP3    H110094   0.137   7.491   1.122
 3383TIP3    H210095   0.108   7.353   1.175
 3384TIP3   OH210096   4.009   6.723   0.268
 3384TIP3    H110097   3.986   6.751   0.356
 3384TIP3    H210098   4.031   6.630   0.277
 3385TIP3   OH210099   6.355   7.011   5.936
 3385TIP3    H110100   6.449   6.998   5.941
 3385TIP3    H210101   6.335   7.072   6.007
 3386TIP3   OH210102   2.731   0.131   6.439
 3386TIP3    H110103   2.727   0.221   6.406
 3386TIP3    H210104   2.641   0.110   6.463
 3387TIP3   OH210105   6.626   4.530   2.174
 3387TIP3    H110106   6.614   4.537   2.079
 3387TIP3    H210107   6.564   4.462   2.201
 3388TIP3   OH210108   5.563   2.954   3.472
 3388TIP3    H110109   5.586   2.927   3.561
 3388TIP3    H210110   5.467   2.958   3.473
 3389TIP3   OH210111   0.867   2.420   6.330
 3389TIP3    H110112   0.844   2.483   6.399
 3389TIP3    H210113   0.876   2.473   6.251
 3390TIP3   OH210114   1.611   5.797   5.398
 3390TIP3    H110115   1.592   5.840   5.481
 3390TIP3    H210116   1.679   5.733   5.419
 3391TIP3   OH210117   3.991   4.035   5.538
 3391TIP3    H110118   3.922   4.088   5.578
 3391TIP3    H210119   4.071   4.085   5.555
 3392TIP3   OH210120   6.284   1.156   3.923
 3392TIP3    H110121   6.273   1.139   3.829
 3392TIP3    H210122   6.335   1.082   3.955
 3393TIP3   OH210123   4.034   1.717   3.318
 3393TIP3    H110124   4.129   1.728   3.319
 3393TIP3    H210125   4.019   1.631   3.355
 3394TIP3   OH210126   1.072   0.897   3.469
 3394TIP3    H110127   1.008   0.833   3.439
 3394TIP3    H210128   1.026   0.981   3.465
 3395TIP3   OH210129   7.612   4.773   4.723
 3395TIP3    H110130   7.558   4.695   4.724
 3395TIP3    H210131   7.687   4.751   4.779
 3396TIP3   OH210132   3.865   3.221   0.579
 3396TIP3    H110133   3.887   3.129   0.575
 3396TIP3    H210134   3.805   3.235   0.505
 3397TIP3   OH210135   7.393   3.111   0.658
 3397TIP3    H110136   7.347   3.180   0.610
 3397TIP3    H210137   7.480   3.108   0.619
 3398TIP3   OH210138   6.105   0.404   5.105
 3398TIP3    H110139   6.119   0.439   5.193
 3398TIP3    H210140   6.107   0.480   5.047
 3399TIP3   OH210141   3.894   5.033   3.981
 3399TIP3    H110142   3.945   4.997   3.909
 3399TIP3    H210143   3.831   4.964   4.003
 3400TIP3   OH210144   6.008   4.712   2.883
 3400TIP3    H110145   5.946   4.661   2.831
 3400TIP3    H210146   6.094   4.689   2.848
 3401TIP3   OH210147   5.730   7.673   4.587
 3401TIP3    H110148   5.812   7.678   4.537
 3401TIP3    H210149   5.736   7.745   4.650
 3402TIP3   OH210150   0.891   7.791   3.711
 3402TIP3    H110151   0.975   7.803   3.667
 3402TIP3    H210152   0.915   7.765   3.800
 3403TIP3   OH210153   8.080   3.517   6.691
 3403TIP3    H110154   8.029   3.437   6.682
 3403TIP3    H210155   8.133   3.522   6.611
 3404TIP3   OH210156   7.581   0.514   2.474
 3404TIP3    H110157   7.509   0.556   2.426
 3404TIP3    H210158   7.658   0.566   2.452
 3405TIP3   OH210159   4.496   4.465   1.509
 3405TIP3    H110160   4.556   4.422   1.448
 3405TIP3    H210161   4.526   4.438   1.595
 3406TIP3   OH210162   2.966   2.281   1.644
 3406TIP3    H110163   3.014   2.239   1.573
 3406TIP3    H210164   3.021   2.268   1.721
 3407TIP3   OH210165   3.364   5.900   5.701
 3407TIP3    H110166   3.294   5.919   5.764
 3407TIP3    H210167   3.377   5.806   5.707
 3408TIP3   OH210168   4.586   4.756   1.775
 3408TIP3    H110169   4.585   4.695   1.850
 3408TIP3    H210170   4.494   4.768   1.754
 3409TIP3   OH210171   6.998   4.261   3.292
 3409TIP3    H110172   7.065   4.275   3.360
 3409TIP3    H210173   7.029   4.185   3.243
 3410TIP3   OH210174   0.525   1.740   2.772
 3410TIP3    H110175   0.578   1.676   2.819
 3410TIP3    H210176   0.469   1.688   2.714
 3411TIP3   OH210177   6.297   2.003   1.718
 3411TIP3    H110178   6.219   1.949   1.705
 3411TIP3    H210179   6.370   1.942   1.707
 3412TIP3   OH210180   0.190   2.232   1.308
 3412TIP3    H110181   0.239   2.299   1.357
 3412TIP3    H210182   0.139   2.282   1.245
 3413TIP3   OH210183   3.267   7.310   6.184
 3413TIP3    H110184   3.304   7.313   6.096
 3413TIP3    H210185   3.191   7.369   6.180
 3414TIP3   OH210186   7.179   6.617   4.513
 3414TIP3    H110187   7.109   6.658   4.462
 3414TIP3    H210188   7.244   6.591   4.448
 3415TIP3   OH210189   3.431   4.979   3.011
 3415TIP3    H110190   3.371   4.929   2.955
 3415TIP3    H210191   3.446   5.060   2.962
 3416TIP3   OH210192   2.276   0.099   2.476
 3416TIP3    H110193   2.223   0.023   2.497
 3416TIP3    H210194   2.318   0.123   2.559
 3417TIP3   OH210195   2.809   2.082   6.426
 3417TIP3    H110196   2.789   1.991   6.402
 3417TIP3    H210197   2.776   2.091   6.515
 3418TIP3   OH210198   1.239   2.503   5.345
 3418TIP3    H110199   1.187   2.470   5.272
 3418TIP3    H210200   1.315   2.545   5.305
 3419TIP3   OH210201   3.567   4.677   2.090
 3419TIP3    H110202   3.645   4.648   2.043
 3419TIP3    H210203   3.537   4.754   2.040
 3420TIP3   OH210204   5.801   3.192   1.062
 3420TIP3    H110205   5.788   3.217   0.971
 3420TIP3    H210206   5.716   3.157   1.090
 3421TIP3   OH210207   6.007   2.209   1.484
 3421TIP3    H110208   6.010   2.191   1.578
 3421TIP3    H210209   5.940   2.150   1.450
 3422TIP3   OH210210   7.222   3.198   4.211
 3422TIP3    H110211   7.287   3.155   4.155
 3422TIP3    H210212   7.187   3.128   4.265
 3423TIP3   OH210213   3.229   4.969   4.940
 3423TIP3    H110214   3.323   4.982   4.927
 3423TIP3    H210215   3.211   4.885   4.897
 3424TIP3   OH210216   6.344   6.660   0.783
 3424TIP3    H110217   6.432   6.698   0.774
 3424TIP3    H210218   6.356   6.567   0.768
 3425TIP3   OH210219   7.117   1.581   1.004
 3425TIP3    H110220   7.182   1.568   0.935
 3425TIP3    H210221   7.085   1.493   1.024
 3426TIP3   OH210222   4.006   7.624   2.653
 3426TIP3    H110223   3.911   7.637   2.647
 3426TIP3    H210224   4.036   7.690   2.715
 3427TIP3   OH210225   4.772   0.589   4.691
 3427TIP3    H110226   4.690   0.635   4.674
 3427TIP3    H210227   4.774   0.518   4.627
 3428TIP3   OH210228   6.936   3.926   6.214
 3428TIP3    H110229   6.987   3.871   6.273
 3428TIP3    H210230   6.889   3.987   6.271
 3429TIP3   OH210231   5.000   0.127   3.760
 3429TIP3    H110232   5.064   0.101   3.695
 3429TIP3    H210233   4.937   0.055   3.763
 3430TIP3   OH210234   5.656   1.882   2.432
 3430TIP3    H110235   5.571   1.843   2.450
 3430TIP3    H210236   5.652   1.969   2.472
 3431TIP3   OH210237   6.109   0.943   0.445
 3431TIP3    H110238   6.022   0.945   0.483
 3431TIP3    H210239   6.116   0.856   0.406
 3432TIP3   OH210240   2.555   4.366   5.903
 3432TIP3    H110241   2.611   4.394   5.831
 3432TIP3    H210242   2.591   4.282   5.930
 3433TIP3   OH210243   4.300   7.240   3.905
 3433TIP3    H110244   4.348   7.158   3.916
 3433TIP3    H210245   4.342   7.301   3.966
 3434TIP3   OH210246   8.163   4.835   1.773
 3434TIP3    H110247   8.223   4.777   1.820
 3434TIP3    H210248   8.092   4.851   1.835
 3435TIP3   OH210249   5.498   5.339   5.317
 3435TIP3    H110250   5.532   5.299   5.237
 3435TIP3    H210251   5.410   5.303   5.326
 3436TIP3   OH210252   8.057   6.983   6.109
 3436TIP3    H110253   8.051   6.901   6.159
 3436TIP3    H210254   8.025   7.050   6.170
 3437TIP3   OH210255   3.746   4.651   2.487
 3437TIP3    H110256   3.654   4.668   2.508
 3437TIP3    H210257   3.791   4.650   2.571
 3438TIP3   OH210258   2.560   5.040   4.239
 3438TIP3    H110259   2.636   5.097   4.254
 3438TIP3    H210260   2.532   5.014   4.327
 3439TIP3   OH210261   2.266   7.742   5.659
 3439TIP3    H110262   2.279   7.648   5.661
 3439TIP3    H210263   2.284   7.767   5.568
 3440TIP3   OH210264   1.868   6.276   4.822
 3440TIP3    H110265   1.863   6.200   4.880
 3440TIP3    H210266   1.954   6.270   4.781
 3441TIP3   OH210267   7.424   4.342   1.951
 3441TIP3    H110268   7.472   4.310   1.874
 3441TIP3    H210269   7.372   4.267   1.979
 3442TIP3   OH210270   5.906   4.650   4.652
 3442TIP3    H110271   5.904   4.606   4.737
 3442TIP3    H210272   5.998   4.675   4.640
 3443TIP3   OH210273   5.739   5.593   6.689
 3443TIP3    H110274   5.665   5.538   6.716
 3443TIP3    H210275   5.734   5.594   6.594
 3444TIP3   OH210276   4.139   5.329   0.706
 3444TIP3    H110277   4.157   5.400   0.645
 3444TIP3    H210278   4.207   5.264   0.688
 3445TIP3   OH210279   1.636   6.818   4.319
 3445TIP3    H110280   1.585   6.737   4.309
 3445TIP3    H210281   1.674   6.812   4.407
 3446TIP3   OH210282   4.888   2.843   0.257
 3446TIP3    H110283   4.859   2.926   0.297
 3446TIP3    H210284   4.976   2.829   0.293
 3447TIP3   OH210285   5.001   6.358   2.861
 3447TIP3    H110286   5.018   6.373   2.768
 3447TIP3    H210287   5.030   6.268   2.877
 3448TIP3   OH210288   2.272   0.865   6.319
 3448TIP3    H110289   2.274   0.944   6.265
 3448TIP3    H210290   2.289   0.896   6.408
 3449TIP3   OH210291   2.415   4.730   6.610
 3449TIP3    H110292   2.427   4.670   6.536
 3449TIP3    H210293   2.501   4.736   6.650
 3450TIP3   OH210294   1.740   3.352   2.249
 3450TIP3    H110295   1.753   3.346   2.344
 3450TIP3    H210296   1.757   3.444   2.229
 3451TIP3   OH210297   2.046   7.623   4.687
 3451TIP3    H110298   2.134   7.647   4.716
 3451TIP3    H210299   2.059   7.593   4.597
 3452TIP3   OH210300   0.696   5.188   5.677
 3452TIP3    H110301   0.711   5.154   5.589
 3452TIP3    H210302   0.672   5.111   5.728
 3453TIP3   OH210303   0.562   0.435   5.841
 3453TIP3    H110304   0.535   0.503   5.903
 3453TIP3    H210305   0.647   0.404   5.874
 3454TIP3   OH210306   2.183   1.681   3.681
 3454TIP3    H110307   2.263   1.732   3.668
 3454TIP3    H210308   2.113   1.746   3.681
 3455TIP3   OH210309   5.534   5.077   1.221
 3455TIP3    H110310   5.463   5.094   1.158
 3455TIP3    H210311   5.491   5.079   1.306
 3456TIP3   OH210312   2.102   0.847   2.158
 3456TIP3    H110313   2.038   0.823   2.224
 3456TIP3    H210314   2.093   0.942   2.148
 3457TIP3   OH210315   4.286   1.050   4.196
 3457TIP3    H110316   4.249   1.045   4.284
 3457TIP3    H210317   4.240   0.983   4.146
 3458TIP3   OH210318   4.671   3.286   3.644
 3458TIP3    H110319   4.763   3.267   3.626
 3458TIP3    H210320   4.623   3.212   3.607
 3459TIP3   OH210321   5.165   5.385   5.370
 3459TIP3    H110322   5.117   5.319   5.420
 3459TIP3    H210323   5.097   5.429   5.318
 3460TIP3   OH210324   4.611   7.116   2.684
 3460TIP3    H110325   4.552   7.067   2.741
 3460TIP3    H210326   4.697   7.076   2.698
 3461TIP3   OH210327   6.580   6.643   3.547
 3461TIP3    H110328   6.647   6.704   3.517
 3461TIP3    H210329   6.531   6.620   3.469
 3462TIP3   OH210330   2.427   0.812   1.692
 3462TIP3    H110331   2.483   0.762   1.633
 3462TIP3    H210332   2.378   0.746   1.740
 3463TIP3   OH210333   5.439   2.074   6.465
 3463TIP3    H110334   5.530   2.054   6.446
 3463TIP3    H210335   5.398   1.989   6.480
 3464TIP3   OH210336   4.423   3.757   6.285
 3464TIP3    H110337   4.474   3.688   6.329
 3464TIP3    H210338   4.452   3.753   6.194
 3465TIP3   OH210339   7.985   4.478   5.520
 3465TIP3    H110340   8.076   4.496   5.497
 3465TIP3    H210341   7.979   4.382   5.524
 3466TIP3   OH210342   0.312   3.122   3.947
 3466TIP3    H110343   0.308   3.113   3.851
 3466TIP3    H210344   0.404   3.111   3.969
 3467TIP3   OH210345   2.366   5.681   6.486
 3467TIP3    H110346   2.429   5.661   6.554
 3467TIP3    H210347   2.406   5.752   6.436
 3468TIP3   OH210348   3.916   6.834   4.075
 3468TIP3    H110349   3.868   6.914   4.095
 3468TIP3    H210350   3.860   6.786   4.014
 3469TIP3   OH210351   7.081   0.816   2.103
 3469TIP3    H110352   7.114   0.889   2.051
 3469TIP3    H210353   7.028   0.765   2.041
 3470TIP3   OH210354   5.109   7.007   6.326
 3470TIP3    H110355   5.108   6.968   6.239
 3470TIP3    H210356   5.197   7.042   6.336
 3471TIP3   OH210357   0.513   3.830   3.015
 3471TIP3    H110358   0.537   3.855   2.926
 3471TIP3    H210359   0.418   3.824   3.013
 3472TIP3   OH210360   3.550   7.774   1.224
 3472TIP3    H110361   3.460   7.772   1.258
 3472TIP3    H210362   3.544   7.730   1.139
 3473TIP3   OH210363   0.194   4.489   5.904
 3473TIP3    H110364   0.221   4.559   5.844
 3473TIP3    H210365   0.229   4.515   5.989
 3474TIP3   OH210366   2.444   4.955   0.863
 3474TIP3    H110367   2.473   5.043   0.888
 3474TIP3    H210368   2.474   4.946   0.772
 3475TIP3   OH210369   2.462   1.761   2.323
 3475TIP3    H110370   2.434   1.705   2.396
 3475TIP3    H210371   2.556   1.743   2.315
 3476TIP3   OH210372   2.950   5.515   0.285
 3476TIP3    H110373   3.017   5.447   0.274
 3476TIP3    H210374   2.920   5.534   0.197
 3477TIP3   OH210375   4.426   2.045   1.229
 3477TIP3    H110376   4.415   2.094   1.310
 3477TIP3    H210377   4.487   2.098   1.177
 3478TIP3   OH210378   1.428   6.349   4.918
 3478TIP3    H110379   1.447   6.280   4.855
 3478TIP3    H210380   1.514   6.375   4.951
 3479TIP3   OH210381   1.967   4.806   2.913
 3479TIP3    H110382   1.931   4.888   2.945
 3479TIP3    H210383   2.033   4.782   2.978
 3480TIP3   OH210384   3.642   5.086   4.577
 3480TIP3    H110385   3.676   5.175   4.574
 3480TIP3    H210386   3.706   5.035   4.526
 3481TIP3   OH210387   7.571   0.913   1.267
 3481TIP3    H110388   7.480   0.943   1.268
 3481TIP3    H210389   7.586   0.878   1.355
 3482TIP3   OH210390   6.901   4.144   1.860
 3482TIP3    H110391   6.821   4.169   1.814
 3482TIP3    H210392   6.950   4.226   1.868
 3483TIP3   OH210393   5.761   5.258   1.714
 3483TIP3    H110394   5.803   5.224   1.793
 3483TIP3    H210395   5.740   5.180   1.663
 3484TIP3   OH210396   5.712   6.255   0.526
 3484TIP3    H110397   5.710   6.204   0.607
 3484TIP3    H210398   5.735   6.192   0.458
 3485TIP3   OH210399   6.458   2.147   2.483
 3485TIP3    H110400   6.535   2.152   2.540
 3485TIP3    H210401   6.479   2.076   2.422
 3486TIP3   OH210402   6.914   1.919   4.657
 3486TIP3    H110403   6.865   1.935   4.576
 3486TIP3    H210404   6.861   1.959   4.725
 3487TIP3   OH210405   4.745   1.337   6.283
 3487TIP3    H110406   4.657   1.362   6.255
 3487TIP3    H210407   4.773   1.410   6.338
 3488TIP3   OH210408   4.543   7.858   1.825
 3488TIP3    H110409   4.573   7.899   1.744
 3488TIP3    H210410   4.482   7.790   1.797
 3489TIP3   OH210411   2.735   6.622   5.407
 3489TIP3    H110412   2.770   6.676   5.478
 3489TIP3    H210413   2.674   6.678   5.361
 3490TIP3   OH210414   7.920   4.231   2.898
 3490TIP3    H110415   7.877   4.185   2.970
 3490TIP3    H210416   7.954   4.311   2.937
 3491TIP3   OH210417   7.174   4.818   4.502
 3491TIP3    H110418   7.217   4.744   4.459
 3491TIP3    H210419   7.210   4.895   4.457
 3492TIP3   OH210420   5.279   5.789   4.992
 3492TIP3    H110421   5.331   5.708   5.001
 3492TIP3    H210422   5.314   5.831   4.914
 3493TIP3   OH210423   5.903   0.847   5.732
 3493TIP3    H110424   5.883   0.836   5.825
 3493TIP3    H210425   5.913   0.758   5.699
 3494TIP3   OH210426   3.614   4.158   0.645
 3494TIP3    H110427   3.563   4.077   0.652
 3494TIP3    H210428   3.552   4.228   0.663
 3495TIP3   OH210429   0.168   5.083   4.143
 3495TIP3    H110430   0.242   5.049   4.093
 3495TIP3    H210431   0.167   5.031   4.224
 3496TIP3   OH210432   8.271   0.383   1.126
 3496TIP3    H110433   8.362   0.352   1.136
 3496TIP3    H210434   8.266   0.458   1.185
 3497TIP3   OH210435   5.695   5.310   6.321
 3497TIP3    H110436   5.752   5.259   6.262
 3497TIP3    H210437   5.691   5.257   6.401
 3498TIP3   OH210438   2.257   2.542   0.598
 3498TIP3    H110439   2.304   2.514   0.519
 3498TIP3    H210440   2.271   2.472   0.661
 3499TIP3   OH210441   6.064   2.365   2.376
 3499TIP3    H110442   6.042   2.329   2.289
 3499TIP3    H210443   6.101   2.291   2.423
 3500TIP3   OH210444   1.198   6.365   1.695
 3500TIP3    H110445   1.225   6.445   1.650
 3500TIP3    H210446   1.280   6.319   1.711
 3501TIP3   OH210447   2.635   7.245   2.441
 3501TIP3    H110448   2.634   7.314   2.375
 3501TIP3    H210449   2.553   7.257   2.489
 3502TIP3   OH210450   3.149   3.333   6.737
 3502TIP3    H110451   3.119   3.365   6.822
 3502TIP3    H210452   3.084   3.367   6.675
 3503TIP3   OH210453   4.343   2.238   4.000
 3503TIP3    H110454   4.259   2.245   4.045
 3503TIP3    H210455   4.342   2.152   3.959
 3504TIP3   OH210456   4.594   5.591   0.667
 3504TIP3    H110457   4.689   5.593   0.669
 3504TIP3    H210458   4.567   5.643   0.743
 3505TIP3   OH210459   6.453   5.325   2.800
 3505TIP3    H110460   6.479   5.361   2.885
 3505TIP3    H210461   6.462   5.398   2.739
 3506TIP3   OH210462   3.279   3.198   4.295
 3506TIP3    H110463   3.335   3.270   4.266
 3506TIP3    H210464   3.253   3.222   4.384
 3507TIP3   OH210465   3.586   0.717   6.053
 3507TIP3    H110466   3.627   0.632   6.037
 3507TIP3    H210467   3.551   0.743   5.968
 3508TIP3   OH210468   3.046   2.299   5.047
 3508TIP3    H110469   3.134   2.332   5.033
 3508TIP3    H210470   3.005   2.363   5.105
 3509TIP3   OH210471   4.316   7.799   3.938
 3509TIP3    H110472   4.389   7.786   3.999
 3509TIP3    H210473   4.261   7.864   3.981
 3510TIP3   OH210474   6.913   6.636   6.751
 3510TIP3    H110475   6.901   6.730   6.758
 3510TIP3    H210476   6.838   6.598   6.797
 3511TIP3   OH210477   6.343   7.696   0.004
 3511TIP3    H110478   6.309   7.786   0.013
 3511TIP3    H210479   6.369   7.671   0.093
 3512TIP3   OH210480   1.862   6.621   4.291
 3512TIP3    H110481   1.899   6.583   4.370
 3512TIP3    H210482   1.829   6.546   4.241
 3513TIP3   OH210483   1.499   1.524   4.837
 3513TIP3    H110484   1.457   1.539   4.753
 3513TIP3    H210485   1.564   1.594   4.845
 3514TIP3   OH210486   6.488   7.422   5.210
 3514TIP3    H110487   6.492   7.341   5.260
 3514TIP3    H210488   6.507   7.491   5.274
 3515TIP3   OH210489   4.455   0.166   0.409
 3515TIP3    H110490   4.535   0.113   0.413
 3515TIP3    H210491   4.384   0.102   0.417
 3516TIP3   OH210492   3.464   4.209   1.998
 3516TIP3    H110493   3.408   4.277   1.962
 3516TIP3    H210494   3.523   4.185   1.926
 3517TIP3   OH210495   2.024   4.775   1.425
 3517TIP3    H110496   1.942   4.730   1.410
 3517TIP3    H210497   2.040   4.824   1.345
 3518TIP3   OH210498   3.573   1.156   4.390
 3518TIP3    H110499   3.609   1.132   4.475
 3518TIP3    H210500   3.550   1.248   4.398
 3519TIP3   OH210501   5.843   4.177   2.030
 3519TIP3    H110502   5.832   4.148   1.940
 3519TIP3    H210503   5.788   4.119   2.082
 3520TIP3   OH210504   7.633   3.063   3.525
 3520TIP3    H110505   7.635   3.050   3.430
 3520TIP3    H210506   7.711   3.115   3.544
 3521TIP3   OH210507   4.112   0.650   4.347
 3521TIP3    H110508   4.063   0.685   4.421
 3521TIP3    H210509   4.151   0.569   4.379
 3522TIP3   OH210510   8.013   1.457   6.541
 3522TIP3    H110511   7.927   1.421   6.519
 3522TIP3    H210512   7.994   1.537   6.589
 3523TIP3   OH210513   3.603   2.700   5.990
 3523TIP3    H110514   3.660   2.678   5.916
 3523TIP3    H210515   3.560   2.618   6.012
 3524TIP3   OH210516   6.667   3.809   2.507
 3524TIP3    H110517   6.663   3.797   2.602
 3524TIP3    H210518   6.615   3.737   2.472
 3525TIP3   OH210519   0.659   2.003   1.097
 3525TIP3    H110520   0.605   1.981   1.021
 3525TIP3    H210521   0.660   1.922   1.149
 3526TIP3   OH210522   1.376   6.785   3.954
 3526TIP3    H110523   1.453   6.737   3.985
 3526TIP3    H210524   1.411   6.868   3.922
 3527TIP3   OH210525   7.128   3.973   4.652
 3527TIP3    H110526   7.057   3.909   4.654
 3527TIP3    H210527   7.114   4.022   4.571
 3528TIP3   OH210528   6.326   0.608   2.851
 3528TIP3    H110529   6.371   0.686   2.820
 3528TIP3    H210530   6.396   0.545   2.869
 3529TIP3   OH210531   8.178   5.687   3.472
 3529TIP3    H110532   8.223   5.703   3.390
 3529TIP3    H210533   8.236   5.628   3.521
 3530TIP3   OH210534   3.493   6.091   5.278
 3530TIP3    H110535   3.448   6.160   5.229
 3530TIP3    H210536   3.585   6.103   5.257
 3531TIP3   OH210537   2.439   2.949   2.745
 3531TIP3    H110538   2.529   2.942   2.777
 3531TIP3    H210539   2.406   3.031   2.781
 3532TIP3   OH210540   8.136   4.934   5.581
 3532TIP3    H110541   8.198   5.000   5.612
 3532TIP3    H210542   8.056   4.983   5.562
 3533TIP3   OH210543   5.255   3.428   4.361
 3533TIP3    H110544   5.220   3.340   4.379
 3533TIP3    H210545   5.208   3.485   4.421
 3534TIP3   OH210546   2.219   3.563   1.761
 3534TIP3    H110547   2.174   3.643   1.789
 3534TIP3    H210548   2.283   3.594   1.697
 3535TIP3   OH210549   6.920   3.703   4.648
 3535TIP3    H110550   6.945   3.680   4.559
 3535TIP3    H210551   7.002   3.702   4.697
 3536TIP3   OH210552   4.423   1.705   3.251
 3536TIP3    H110553   4.361   1.633   3.262
 3536TIP3    H210554   4.387   1.757   3.179
 3537TIP3   OH210555   2.751   1.672   2.282
 3537TIP3    H110556   2.784   1.749   2.329
 3537TIP3    H210557   2.810   1.601   2.306
 3538TIP3   OH210558   0.077   2.637   0.715
 3538TIP3    H110559   0.025   2.716   0.699
 3538TIP3    H210560   0.165   2.660   0.684
 3539TIP3   OH210561   6.612   3.777   3.411
 3539TIP3    H110562   6.653   3.846   3.358
 3539TIP3    H210563   6.544   3.741   3.354
 3540TIP3   OH210564   3.738   5.109   3.089
 3540TIP3    H110565   3.810   5.073   3.038
 3540TIP3    H210566   3.677   5.036   3.099
 3541TIP3   OH210567   2.166   0.451   6.015
 3541TIP3    H110568   2.228   0.380   6.030
 3541TIP3    H210569   2.132   0.435   5.927
 3542TIP3   OH210570   1.161   6.096   1.204
 3542TIP3    H110571   1.085   6.153   1.197
 3542TIP3    H210572   1.234   6.148   1.170
 3543TIP3   OH210573   4.286   2.042   4.657
 3543TIP3    H110574   4.361   1.983   4.663
 3543TIP3    H210575   4.291   2.096   4.735
 3544TIP3   OH210576   7.799   4.048   1.718
 3544TIP3    H110577   7.822   3.966   1.676
 3544TIP3    H210578   7.755   4.099   1.649
 3545TIP3   OH210579   7.806   4.266   5.076
 3545TIP3    H110580   7.813   4.348   5.124
 3545TIP3    H210581   7.738   4.216   5.122
 3546TIP3   OH210582   0.634   3.179   6.735
 3546TIP3    H110583   0.556   3.152   6.784
 3546TIP3    H210584   0.605   3.253   6.683
 3547TIP3   OH210585   3.566   3.471   2.308
 3547TIP3    H110586   3.523   3.556   2.304
 3547TIP3    H210587   3.506   3.415   2.358
 3548TIP3   OH210588   7.190   0.287   3.625
 3548TIP3    H110589   7.267   0.233   3.638
 3548TIP3    H210590   7.217   0.354   3.563
 3549TIP3   OH210591   3.911   4.008   4.661
 3549TIP3    H110592   3.870   3.959   4.590
 3549TIP3    H210593   3.998   3.968   4.671
 3550TIP3   OH210594   4.582   6.767   6.057
 3550TIP3    H110595   4.639   6.843   6.052
 3550TIP3    H210596   4.515   6.782   5.991
 3551TIP3   OH210597   4.194   4.664   2.866
 3551TIP3    H110598   4.192   4.759   2.879
 3551TIP3    H210599   4.244   4.631   2.941
 3552TIP3   OH210600   0.574   5.504   0.441
 3552TIP3    H110601   0.549   5.578   0.385
 3552TIP3    H210602   0.649   5.464   0.397
 3553TIP3   OH210603   7.633   6.338   2.018
 3553TIP3    H110604   7.557   6.298   1.977
 3553TIP3    H210605   7.611   6.341   2.111
 3554TIP3   OH210606   2.023   0.681   6.673
 3554TIP3    H110607   2.054   0.601   6.716
 3554TIP3    H210608   2.066   0.680   6.587
 3555TIP3   OH210609   3.287   4.162   0.751
 3555TIP3    H110610   3.304   4.196   0.839
 3555TIP3    H210611   3.235   4.083   0.765
 3556TIP3   OH210612   5.795   7.134   1.534
 3556TIP3    H110613   5.768   7.086   1.456
 3556TIP3    H210614   5.714   7.149   1.583
 3557TIP3   OH210615   2.829   6.108   4.737
 3557TIP3    H110616   2.913   6.118   4.691
 3557TIP3    H210617   2.845   6.041   4.802
 3558TIP3   OH210618   1.362   5.854   5.913
 3558TIP3    H110619   1.310   5.880   5.837
 3558TIP3    H210620   1.311   5.883   5.988
 3559TIP3   OH210621   4.709   5.462   5.932
 3559TIP3    H110622   4.738   5.378   5.968
 3559TIP3    H210623   4.637   5.489   5.989
 3560TIP3   OH210624   1.733   1.236   3.850
 3560TIP3    H110625   1.650   1.270   3.884
 3560TIP3    H210626   1.788   1.314   3.838
 3561TIP3   OH210627   0.992   1.395   3.405
 3561TIP3    H110628   0.972   1.448   3.328
 3561TIP3    H210629   0.973   1.452   3.480
 3562TIP3   OH210630   8.295   3.413   5.705
 3562TIP3    H110631   8.245   3.336   5.677
 3562TIP3    H210632   8.386   3.389   5.690
 3563TIP3   OH210633   2.997   5.347   2.307
 3563TIP3    H110634   2.904   5.340   2.327
 3563TIP3    H210635   3.010   5.288   2.233
 3564TIP3   OH210636   2.616   3.359   5.541
 3564TIP3    H110637   2.621   3.451   5.516
 3564TIP3    H210638   2.523   3.344   5.557
 3565TIP3   OH210639   3.573   6.387   4.352
 3565TIP3    H110640   3.479   6.371   4.339
 3565TIP3    H210641   3.598   6.325   4.420
 3566TIP3   OH210642   0.278   2.726   1.764
 3566TIP3    H110643   0.293   2.803   1.709
 3566TIP3    H210644   0.183   2.713   1.761
 3567TIP3   OH210645   7.792   1.940   5.249
 3567TIP3    H110646   7.741   1.861   5.266
 3567TIP3    H210647   7.737   1.992   5.191
 3568TIP3   OH210648   3.306   1.622   2.938
 3568TIP3    H110649   3.241   1.585   2.879
 3568TIP3    H210650   3.258   1.687   2.990
 3569TIP3   OH210651   4.893   7.243   3.460
 3569TIP3    H110652   4.804   7.220   3.485
 3569TIP3    H210653   4.936   7.266   3.543
 3570TIP3   OH210654   8.132   3.256   5.000
 3570TIP3    H110655   8.125   3.179   4.944
 3570TIP3    H210656   8.174   3.322   4.945
 3571TIP3   OH210657   8.180   7.807   2.736
 3571TIP3    H110658   8.107   7.867   2.719
 3571TIP3    H210659   8.185   7.801   2.831
 3572TIP3   OH210660   7.562   6.717   0.663
 3572TIP3    H110661   7.585   6.701   0.572
 3572TIP3    H210662   7.501   6.791   0.659
 3573TIP3   OH210663   1.567   6.829   5.704
 3573TIP3    H110664   1.599   6.919   5.706
 3573TIP3    H210665   1.565   6.802   5.796
 3574TIP3   OH210666   2.158   2.677   2.998
 3574TIP3    H110667   2.180   2.686   3.090
 3574TIP3    H210668   2.067   2.705   2.992
 3575TIP3   OH210669   2.921   4.512   5.107
 3575TIP3    H110670   2.937   4.554   5.192
 3575TIP3    H210671   2.952   4.422   5.119
 3576TIP3   OH210672   1.210   5.574   5.129
 3576TIP3    H110673   1.284   5.558   5.187
 3576TIP3    H210674   1.135   5.582   5.188
 3577TIP3   OH210675   7.040   2.216   5.618
 3577TIP3    H110676   6.982   2.185   5.548
 3577TIP3    H210677   7.118   2.248   5.572
 3578TIP3   OH210678   3.318   7.681   3.268
 3578TIP3    H110679   3.410   7.674   3.296
 3578TIP3    H210680   3.320   7.662   3.175
 3579TIP3   OH210681   0.172   4.289   6.614
 3579TIP3    H110682   0.193   4.348   6.687
 3579TIP3    H210683   0.149   4.206   6.656
 3580TIP3   OH210684   2.004   7.412   0.739
 3580TIP3    H110685   1.937   7.472   0.770
 3580TIP3    H210686   2.013   7.433   0.645
 3581TIP3   OH210687   4.234   5.107   1.675
 3581TIP3    H110688   4.222   5.168   1.747
 3581TIP3    H210689   4.263   5.161   1.601
 3582TIP3   OH210690   0.595   2.641   5.114
 3582TIP3    H110691   0.555   2.705   5.055
 3582TIP3    H210692   0.527   2.576   5.129
 3583TIP3   OH210693   7.731   2.396   2.231
 3583TIP3    H110694   7.782   2.362   2.305
 3583TIP3    H210695   7.649   2.425   2.270
 3584TIP3   OH210696   7.865   2.866   0.704
 3584TIP3    H110697   7.811   2.944   0.693
 3584TIP3    H210698   7.821   2.798   0.652
 3585TIP3   OH210699   2.717   3.419   4.481
 3585TIP3    H110700   2.724   3.345   4.541
 3585TIP3    H210701   2.624   3.423   4.458
 3586TIP3   OH210702   7.619   0.765   1.498
 3586TIP3    H110703   7.710   0.789   1.478
 3586TIP3    H210704   7.628   0.692   1.560
 3587TIP3   OH210705   1.946   3.736   3.917
 3587TIP3    H110706   1.996   3.787   3.853
 3587TIP3    H210707   2.002   3.661   3.936
 3588TIP3   OH210708   5.403   4.413   4.176
 3588TIP3    H110709   5.466   4.443   4.241
 3588TIP3    H210710   5.380   4.325   4.203
 3589TIP3   OH210711   7.842   6.667   0.793
 3589TIP3    H110712   7.779   6.738   0.783
 3589TIP3    H210713   7.867   6.671   0.885
 3590TIP3   OH210714   0.403   7.277   1.229
 3590TIP3    H110715   0.392   7.245   1.139
 3590TIP3    H210716   0.347   7.355   1.234
 3591TIP3   OH210717   2.726   1.785   6.407
 3591TIP3    H110718   2.633   1.785   6.432
 3591TIP3    H210719   2.726   1.803   6.313
 3592TIP3   OH210720   5.260   5.939   3.907
 3592TIP3    H110721   5.278   6.032   3.917
 3592TIP3    H210722   5.250   5.906   3.996
 3593TIP3   OH210723   1.878   2.703   4.835
 3593TIP3    H110724   1.944   2.770   4.817
 3593TIP3    H210725   1.851   2.673   4.749
 3594TIP3   OH210726   4.574   6.771   4.614
 3594TIP3    H110727   4.588   6.686   4.655
 3594TIP3    H210728   4.649   6.781   4.555
 3595TIP3   OH210729   3.352   6.610   4.033
 3595TIP3    H110730   3.398   6.683   4.074
 3595TIP3    H210731   3.270   6.647   4.003
 3596TIP3   OH210732   2.224   7.768   6.184
 3596TIP3    H110733   2.258   7.684   6.216
 3596TIP3    H210734   2.291   7.832   6.209
 3597TIP3   OH210735   0.861   1.811   2.025
 3597TIP3    H110736   0.856   1.863   1.944
 3597TIP3    H210737   0.818   1.729   2.003
 3598TIP3   OH210738   2.582   7.011   2.603
 3598TIP3    H110739   2.560   7.068   2.677
 3598TIP3    H210740   2.512   7.026   2.540
 3599TIP3   OH210741   8.107   0.457   2.267
 3599TIP3    H110742   8.180   0.485   2.211
 3599TIP3    H210743   8.141   0.465   2.357
 3600TIP3   OH210744   4.574   1.298   5.264
 3600TIP3    H110745   4.605   1.389   5.259
 3600TIP3    H210746   4.480   1.305   5.281
 3601TIP3   OH210747   4.570   6.281   2.543
 3601TIP3    H110748   4.623   6.250   2.616
 3601TIP3    H210749   4.629   6.277   2.467
 3602TIP3   OH210750   3.550   4.657   0.217
 3602TIP3    H110751   3.481   4.714   0.186
 3602TIP3    H210752   3.513   4.569   0.214
 3603TIP3   OH210753   5.699   1.257   5.625
 3603TIP3    H110754   5.774   1.285   5.676
 3603TIP3    H210755   5.719   1.167   5.600
 3604TIP3   OH210756   3.160   7.161   3.890
 3604TIP3    H110757   3.173   7.121   3.804
 3604TIP3    H210758   3.101   7.101   3.936
 3605TIP3   OH210759   3.830   1.939   0.163
 3605TIP3    H110760   3.815   2.034   0.157
 3605TIP3    H210761   3.743   1.902   0.174
 3606TIP3   OH210762   7.047   4.337   6.485
 3606TIP3    H110763   7.003   4.261   6.523
 3606TIP3    H210764   7.078   4.387   6.560
 3607TIP3   OH210765   7.687   2.181   4.054
 3607TIP3    H110766   7.688   2.087   4.074
 3607TIP3    H210767   7.645   2.187   3.968
 3608TIP3   OH210768   0.633   6.033   5.985
 3608TIP3    H110769   0.663   6.113   5.941
 3608TIP3    H210770   0.713   5.995   6.022
 3609TIP3   OH210771   2.801   5.943   0.822
 3609TIP3    H110772   2.829   5.984   0.904
 3609TIP3    H210773   2.705   5.946   0.825
 3610TIP3   OH210774   5.702   7.791   1.691
 3610TIP3    H110775   5.731   7.826   1.607
 3610TIP3    H210776   5.717   7.861   1.754
 3611TIP3   OH210777   8.236   3.276   1.998
 3611TIP3    H110778   8.317   3.312   1.961
 3611TIP3    H210779   8.247   3.282   2.093
 3612TIP3   OH210780   4.890   3.741   6.180
 3612TIP3    H110781   4.895   3.750   6.085
 3612TIP3    H210782   4.816   3.795   6.206
 3613TIP3   OH210783   1.942   6.647   4.738
 3613TIP3    H110784   1.906   6.571   4.692
 3613TIP3    H210785   2.030   6.657   4.703
 3614TIP3   OH210786   6.817   6.822   2.364
 3614TIP3    H110787   6.806   6.833   2.270
 3614TIP3    H210788   6.836   6.911   2.396
 3615TIP3   OH210789   6.370   2.487   3.016
 3615TIP3    H110790   6.366   2.527   3.103
 3615TIP3    H210791   6.326   2.549   2.959
 3616TIP3   OH210792   3.540   7.670   4.858
 3616TIP3    H110793   3.635   7.670   4.849
 3616TIP3    H210794   3.524   7.702   4.946
 3617TIP3   OH210795   3.683   7.175   6.495
 3617TIP3    H110796   3.758   7.126   6.528
 3617TIP3    H210797   3.686   7.164   6.400
 3618TIP3   OH210798   6.359   2.813   3.837
 3618TIP3    H110799   6.439   2.767   3.861
 3618TIP3    H210800   6.290   2.748   3.848
 3619TIP3   OH210801   7.276   2.319   5.454
 3619TIP3    H110802   7.327   2.321   5.373
 3619TIP3    H210803   7.330   2.366   5.517
 3620TIP3   OH210804   4.495   6.003   1.069
 3620TIP3    H110805   4.543   6.042   0.995
 3620TIP3    H210806   4.434   6.072   1.096
 3621TIP3   OH210807   1.960   4.525   5.751
 3621TIP3    H110808   1.889   4.468   5.782
 3621TIP3    H210809   2.026   4.522   5.819
 3622TIP3   OH210810   3.499   0.415   2.905
 3622TIP3    H110811   3.452   0.427   2.823
 3622TIP3    H210812   3.590   0.436   2.885
 3623TIP3   OH210813   3.917   5.414   0.444
 3623TIP3    H110814   3.898   5.413   0.350
 3623TIP3    H210815   4.007   5.384   0.451
 3624TIP3   OH210816   4.312   3.278   6.435
 3624TIP3    H110817   4.240   3.221   6.411
 3624TIP3    H210818   4.362   3.228   6.500
 3625TIP3   OH210819   0.483   5.582   2.435
 3625TIP3    H110820   0.433   5.662   2.453
 3625TIP3    H210821   0.537   5.605   2.360
 3626TIP3   OH210822   0.272   5.275   4.910
 3626TIP3    H110823   0.301   5.354   4.955
 3626TIP3    H210824   0.352   5.237   4.873
 3627TIP3   OH210825   2.894   6.530   0.375
 3627TIP3    H110826   2.946   6.450   0.368
 3627TIP3    H210827   2.822   6.518   0.313
 3628TIP3   OH210828   6.265   0.187   2.051
 3628TIP3    H110829   6.270   0.260   2.113
 3628TIP3    H210830   6.220   0.224   1.975
 3629TIP3   OH210831   4.012   7.648   5.253
 3629TIP3    H110832   4.084   7.651   5.317
 3629TIP3    H210833   3.933   7.642   5.307
 3630TIP3   OH210834   7.402   5.891   6.197
 3630TIP3    H110835   7.496   5.887   6.183
 3630TIP3    H210836   7.364   5.861   6.115
 3631TIP3   OH210837   4.254   3.903   4.072
 3631TIP3    H110838   4.213   3.915   4.157
 3631TIP3    H210839   4.269   3.808   4.065
 3632TIP3   OH210840   2.582   2.939   6.378
 3632TIP3    H110841   2.599   2.848   6.401
 3632TIP3    H210842   2.575   2.985   6.462
 3633TIP3   OH210843   2.996   5.550   4.768
 3633TIP3    H110844   2.946   5.495   4.829
 3633TIP3    H210845   2.991   5.638   4.805
 3634TIP3   OH210846   4.180   4.534   0.779
 3634TIP3    H110847   4.152   4.577   0.860
 3634TIP3    H210848   4.137   4.584   0.709
 3635TIP3   OH210849   5.846   2.539   0.649
 3635TIP3    H110850   5.849   2.528   0.554
 3635TIP3    H210851   5.855   2.634   0.663
 3636TIP3   OH210852   5.419   7.263   4.304
 3636TIP3    H110853   5.371   7.249   4.222
 3636TIP3    H210854   5.506   7.291   4.276
 3637TIP3   OH210855   1.314   6.325   1.038
 3637TIP3    H110856   1.233   6.360   1.076
 3637TIP3    H210857   1.383   6.382   1.071
 3638TIP3   OH210858   7.191   0.701   3.488
 3638TIP3    H110859   7.230   0.660   3.566
 3638TIP3    H210860   7.190   0.631   3.422
 3639TIP3   OH210861   6.232   2.303   4.863
 3639TIP3    H110862   6.254   2.388   4.825
 3639TIP3    H210863   6.143   2.285   4.831
 3640TIP3   OH210864   6.236   1.874   5.135
 3640TIP3    H110865   6.162   1.831   5.092
 3640TIP3    H210866   6.207   1.963   5.151
 3641TIP3   OH210867   6.897   5.899   6.071
 3641TIP3    H110868   6.877   5.812   6.037
 3641TIP3    H210869   6.824   5.919   6.129
 3642TIP3   OH210870   1.994   0.119   0.351
 3642TIP3    H110871   1.900   0.099   0.354
 3642TIP3    H210872   2.003   0.181   0.279
 3643TIP3   OH210873   3.993   1.217   3.997
 3643TIP3    H110874   3.999   1.174   4.083
 3643TIP3    H210875   3.929   1.286   4.009
 3644TIP3   OH210876   4.348   2.010   5.468
 3644TIP3    H110877   4.427   2.046   5.510
 3644TIP3    H210878   4.334   1.926   5.512
 3645TIP3   OH210879   7.882   4.955   4.621
 3645TIP3    H110880   7.821   5.028   4.627
 3645TIP3    H210881   7.866   4.904   4.701
 3646TIP3   OH210882   5.032   7.618   4.143
 3646TIP3    H110883   5.025   7.682   4.214
 3646TIP3    H210884   4.998   7.537   4.179
 3647TIP3   OH210885   5.498   1.075   6.048
 3647TIP3    H110886   5.532   1.157   6.015
 3647TIP3    H210887   5.566   1.011   6.028
 3648TIP3   OH210888   5.856   6.855   3.887
 3648TIP3    H110889   5.837   6.840   3.979
 3648TIP3    H210890   5.840   6.949   3.874
 3649TIP3   OH210891   8.177   3.838   5.722
 3649TIP3    H110892   8.212   3.874   5.803
 3649TIP3    H210893   8.253   3.822   5.667
 3650TIP3   OH210894   1.421   7.727   2.052
 3650TIP3    H110895   1.415   7.644   2.099
 3650TIP3    H210896   1.376   7.790   2.109
 3651TIP3   OH210897   5.482   0.088   0.792
 3651TIP3    H110898   5.462   0.087   0.886
 3651TIP3    H210899   5.511  -0.002   0.773
 3652TIP3   OH210900   7.770   0.248   5.753
 3652TIP3    H110901   7.676   0.231   5.748
 3652TIP3    H210902   7.776   0.342   5.770
 3653TIP3   OH210903   7.415   2.673   3.310
 3653TIP3    H110904   7.383   2.583   3.322
 3653TIP3    H210905   7.510   2.665   3.316
 3654TIP3   OH210906   4.082   7.189   6.293
 3654TIP3    H110907   4.035   7.107   6.306
 3654TIP3    H210908   4.093   7.226   6.381
 3655TIP3   OH210909   6.142   2.214   1.899
 3655TIP3    H110910   6.207   2.281   1.878
 3655TIP3    H210911   6.188   2.131   1.885
 3656TIP3   OH210912   6.274   0.983   1.610
 3656TIP3    H110913   6.278   1.025   1.524
 3656TIP3    H210914   6.253   0.892   1.591
 3657TIP3   OH210915   1.126   0.346   2.872
 3657TIP3    H110916   1.062   0.297   2.820
 3657TIP3    H210917   1.211   0.314   2.841
 3658TIP3   OH210918   2.891   7.763   6.495
 3658TIP3    H110919   2.805   7.727   6.474
 3658TIP3    H210920   2.880   7.802   6.582
 3659TIP3   OH210921   6.608   2.451   1.051
 3659TIP3    H110922   6.596   2.389   1.123
 3659TIP3    H210923   6.695   2.432   1.016
 3660TIP3   OH210924   1.508   4.679   4.392
 3660TIP3    H110925   1.511   4.738   4.468
 3660TIP3    H210926   1.589   4.629   4.397
 3661TIP3   OH210927   6.319   2.512   6.206
 3661TIP3    H110928   6.282   2.448   6.145
 3661TIP3    H210929   6.262   2.588   6.197
 3662TIP3   OH210930   3.442   7.761   1.874
 3662TIP3    H110931   3.422   7.725   1.960
 3662TIP3    H210932   3.401   7.847   1.873
 3663TIP3   OH210933   1.887   2.819   4.185
 3663TIP3    H110934   1.930   2.881   4.126
 3663TIP3    H210935   1.943   2.820   4.263
 3664TIP3   OH210936   5.774   2.169   4.535
 3664TIP3    H110937   5.806   2.080   4.522
 3664TIP3    H210938   5.759   2.177   4.629
 3665TIP3   OH210939   0.347   0.430   4.751
 3665TIP3    H110940   0.255   0.447   4.772
 3665TIP3    H210941   0.395   0.463   4.827
 3666TIP3   OH210942   1.829   2.986   1.206
 3666TIP3    H110943   1.923   2.995   1.186
 3666TIP3    H210944   1.824   2.999   1.301
 3667TIP3   OH210945   3.827   3.583   5.291
 3667TIP3    H110946   3.909   3.632   5.295
 3667TIP3    H210947   3.763   3.646   5.258
 3668TIP3   OH210948   6.705   7.663   1.758
 3668TIP3    H110949   6.679   7.611   1.682
 3668TIP3    H210950   6.778   7.615   1.797
 3669TIP3   OH210951   2.420   0.554   4.871
 3669TIP3    H110952   2.464   0.637   4.857
 3669TIP3    H210953   2.471   0.491   4.820
 3670TIP3   OH210954   4.162   1.633   4.233
 3670TIP3    H110955   4.190   1.724   4.222
 3670TIP3    H210956   4.068   1.635   4.216
 3671TIP3   OH210957   1.161   5.818   5.018
 3671TIP3    H110958   1.243   5.797   4.974
 3671TIP3    H210959   1.143   5.742   5.073
 3672TIP3   OH210960   4.013   1.411   2.443
 3672TIP3    H110961   3.981   1.339   2.497
 3672TIP3    H210962   4.052   1.472   2.505
 3673TIP3   OH210963   3.458   4.784   5.491
 3673TIP3    H110964   3.434   4.716   5.428
 3673TIP3    H210965   3.440   4.744   5.576
 3674TIP3   OH210966   4.914   6.987   3.795
 3674TIP3    H110967   4.857   6.917   3.829
 3674TIP3    H210968   4.857   7.064   3.792
 3675TIP3   OH210969   4.190   0.970   4.453
 3675TIP3    H110970   4.131   1.044   4.474
 3675TIP3    H210971   4.139   0.892   4.474
 3676TIP3   OH210972   2.086   6.324   6.112
 3676TIP3    H110973   2.139   6.281   6.179
 3676TIP3    H210974   2.009   6.356   6.159
 3677TIP3   OH210975   3.432   2.605   1.171
 3677TIP3    H110976   3.482   2.684   1.153
 3677TIP3    H210977   3.343   2.624   1.141
 3678TIP3   OH210978   3.486   6.230   0.499
 3678TIP3    H110979   3.573   6.269   0.512
 3678TIP3    H210980   3.477   6.166   0.570
 3679TIP3   OH210981   2.609   6.574   1.740
 3679TIP3    H110982   2.579   6.502   1.684
 3679TIP3    H210983   2.651   6.636   1.681
 3680TIP3   OH210984   7.208   2.920   2.931
 3680TIP3    H110985   7.208   2.833   2.969
 3680TIP3    H210986   7.188   2.979   3.004
 3681TIP3   OH210987   6.207   3.816   3.215
 3681TIP3    H110988   6.134   3.769   3.175
 3681TIP3    H210989   6.169   3.857   3.293
 3682TIP3   OH210990   0.819   6.726   0.589
 3682TIP3    H110991   0.825   6.767   0.503
 3682TIP3    H210992   0.772   6.790   0.643
 3683TIP3   OH210993   0.248   7.361   0.654
 3683TIP3    H110994   0.167   7.409   0.670
 3683TIP3    H210995   0.221   7.280   0.611
 3684TIP3   OH210996   0.325   1.981   6.739
 3684TIP3    H110997   0.266   1.998   6.666
 3684TIP3    H210998   0.393   1.924   6.703
 3685TIP3   OH210999   2.243   1.621   2.460
 3685TIP3    H111000   2.317   1.569   2.491
 3685TIP3    H211001   2.209   1.573   2.385
 3686TIP3   OH211002   5.156   1.242   2.228
 3686TIP3    H111003   5.198   1.195   2.157
 3686TIP3    H211004   5.195   1.330   2.226
 3687TIP3   OH211005   2.670   5.338   1.443
 3687TIP3    H111006   2.753   5.345   1.396
 3687TIP3    H211007   2.681   5.261   1.499
 3688TIP3   OH211008   5.408   5.826   0.974
 3688TIP3    H111009   5.345   5.897   0.985
 3688TIP3    H211010   5.405   5.806   0.881
 3689TIP3   OH211011   6.443   4.845   3.448
 3689TIP3    H111012   6.471   4.932   3.420
 3689TIP3    H211013   6.503   4.785   3.403
 3690TIP3   OH211014   5.900   6.586   3.449
 3690TIP3    H111015   5.946   6.539   3.380
 3690TIP3    H211016   5.846   6.520   3.492
 3691TIP3   OH211017   2.466   1.932   0.792
 3691TIP3    H111018   2.428   2.004   0.842
 3691TIP3    H211019   2.552   1.965   0.765
 3692TIP3   OH211020   1.199   0.818   6.199
 3692TIP3    H111021   1.197   0.913   6.189
 3692TIP3    H211022   1.201   0.784   6.110
 3693TIP3   OH211023   5.281   6.188   3.932
 3693TIP3    H111024   5.220   6.249   3.891
 3693TIP3    H211025   5.329   6.241   3.995
 3694TIP3   OH211026   0.569   1.506   3.442
 3694TIP3    H111027   0.648   1.530   3.491
 3694TIP3    H211028   0.579   1.412   3.425
 3695TIP3   OH211029   3.316   4.909   4.285
 3695TIP3    H111030   3.331   4.866   4.200
 3695TIP3    H211031   3.301   5.001   4.263
 3696TIP3   OH211032   5.277   1.911   6.004
 3696TIP3    H111033   5.212   1.955   6.059
 3696TIP3    H211034   5.237   1.826   5.983
 3697TIP3   OH211035   6.656   1.294   6.714
 3697TIP3    H111036   6.591   1.282   6.783
 3697TIP3    H211037   6.616   1.256   6.636
 3698TIP3   OH211038   0.895   6.356   2.660
 3698TIP3    H111039   0.851   6.397   2.585
 3698TIP3    H211040   0.877   6.263   2.651
 3699TIP3   OH211041   6.754   1.297   4.314
 3699TIP3    H111042   6.730   1.291   4.407
 3699TIP3    H211043   6.753   1.206   4.283
 3700TIP3   OH211044   2.402   3.053   5.484
 3700TIP3    H111045   2.440   2.978   5.531
 3700TIP3    H211046   2.356   3.102   5.552
 3701TIP3   OH211047   6.293   4.697   5.985
 3701TIP3    H111048   6.221   4.735   5.935
 3701TIP3    H211049   6.289   4.604   5.966
 3702TIP3   OH211050   2.830   4.198   6.660
 3702TIP3    H111051   2.844   4.104   6.671
 3702TIP3    H211052   2.737   4.211   6.681
 3703TIP3   OH211053   7.026   4.946   5.370
 3703TIP3    H111054   7.055   4.855   5.368
 3703TIP3    H211055   7.100   4.993   5.408
 3704TIP3   OH211056   0.980   7.616   3.933
 3704TIP3    H111057   1.030   7.658   4.002
 3704TIP3    H211058   0.991   7.522   3.948
 3705TIP3   OH211059   4.316   6.020   2.784
 3705TIP3    H111060   4.307   5.969   2.865
 3705TIP3    H211061   4.241   6.079   2.785
 3706TIP3   OH211062   4.509   0.359   1.997
 3706TIP3    H111063   4.463   0.378   2.079
 3706TIP3    H211064   4.553   0.441   1.975
 3707TIP3   OH211065   7.638   0.265   5.116
 3707TIP3    H111066   7.642   0.268   5.212
 3707TIP3    H211067   7.556   0.309   5.094
 3708TIP3   OH211068   7.018   0.613   4.659
 3708TIP3    H111069   6.999   0.681   4.723
 3708TIP3    H211070   6.948   0.621   4.594
 3709TIP3   OH211071   5.835   4.047   6.491
 3709TIP3    H111072   5.747   4.081   6.476
 3709TIP3    H211073   5.893   4.114   6.455
 3710TIP3   OH211074   6.891   5.382   3.732
 3710TIP3    H111075   6.863   5.471   3.711
 3710TIP3    H211076   6.943   5.355   3.656
 3711TIP3   OH211077   2.367   1.543   1.727
 3711TIP3    H111078   2.401   1.621   1.684
 3711TIP3    H211079   2.389   1.556   1.820
 3712TIP3   OH211080   8.213   5.558   5.951
 3712TIP3    H111081   8.277   5.593   6.013
 3712TIP3    H211082   8.173   5.636   5.912
 3713TIP3   OH211083   3.962   2.369   5.882
 3713TIP3    H111084   3.883   2.394   5.930
 3713TIP3    H211085   4.034   2.401   5.935
 3714TIP3   OH211086   3.156   7.628   5.516
 3714TIP3    H111087   3.172   7.722   5.520
 3714TIP3    H211088   3.061   7.621   5.506
 3715TIP3   OH211089   0.713   3.805   6.166
 3715TIP3    H111090   0.786   3.780   6.111
 3715TIP3    H211091   0.682   3.723   6.205
 3716TIP3   OH211092   3.014   6.277   5.598
 3716TIP3    H111093   3.054   6.257   5.683
 3716TIP3    H211094   2.957   6.352   5.615
 3717TIP3   OH211095   1.345   1.037   5.465
 3717TIP3    H111096   1.325   0.952   5.429
 3717TIP3    H211097   1.441   1.043   5.460
 3718TIP3   OH211098   5.333   7.517   5.086
 3718TIP3    H111099   5.260   7.551   5.034
 3718TIP3    H211100   5.294   7.496   5.171
 3719TIP3   OH211101   5.216   1.997   3.606
 3719TIP3    H111102   5.228   2.089   3.582
 3719TIP3    H211103   5.179   2.000   3.695
 3720TIP3   OH211104   6.648   5.648   2.167
 3720TIP3    H111105   6.690   5.734   2.157
 3720TIP3    H211106   6.721   5.586   2.167
 3721TIP3   OH211107   1.049   0.744   5.674
 3721TIP3    H111108   0.983   0.685   5.639
 3721TIP3    H211109   1.005   0.829   5.677
 3722TIP3   OH211110   0.517   6.380   6.557
 3722TIP3    H111111   0.478   6.348   6.476
 3722TIP3    H211112   0.602   6.416   6.531
 3723TIP3   OH211113   0.944   4.893   0.220
 3723TIP3    H111114   0.866   4.844   0.244
 3723TIP3    H211115   0.911   4.979   0.194
 3724TIP3   OH211116  -0.027   1.418   0.213
 3724TIP3    H111117   0.021   1.358   0.156
 3724TIP3    H211118   0.039   1.450   0.274
 3725TIP3   OH211119   8.115   5.078   4.901
 3725TIP3    H111120   8.196   5.083   4.851
 3725TIP3    H211121   8.057   5.143   4.859
 3726TIP3   OH211122   0.629   5.936   4.099
 3726TIP3    H111123   0.571   5.968   4.030
 3726TIP3    H211124   0.679   6.012   4.126
 3727TIP3   OH211125   5.812   5.029   4.312
 3727TIP3    H111126   5.907   5.023   4.326
 3727TIP3    H211127   5.781   5.086   4.382
 3728TIP3   OH211128   5.654   7.521   1.656
 3728TIP3    H111129   5.651   7.616   1.653
 3728TIP3    H211130   5.739   7.499   1.617
 3729TIP3   OH211131   3.109   4.954   0.395
 3729TIP3    H111132   3.030   4.944   0.448
 3729TIP3    H211133   3.177   4.981   0.458
 3730TIP3   OH211134   4.979   4.108   0.178
 3730TIP3    H111135   5.057   4.117   0.122
 3730TIP3    H211136   5.015   4.099   0.267
 3731TIP3   OH211137   6.314   1.467   1.659
 3731TIP3    H111138   6.326   1.404   1.587
 3731TIP3    H211139   6.219   1.481   1.663
 3732TIP3   OH211140   8.073   5.292   0.943
 3732TIP3    H111141   7.990   5.319   0.982
 3732TIP3    H211142   8.050   5.264   0.854
 3733TIP3   OH211143   3.451   7.494   2.470
 3733TIP3    H111144   3.479   7.562   2.408
 3733TIP3    H211145   3.506   7.419   2.450
 3734TIP3   OH211146   0.656   2.168   5.983
 3734TIP3    H111147   0.614   2.233   5.927
 3734TIP3    H211148   0.613   2.179   6.068
 3735TIP3   OH211149   0.701   1.106   1.647
 3735TIP3    H111150   0.793   1.119   1.667
 3735TIP3    H211151   0.667   1.056   1.721
 3736TIP3   OH211152   4.475   7.670   3.665
 3736TIP3    H111153   4.513   7.753   3.637
 3736TIP3    H211154   4.438   7.631   3.586
 3737TIP3   OH211155   3.716   3.368   5.529
 3737TIP3    H111156   3.750   3.440   5.583
 3737TIP3    H211157   3.707   3.406   5.441
 3738TIP3   OH211158   3.573   6.901   0.714
 3738TIP3    H111159   3.602   6.926   0.626
 3738TIP3    H211160   3.597   6.975   0.770
 3739TIP3   OH211161   5.324   1.668   6.207
 3739TIP3    H111162   5.305   1.577   6.186
 3739TIP3    H211163   5.239   1.706   6.230
 3740TIP3   OH211164   1.024   1.126   2.485
 3740TIP3    H111165   1.005   1.100   2.395
 3740TIP3    H211166   1.108   1.083   2.504
 3741TIP3   OH211167   7.103   5.885   2.986
 3741TIP3    H111168   7.012   5.854   2.987
 3741TIP3    H211169   7.141   5.850   3.066
 3742TIP3   OH211170   2.635   4.435   5.364
 3742TIP3    H111171   2.541   4.431   5.381
 3742TIP3    H211172   2.660   4.524   5.389
 3743TIP3   OH211173   8.151   2.848   4.134
 3743TIP3    H111174   8.067   2.890   4.154
 3743TIP3    H211175   8.128   2.772   4.082
 3744TIP3   OH211176   5.764   7.320   3.132
 3744TIP3    H111177   5.752   7.308   3.226
 3744TIP3    H211178   5.857   7.344   3.123
 3745TIP3   OH211179   5.278   2.336   6.554
 3745TIP3    H111180   5.357   2.367   6.511
 3745TIP3    H211181   5.273   2.388   6.634
 3746TIP3   OH211182   5.920   4.131   5.233
 3746TIP3    H111183   5.933   4.136   5.328
 3746TIP3    H211184   6.002   4.163   5.195
 3747TIP3   OH211185   4.169   2.445   5.393
 3747TIP3    H111186   4.109   2.378   5.362
 3747TIP3    H211187   4.151   2.453   5.486
 3748TIP3   OH211188   5.956   0.724   6.389
 3748TIP3    H111189   5.955   0.809   6.432
 3748TIP3    H211190   6.011   0.669   6.445
 3749TIP3   OH211191   1.900   4.503   1.943
 3749TIP3    H111192   1.991   4.477   1.926
 3749TIP3    H211193   1.849   4.427   1.917
 3750TIP3   OH211194   7.032   6.086   4.939
 3750TIP3    H111195   7.009   6.001   4.976
 3750TIP3    H211196   6.993   6.150   4.999
 3751TIP3   OH211197   5.459   3.225   5.173
 3751TIP3    H111198   5.408   3.144   5.171
 3751TIP3    H211199   5.446   3.262   5.086
 3752TIP3   OH211200   4.389   2.138   5.804
 3752TIP3    H111201   4.424   2.129   5.715
 3752TIP3    H211202   4.346   2.223   5.804
 3753TIP3   OH211203   0.845   6.945   2.692
 3753TIP3    H111204   0.817   7.034   2.674
 3753TIP3    H211205   0.886   6.915   2.611
 3754TIP3   OH211206   5.916   0.568   0.186
 3754TIP3    H111207   5.905   0.473   0.182
 3754TIP3    H211208   5.840   0.603   0.139
 3755TIP3   OH211209   7.539   6.028   5.943
 3755TIP3    H111210   7.631   6.042   5.918
 3755TIP3    H211211   7.543   5.959   6.009
 3756TIP3   OH211212   2.742   5.274   2.453
 3756TIP3    H111213   2.800   5.301   2.524
 3756TIP3    H211214   2.726   5.181   2.469
 3757TIP3   OH211215   0.526   0.894   6.472
 3757TIP3    H111216   0.541   0.836   6.397
 3757TIP3    H211217   0.567   0.849   6.546
 3758TIP3   OH211218   2.831   5.224   0.369
 3758TIP3    H111219   2.772   5.285   0.324
 3758TIP3    H211220   2.916   5.236   0.327
 3759TIP3   OH211221   2.914   2.148   3.495
 3759TIP3    H111222   2.936   2.156   3.588
 3759TIP3    H211223   2.996   2.122   3.453
 3760TIP3   OH211224   6.097   1.228   4.611
 3760TIP3    H111225   6.147   1.307   4.591
 3760TIP3    H211226   6.153   1.177   4.669
 3761TIP3   OH211227   2.349   3.216   2.181
 3761TIP3    H111228   2.282   3.226   2.249
 3761TIP3    H211229   2.347   3.298   2.132
 3762TIP3   OH211230   4.056   7.551   4.814
 3762TIP3    H111231   4.093   7.531   4.900
 3762TIP3    H211232   4.062   7.469   4.765
 3763TIP3   OH211233   1.053   3.651   3.394
 3763TIP3    H111234   1.021   3.736   3.423
 3763TIP3    H211235   0.976   3.608   3.356
 3764TIP3   OH211236   7.659   1.166   1.317
 3764TIP3    H111237   7.737   1.167   1.373
 3764TIP3    H211238   7.650   1.075   1.289
 3765TIP3   OH211239   4.658   0.675   3.089
 3765TIP3    H111240   4.614   0.719   3.161
 3765TIP3    H211241   4.631   0.584   3.095
 3766TIP3   OH211242   5.549   2.423   6.742
 3766TIP3    H111243   5.553   2.503   6.689
 3766TIP3    H211244   5.588   2.356   6.686
 3767TIP3   OH211245   4.002   5.792   0.303
 3767TIP3    H111246   4.030   5.796   0.395
 3767TIP3    H211247   3.917   5.749   0.306
 3768TIP3   OH211248   2.822   4.797   0.449
 3768TIP3    H111249   2.835   4.758   0.363
 3768TIP3    H211250   2.748   4.856   0.438
 3769TIP3   OH211251   8.119   1.952   5.244
 3769TIP3    H111252   8.099   1.861   5.225
 3769TIP3    H211253   8.094   1.999   5.164
 3770TIP3   OH211254   6.554   3.427   4.291
 3770TIP3    H111255   6.634   3.411   4.241
 3770TIP3    H211256   6.533   3.519   4.275
 3771TIP3   OH211257   2.573   4.702   3.936
 3771TIP3    H111258   2.569   4.654   4.019
 3771TIP3    H211259   2.570   4.794   3.962
 3772TIP3   OH211260   0.065   0.466   3.964
 3772TIP3    H111261   0.018   0.511   4.034
 3772TIP3    H211262   0.036   0.375   3.970
 3773TIP3   OH211263   2.787   1.206   5.242
 3773TIP3    H111264   2.786   1.302   5.249
 3773TIP3    H211265   2.702   1.178   5.277
 3774TIP3   OH211266   6.877   6.905   1.421
 3774TIP3    H111267   6.892   6.811   1.413
 3774TIP3    H211268   6.842   6.916   1.509
 3775TIP3   OH211269   2.180   4.874   1.152
 3775TIP3    H111270   2.171   4.963   1.186
 3775TIP3    H211271   2.187   4.886   1.057
 3776TIP3   OH211272   4.307   2.942   4.903
 3776TIP3    H111273   4.237   2.967   4.842
 3776TIP3    H211274   4.261   2.923   4.985
 3777TIP3   OH211275   7.918   3.432   1.000
 3777TIP3    H111276   7.954   3.520   1.004
 3777TIP3    H211277   7.823   3.444   1.003
 3778TIP3   OH211278   3.857   5.556   1.574
 3778TIP3    H111279   3.763   5.572   1.566
 3778TIP3    H211280   3.896   5.643   1.574
 3779TIP3   OH211281   2.572   7.234   5.921
 3779TIP3    H111282   2.656   7.274   5.896
 3779TIP3    H211283   2.525   7.224   5.839
 3780TIP3   OH211284   3.236   0.741   0.114
 3780TIP3    H111285   3.219   0.648   0.130
 3780TIP3    H211286   3.150   0.778   0.095
 3781TIP3   OH211287   1.096   0.844   1.986
 3781TIP3    H111288   1.164   0.779   2.001
 3781TIP3    H211289   1.044   0.843   2.066
 3782TIP3   OH211290   1.639   5.411   6.470
 3782TIP3    H111291   1.714   5.379   6.421
 3782TIP3    H211292   1.592   5.467   6.409
 3783TIP3   OH211293   3.810   1.262   0.821
 3783TIP3    H111294   3.826   1.193   0.885
 3783TIP3    H211295   3.723   1.294   0.843
 3784TIP3   OH211296   0.457   5.504   2.035
 3784TIP3    H111297   0.552   5.519   2.044
 3784TIP3    H211298   0.425   5.582   1.990
 3785TIP3   OH211299   5.297   2.309   0.493
 3785TIP3    H111300   5.304   2.217   0.516
 3785TIP3    H211301   5.250   2.349   0.566
 3786TIP3   OH211302   2.747   2.020   3.315
 3786TIP3    H111303   2.801   2.084   3.360
 3786TIP3    H211304   2.802   1.943   3.307
 3787TIP3   OH211305   0.983   1.018   3.116
 3787TIP3    H111306   0.926   1.013   3.193
 3787TIP3    H211307   1.039   1.093   3.133
 3788TIP3   OH211308   6.043   1.717   2.328
 3788TIP3    H111309   6.016   1.626   2.343
 3788TIP3    H211310   6.123   1.710   2.276
 3789TIP3   OH211311   7.633   0.017   0.771
 3789TIP3    H111312   7.575   0.089   0.746
 3789TIP3    H211313   7.703   0.059   0.820
 3790TIP3   OH211314   2.113   6.746   5.206
 3790TIP3    H111315   2.178   6.679   5.227
 3790TIP3    H211316   2.055   6.704   5.142
 3791TIP3   OH211317   2.853   7.100   2.546
 3791TIP3    H111318   2.827   7.144   2.628
 3791TIP3    H211319   2.770   7.069   2.509
 3792TIP3   OH211320   1.286   6.483   0.374
 3792TIP3    H111321   1.201   6.493   0.416
 3792TIP3    H211322   1.336   6.560   0.401
 3793TIP3   OH211323   0.093   2.564   0.205
 3793TIP3    H111324   0.102   2.529   0.294
 3793TIP3    H211325   0.032   2.504   0.161
 3794TIP3   OH211326   6.912   3.233   4.046
 3794TIP3    H111327   6.960   3.287   4.108
 3794TIP3    H211328   6.878   3.296   3.982
 3795TIP3   OH211329   7.543   5.553   6.016
 3795TIP3    H111330   7.512   5.579   5.930
 3795TIP3    H211331   7.573   5.635   6.056
 3796TIP3   OH211332   7.611   6.051   1.772
 3796TIP3    H111333   7.534   6.000   1.748
 3796TIP3    H211334   7.625   6.110   1.699
 3797TIP3   OH211335   4.305   6.149   4.957
 3797TIP3    H111336   4.339   6.062   4.977
 3797TIP3    H211337   4.211   6.137   4.944
 3798TIP3   OH211338   1.215   3.581   1.578
 3798TIP3    H111339   1.181   3.575   1.668
 3798TIP3    H211340   1.282   3.514   1.573
 3799TIP3   OH211341   7.318   3.583   6.658
 3799TIP3    H111342   7.262   3.640   6.710
 3799TIP3    H211343   7.398   3.574   6.709
 3800TIP3   OH211344   6.830   3.145   3.197
 3800TIP3    H111345   6.864   3.149   3.286
 3800TIP3    H211346   6.817   3.052   3.180
 3801TIP3   OH211347   4.755   0.172   1.511
 3801TIP3    H111348   4.814   0.246   1.523
 3801TIP3    H211349   4.680   0.192   1.566
 3802TIP3   OH211350   5.335   4.377   5.428
 3802TIP3    H111351   5.240   4.364   5.433
 3802TIP3    H211352   5.347   4.472   5.436
 3803TIP3   OH211353   1.262   4.959   3.747
 3803TIP3    H111354   1.244   5.019   3.820
 3803TIP3    H211355   1.348   4.987   3.715
 3804TIP3   OH211356   8.217   3.732   0.964
 3804TIP3    H111357   8.192   3.701   1.051
 3804TIP3    H211358   8.285   3.797   0.980
 3805TIP3   OH211359   2.049   0.897   4.201
 3805TIP3    H111360   2.043   0.834   4.129
 3805TIP3    H211361   2.121   0.955   4.176
 3806TIP3   OH211362   1.037   4.289   2.198
 3806TIP3    H111363   1.027   4.379   2.230
 3806TIP3    H211364   1.045   4.237   2.278
 3807TIP3   OH211365   6.110   0.953   2.190
 3807TIP3    H111366   6.123   0.864   2.155
 3807TIP3    H211367   6.196   0.994   2.182
 3808TIP3   OH211368   3.469   2.054   2.552
 3808TIP3    H111369   3.445   1.968   2.588
 3808TIP3    H211370   3.390   2.084   2.507
 3809TIP3   OH211371   3.164   4.897   5.469
 3809TIP3    H111372   3.125   4.982   5.490
 3809TIP3    H211373   3.201   4.909   5.382
 3810TIP3   OH211374   7.803   4.752   2.425
 3810TIP3    H111375   7.827   4.700   2.349
 3810TIP3    H211376   7.709   4.768   2.415
 3811TIP3   OH211377   2.925   2.106   1.255
 3811TIP3    H111378   3.010   2.141   1.227
 3811TIP3    H211379   2.944   2.017   1.285
 3812TIP3   OH211380   5.304   0.132   5.623
 3812TIP3    H111381   5.321   0.063   5.687
 3812TIP3    H211382   5.390   0.161   5.595
 3813TIP3   OH211383   3.012   4.150   3.723
 3813TIP3    H111384   3.028   4.212   3.652
 3813TIP3    H211385   3.079   4.082   3.712
 3814TIP3   OH211386   5.771   2.203   1.974
 3814TIP3    H111387   5.760   2.140   2.045
 3814TIP3    H211388   5.703   2.180   1.911
 3815TIP3   OH211389   4.558   3.686   2.090
 3815TIP3    H111390   4.564   3.761   2.149
 3815TIP3    H211391   4.542   3.611   2.147
 3816TIP3   OH211392   3.531   2.186   4.649
 3816TIP3    H111393   3.505   2.095   4.636
 3816TIP3    H211394   3.449   2.233   4.663
 3817TIP3   OH211395   0.311   4.090   2.731
 3817TIP3    H111396   0.306   4.161   2.795
 3817TIP3    H211397   0.221   4.058   2.724
 3818TIP3   OH211398   7.543   3.404   6.097
 3818TIP3    H111399   7.546   3.389   6.191
 3818TIP3    H211400   7.582   3.490   6.085
 3819TIP3   OH211401   8.035   6.653   6.489
 3819TIP3    H111402   8.050   6.665   6.583
 3819TIP3    H211403   7.992   6.734   6.462
 3820TIP3   OH211404   1.889   2.852   1.881
 3820TIP3    H111405   1.925   2.898   1.956
 3820TIP3    H211406   1.807   2.814   1.913
 3821TIP3   OH211407   5.445   5.495   6.516
 3821TIP3    H111408   5.453   5.449   6.600
 3821TIP3    H211409   5.400   5.577   6.538
 3822TIP3   OH211410   3.119   5.879   5.281
 3822TIP3    H111411   3.058   5.924   5.340
 3822TIP3    H211412   3.197   5.864   5.335
 3823TIP3   OH211413   6.479   0.213   6.377
 3823TIP3    H111414   6.496   0.307   6.364
 3823TIP3    H211415   6.557   0.170   6.343
 3824TIP3   OH211416   5.359   6.857   4.053
 3824TIP3    H111417   5.300   6.885   3.984
 3824TIP3    H211418   5.304   6.850   4.131
 3825TIP3   OH211419   5.367   1.909   4.200
 3825TIP3    H111420   5.309   1.981   4.175
 3825TIP3    H211421   5.319   1.830   4.175
 3826TIP3   OH211422   1.221   4.304   1.948
 3826TIP3    H111423   1.263   4.296   1.863
 3826TIP3    H211424   1.147   4.363   1.932
 3827TIP3   OH211425   4.932   4.980   6.556
 3827TIP3    H111426   4.846   5.000   6.595
 3827TIP3    H211427   4.986   4.952   6.630
 3828TIP3   OH211428   8.161   4.667   0.339
 3828TIP3    H111429   8.255   4.650   0.340
 3828TIP3    H211430   8.131   4.645   0.427
 3829TIP3   OH211431   4.550   3.229   2.097
 3829TIP3    H111432   4.533   3.319   2.125
 3829TIP3    H211433   4.477   3.207   2.039
 3830TIP3   OH211434   0.044   5.610   2.521
 3830TIP3    H111435   0.111   5.625   2.454
 3830TIP3    H211436   0.048   5.516   2.538
 3831TIP3   OH211437   3.694   0.882   6.360
 3831TIP3    H111438   3.789   0.884   6.351
 3831TIP3    H211439   3.675   0.795   6.396
 3832TIP3   OH211440   6.084   5.796   2.136
 3832TIP3    H111441   6.174   5.828   2.138
 3832TIP3    H211442   6.034   5.867   2.097
 3833TIP3   OH211443   1.422   1.274   5.629
 3833TIP3    H111444   1.463   1.191   5.603
 3833TIP3    H211445   1.355   1.289   5.562
 3834TIP3   OH211446   0.986   0.147   6.351
 3834TIP3    H111447   0.964   0.054   6.340
 3834TIP3    H211448   0.961   0.167   6.441
 3835TIP3   OH211449   8.201   7.484   1.612
 3835TIP3    H111450   8.114   7.453   1.638
 3835TIP3    H211451   8.220   7.555   1.673
 3836TIP3   OH211452   7.536   1.768   4.773
 3836TIP3    H111453   7.576   1.781   4.859
 3836TIP3    H211454   7.475   1.695   4.787
 3837TIP3   OH211455   7.331   3.222   6.431
 3837TIP3    H111456   7.370   3.155   6.376
 3837TIP3    H211457   7.258   3.178   6.475
 3838TIP3   OH211458   1.684   3.944   6.508
 3838TIP3    H111459   1.694   4.011   6.575
 3838TIP3    H211460   1.769   3.941   6.464
 3839TIP3   OH211461   6.589   4.113   0.195
 3839TIP3    H111462   6.595   4.205   0.219
 3839TIP3    H211463   6.557   4.069   0.274
 3840TIP3   OH211464   3.641   7.098   0.883
 3840TIP3    H111465   3.683   7.170   0.838
 3840TIP3    H211466   3.713   7.048   0.921
 3841TIP3   OH211467   2.259   0.830   1.174
 3841TIP3    H111468   2.195   0.760   1.164
 3841TIP3    H211469   2.283   0.827   1.267
 3842TIP3   OH211470   3.559   6.868   6.327
 3842TIP3    H111471   3.615   6.814   6.271
 3842TIP3    H211472   3.577   6.837   6.416
 3843TIP3   OH211473   1.690   2.072   0.745
 3843TIP3    H111474   1.678   2.077   0.840
 3843TIP3    H211475   1.602   2.085   0.709
 3844TIP3   OH211476   5.166   3.281   6.323
 3844TIP3    H111477   5.095   3.238   6.276
 3844TIP3    H211478   5.240   3.279   6.263
 3845TIP3   OH211479   5.079   1.025   1.201
 3845TIP3    H111480   4.985   1.034   1.217
 3845TIP3    H211481   5.113   0.982   1.280
 3846TIP3   OH211482   5.347   5.755   6.500
 3846TIP3    H111483   5.308   5.840   6.480
 3846TIP3    H211484   5.373   5.719   6.415
 3847TIP3   OH211485   4.824   3.157   4.410
 3847TIP3    H111486   4.881   3.081   4.422
 3847TIP3    H211487   4.792   3.148   4.320
 3848TIP3   OH211488   5.058   6.853   5.597
 3848TIP3    H111489   5.012   6.776   5.629
 3848TIP3    H211490   5.151   6.832   5.609
 3849TIP3   OH211491   6.882   3.089   1.682
 3849TIP3    H111492   6.880   2.993   1.682
 3849TIP3    H211493   6.854   3.113   1.771
 3850TIP3   OH211494   7.560   3.986   2.050
 3850TIP3    H111495   7.483   4.037   2.076
 3850TIP3    H211496   7.524   3.916   1.995
 3851TIP3   OH211497   0.733   6.925   2.214
 3851TIP3    H111498   0.693   7.008   2.238
 3851TIP3    H211499   0.787   6.901   2.289
 3852TIP3   OH211500   0.940   0.539   1.693
 3852TIP3    H111501   0.910   0.586   1.615
 3852TIP3    H211502   0.944   0.606   1.761
 3853TIP3   OH211503   4.829   0.797   4.179
 3853TIP3    H111504   4.856   0.706   4.171
 3853TIP3    H211505   4.744   0.801   4.135
 3854TIP3   OH211506   8.193   0.563   4.783
 3854TIP3    H111507   8.288   0.565   4.781
 3854TIP3    H211508   8.169   0.488   4.727
 3855TIP3   OH211509   2.932   2.331   0.024
 3855TIP3    H111510   3.010   2.370  -0.014
 3855TIP3    H211511   2.954   2.318   0.117
 3856TIP3   OH211512   0.907   6.153   1.389
 3856TIP3    H111513   0.945   6.168   1.476
 3856TIP3    H211514   0.976   6.109   1.340
 3857TIP3   OH211515   6.092   0.232   3.114
 3857TIP3    H111516   6.094   0.325   3.137
 3857TIP3    H211517   6.141   0.227   3.031
 3858TIP3   OH211518   0.623   2.016   5.123
 3858TIP3    H111519   0.650   2.001   5.033
 3858TIP3    H211520   0.643   2.109   5.139
 3859TIP3   OH211521   5.113   5.210   6.570
 3859TIP3    H111522   5.094   5.283   6.629
 3859TIP3    H211523   5.033   5.158   6.570
 3860TIP3   OH211524   0.346   2.046   4.452
 3860TIP3    H111525   0.441   2.029   4.449
 3860TIP3    H211526   0.332   2.092   4.534
 3861TIP3   OH211527   4.592   5.030   1.363
 3861TIP3    H111528   4.622   4.958   1.418
 3861TIP3    H211529   4.592   5.106   1.422
 3862TIP3   OH211530   8.234   5.166   5.358
 3862TIP3    H111531   8.224   5.260   5.371
 3862TIP3    H211532   8.268   5.133   5.441
 3863TIP3   OH211533   5.048   7.181   4.333
 3863TIP3    H111534   5.015   7.270   4.347
 3863TIP3    H211535   5.051   7.171   4.238
 3864TIP3   OH211536   6.821   3.452   5.084
 3864TIP3    H111537   6.894   3.505   5.051
 3864TIP3    H211538   6.843   3.436   5.176
 3865TIP3   OH211539   2.562   4.976   3.979
 3865TIP3    H111540   2.498   5.038   3.946
 3865TIP3    H211541   2.555   4.982   4.074
 3866TIP3   OH211542   3.804   7.185   3.759
 3866TIP3    H111543   3.899   7.195   3.758
 3866TIP3    H211544   3.771   7.265   3.798
 3867TIP3   OH211545   0.826   3.738   1.586
 3867TIP3    H111546   0.903   3.690   1.556
 3867TIP3    H211547   0.755   3.675   1.580
 3868TIP3   OH211548   5.089   7.668   6.697
 3868TIP3    H111549   5.094   7.572   6.693
 3868TIP3    H211550   5.031   7.692   6.624
 3869TIP3   OH211551   4.615   5.703   5.299
 3869TIP3    H111552   4.656   5.787   5.276
 3869TIP3    H211553   4.594   5.663   5.215
 3870TIP3   OH211554   1.035   1.482   3.667
 3870TIP3    H111555   1.052   1.524   3.751
 3870TIP3    H211556   1.057   1.390   3.682
 3871TIP3   OH211557   0.307   2.506   3.494
 3871TIP3    H111558   0.249   2.489   3.569
 3871TIP3    H211559   0.378   2.559   3.529
 3872TIP3   OH211560   5.822   5.893   4.487
 3872TIP3    H111561   5.763   5.921   4.557
 3872TIP3    H211562   5.900   5.861   4.532
 3873TIP3   OH211563   2.627   0.839   3.210
 3873TIP3    H111564   2.551   0.808   3.259
 3873TIP3    H211565   2.612   0.933   3.198
 3874TIP3   OH211566   6.506   4.955   1.106
 3874TIP3    H111567   6.458   4.872   1.098
 3874TIP3    H211568   6.526   4.961   1.200
 3875TIP3   OH211569   0.484   1.291   1.914
 3875TIP3    H111570   0.509   1.203   1.885
 3875TIP3    H211571   0.424   1.322   1.846
 3876TIP3   OH211572   1.848   4.392   5.982
 3876TIP3    H111573   1.893   4.364   6.062
 3876TIP3    H211574   1.813   4.312   5.944
 3877TIP3   OH211575   5.420   0.051   3.574
 3877TIP3    H111576   5.449  -0.032   3.536
 3877TIP3    H211577   5.449   0.048   3.665
 3878TIP3   OH211578   4.763   2.058   0.233
 3878TIP3    H111579   4.783   1.977   0.186
 3878TIP3    H211580   4.677   2.043   0.271
 3879TIP3   OH211581   3.111   4.185   1.522
 3879TIP3    H111582   3.094   4.197   1.615
 3879TIP3    H211583   3.139   4.272   1.492
 3880TIP3   OH211584   4.489   4.497   2.163
 3880TIP3    H111585   4.458   4.500   2.254
 3880TIP3    H211586   4.538   4.415   2.158
 3881TIP3   OH211587   4.249   3.719   2.931
 3881TIP3    H111588   4.297   3.742   2.852
 3881TIP3    H211589   4.161   3.755   2.917
 3882TIP3   OH211590   2.570   4.193   6.459
 3882TIP3    H111591   2.640   4.130   6.473
 3882TIP3    H211592   2.599   4.272   6.506
 3883TIP3   OH211593   0.741   4.254   0.109
 3883TIP3    H111594   0.655   4.297   0.119
 3883TIP3    H211595   0.756   4.252   0.015
 3884TIP3   OH211596   6.618   5.504   3.711
 3884TIP3    H111597   6.535   5.546   3.730
 3884TIP3    H211598   6.674   5.574   3.677
 3885TIP3   OH211599   2.671   7.177   0.111
 3885TIP3    H111600   2.609   7.151   0.179
 3885TIP3    H211601   2.640   7.134   0.032
 3886TIP3   OH211602   1.796   6.535   0.045
 3886TIP3    H111603   1.848   6.517   0.124
 3886TIP3    H211604   1.739   6.608   0.070
 3887TIP3   OH211605   2.040   7.747   3.726
 3887TIP3    H111606   2.025   7.667   3.776
 3887TIP3    H211607   2.061   7.717   3.638
 3888TIP3   OH211608   0.058   0.524   0.510
 3888TIP3    H111609   0.140   0.560   0.476
 3888TIP3    H211610  -0.003   0.598   0.507
 3889TIP3   OH211611   0.237   3.887   6.009
 3889TIP3    H111612   0.277   3.803   5.988
 3889TIP3    H211613   0.205   3.877   6.099
 3890TIP3   OH211614   4.721   2.028   5.304
 3890TIP3    H111615   4.667   2.087   5.252
 3890TIP3    H211616   4.714   2.062   5.393
 3891TIP3   OH211617   2.088   0.642   4.322
 3891TIP3    H111618   2.090   0.723   4.270
 3891TIP3    H211619   2.180   0.620   4.335
 3892TIP3   OH211620   4.184   4.978   1.968
 3892TIP3    H111621   4.242   5.042   1.927
 3892TIP3    H211622   4.233   4.949   2.046
 3893TIP3   OH211623   1.239   4.906   6.612
 3893TIP3    H111624   1.244   4.912   6.708
 3893TIP3    H211625   1.315   4.853   6.587
 3894TIP3   OH211626   2.031   1.897   4.224
 3894TIP3    H111627   2.111   1.862   4.185
 3894TIP3    H211628   1.978   1.819   4.245
 3895TIP3   OH211629   3.612   2.085   1.294
 3895TIP3    H111630   3.550   2.153   1.266
 3895TIP3    H211631   3.683   2.090   1.231
 3896TIP3   OH211632   3.221   2.917   1.835
 3896TIP3    H111633   3.264   2.986   1.885
 3896TIP3    H211634   3.228   2.946   1.744
 3897TIP3   OH211635   0.490   5.318   6.660
 3897TIP3    H111636   0.410   5.354   6.698
 3897TIP3    H211637   0.460   5.263   6.588
 3898TIP3   OH211638   5.871   6.096   0.729
 3898TIP3    H111639   5.870   6.003   0.752
 3898TIP3    H211640   5.838   6.140   0.807
 3899TIP3   OH211641   1.200   7.726   0.427
 3899TIP3    H111642   1.196   7.750   0.520
 3899TIP3    H211643   1.160   7.639   0.424
 3900TIP3   OH211644   4.686   4.943   0.830
 3900TIP3    H111645   4.679   5.025   0.780
 3900TIP3    H211646   4.726   4.881   0.770
 3901TIP3   OH211647   4.516   2.435   3.886
 3901TIP3    H111648   4.441   2.494   3.891
 3901TIP3    H211649   4.486   2.354   3.927
 3902TIP3   OH211650   4.473   2.148   0.319
 3902TIP3    H111651   4.443   2.236   0.343
 3902TIP3    H211652   4.393   2.096   0.313
 3903TIP3   OH211653   2.913   0.566   2.290
 3903TIP3    H111654   2.840   0.570   2.228
 3903TIP3    H211655   2.986   0.532   2.238
 3904TIP3   OH211656   8.155   6.400   1.591
 3904TIP3    H111657   8.177   6.312   1.622
 3904TIP3    H211658   8.083   6.428   1.647
 3905TIP3   OH211659   3.581   3.586   3.094
 3905TIP3    H111660   3.569   3.606   3.001
 3905TIP3    H211661   3.614   3.496   3.096
 3906TIP3   OH211662   4.172   3.931   6.685
 3906TIP3    H111663   4.104   3.871   6.652
 3906TIP3    H211664   4.212   3.967   6.605
 3907TIP3   OH211665   0.209   1.499   5.899
 3907TIP3    H111666   0.278   1.483   5.835
 3907TIP3    H211667   0.129   1.464   5.857
 3908TIP3   OH211668   4.015  -0.039   0.886
 3908TIP3    H111669   4.087   0.010   0.925
 3908TIP3    H211670   3.996   0.006   0.804
 3909TIP3   OH211671   4.345   7.329   4.678
 3909TIP3    H111672   4.416   7.314   4.739
 3909TIP3    H211673   4.382   7.309   4.592
 3910TIP3   OH211674   2.449   7.188   3.771
 3910TIP3    H111675   2.399   7.174   3.852
 3910TIP3    H211676   2.430   7.112   3.717
 3911TIP3   OH211677   8.141   0.773   3.253
 3911TIP3    H111678   8.119   0.865   3.240
 3911TIP3    H211679   8.057   0.727   3.250
 3912TIP3   OH211680   6.369   4.090   3.387
 3912TIP3    H111681   6.443   4.088   3.448
 3912TIP3    H211682   6.292   4.095   3.443
 3913TIP3   OH211683   1.885   3.718   1.378
 3913TIP3    H111684   1.816   3.652   1.373
 3913TIP3    H211685   1.876   3.770   1.299
 3914TIP3   OH211686   2.848   0.355   5.032
 3914TIP3    H111687   2.933   0.399   5.039
 3914TIP3    H211688   2.811   0.360   5.120
 3915TIP3   OH211689   5.526   1.934   2.719
 3915TIP3    H111690   5.564   2.000   2.662
 3915TIP3    H211691   5.433   1.957   2.723
 3916TIP3   OH211692   7.338   2.732   0.305
 3916TIP3    H111693   7.407   2.752   0.369
 3916TIP3    H211694   7.374   2.660   0.254
 3917TIP3   OH211695   4.825   5.768   5.540
 3917TIP3    H111696   4.735   5.760   5.510
 3917TIP3    H211697   4.828   5.717   5.621
 3918TIP3   OH211698   5.005   1.378   3.840
 3918TIP3    H111699   4.923   1.424   3.860
 3918TIP3    H211700   5.064   1.405   3.910
 3919TIP3   OH211701   7.742   7.293   4.791
 3919TIP3    H111702   7.712   7.342   4.867
 3919TIP3    H211703   7.708   7.204   4.805
 3920TIP3   OH211704   4.717   3.602   3.589
 3920TIP3    H111705   4.781   3.543   3.629
 3920TIP3    H211706   4.654   3.620   3.659
 3921TIP3   OH211707   3.294   4.023   5.858
 3921TIP3    H111708   3.373   4.050   5.906
 3921TIP3    H211709   3.325   4.004   5.770
 3922TIP3   OH211710   7.168   3.583   5.842
 3922TIP3    H111711   7.260   3.557   5.852
 3922TIP3    H211712   7.152   3.643   5.914
 3923TIP3   OH211713   4.851   4.618   4.936
 3923TIP3    H111714   4.813   4.644   4.852
 3923TIP3    H211715   4.923   4.680   4.950
 3924TIP3   OH211716   0.531   7.580   4.043
 3924TIP3    H111717   0.601   7.618   4.097
 3924TIP3    H211718   0.576   7.519   3.985
 3925TIP3   OH211719   6.386   4.288   1.892
 3925TIP3    H111720   6.297   4.257   1.907
 3925TIP3    H211721   6.434   4.211   1.862
 3926TIP3   OH211722   0.472   1.978   2.188
 3926TIP3    H111723   0.407   2.046   2.202
 3926TIP3    H211724   0.424   1.906   2.148
 3927TIP3   OH211725   8.024   7.636   1.892
 3927TIP3    H111726   8.025   7.546   1.859
 3927TIP3    H211727   8.042   7.690   1.816
 3928TIP3   OH211728   2.210   5.670   0.616
 3928TIP3    H111729   2.238   5.739   0.677
 3928TIP3    H211730   2.193   5.594   0.671
 3929TIP3   OH211731   5.838   1.196   1.113
 3929TIP3    H111732   5.805   1.154   1.192
 3929TIP3    H211733   5.770   1.180   1.047
 3930TIP3   OH211734   0.265   4.317   1.077
 3930TIP3    H111735   0.317   4.397   1.070
 3930TIP3    H211736   0.327   4.251   1.110
 3931TIP3   OH211737   0.911   0.569   3.602
 3931TIP3    H111738   0.858   0.506   3.552
 3931TIP3    H211739   0.985   0.517   3.635
 3932TIP3   OH211740   2.570   3.369   5.056
 3932TIP3    H111741   2.641   3.377   4.992
 3932TIP3    H211742   2.547   3.460   5.077
 3933TIP3   OH211743   5.916   2.035   4.958
 3933TIP3    H111744   5.898   1.978   5.033
 3933TIP3    H211745   5.948   2.117   4.997
 3934TIP3   OH211746   3.857   3.389   4.197
 3934TIP3    H111747   3.761   3.380   4.197
 3934TIP3    H211748   3.873   3.481   4.217
 3935TIP3   OH211749   4.372   5.257   6.219
 3935TIP3    H111750   4.304   5.324   6.221
 3935TIP3    H211751   4.393   5.247   6.126
 3936TIP3   OH211752   4.486   4.270   4.871
 3936TIP3    H111753   4.491   4.336   4.801
 3936TIP3    H211754   4.444   4.195   4.830
 3937TIP3   OH211755   7.391   5.826   1.307
 3937TIP3    H111756   7.332   5.792   1.240
 3937TIP3    H211757   7.410   5.916   1.279
 3938TIP3   OH211758   4.801   1.017   2.440
 3938TIP3    H111759   4.731   0.958   2.464
 3938TIP3    H211760   4.809   1.077   2.514
 3939TIP3   OH211761   4.571   1.126   4.510
 3939TIP3    H111762   4.599   1.138   4.600
 3939TIP3    H211763   4.519   1.205   4.490
 3940TIP3   OH211764   1.006   3.418   0.385
 3940TIP3    H111765   1.091   3.375   0.392
 3940TIP3    H211766   0.991   3.455   0.472
 3941TIP3   OH211767   1.014   7.329   1.337
 3941TIP3    H111768   0.921   7.307   1.345
 3941TIP3    H211769   1.021   7.371   1.251
 3942TIP3   OH211770   6.025   5.001   4.551
 3942TIP3    H111771   6.045   5.012   4.458
 3942TIP3    H211772   6.045   4.910   4.570
 3943TIP3   OH211773   5.168   4.511   0.381
 3943TIP3    H111774   5.249   4.460   0.381
 3943TIP3    H211775   5.160   4.543   0.291
 3944TIP3   OH211776   5.429   3.168   4.214
 3944TIP3    H111777   5.500   3.223   4.182
 3944TIP3    H211778   5.446   3.159   4.308
 3945TIP3   OH211779   3.365   7.053   5.861
 3945TIP3    H111780   3.353   7.145   5.887
 3945TIP3    H211781   3.281   7.028   5.821
 3946TIP3   OH211782   6.323   3.615   6.687
 3946TIP3    H111783   6.347   3.611   6.780
 3946TIP3    H211784   6.278   3.533   6.670
 3947TIP3   OH211785   7.865   5.579   5.893
 3947TIP3    H111786   7.927   5.649   5.874
 3947TIP3    H211787   7.822   5.562   5.810
 3948TIP3   OH211788   4.546   5.635   5.040
 3948TIP3    H111789   4.602   5.685   4.981
 3948TIP3    H211790   4.471   5.610   4.986
 3949TIP3   OH211791   5.348   0.845   2.672
 3949TIP3    H111792   5.426   0.901   2.671
 3949TIP3    H211793   5.306   0.865   2.756
 3950TIP3   OH211794   7.657   7.701   1.071
 3950TIP3    H111795   7.667   7.726   1.163
 3950TIP3    H211796   7.572   7.737   1.045
 3951TIP3   OH211797   7.342   6.587   4.738
 3951TIP3    H111798   7.288   6.600   4.660
 3951TIP3    H211799   7.407   6.522   4.711
 3952TIP3   OH211800   7.980   4.158   2.149
 3952TIP3    H111801   8.025   4.080   2.184
 3952TIP3    H211802   8.012   4.165   2.059
 3953TIP3   OH211803   2.791   0.529   4.839
 3953TIP3    H111804   2.712   0.502   4.792
 3953TIP3    H211805   2.807   0.458   4.900
 3954TIP3   OH211806   2.169   5.129   2.881
 3954TIP3    H111807   2.096   5.185   2.856
 3954TIP3    H211808   2.247   5.176   2.850
 3955TIP3   OH211809   7.126   2.982   6.185
 3955TIP3    H111810   7.044   3.027   6.165
 3955TIP3    H211811   7.134   2.988   6.280
 3956TIP3   OH211812   1.612   1.513   5.343
 3956TIP3    H111813   1.604   1.448   5.413
 3956TIP3    H211814   1.617   1.597   5.389
 3957TIP3   OH211815   4.128   2.378   1.191
 3957TIP3    H111816   4.125   2.396   1.285
 3957TIP3    H211817   4.040   2.401   1.159
 3958TIP3   OH211818   1.287   7.273   2.803
 3958TIP3    H111819   1.214   7.278   2.865
 3958TIP3    H211820   1.365   7.274   2.859
 3959TIP3   OH211821   6.520   4.634   4.520
 3959TIP3    H111822   6.507   4.721   4.482
 3959TIP3    H211823   6.433   4.609   4.552
 3960TIP3   OH211824   6.938   3.211   2.700
 3960TIP3    H111825   6.855   3.179   2.735
 3960TIP3    H211826   6.913   3.285   2.645
 3961TIP3   OH211827   1.961   2.462   6.727
 3961TIP3    H111828   1.981   2.542   6.679
 3961TIP3    H211829   2.027   2.458   6.796
 3962TIP3   OH211830   1.888   7.118   3.490
 3962TIP3    H111831   1.882   7.107   3.395
 3962TIP3    H211832   1.955   7.185   3.502
 3963TIP3   OH211833   6.133   0.974   1.097
 3963TIP3    H111834   6.196   0.905   1.118
 3963TIP3    H211835   6.054   0.927   1.071
 3964TIP3   OH211836   1.582   4.035   5.581
 3964TIP3    H111837   1.545   4.080   5.505
 3964TIP3    H211838   1.608   3.950   5.548
 3965TIP3   OH211839   5.259   3.813   0.577
 3965TIP3    H111840   5.302   3.731   0.552
 3965TIP3    H211841   5.285   3.876   0.510
 3966TIP3   OH211842   5.721   4.422   3.400
 3966TIP3    H111843   5.642   4.386   3.440
 3966TIP3    H211844   5.793   4.380   3.447
 3967TIP3   OH211845   6.861   7.368   1.141
 3967TIP3    H111846   6.898   7.438   1.086
 3967TIP3    H211847   6.821   7.307   1.079
 3968TIP3   OH211848   5.013   3.798   5.082
 3968TIP3    H111849   5.004   3.892   5.064
 3968TIP3    H211850   4.924   3.767   5.097
 3969TIP3   OH211851   1.338   4.619   6.043
 3969TIP3    H111852   1.272   4.559   6.077
 3969TIP3    H211853   1.354   4.681   6.114
 3970TIP3   OH211854   8.272   4.186   4.128
 3970TIP3    H111855   8.211   4.115   4.147
 3970TIP3    H211856   8.338   4.180   4.198
 3971TIP3   OH211857   0.871   5.509   0.757
 3971TIP3    H111858   0.887   5.602   0.773
 3971TIP3    H211859   0.917   5.490   0.675
 3972TIP3   OH211860   3.165   7.575   6.737
 3972TIP3    H111861   3.111   7.541   6.665
 3972TIP3    H211862   3.217   7.645   6.697
 3973TIP3   OH211863   6.975   7.788   4.083
 3973TIP3    H111864   6.961   7.697   4.111
 3973TIP3    H211865   6.941   7.792   3.994
 3974TIP3   OH211866   4.906   1.582   2.699
 3974TIP3    H111867   4.925   1.647   2.632
 3974TIP3    H211868   4.812   1.591   2.716
 3975TIP3   OH211869   7.636   3.131   5.255
 3975TIP3    H111870   7.652   3.197   5.323
 3975TIP3    H211871   7.543   3.139   5.236
 3976TIP3   OH211872   2.553   2.213   4.284
 3976TIP3    H111873   2.585   2.271   4.216
 3976TIP3    H211874   2.586   2.250   4.366
 3977TIP3   OH211875   2.143   5.920   1.997
 3977TIP3    H111876   2.223   5.941   1.949
 3977TIP3    H211877   2.074   5.922   1.931
 3978TIP3   OH211878   5.545   3.488   0.104
 3978TIP3    H111879   5.557   3.583   0.103
 3978TIP3    H211880   5.585   3.458   0.023
 3979TIP3   OH211881   2.784   3.459   1.587
 3979TIP3    H111882   2.715   3.393   1.576
 3979TIP3    H211883   2.849   3.417   1.643
 3980TIP3   OH211884   6.781   2.226   3.558
 3980TIP3    H111885   6.719   2.201   3.490
 3980TIP3    H211886   6.738   2.204   3.640
 3981TIP3   OH211887   1.446   5.312   6.180
 3981TIP3    H111888   1.411   5.251   6.115
 3981TIP3    H211889   1.392   5.390   6.172
 3982TIP3   OH211890   3.714   2.169   3.794
 3982TIP3    H111891   3.739   2.244   3.848
 3982TIP3    H211892   3.620   2.179   3.781
 3983TIP3   OH211893   4.553   6.901   6.449
 3983TIP3    H111894   4.647   6.918   6.444
 3983TIP3    H211895   4.516   6.953   6.378
 3984TIP3   OH211896   0.544   4.711   5.163
 3984TIP3    H111897   0.549   4.711   5.067
 3984TIP3    H211898   0.560   4.803   5.187
 3985TIP3   OH211899   3.531   7.172   5.054
 3985TIP3    H111900   3.530   7.249   4.997
 3985TIP3    H211901   3.453   7.182   5.109
 3986TIP3   OH211902   8.206   4.385   5.198
 3986TIP3    H111903   8.117   4.383   5.162
 3986TIP3    H211904   8.229   4.478   5.198
 3987TIP3   OH211905   2.115   2.058   5.552
 3987TIP3    H111906   2.073   2.105   5.481
 3987TIP3    H211907   2.195   2.106   5.570
 3988TIP3   OH211908   0.907   4.174   4.778
 3988TIP3    H111909   0.911   4.241   4.709
 3988TIP3    H211910   0.986   4.188   4.830
 3989TIP3   OH211911   2.469   1.324   2.759
 3989TIP3    H111912   2.434   1.243   2.722
 3989TIP3    H211913   2.488   1.303   2.851
 3990TIP3   OH211914   0.944   2.439   5.997
 3990TIP3    H111915   0.920   2.516   6.048
 3990TIP3    H211916   0.963   2.473   5.909
 3991TIP3   OH211917   6.496   4.195   2.896
 3991TIP3    H111918   6.432   4.161   2.835
 3991TIP3    H211919   6.473   4.155   2.980
 3992TIP3   OH211920   6.581   7.836   1.027
 3992TIP3    H111921   6.636   7.772   1.072
 3992TIP3    H211922   6.548   7.893   1.097
 3993TIP3   OH211923   1.639   6.272   0.629
 3993TIP3    H111924   1.666   6.361   0.605
 3993TIP3    H211925   1.547   6.267   0.602
 3994TIP3   OH211926   7.846   3.488   4.567
 3994TIP3    H111927   7.841   3.451   4.479
 3994TIP3    H211928   7.940   3.504   4.580
 3995TIP3   OH211929   1.379   3.197   0.163
 3995TIP3    H111930   1.406   3.282   0.129
 3995TIP3    H211931   1.342   3.215   0.249
 3996TIP3   OH211932   6.930   0.293   3.471
 3996TIP3    H111933   7.015   0.308   3.513
 3996TIP3    H211934   6.899   0.210   3.508
 3997TIP3   OH211935   5.237   7.815   3.370
 3997TIP3    H111936   5.260   7.737   3.320
 3997TIP3    H211937   5.304   7.820   3.439
 3998TIP3   OH211938   0.279   2.491   1.901
 3998TIP3    H111939   0.355   2.447   1.861
 3998TIP3    H211940   0.261   2.565   1.843
 3999TIP3   OH211941   4.226   2.033   3.854
 3999TIP3    H111942   4.226   1.973   3.780
 3999TIP3    H211943   4.141   2.076   3.850
 4000TIP3   OH211944   1.541   7.525   0.895
 4000TIP3    H111945   1.633   7.548   0.884
 4000TIP3    H211946   1.534   7.435   0.862
 4001TIP3   OH211947   5.877   0.049   4.886
 4001TIP3    H111948   5.860   0.119   4.949
 4001TIP3    H211949   5.816   0.065   4.814
 4002TIP3   OH211950   2.082   4.363   6.751
 4002TIP3    H111951   2.088   4.445   6.701
 4002TIP3    H211952   2.064   4.296   6.685
 4003TIP3   OH211953   1.301   5.796   3.375
 4003TIP3    H111954   1.253   5.814   3.455
 4003TIP3    H211955   1.263   5.715   3.341
 4004TIP3   OH211956   7.524   4.376   4.991
 4004TIP3    H111957   7.544   4.334   4.908
 4004TIP3    H211958   7.579   4.332   5.055
 4005TIP3   OH211959   1.276   0.986   0.317
 4005TIP3    H111960   1.256   0.999   0.410
 4005TIP3    H211961   1.371   0.982   0.313
 4006TIP3   OH211962   6.624   3.467   1.739
 4006TIP3    H111963   6.701   3.428   1.782
 4006TIP3    H211964   6.659   3.506   1.659
 4007TIP3   OH211965   7.693   7.083   3.904
 4007TIP3    H111966   7.626   7.060   3.968
 4007TIP3    H211967   7.703   7.004   3.850
 4008TIP3   OH211968   0.867   0.903   5.945
 4008TIP3    H111969   0.825   0.989   5.932
 4008TIP3    H211970   0.871   0.892   6.040
 4009TIP3   OH211971   0.994   1.218   3.783
 4009TIP3    H111972   0.921   1.227   3.722
 4009TIP3    H211973   0.983   1.131   3.821
 4010TIP3   OH211974   2.888   3.635   6.171
 4010TIP3    H111975   2.960   3.588   6.129
 4010TIP3    H211976   2.890   3.605   6.262
 4011TIP3   OH211977   2.365   2.176   5.564
 4011TIP3    H111978   2.446   2.156   5.519
 4011TIP3    H211979   2.379   2.263   5.601
 4012TIP3   OH211980   2.577   2.655   2.139
 4012TIP3    H111981   2.572   2.577   2.195
 4012TIP3    H211982   2.629   2.717   2.189
 4013TIP3   OH211983   1.128   7.274   3.511
 4013TIP3    H111984   1.183   7.216   3.459
 4013TIP3    H211985   1.078   7.324   3.446
 4014TIP3   OH211986   5.293   2.707   3.451
 4014TIP3    H111987   5.217   2.746   3.495
 4014TIP3    H211988   5.323   2.776   3.391
 4015TIP3   OH211989   4.552   4.679   0.603
 4015TIP3    H111990   4.628   4.735   0.618
 4015TIP3    H211991   4.589   4.592   0.588
 4016TIP3   OH211992   5.441   1.333   5.588
 4016TIP3    H111993   5.384   1.392   5.637
 4016TIP3    H211994   5.523   1.331   5.637
 4017TIP3   OH211995   6.381   6.755   3.016
 4017TIP3    H111996   6.338   6.688   3.069
 4017TIP3    H211997   6.379   6.833   3.070
 4018TIP3   OH211998   5.494   7.223   4.584
 4018TIP3    H111999   5.479   7.315   4.603
 4018TIP3    H212000   5.455   7.209   4.498
 4019TIP3   OH212001   0.981   6.805   4.875
 4019TIP3    H112002   1.008   6.746   4.805
 4019TIP3    H212003   0.968   6.889   4.832
 4020TIP3   OH212004   5.073   1.381   0.495
 4020TIP3    H112005   5.097   1.424   0.577
 4020TIP3    H212006   5.105   1.439   0.426
 4021TIP3   OH212007   0.207   1.269   1.589
 4021TIP3    H112008   0.169   1.226   1.513
 4021TIP3    H212009   0.198   1.207   1.660
 4022TIP3   OH212010   1.471   0.715   4.375
 4022TIP3    H112011   1.561   0.742   4.356
 4022TIP3    H212012   1.472   0.620   4.365
 4023TIP3   OH212013   5.298   6.749   2.360
 4023TIP3    H112014   5.311   6.674   2.302
 4023TIP3    H212015   5.366   6.812   2.334
 4024TIP3   OH212016   1.330   7.164   1.661
 4024TIP3    H112017   1.399   7.116   1.707
 4024TIP3    H212018   1.309   7.110   1.585
 4025TIP3   OH212019   5.278   2.482   6.229
 4025TIP3    H112020   5.337   2.422   6.274
 4025TIP3    H212021   5.230   2.426   6.168
 4026TIP3   OH212022   6.657   5.036   0.654
 4026TIP3    H112023   6.678   4.970   0.720
 4026TIP3    H212024   6.657   5.119   0.703
 4027TIP3   OH212025   0.406   1.237   0.667
 4027TIP3    H112026   0.495   1.206   0.649
 4027TIP3    H212027   0.387   1.297   0.596
 4028TIP3   OH212028   6.362   0.387   3.860
 4028TIP3    H112029   6.370   0.305   3.811
 4028TIP3    H212030   6.267   0.400   3.869
 4029TIP3   OH212031   7.615   7.463   0.709
 4029TIP3    H112032   7.553   7.533   0.692
 4029TIP3    H212033   7.600   7.399   0.639
 4030TIP3   OH212034   0.529   5.276   3.634
 4030TIP3    H112035   0.444   5.256   3.673
 4030TIP3    H212036   0.584   5.200   3.657
 4031TIP3   OH212037   5.833   0.650   2.422
 4031TIP3    H112038   5.869   0.723   2.472
 4031TIP3    H212039   5.768   0.611   2.480
 4032TIP3   OH212040   7.793   4.177   5.710
 4032TIP3    H112041   7.774   4.112   5.778
 4032TIP3    H212042   7.723   4.242   5.720
 4033TIP3   OH212043   1.609   4.004   3.660
 4033TIP3    H112044   1.618   3.991   3.565
 4033TIP3    H212045   1.589   3.918   3.695
 4034TIP3   OH212046   5.636   1.805   3.492
 4034TIP3    H112047   5.656   1.896   3.471
 4034TIP3    H212048   5.683   1.754   3.426
 4035TIP3   OH212049   6.675   1.910   2.069
 4035TIP3    H112050   6.710   1.838   2.017
 4035TIP3    H212051   6.734   1.917   2.144
 4036TIP3   OH212052   8.224   3.577   1.915
 4036TIP3    H112053   8.177   3.519   1.975
 4036TIP3    H212054   8.313   3.541   1.912
 4037TIP3   OH212055   1.801   4.504   5.027
 4037TIP3    H112056   1.791   4.412   5.001
 4037TIP3    H212057   1.756   4.553   4.958
 4038TIP3   OH212058   4.871   4.318   0.038
 4038TIP3    H112059   4.952   4.295   0.083
 4038TIP3    H212060   4.848   4.240  -0.011
 4039TIP3   OH212061   6.610   3.540   2.442
 4039TIP3    H112062   6.572   3.497   2.365
 4039TIP3    H212063   6.577   3.491   2.516
 4040TIP3   OH212064   4.612   3.081   6.306
 4040TIP3    H112065   4.550   3.043   6.245
 4040TIP3    H212066   4.574   3.066   6.393
 4041TIP3   OH212067   6.594   0.079   1.122
 4041TIP3    H112068   6.585   0.011   1.188
 4041TIP3    H212069   6.518   0.135   1.134
 4042TIP3   OH212070   3.166   6.581   2.819
 4042TIP3    H112071   3.099   6.566   2.886
 4042TIP3    H212072   3.234   6.630   2.864
 4043TIP3   OH212073   7.358   3.587   5.335
 4043TIP3    H112074   7.266   3.576   5.360
 4043TIP3    H212075   7.354   3.630   5.249
 4044TIP3   OH212076   3.810   5.988   5.932
 4044TIP3    H112077   3.782   6.070   5.892
 4044TIP3    H212078   3.843   5.935   5.859
 4045TIP3   OH212079   2.288   4.726   4.554
 4045TIP3    H112080   2.343   4.663   4.602
 4045TIP3    H212081   2.284   4.690   4.465
 4046TIP3   OH212082   1.321   4.742   5.401
 4046TIP3    H112083   1.337   4.823   5.451
 4046TIP3    H212084   1.337   4.672   5.464
 4047TIP3   OH212085   0.879   5.252   3.308
 4047TIP3    H112086   0.803   5.295   3.347
 4047TIP3    H212087   0.844   5.203   3.234
 4048TIP3   OH212088   4.273   1.472   3.229
 4048TIP3    H112089   4.252   1.394   3.280
 4048TIP3    H212090   4.336   1.442   3.163
 4049TIP3   OH212091   7.005   1.224   4.757
 4049TIP3    H112092   6.956   1.146   4.782
 4049TIP3    H212093   7.097   1.198   4.764
 4050TIP3   OH212094   2.252   7.116   4.862
 4050TIP3    H112095   2.244   7.175   4.936
 4050TIP3    H212096   2.228   7.030   4.897
 4051TIP3   OH212097   8.048   5.010   3.110
 4051TIP3    H112098   7.974   4.953   3.130
 4051TIP3    H212099   8.024   5.095   3.148
 4052TIP3   OH212100   2.518   6.693   4.354
 4052TIP3    H112101   2.593   6.665   4.303
 4052TIP3    H212102   2.516   6.632   4.428
 4053TIP3   OH212103   5.137   2.958   0.412
 4053TIP3    H112104   5.193   3.021   0.458
 4053TIP3    H212105   5.198   2.897   0.371
 4054TIP3   OH212106   0.712   0.914   3.737
 4054TIP3    H112107   0.789   0.858   3.731
 4054TIP3    H212108   0.659   0.874   3.806
 4055TIP3   OH212109   8.242   1.445   6.703
 4055TIP3    H112110   8.293   1.522   6.678
 4055TIP3    H212111   8.162   1.451   6.651
 4056TIP3   OH212112   1.042   4.564   0.133
 4056TIP3    H112113   1.003   4.613   0.206
 4056TIP3    H212114   1.026   4.472   0.155
 4057TIP3   OH212115   2.794   0.231   1.800
 4057TIP3    H112116   2.865   0.259   1.743
 4057TIP3    H212117   2.815   0.270   1.885
 4058TIP3   OH212118   5.245   7.444   4.410
 4058TIP3    H112119   5.302   7.369   4.393
 4058TIP3    H212120   5.173   7.408   4.462
 4059TIP3   OH212121   2.953   0.836   3.232
 4059TIP3    H112122   2.963   0.894   3.156
 4059TIP3    H212123   2.858   0.829   3.244
 4060TIP3   OH212124   3.150   3.177   4.814
 4060TIP3    H112125   3.155   3.085   4.843
 4060TIP3    H212126   3.227   3.218   4.853
 4061TIP3   OH212127   3.778   4.538   5.571
 4061TIP3    H112128   3.835   4.607   5.536
 4061TIP3    H212129   3.718   4.583   5.630
 4062TIP3   OH212130   2.581   4.902   1.831
 4062TIP3    H112131   2.578   4.830   1.768
 4062TIP3    H212132   2.511   4.962   1.803
 4063TIP3   OH212133   7.563   0.698   0.458
 4063TIP3    H112134   7.512   0.742   0.390
 4063TIP3    H212135   7.508   0.702   0.536
 4064TIP3   OH212136   4.994   2.695   5.947
 4064TIP3    H112137   5.088   2.680   5.938
 4064TIP3    H212138   4.987   2.764   6.013
 4065TIP3   OH212139   5.964   1.771   3.560
 4065TIP3    H112140   5.975   1.786   3.654
 4065TIP3    H212141   5.943   1.678   3.552
 4066TIP3   OH212142   0.130   6.772   4.703
 4066TIP3    H112143   0.207   6.803   4.751
 4066TIP3    H212144   0.064   6.839   4.717
 4067TIP3   OH212145   6.652   0.059   3.869
 4067TIP3    H112146   6.596   0.075   3.793
 4067TIP3    H212147   6.741   0.069   3.836
 4068TIP3   OH212148   4.020   3.465   5.043
 4068TIP3    H112149   4.077   3.438   5.115
 4068TIP3    H212150   3.933   3.436   5.069
 4069TIP3   OH212151   3.016   5.706   3.721
 4069TIP3    H112152   3.039   5.621   3.685
 4069TIP3    H212153   2.975   5.752   3.647
 4070TIP3   OH212154   6.549   1.829   3.960
 4070TIP3    H112155   6.634   1.862   3.930
 4070TIP3    H212156   6.489   1.850   3.888
 4071TIP3   OH212157   2.691   0.428   1.353
 4071TIP3    H112158   2.638   0.385   1.420
 4071TIP3    H212159   2.627   0.474   1.298
 4072TIP3   OH212160   0.445   6.060   6.162
 4072TIP3    H112161   0.491   6.051   6.078
 4072TIP3    H212162   0.396   5.978   6.171
 4073TIP3   OH212163   5.247   2.011   2.686
 4073TIP3    H112164   5.193   2.086   2.711
 4073TIP3    H212165   5.188   1.936   2.689
 4074TIP3   OH212166   6.356   6.337   0.440
 4074TIP3    H112167   6.284   6.399   0.429
 4074TIP3    H212168   6.357   6.287   0.359
 4075TIP3   OH212169   6.912   2.603   4.376
 4075TIP3    H112170   6.980   2.548   4.414
 4075TIP3    H212171   6.862   2.635   4.451
 4076TIP3   OH212172   3.935   6.683   4.434
 4076TIP3    H112173   3.848   6.673   4.395
 4076TIP3    H212174   3.933   6.768   4.476
 4077TIP3   OH212175   2.387   5.628   3.591
 4077TIP3    H112176   2.461   5.590   3.636
 4077TIP3    H212177   2.352   5.557   3.537
 4078TIP3   OH212178   2.569   0.261   0.449
 4078TIP3    H112179   2.642   0.299   0.498
 4078TIP3    H212180   2.609   0.222   0.371
 4079TIP3   OH212181   0.101   6.272   5.174
 4079TIP3    H112182   0.131   6.284   5.264
 4079TIP3    H212183   0.035   6.341   5.161
 4080TIP3   OH212184   7.534   5.169   6.448
 4080TIP3    H112185   7.606   5.188   6.389
 4080TIP3    H212186   7.541   5.235   6.517
 4081TIP3   OH212187   1.838   1.175   1.827
 4081TIP3    H112188   1.751   1.177   1.786
 4081TIP3    H212189   1.860   1.082   1.832
 4082TIP3   OH212190   0.175   5.489   1.722
 4082TIP3    H112191   0.185   5.445   1.638
 4082TIP3    H212192   0.255   5.539   1.733
 4083TIP3   OH212193   7.219   0.148   5.187
 4083TIP3    H112194   7.160   0.166   5.260
 4083TIP3    H212195   7.224   0.052   5.184
 4084TIP3   OH212196   0.626   5.291   3.984
 4084TIP3    H112197   0.682   5.364   4.012
 4084TIP3    H212198   0.673   5.254   3.909
 4085TIP3   OH212199   1.291   6.723   1.154
 4085TIP3    H112200   1.233   6.660   1.199
 4085TIP3    H212201   1.287   6.802   1.208
 4086TIP3   OH212202   0.451   2.832   4.956
 4086TIP3    H112203   0.495   2.889   4.892
 4086TIP3    H212204   0.363   2.868   4.964
 4087TIP3   OH212205   7.803   4.861   6.438
 4087TIP3    H112206   7.787   4.827   6.526
 4087TIP3    H212207   7.887   4.906   6.445
 4088TIP3   OH212208   5.056   1.927   3.370
 4088TIP3    H112209   5.128   1.958   3.424
 4088TIP3    H212210   5.094   1.859   3.314
 4089TIP3   OH212211   4.843   3.300   6.069
 4089TIP3    H112212   4.845   3.249   6.150
 4089TIP3    H212213   4.787   3.375   6.089
 4090TIP3   OH212214   3.029   2.857   3.895
 4090TIP3    H112215   2.978   2.898   3.825
 4090TIP3    H212216   3.020   2.763   3.879
 4091TIP3   OH212217   7.177   2.908   0.528
 4091TIP3    H112218   7.215   2.984   0.484
 4091TIP3    H212219   7.248   2.844   0.530
 4092TIP3   OH212220   6.639   3.353   5.758
 4092TIP3    H112221   6.705   3.421   5.754
 4092TIP3    H212222   6.671   3.293   5.826
 4093TIP3   OH212223   1.402   1.347   5.224
 4093TIP3    H112224   1.384   1.439   5.205
 4093TIP3    H212225   1.496   1.343   5.242
 4094TIP3   OH212226   1.106   1.692   4.192
 4094TIP3    H112227   1.015   1.722   4.190
 4094TIP3    H212228   1.154   1.763   4.234
 4095TIP3   OH212229   3.200   1.202   5.305
 4095TIP3    H112230   3.197   1.163   5.393
 4095TIP3    H212231   3.244   1.286   5.318
 4096TIP3   OH212232   0.564   6.094   2.500
 4096TIP3    H112233   0.502   6.149   2.547
 4096TIP3    H212234   0.526   6.085   2.412
 4097TIP3   OH212235   6.177   6.232   1.207
 4097TIP3    H112236   6.108   6.169   1.231
 4097TIP3    H212237   6.130   6.315   1.196
 4098TIP3   OH212238   4.606   5.300   2.396
 4098TIP3    H112239   4.518   5.311   2.432
 4098TIP3    H212240   4.649   5.238   2.455
 4099TIP3   OH212241   7.849   3.720   5.547
 4099TIP3    H112242   7.814   3.682   5.467
 4099TIP3    H212243   7.906   3.791   5.517
 4100TIP3   OH212244   5.209   6.565   1.962
 4100TIP3    H112245   5.210   6.523   1.876
 4100TIP3    H212246   5.122   6.548   1.996
 4101TIP3   OH212247   7.026   2.676   0.599
 4101TIP3    H112248   7.028   2.658   0.505
 4101TIP3    H212249   7.078   2.755   0.609
 4102TIP3   OH212250   0.373   5.105   1.077
 4102TIP3    H112251   0.349   5.023   1.121
 4102TIP3    H212252   0.469   5.102   1.072
 4103TIP3   OH212253   6.904   3.285   5.979
 4103TIP3    H112254   6.834   3.220   5.970
 4103TIP3    H212255   6.967   3.245   6.038
 4104TIP3   OH212256   6.530   2.427   3.772
 4104TIP3    H112257   6.575   2.452   3.853
 4104TIP3    H212258   6.546   2.333   3.765
 4105TIP3   OH212259   2.987   1.834   5.725
 4105TIP3    H112260   2.918   1.781   5.687
 4105TIP3    H212261   3.018   1.889   5.653
 4106TIP3   OH212262   2.371   5.406   4.958
 4106TIP3    H112263   2.368   5.446   5.045
 4106TIP3    H212264   2.405   5.318   4.974
 4107TIP3   OH212265   2.214   4.055   5.110
 4107TIP3    H112266   2.194   4.060   5.204
 4107TIP3    H212267   2.137   4.015   5.071
 4108TIP3   OH212268   3.380   7.128   4.124
 4108TIP3    H112269   3.397   7.114   4.217
 4108TIP3    H212270   3.285   7.134   4.118
 4109TIP3   OH212271   6.773   6.254   1.268
 4109TIP3    H112272   6.832   6.185   1.238
 4109TIP3    H212273   6.732   6.218   1.346
 4110TIP3   OH212274  -0.014   4.184   0.152
 4110TIP3    H112275   0.074   4.200   0.185
 4110TIP3    H212276  -0.024   4.246   0.079
 4111TIP3   OH212277   6.347   4.592   5.181
 4111TIP3    H112278   6.310   4.573   5.267
 4111TIP3    H212279   6.441   4.603   5.197
 4112TIP3   OH212280   7.534   0.225   4.121
 4112TIP3    H112281   7.600   0.175   4.073
 4112TIP3    H212282   7.513   0.298   4.064
 4113TIP3   OH212283   0.288   4.381   3.847
 4113TIP3    H112284   0.276   4.475   3.836
 4113TIP3    H212285   0.358   4.372   3.912
 4114TIP3   OH212286   5.826   2.716   5.311
 4114TIP3    H112287   5.847   2.791   5.256
 4114TIP3    H212288   5.733   2.725   5.330
 4115TIP3   OH212289   6.540   2.489   0.799
 4115TIP3    H112290   6.610   2.517   0.739
 4115TIP3    H212291   6.579   2.497   0.886
 4116TIP3   OH212292   2.976   7.068   3.197
 4116TIP3    H112293   3.033   7.095   3.125
 4116TIP3    H212294   3.021   6.994   3.237
 4117TIP3   OH212295   2.059   6.724   2.654
 4117TIP3    H112296   2.046   6.751   2.563
 4117TIP3    H212297   2.151   6.742   2.672
 4118TIP3   OH212298   1.635   4.199   1.873
 4118TIP3    H112299   1.621   4.189   1.779
 4118TIP3    H212300   1.729   4.191   1.885
 4119TIP3   OH212301   2.451   4.014   3.070
 4119TIP3    H112302   2.371   3.963   3.082
 4119TIP3    H212303   2.508   3.986   3.142
 4120TIP3   OH212304   6.389   3.316   4.581
 4120TIP3    H112305   6.432   3.298   4.497
 4120TIP3    H212306   6.379   3.231   4.623
 4121TIP3   OH212307   4.164   2.171   0.762
 4121TIP3    H112308   4.233   2.167   0.697
 4121TIP3    H212309   4.204   2.140   0.843
 4122TIP3   OH212310   6.416   0.037   4.473
 4122TIP3    H112311   6.380  -0.051   4.463
 4122TIP3    H212312   6.404   0.057   4.566
 4123TIP3   OH212313   1.372   5.347   6.685
 4123TIP3    H112314   1.382   5.330   6.591
 4123TIP3    H212315   1.428   5.422   6.701
 4124TIP3   OH212316   3.904   1.006   3.108
 4124TIP3    H112317   3.853   0.972   3.182
 4124TIP3    H212318   3.849   1.076   3.072
 4125TIP3   OH212319   2.628   6.245   1.128
 4125TIP3    H112320   2.615   6.327   1.174
 4125TIP3    H212321   2.618   6.267   1.036
 4126TIP3   OH212322   6.920   2.717   6.401
 4126TIP3    H112323   6.958   2.694   6.315
 4126TIP3    H212324   6.846   2.774   6.380
 4127TIP3   OH212325   4.941   4.487   3.252
 4127TIP3    H112326   4.958   4.539   3.174
 4127TIP3    H212327   4.846   4.493   3.264
 4128TIP3   OH212328   2.444   5.101   1.362
 4128TIP3    H112329   2.481   5.188   1.379
 4128TIP3    H212330   2.349   5.116   1.359
 4129TIP3   OH212331   5.287   2.050   3.195
 4129TIP3    H112332   5.339   1.998   3.256
 4129TIP3    H212333   5.302   2.010   3.110
 4130TIP3   OH212334   6.055   7.145   4.008
 4130TIP3    H112335   6.119   7.214   3.992
 4130TIP3    H212336   6.094   7.091   4.076
 4131TIP3   OH212337   4.556   1.128   1.792
 4131TIP3    H112338   4.585   1.111   1.882
 4131TIP3    H212339   4.571   1.221   1.779
 4132TIP3   OH212340   5.053   6.699   0.679
 4132TIP3    H112341   5.123   6.730   0.735
 4132TIP3    H212342   4.973   6.736   0.716
 4133TIP3   OH212343   7.936   4.701   4.303
 4133TIP3    H112344   7.881   4.772   4.336
 4133TIP3    H212345   7.918   4.698   4.209
 4134TIP3   OH212346   5.522   5.641   1.160
 4134TIP3    H112347   5.502   5.723   1.116
 4134TIP3    H212348   5.454   5.580   1.130
 4135TIP3   OH212349   4.538   0.859   4.135
 4135TIP3    H112350   4.511   0.930   4.077
 4135TIP3    H212351   4.520   0.892   4.223
 4136TIP3   OH212352   2.632   2.420   4.484
 4136TIP3    H112353   2.656   2.404   4.575
 4136TIP3    H212354   2.713   2.408   4.435
 4137TIP3   OH212355   2.591   1.761   2.046
 4137TIP3    H112356   2.510   1.736   2.090
 4137TIP3    H212357   2.660   1.737   2.108
 4138TIP3   OH212358   1.826   6.923   6.035
 4138TIP3    H112359   1.833   6.844   6.090
 4138TIP3    H212360   1.736   6.923   6.005
 4139TIP3   OH212361   1.191   2.382   3.527
 4139TIP3    H112362   1.245   2.387   3.606
 4139TIP3    H212363   1.103   2.364   3.560
 4140TIP3   OH212364   4.239   4.297   1.187
 4140TIP3    H112365   4.279   4.352   1.120
 4140TIP3    H212366   4.146   4.320   1.185
 4141TIP3   OH212367   1.821   3.111   6.147
 4141TIP3    H112368   1.846   3.108   6.054
 4141TIP3    H212369   1.824   3.020   6.175
 4142TIP3   OH212370   0.252   1.353   5.255
 4142TIP3    H112371   0.342   1.339   5.286
 4142TIP3    H212372   0.225   1.267   5.223
 4143TIP3   OH212373   2.194   3.261   3.377
 4143TIP3    H112374   2.165   3.178   3.340
 4143TIP3    H212375   2.271   3.285   3.326
 4144TIP3   OH212376   4.121   1.928   4.478
 4144TIP3    H112377   4.188   1.966   4.534
 4144TIP3    H212378   4.166   1.909   4.396
 4145TIP3   OH212379   2.458   0.543   3.327
 4145TIP3    H112380   2.433   0.633   3.308
 4145TIP3    H212381   2.514   0.517   3.254
 4146TIP3   OH212382   3.203   1.707   1.471
 4146TIP3    H112383   3.130   1.768   1.481
 4146TIP3    H212384   3.281   1.762   1.484
 4147TIP3   OH212385   1.631   4.139   6.070
 4147TIP3    H112386   1.547   4.181   6.088
 4147TIP3    H212387   1.646   4.082   6.144
 4148TIP3   OH212388   0.285   0.386   0.057
 4148TIP3    H112389   0.222   0.436   0.110
 4148TIP3    H212390   0.231   0.326   0.007
 4149TIP3   OH212391   2.105   2.458   3.567
 4149TIP3    H112392   2.195   2.486   3.586
 4149TIP3    H212393   2.112   2.410   3.484
 4150TIP3   OH212394   5.968   3.274   1.550
 4150TIP3    H112395   6.045   3.260   1.495
 4150TIP3    H212396   5.915   3.195   1.538
 4151TIP3   OH212397   6.712   7.458   4.355
 4151TIP3    H112398   6.621   7.429   4.365
 4151TIP3    H212399   6.762   7.377   4.347
 4152TIP3   OH212400   6.843   6.064   6.491
 4152TIP3    H112401   6.843   6.158   6.512
 4152TIP3    H212402   6.892   6.059   6.408
 4153TIP3   OH212403   2.472   3.873   3.581
 4153TIP3    H112404   2.490   3.779   3.580
 4153TIP3    H212405   2.381   3.880   3.554
 4154TIP3   OH212406   7.878   2.838   3.650
 4154TIP3    H112407   7.935   2.778   3.602
 4154TIP3    H212408   7.832   2.887   3.581
 4155TIP3   OH212409   7.812   2.520   1.778
 4155TIP3    H112410   7.826   2.539   1.871
 4155TIP3    H212411   7.897   2.487   1.747
 4156TIP3   OH212412   0.364   7.593   0.494
 4156TIP3    H112413   0.382   7.551   0.410
 4156TIP3    H212414   0.299   7.536   0.536
 4157TIP3   OH212415   1.442   2.221   1.977
 4157TIP3    H112416   1.398   2.194   1.896
 4157TIP3    H212417   1.471   2.138   2.017
 4158TIP3   OH212418   4.329   6.206  -0.053
 4158TIP3    H112419   4.254   6.170  -0.006
 4158TIP3    H212420   4.352   6.140  -0.118
 4159TIP3   OH212421   5.878   4.967   5.741
 4159TIP3    H112422   5.955   4.932   5.696
 4159TIP3    H212423   5.804   4.941   5.686
 4160TIP3   OH212424   3.043   6.318   6.402
 4160TIP3    H112425   3.022   6.391   6.461
 4160TIP3    H212426   3.126   6.343   6.362
 4161TIP3   OH212427   6.871   1.952   2.656
 4161TIP3    H112428   6.965   1.944   2.669
 4161TIP3    H212429   6.844   1.866   2.624
 4162TIP3   OH212430   4.049   1.231   3.239
 4162TIP3    H112431   3.992   1.176   3.185
 4162TIP3    H212432   4.076   1.302   3.182
 4163TIP3   OH212433   6.598   6.196   5.136
 4163TIP3    H112434   6.558   6.185   5.222
 4163TIP3    H212435   6.692   6.198   5.154
 4164TIP3   OH212436   2.107   5.000   5.248
 4164TIP3    H112437   2.147   5.084   5.225
 4164TIP3    H212438   2.013   5.013   5.229
 4165TIP3   OH212439   0.623   1.993   2.692
 4165TIP3    H112440   0.656   2.011   2.780
 4165TIP3    H212441   0.600   1.900   2.695
 4166TIP3   OH212442   6.179   3.538   1.083
 4166TIP3    H112443   6.175   3.610   1.146
 4166TIP3    H212444   6.111   3.477   1.110
 4167TIP3   OH212445   5.084   7.482   1.197
 4167TIP3    H112446   4.990   7.470   1.186
 4167TIP3    H212447   5.111   7.535   1.122
 4168TIP3   OH212448   8.261   5.537   4.071
 4168TIP3    H112449   8.323   5.481   4.117
 4168TIP3    H212450   8.197   5.476   4.034
 4169TIP3   OH212451   1.463   2.031   1.280
 4169TIP3    H112452   1.552   2.041   1.246
 4169TIP3    H212453   1.453   2.102   1.344
 4170TIP3   OH212454   4.642   5.372   0.263
 4170TIP3    H112455   4.594   5.377   0.345
 4170TIP3    H212456   4.655   5.278   0.248
 4171TIP3   OH212457   6.745   4.637   6.352
 4171TIP3    H112458   6.794   4.719   6.357
 4171TIP3    H212459   6.662   4.656   6.396
 4172TIP3   OH212460   3.452   1.263   1.342
 4172TIP3    H112461   3.406   1.211   1.408
 4172TIP3    H212462   3.542   1.232   1.345
 4173TIP3   OH212463   0.796   6.262   5.241
 4173TIP3    H112464   0.795   6.170   5.215
 4173TIP3    H212465   0.820   6.309   5.162
 4174TIP3   OH212466   4.754   1.196   5.428
 4174TIP3    H112467   4.717   1.222   5.344
 4174TIP3    H212468   4.806   1.271   5.456
 4175TIP3   OH212469   7.975   5.668   6.731
 4175TIP3    H112470   7.925   5.688   6.653
 4175TIP3    H212471   8.021   5.587   6.710
 4176TIP3   OH212472   1.896   2.296   3.649
 4176TIP3    H112473   1.940   2.238   3.711
 4176TIP3    H212474   1.959   2.366   3.633
 4177TIP3   OH212475   8.240   0.950   5.658
 4177TIP3    H112476   8.201   1.011   5.596
 4177TIP3    H212477   8.288   1.005   5.720
 4178TIP3   OH212478   3.429   7.445   5.561
 4178TIP3    H112479   3.493   7.375   5.576
 4178TIP3    H212480   3.363   7.405   5.505
 4179TIP3   OH212481   0.092   4.868   3.546
 4179TIP3    H112482   0.129   4.787   3.512
 4179TIP3    H212483   0.024   4.840   3.608
 4180TIP3   OH212484   5.272   6.572   2.685
 4180TIP3    H112485   5.188   6.616   2.668
 4180TIP3    H212486   5.256   6.481   2.660
 4181TIP3   OH212487   1.417   2.846   2.004
 4181TIP3    H112488   1.331   2.806   1.989
 4181TIP3    H212489   1.456   2.852   1.917
 4182TIP3   OH212490   2.669   4.770   6.644
 4182TIP3    H112491   2.708   4.771   6.732
 4182TIP3    H212492   2.733   4.813   6.588
 4183TIP3   OH212493   3.092   5.693   3.991
 4183TIP3    H112494   3.078   5.700   3.897
 4183TIP3    H212495   3.138   5.773   4.014
 4184TIP3   OH212496   1.391   0.883   2.411
 4184TIP3    H112497   1.441   0.865   2.331
 4184TIP3    H212498   1.314   0.930   2.381
 4185TIP3   OH212499   3.330   6.354   6.338
 4185TIP3    H112500   3.299   6.444   6.333
 4185TIP3    H212501   3.418   6.357   6.303
 4186TIP3   OH212502   7.490   6.901   1.176
 4186TIP3    H112503   7.497   6.817   1.222
 4186TIP3    H212504   7.568   6.905   1.121
 4187TIP3   OH212505   1.194   2.718   2.734
 4187TIP3    H112506   1.159   2.664   2.663
 4187TIP3    H212507   1.235   2.655   2.793
 4188TIP3   OH212508   4.403   7.422   4.086
 4188TIP3    H112509   4.352   7.452   4.162
 4188TIP3    H212510   4.451   7.500   4.057
 4189TIP3   OH212511   6.231   5.518   3.301
 4189TIP3    H112512   6.149   5.567   3.308
 4189TIP3    H212513   6.275   5.555   3.225
 4190TIP3   OH212514   2.080   6.460   2.399
 4190TIP3    H112515   2.153   6.512   2.366
 4190TIP3    H212516   2.024   6.446   2.323
 4191TIP3   OH212517   1.946   2.463   0.583
 4191TIP3    H112518   2.018   2.424   0.631
 4191TIP3    H212519   1.976   2.464   0.492
 4192TIP3   OH212520   5.111   0.005   3.975
 4192TIP3    H112521   5.076   0.034   3.891
 4192TIP3    H212522   5.154   0.082   4.012
 4193TIP3   OH212523   0.557   4.475   4.266
 4193TIP3    H112524   0.571   4.382   4.283
 4193TIP3    H212525   0.639   4.504   4.227
 4194TIP3   OH212526   1.007   4.526   1.943
 4194TIP3    H112527   0.995   4.521   1.848
 4194TIP3    H212528   0.924   4.494   1.979
 4195TIP3   OH212529   1.028   7.256   1.906
 4195TIP3    H112530   0.936   7.234   1.892
 4195TIP3    H212531   1.060   7.284   1.821
 4196TIP3   OH212532   5.791   4.801   2.052
 4196TIP3    H112533   5.756   4.787   1.964
 4196TIP3    H212534   5.842   4.882   2.046
 4197TIP3   OH212535   7.141   3.037   3.952
 4197TIP3    H112536   7.093   3.120   3.959
 4197TIP3    H212537   7.233   3.061   3.961
 4198TIP3   OH212538   2.996   1.878   1.594
 4198TIP3    H112539   2.926   1.847   1.538
 4198TIP3    H212540   3.025   1.959   1.554
 4199TIP3   OH212541   6.303   5.020   4.553
 4199TIP3    H112542   6.216   4.981   4.557
 4199TIP3    H212543   6.288   5.114   4.541
 4200TIP3   OH212544   4.290   2.669   0.349
 4200TIP3    H112545   4.196   2.689   0.344
 4200TIP3    H212546   4.333   2.753   0.336
 4201TIP3   OH212547   7.900   6.286   0.886
 4201TIP3    H112548   7.950   6.290   0.967
 4201TIP3    H212549   7.818   6.332   0.906
 4202TIP3   OH212550   3.652   3.326   2.573
 4202TIP3    H112551   3.606   3.275   2.506
 4202TIP3    H212552   3.613   3.297   2.656
 4203TIP3   OH212553   3.350   3.367   3.325
 4203TIP3    H112554   3.357   3.333   3.236
 4203TIP3    H212555   3.299   3.448   3.317
 4204TIP3   OH212556   4.768   1.394   0.191
 4204TIP3    H112557   4.684   1.352   0.213
 4204TIP3    H212558   4.780   1.461   0.258
 4205TIP3   OH212559   1.068   5.503   4.921
 4205TIP3    H112560   1.076   5.557   4.842
 4205TIP3    H212561   1.138   5.535   4.979
 4206TIP3   OH212562   0.037   3.318   5.220
 4206TIP3    H112563  -0.017   3.246   5.252
 4206TIP3    H212564   0.050   3.299   5.127
 4207TIP3   OH212565   0.420   6.934   3.859
 4207TIP3    H112566   0.514   6.950   3.861
 4207TIP3    H212567   0.411   6.844   3.829
 4208TIP3   OH212568   1.122   2.112   5.727
 4208TIP3    H112569   1.166   2.076   5.804
 4208TIP3    H212570   1.040   2.148   5.760
 4209TIP3   OH212571   4.981   3.677   1.320
 4209TIP3    H112572   5.031   3.641   1.247
 4209TIP3    H212573   4.890   3.667   1.294
 4210TIP3   OH212574   3.403   6.176   4.257
 4210TIP3    H112575   3.448   6.093   4.273
 4210TIP3    H212576   3.443   6.209   4.177
 4211TIP3   OH212577   3.292   4.848   2.802
 4211TIP3    H112578   3.234   4.923   2.789
 4211TIP3    H212579   3.250   4.777   2.754
 4212TIP3   OH212580   2.546   5.025   5.491
 4212TIP3    H112581   2.462   5.030   5.444
 4212TIP3    H212582   2.522   4.995   5.579
 4213TIP3   OH212583   4.388   1.935   0.123
 4213TIP3    H112584   4.309   1.904   0.168
 4213TIP3    H212585   4.460   1.903   0.177
 4214TIP3   OH212586   4.488   3.104   5.728
 4214TIP3    H112587   4.496   3.131   5.637
 4214TIP3    H212588   4.488   3.186   5.778
 4215TIP3   OH212589   7.037   5.949   5.216
 4215TIP3    H112590   7.032   5.858   5.244
 4215TIP3    H212591   7.024   6.000   5.296
 4216TIP3   OH212592   0.204   6.524   2.674
 4216TIP3    H112593   0.170   6.608   2.644
 4216TIP3    H212594   0.188   6.524   2.768
 4217TIP3   OH212595   6.591   6.996   0.638
 4217TIP3    H112596   6.603   7.039   0.553
 4217TIP3    H212597   6.496   7.000   0.653
 4218TIP3   OH212598   5.690   5.563   3.191
 4218TIP3    H112599   5.714   5.585   3.101
 4218TIP3    H212600   5.614   5.505   3.181
 4219TIP3   OH212601   0.298   4.797   5.489
 4219TIP3    H112602   0.209   4.827   5.472
 4219TIP3    H212603   0.295   4.703   5.475
 4220TIP3   OH212604   3.089   4.786   2.245
 4220TIP3    H112605   3.152   4.716   2.259
 4220TIP3    H212606   3.142   4.863   2.223
 4221TIP3   OH212607   4.905   6.138   5.655
 4221TIP3    H112608   4.823   6.188   5.662
 4221TIP3    H212609   4.972   6.197   5.687
 4222TIP3   OH212610   0.073   1.954   6.574
 4222TIP3    H112611   0.061   2.031   6.518
 4222TIP3    H212612   0.066   1.879   6.515
 4223TIP3   OH212613   8.035   3.551   0.013
 4223TIP3    H112614   8.125   3.579  -0.001
 4223TIP3    H212615   8.042   3.467   0.057
 4224TIP3   OH212616   0.725   7.499   4.792
 4224TIP3    H112617   0.813   7.496   4.753
 4224TIP3    H212618   0.701   7.407   4.803
 4225TIP3   OH212619   0.120   7.141   1.662
 4225TIP3    H112620   0.115   7.237   1.659
 4225TIP3    H212621   0.212   7.121   1.644
 4226TIP3   OH212622   6.116   4.615   3.809
 4226TIP3    H112623   6.070   4.580   3.733
 4226TIP3    H212624   6.131   4.539   3.865
 4227TIP3   OH212625   3.481   1.643   1.945
 4227TIP3    H112626   3.532   1.600   2.013
 4227TIP3    H212627   3.539   1.647   1.869
 4228TIP3   OH212628   7.304   2.699   5.409
 4228TIP3    H112629   7.372   2.641   5.444
 4228TIP3    H212630   7.353   2.769   5.365
 4229TIP3   OH212631   2.430   1.048   1.174
 4229TIP3    H112632   2.371   0.973   1.166
 4229TIP3    H212633   2.372   1.122   1.191
 4230TIP3   OH212634   5.488   5.148   3.463
 4230TIP3    H112635   5.393   5.157   3.460
 4230TIP3    H212636   5.511   5.160   3.555
 4231TIP3   OH212637   6.133   2.068   3.604
 4231TIP3    H112638   6.141   2.147   3.656
 4231TIP3    H212639   6.108   2.000   3.667
 4232TIP3   OH212640   1.651   6.835   5.376
 4232TIP3    H112641   1.626   6.743   5.381
 4232TIP3    H212642   1.708   6.849   5.452
 4233TIP3   OH212643   1.635   5.895   5.660
 4233TIP3    H112644   1.585   5.976   5.664
 4233TIP3    H212645   1.646   5.869   5.751
 4234TIP3   OH212646   4.641   2.579   0.681
 4234TIP3    H112647   4.733   2.565   0.657
 4234TIP3    H212648   4.604   2.491   0.685
 4235TIP3   OH212649   7.684   7.582   2.829
 4235TIP3    H112650   7.747   7.630   2.883
 4235TIP3    H212651   7.599   7.610   2.861
 4236TIP3   OH212652   1.933   3.419   5.182
 4236TIP3    H112653   1.897   3.351   5.125
 4236TIP3    H212654   1.857   3.472   5.206
 4237TIP3   OH212655   4.221   4.851   6.335
 4237TIP3    H112656   4.255   4.815   6.417
 4237TIP3    H212657   4.299   4.882   6.288
 4238TIP3   OH212658   7.873   0.703   6.538
 4238TIP3    H112659   7.965   0.691   6.562
 4238TIP3    H212660   7.839   0.766   6.602
 4239TIP3   OH212661   0.234   1.181   4.331
 4239TIP3    H112662   0.298   1.109   4.329
 4239TIP3    H212663   0.282   1.255   4.367
 4240TIP3   OH212664   5.454   4.671   3.545
 4240TIP3    H112665   5.445   4.628   3.630
 4240TIP3    H212666   5.541   4.711   3.548
 4241TIP3   OH212667   0.599   5.650   3.449
 4241TIP3    H112668   0.606   5.705   3.371
 4241TIP3    H212669   0.608   5.710   3.523
 4242TIP3   OH212670   4.794   2.053   5.722
 4242TIP3    H112671   4.877   2.068   5.677
 4242TIP3    H212672   4.791   2.120   5.790
 4243TIP3   OH212673   3.797   6.060   6.642
 4243TIP3    H112674   3.711   6.100   6.653
 4243TIP3    H212675   3.793   6.020   6.555
 4244TIP3   OH212676   1.849   6.064   4.975
 4244TIP3    H112677   1.882   5.977   4.951
 4244TIP3    H212678   1.852   6.065   5.071
 4245TIP3   OH212679   2.845   4.230   2.423
 4245TIP3    H112680   2.881   4.175   2.354
 4245TIP3    H212681   2.764   4.266   2.385
 4246TIP3   OH212682   3.913   5.308   0.882
 4246TIP3    H112683   3.984   5.292   0.821
 4246TIP3    H212684   3.916   5.235   0.943
 4247TIP3   OH212685   0.644   5.637   1.780
 4247TIP3    H112686   0.681   5.707   1.833
 4247TIP3    H212687   0.573   5.680   1.731
 4248TIP3   OH212688   7.170   5.025   0.183
 4248TIP3    H112689   7.111   5.089   0.143
 4248TIP3    H212690   7.122   4.991   0.258
 4249TIP3   OH212691   6.163   3.494   5.175
 4249TIP3    H112692   6.067   3.492   5.177
 4249TIP3    H212693   6.189   3.501   5.267
 4250TIP3   OH212694   0.324   2.909   4.272
 4250TIP3    H112695   0.381   2.986   4.270
 4250TIP3    H212696   0.361   2.850   4.207
 4251TIP3   OH212697   7.772   5.332   6.644
 4251TIP3    H112698   7.838   5.355   6.709
 4251TIP3    H212699   7.820   5.325   6.561
 4252TIP3   OH212700   7.840   2.172   1.264
 4252TIP3    H112701   7.806   2.152   1.177
 4252TIP3    H212702   7.793   2.113   1.323
 4253TIP3   OH212703   4.190   4.722   1.812
 4253TIP3    H112704   4.109   4.702   1.766
 4253TIP3    H212705   4.176   4.810   1.848
 4254TIP3   OH212706   6.143   2.854   2.630
 4254TIP3    H112707   6.222   2.847   2.684
 4254TIP3    H212708   6.127   2.765   2.599
 4255TIP3   OH212709   4.058   2.121   0.137
 4255TIP3    H112710   4.014   2.063   0.075
 4255TIP3    H212711   4.138   2.148   0.091
 4256TIP3   OH212712   1.837   4.788   0.168
 4256TIP3    H112713   1.756   4.758   0.209
 4256TIP3    H212714   1.893   4.710   0.166
 4257TIP3   OH212715   3.911   4.629   4.771
 4257TIP3    H112716   4.001   4.649   4.745
 4257TIP3    H212717   3.870   4.595   4.692
 4258TIP3   OH212718   0.467   3.389   5.135
 4258TIP3    H112719   0.401   3.432   5.189
 4258TIP3    H212720   0.471   3.442   5.055
 4259TIP3   OH212721   6.252   7.684   5.648
 4259TIP3    H112722   6.254   7.657   5.556
 4259TIP3    H212723   6.325   7.745   5.656
 4260TIP3   OH212724   2.461   6.032   0.464
 4260TIP3    H112725   2.429   6.113   0.503
 4260TIP3    H212726   2.517   6.061   0.391
 4261TIP3   OH212727   5.509   6.409   1.723
 4261TIP3    H112728   5.491   6.490   1.771
 4261TIP3    H212729   5.533   6.437   1.635
 4262TIP3   OH212730   7.899   5.613   3.227
 4262TIP3    H112731   7.935   5.655   3.149
 4262TIP3    H212732   7.971   5.616   3.291
 4263TIP3   OH212733   6.983   2.983   5.023
 4263TIP3    H112734   7.059   3.032   4.992
 4263TIP3    H212735   6.931   2.967   4.944
 4264TIP3   OH212736   5.555   0.665   1.830
 4264TIP3    H112737   5.646   0.637   1.828
 4264TIP3    H212738   5.553   0.738   1.892
 4265TIP3   OH212739   3.465   0.756   2.000
 4265TIP3    H112740   3.532   0.785   1.939
 4265TIP3    H212741   3.480   0.809   2.079
 4266TIP3   OH212742   7.677   0.149   1.488
 4266TIP3    H112743   7.669   0.240   1.459
 4266TIP3    H212744   7.620   0.100   1.429
 4267TIP3   OH212745   7.465   5.269   0.766
 4267TIP3    H112746   7.523   5.214   0.818
 4267TIP3    H212747   7.517   5.347   0.746
 4268TIP3   OH212748   4.042   1.476   3.097
 4268TIP3    H112749   3.958   1.500   3.137
 4268TIP3    H212750   4.106   1.489   3.166
 4269TIP3   OH212751   2.551   4.632   3.681
 4269TIP3    H112752   2.472   4.577   3.679
 4269TIP3    H212753   2.548   4.674   3.767
 4270TIP3   OH212754   0.434   7.384   1.848
 4270TIP3    H112755   0.443   7.410   1.756
 4270TIP3    H212756   0.447   7.465   1.897
 4271TIP3   OH212757   6.576   7.746   3.226
 4271TIP3    H112758   6.498   7.794   3.253
 4271TIP3    H212759   6.595   7.779   3.138
 4272TIP3   OH212760   0.933   5.462   1.853
 4272TIP3    H112761   1.004   5.516   1.885
 4272TIP3    H212762   0.973   5.376   1.837
 4273TIP3   OH212763   6.787   6.894   6.193
 4273TIP3    H112764   6.703   6.850   6.203
 4273TIP3    H212765   6.850   6.823   6.181
 4274TIP3   OH212766   0.175   3.102   1.393
 4274TIP3    H112767   0.152   3.194   1.408
 4274TIP3    H212768   0.129   3.079   1.312
 4275TIP3   OH212769   5.535   3.772   4.262
 4275TIP3    H112770   5.586   3.718   4.323
 4275TIP3    H212771   5.480   3.709   4.215
 4276TIP3   OH212772   1.859   2.198   5.039
 4276TIP3    H112773   1.775   2.205   5.084
 4276TIP3    H212774   1.863   2.275   4.982
 4277TIP3   OH212775   5.350   3.021   0.586
 4277TIP3    H112776   5.434   3.064   0.569
 4277TIP3    H212777   5.374   2.937   0.625
 4278TIP3   OH212778   6.844   2.173   1.705
 4278TIP3    H112779   6.909   2.181   1.775
 4278TIP3    H212780   6.776   2.236   1.727
 4279TIP3   OH212781   3.577   6.904   2.456
 4279TIP3    H112782   3.599   6.817   2.423
 4279TIP3    H212783   3.508   6.889   2.521
 4280TIP3   OH212784   8.157   3.216   1.549
 4280TIP3    H112785   8.112   3.225   1.633
 4280TIP3    H212786   8.213   3.294   1.544
 4281TIP3   OH212787   7.171   5.413   0.457
 4281TIP3    H112788   7.104   5.455   0.403
 4281TIP3    H212789   7.124   5.391   0.538
 4282TIP3   OH212790   0.173   7.484   4.678
 4282TIP3    H112791   0.138   7.570   4.703
 4282TIP3    H212792   0.266   7.488   4.702
 4283TIP3   OH212793   1.940   7.056   6.294
 4283TIP3    H112794   1.941   6.966   6.261
 4283TIP3    H212795   1.928   7.110   6.216
 4284TIP3   OH212796   3.848   7.568   3.626
 4284TIP3    H112797   3.841   7.653   3.583
 4284TIP3    H212798   3.916   7.522   3.577
 4285TIP3   OH212799   4.101   3.156   6.303
 4285TIP3    H112800   4.008   3.142   6.321
 4285TIP3    H212801   4.104   3.188   6.213
 4286TIP3   OH212802   5.801   0.977   2.841
 4286TIP3    H112803   5.752   0.929   2.907
 4286TIP3    H212804   5.874   0.919   2.818
 4287TIP3   OH212805   7.032   5.276   0.958
 4287TIP3    H112806   6.988   5.354   0.992
 4287TIP3    H212807   7.090   5.248   1.030
 4288TIP3   OH212808   1.598   6.671   4.052
 4288TIP3    H112809   1.654   6.666   3.975
 4288TIP3    H212810   1.654   6.648   4.126
 4289TIP3   OH212811   7.520  -0.011   1.341
 4289TIP3    H112812   7.539  -0.062   1.263
 4289TIP3    H212813   7.483  -0.074   1.403
 4290TIP3   OH212814   7.921   5.617   0.095
 4290TIP3    H112815   7.893   5.562   0.021
 4290TIP3    H212816   7.957   5.555   0.159
 4291TIP3   OH212817   2.819   4.345   1.230
 4291TIP3    H112818   2.839   4.259   1.268
 4291TIP3    H212819   2.736   4.331   1.184
 4292TIP3   OH212820   5.853   6.878   6.699
 4292TIP3    H112821   5.773   6.836   6.731
 4292TIP3    H212822   5.823   6.949   6.642
 4293TIP3   OH212823   6.297   0.542   1.448
 4293TIP3    H112824   6.286   0.486   1.525
 4293TIP3    H212825   6.372   0.505   1.402
 4294TIP3   OH212826   5.713   4.052   4.724
 4294TIP3    H112827   5.780   4.086   4.665
 4294TIP3    H212828   5.746   3.967   4.752
 4295TIP3   OH212829   7.003   2.428   2.937
 4295TIP3    H112830   6.998   2.376   3.018
 4295TIP3    H212831   7.082   2.480   2.947
 4296TIP3   OH212832   2.529   0.368   3.718
 4296TIP3    H112833   2.475   0.443   3.692
 4296TIP3    H212834   2.519   0.305   3.647
 4297TIP3   OH212835   3.780   2.774   0.925
 4297TIP3    H112836   3.826   2.700   0.885
 4297TIP3    H212837   3.837   2.849   0.909
 4298TIP3   OH212838   6.597   7.835   4.470
 4298TIP3    H112839   6.557   7.782   4.538
 4298TIP3    H212840   6.625   7.771   4.404
 4299TIP3   OH212841   1.383   3.255   5.161
 4299TIP3    H112842   1.348   3.179   5.208
 4299TIP3    H212843   1.327   3.327   5.186
 4300TIP3   OH212844   0.108   1.333   1.950
 4300TIP3    H112845   0.069   1.332   1.863
 4300TIP3    H212846   0.185   1.277   1.943
 4301TIP3   OH212847   5.199   1.604   2.531
 4301TIP3    H112848   5.238   1.550   2.600
 4301TIP3    H212849   5.113   1.564   2.516
 4302TIP3   OH212850   4.436   4.247   2.839
 4302TIP3    H112851   4.388   4.174   2.879
 4302TIP3    H212852   4.481   4.289   2.912
 4303TIP3   OH212853   7.474   4.797   6.008
 4303TIP3    H112854   7.506   4.821   5.921
 4303TIP3    H212855   7.405   4.861   6.026
 4304TIP3   OH212856   5.680   0.524   6.388
 4304TIP3    H112857   5.709   0.448   6.338
 4304TIP3    H212858   5.758   0.553   6.435
 4305TIP3   OH212859   8.288   3.979   3.946
 4305TIP3    H112860   8.329   4.049   3.996
 4305TIP3    H212861   8.287   4.010   3.856
 4306TIP3   OH212862   4.124   5.014   1.062
 4306TIP3    H112863   4.202   5.069   1.070
 4306TIP3    H212864   4.066   5.043   1.132
 4307TIP3   OH212865   1.671   5.707   2.036
 4307TIP3    H112866   1.656   5.629   2.089
 4307TIP3    H212867   1.731   5.677   1.968
 4308TIP3   OH212868   4.749   6.514   0.879
 4308TIP3    H112869   4.768   6.606   0.860
 4308TIP3    H212870   4.657   6.503   0.856
 4309TIP3   OH212871   8.153   5.774   3.899
 4309TIP3    H112872   8.084   5.819   3.850
 4309TIP3    H212873   8.128   5.682   3.896
 4310TIP3   OH212874   3.175   3.256   4.535
 4310TIP3    H112875   3.191   3.280   4.626
 4310TIP3    H212876   3.147   3.165   4.538
 4311TIP3   OH212877   4.681   1.781   6.829
 4311TIP3    H112878   4.594   1.772   6.790
 4311TIP3    H212879   4.695   1.876   6.833
 4312TIP3   OH212880   0.475   7.296   0.452
 4312TIP3    H112881   0.410   7.299   0.522
 4312TIP3    H212882   0.471   7.207   0.419
 4313TIP3   OH212883   7.722   4.859   5.438
 4313TIP3    H112884   7.678   4.938   5.470
 4313TIP3    H212885   7.743   4.809   5.517
 4314TIP3   OH212886   1.123   1.874   5.456
 4314TIP3    H112887   1.212   1.908   5.454
 4314TIP3    H212888   1.115   1.833   5.542
 4315TIP3   OH212889   5.295   5.265   3.800
 4315TIP3    H112890   5.247   5.304   3.727
 4315TIP3    H212891   5.258   5.178   3.810
 4316TIP3   OH212892   3.196   5.432   4.084
 4316TIP3    H112893   3.197   5.425   3.988
 4316TIP3    H212894   3.138   5.507   4.102
 4317TIP3   OH212895   7.830   1.149   4.174
 4317TIP3    H112896   7.831   1.061   4.136
 4317TIP3    H212897   7.762   1.196   4.126
 4318TIP3   OH212898   1.851   6.973   3.187
 4318TIP3    H112899   1.826   7.037   3.121
 4318TIP3    H212900   1.928   6.929   3.150
 4319TIP3   OH212901   7.037   0.430   2.523
 4319TIP3    H112902   7.084   0.454   2.443
 4319TIP3    H212903   6.956   0.389   2.492
 4320TIP3   OH212904   5.724   4.452   4.054
 4320TIP3    H112905   5.693   4.390   4.120
 4320TIP3    H212906   5.757   4.527   4.105
 4321TIP3   OH212907   1.683   0.155   5.079
 4321TIP3    H112908   1.669   0.187   4.990
 4321TIP3    H212909   1.610   0.190   5.130
 4322TIP3   OH212910   2.690   1.045   1.864
 4322TIP3    H112911   2.745   1.078   1.934
 4322TIP3    H212912   2.742   1.057   1.785
 4323TIP3   OH212913   4.652   1.145   6.014
 4323TIP3    H112914   4.708   1.208   5.968
 4323TIP3    H212915   4.588   1.198   6.060
 4324TIP3   OH212916   4.462   0.903   4.407
 4324TIP3    H112917   4.369   0.922   4.410
 4324TIP3    H212918   4.504   0.978   4.449
 4325TIP3   OH212919   0.493   0.928   4.919
 4325TIP3    H112920   0.492   0.989   4.845
 4325TIP3    H212921   0.581   0.938   4.957
 4326TIP3   OH212922   6.209   3.712   5.729
 4326TIP3    H112923   6.172   3.626   5.708
 4326TIP3    H212924   6.264   3.697   5.805
 4327TIP3   OH212925   8.060   5.175   2.322
 4327TIP3    H112926   8.140   5.131   2.294
 4327TIP3    H212927   7.991   5.110   2.310
 4328TIP3   OH212928   0.171   1.030   0.179
 4328TIP3    H112929   0.186   1.119   0.148
 4328TIP3    H212930   0.253   1.005   0.222
 4329TIP3   OH212931   4.378   2.947   3.050
 4329TIP3    H112932   4.293   2.906   3.068
 4329TIP3    H212933   4.356   3.032   3.012
 4330TIP3   OH212934   4.688   3.324   3.932
 4330TIP3    H112935   4.748   3.342   3.859
 4330TIP3    H212936   4.677   3.229   3.931
 4331TIP3   OH212937   6.672   5.165   0.932
 4331TIP3    H112938   6.620   5.101   0.981
 4331TIP3    H212939   6.627   5.248   0.946
 4332TIP3   OH212940   6.273   6.854   2.690
 4332TIP3    H112941   6.204   6.831   2.753
 4332TIP3    H212942   6.239   6.824   2.606
 4333TIP3   OH212943   3.678   5.884   4.400
 4333TIP3    H112944   3.698   5.857   4.310
 4333TIP3    H212945   3.614   5.820   4.430
 4334TIP3   OH212946   7.174   0.141   5.794
 4334TIP3    H112947   7.171   0.139   5.698
 4334TIP3    H212948   7.158   0.051   5.820
 4335TIP3   OH212949   4.589   7.855   6.612
 4335TIP3    H112950   4.628   7.868   6.698
 4335TIP3    H212951   4.573   7.761   6.606
 4336TIP3   OH212952   1.705   2.710   3.900
 4336TIP3    H112953   1.627   2.724   3.846
 4336TIP3    H212954   1.763   2.784   3.879
 4337TIP3   OH212955   6.560   5.205   1.314
 4337TIP3    H112956   6.482   5.182   1.263
 4337TIP3    H212957   6.551   5.299   1.329
 4338TIP3   OH212958   7.304   4.749   0.495
 4338TIP3    H112959   7.287   4.840   0.519
 4338TIP3    H212960   7.374   4.721   0.554
 4339TIP3   OH212961   3.310   2.954   1.231
 4339TIP3    H112962   3.274   3.018   1.170
 4339TIP3    H212963   3.352   3.006   1.299
 4340TIP3   OH212964   6.282   4.537   1.894
 4340TIP3    H112965   6.304   4.445   1.908
 4340TIP3    H212966   6.213   4.555   1.958
 4341TIP3   OH212967   5.130   4.783   3.264
 4341TIP3    H112968   5.107   4.821   3.349
 4341TIP3    H212969   5.142   4.859   3.206
 4342TIP3   OH212970   1.497   7.068   1.877
 4342TIP3    H112971   1.429   7.028   1.930
 4342TIP3    H212972   1.508   7.156   1.914
 4343TIP3   OH212973   3.691   7.209   2.265
 4343TIP3    H112974   3.667   7.206   2.358
 4343TIP3    H212975   3.690   7.302   2.243
 4344TIP3   OH212976   5.958   2.646   3.045
 4344TIP3    H112977   6.033   2.645   3.104
 4344TIP3    H212978   5.939   2.554   3.028
 4345TIP3   OH212979   7.898   2.313   0.384
 4345TIP3    H112980   7.835   2.269   0.327
 4345TIP3    H212981   7.868   2.292   0.472
 4346TIP3   OH212982   5.981   6.040   2.036
 4346TIP3    H112983   6.061   6.085   2.061
 4346TIP3    H212984   5.947   6.091   1.962
 4347TIP3   OH212985   0.282   0.681   6.819
 4347TIP3    H112986   0.259   0.755   6.764
 4347TIP3    H212987   0.257   0.604   6.767
 4348TIP3   OH212988   6.492   4.514   0.866
 4348TIP3    H112989   6.584   4.536   0.849
 4348TIP3    H212990   6.475   4.438   0.810
 4349TIP3   OH212991   5.350   2.800   5.716
 4349TIP3    H112992   5.417   2.843   5.768
 4349TIP3    H212993   5.319   2.868   5.656
 4350TIP3   OH212994   3.137   6.758   1.019
 4350TIP3    H112995   3.123   6.686   0.957
 4350TIP3    H212996   3.216   6.732   1.068
 4351TIP3   OH212997   7.111   3.767   6.360
 4351TIP3    H112998   7.125   3.682   6.400
 4351TIP3    H212999   7.188   3.780   6.304
 4352TIP3   OH213000   6.924   4.537   6.149
 4352TIP3    H113001   6.842   4.535   6.198
 4352TIP3    H213002   6.948   4.444   6.139
 4353TIP3   OH213003   6.557   7.848   6.742
 4353TIP3    H113004   6.628   7.800   6.699
 4353TIP3    H213005   6.526   7.789   6.811
 4354TIP3   OH213006   8.224   3.920   5.971
 4354TIP3    H113007   8.259   3.837   6.006
 4354TIP3    H213008   8.144   3.935   6.021
 4355TIP3   OH213009   1.892   3.865   1.102
 4355TIP3    H113010   1.926   3.778   1.079
 4355TIP3    H213011   1.907   3.918   1.024
 4356TIP3   OH213012   2.454   0.215   4.522
 4356TIP3    H113013   2.421   0.305   4.513
 4356TIP3    H213014   2.383   0.160   4.489
 4357TIP3   OH213015   1.683   6.555   1.009
 4357TIP3    H113016   1.678   6.638   1.058
 4357TIP3    H213017   1.664   6.580   0.918
 4358TIP3   OH213018   4.943   5.605   2.108
 4358TIP3    H113019   4.997   5.661   2.164
 4358TIP3    H213020   4.902   5.543   2.169
 4359TIP3   OH213021   0.964   1.533   6.341
 4359TIP3    H113022   1.011   1.614   6.356
 4359TIP3    H213023   0.876   1.560   6.315
 4360TIP3   OH213024   7.833   5.882   0.928
 4360TIP3    H113025   7.865   5.800   0.966
 4360TIP3    H213026   7.912   5.924   0.894
 4361TIP3   OH213027   3.724   0.861   4.575
 4361TIP3    H113028   3.701   0.860   4.482
 4361TIP3    H213029   3.657   0.917   4.616
 4362TIP3   OH213030   1.628   6.146   6.470
 4362TIP3    H113031   1.582   6.114   6.393
 4362TIP3    H213032   1.721   6.141   6.446
 4363TIP3   OH213033   0.966   4.112   3.734
 4363TIP3    H113034   0.898   4.073   3.790
 4363TIP3    H213035   0.931   4.105   3.645
 4364TIP3   OH213036   7.060   4.312   2.970
 4364TIP3    H113037   7.094   4.237   3.018
 4364TIP3    H213038   6.987   4.344   3.023
 4365TIP3   OH213039   0.613   5.741   0.115
 4365TIP3    H113040   0.535   5.748   0.171
 4365TIP3    H213041   0.684   5.777   0.169
 4366TIP3   OH213042   5.110   0.558   3.414
 4366TIP3    H113043   5.177   0.617   3.380
 4366TIP3    H213044   5.100   0.491   3.346
 4367TIP3   OH213045   0.884   0.821   1.776
 4367TIP3    H113046   0.917   0.830   1.865
 4367TIP3    H213047   0.941   0.877   1.723
 4368TIP3   OH213048   1.571   2.402   3.122
 4368TIP3    H113049   1.483   2.406   3.159
 4368TIP3    H213050   1.590   2.493   3.098
 4369TIP3   OH213051   1.683   0.467   6.011
 4369TIP3    H113052   1.636   0.465   6.094
 4369TIP3    H213053   1.775   0.465   6.035
 4370TIP3   OH213054   2.003   1.727   2.850
 4370TIP3    H113055   1.964   1.640   2.854
 4370TIP3    H213056   1.998   1.752   2.758
 4371TIP3   OH213057   1.342   2.230   4.627
 4371TIP3    H113058   1.296   2.303   4.585
 4371TIP3    H213059   1.360   2.261   4.716
 4372TIP3   OH213060   3.056   6.644   5.713
 4372TIP3    H113061   3.106   6.723   5.732
 4372TIP3    H213062   3.043   6.647   5.618
 4373TIP3   OH213063   0.480   4.757   4.620
 4373TIP3    H113064   0.433   4.841   4.626
 4373TIP3    H213065   0.451   4.719   4.537
 4374TIP3   OH213066   4.749   1.355   0.626
 4374TIP3    H113067   4.782   1.352   0.536
 4374TIP3    H213068   4.781   1.274   0.666
 4375TIP3   OH213069   0.673   7.329   5.782
 4375TIP3    H113070   0.732   7.393   5.822
 4375TIP3    H213071   0.731   7.272   5.732
 4376TIP3   OH213072   2.680   4.028   4.659
 4376TIP3    H113073   2.746   4.018   4.727
 4376TIP3    H213074   2.706   4.108   4.612
 4377TIP3   OH213075   5.279   6.259   3.030
 4377TIP3    H113076   5.249   6.339   2.987
 4377TIP3    H213077   5.374   6.262   3.024
 4378TIP3   OH213078   6.400   4.224   3.781
 4378TIP3    H113079   6.339   4.266   3.842
 4378TIP3    H213080   6.481   4.275   3.789
 4379TIP3   OH213081   6.054   6.048   2.304
 4379TIP3    H113082   6.127   5.995   2.272
 4379TIP3    H213083   6.019   5.999   2.378
 4380TIP3   OH213084   6.331   6.497   1.068
 4380TIP3    H113085   6.237   6.497   1.048
 4380TIP3    H213086   6.362   6.412   1.035
 4381TIP3   OH213087   1.945   5.332   2.772
 4381TIP3    H113088   1.860   5.326   2.817
 4381TIP3    H213089   1.924   5.359   2.683
 4382TIP3   OH213090   4.543   6.085   1.775
 4382TIP3    H113091   4.568   6.039   1.855
 4382TIP3    H213092   4.613   6.065   1.713
 4383TIP3   OH213093   3.633   0.428   3.911
 4383TIP3    H113094   3.631   0.462   4.000
 4383TIP3    H213095   3.704   0.365   3.911
 4384TIP3   OH213096   8.218   1.462   4.920
 4384TIP3    H113097   8.220   1.384   4.864
 4384TIP3    H213098   8.125   1.476   4.938
 4385TIP3   OH213099   8.175   4.498   1.626
 4385TIP3    H113100   8.154   4.523   1.716
 4385TIP3    H213101   8.102   4.443   1.599
 4386TIP3   OH213102   6.282   3.941   0.364
 4386TIP3    H113103   6.262   3.880   0.435
 4386TIP3    H213104   6.352   3.996   0.400
 4387TIP3   OH213105   2.690   5.421   2.175
 4387TIP3    H113106   2.688   5.417   2.080
 4387TIP3    H213107   2.634   5.348   2.203
 4388TIP3   OH213108   4.698   3.907   5.426
 4388TIP3    H113109   4.697   3.824   5.474
 4388TIP3    H213110   4.639   3.964   5.475
 4389TIP3   OH213111   6.576   0.336   5.675
 4389TIP3    H113112   6.569   0.354   5.769
 4389TIP3    H213113   6.623   0.412   5.640
 4390TIP3   OH213114   4.923   3.458   3.772
 4390TIP3    H113115   4.985   3.390   3.745
 4390TIP3    H213116   4.940   3.470   3.865
 4391TIP3   OH213117   6.016   1.758   5.471
 4391TIP3    H113118   6.092   1.793   5.519
 4391TIP3    H213119   6.033   1.664   5.464
 4392TIP3   OH213120   2.287   1.014   4.100
 4392TIP3    H113121   2.337   0.954   4.156
 4392TIP3    H213122   2.333   1.011   4.016
 4393TIP3   OH213123   6.481   1.602   3.669
 4393TIP3    H113124   6.434   1.604   3.752
 4393TIP3    H213125   6.481   1.693   3.639
 4394TIP3   OH213126   6.165   1.106   1.344
 4394TIP3    H113127   6.148   1.047   1.271
 4394TIP3    H213128   6.080   1.117   1.386
 4395TIP3   OH213129   4.868   0.904   0.148
 4395TIP3    H113130   4.920   0.923   0.227
 4395TIP3    H213131   4.852   0.990   0.109
 4396TIP3   OH213132   5.017   7.165   4.047
 4396TIP3    H113133   4.974   7.085   4.075
 4396TIP3    H213134   4.952   7.209   3.992
 4397TIP3   OH213135   6.535   2.955   1.260
 4397TIP3    H113136   6.597   2.987   1.193
 4397TIP3    H213137   6.458   3.011   1.250
 4398TIP3   OH213138   4.388   2.889   0.263
 4398TIP3    H113139   4.424   2.977   0.267
 4398TIP3    H213140   4.452   2.839   0.212
 4399TIP3   OH213141   7.509   4.476   3.261
 4399TIP3    H113142   7.450   4.473   3.185
 4399TIP3    H213143   7.450   4.472   3.337
 4400TIP3   OH213144   6.308   0.347   1.643
 4400TIP3    H113145   6.387   0.294   1.627
 4400TIP3    H213146   6.314   0.372   1.735
 4401TIP3   OH213147   3.182   4.427   5.285
 4401TIP3    H113148   3.194   4.448   5.192
 4401TIP3    H213149   3.266   4.448   5.326
 4402TIP3   OH213150   0.104   0.138   2.738
 4402TIP3    H113151   0.185   0.182   2.760
 4402TIP3    H213152   0.131   0.053   2.702
 4403TIP3   OH213153   4.539   5.792   6.807
 4403TIP3    H113154   4.469   5.844   6.767
 4403TIP3    H213155   4.556   5.835   6.891
 4404TIP3   OH213156   4.728   6.805   3.893
 4404TIP3    H113157   4.648   6.773   3.935
 4404TIP3    H213158   4.712   6.794   3.799
 4405TIP3   OH213159   7.174   4.948   6.362
 4405TIP3    H113160   7.270   4.954   6.362
 4405TIP3    H213161   7.156   4.862   6.401
 4406TIP3   OH213162   0.745   7.537   2.553
 4406TIP3    H113163   0.834   7.556   2.523
 4406TIP3    H213164   0.689   7.594   2.500
 4407TIP3   OH213165   4.836   1.570   5.937
 4407TIP3    H113166   4.745   1.582   5.908
 4407TIP3    H213167   4.841   1.616   6.021
 4408TIP3   OH213168   4.254   6.292   4.541
 4408TIP3    H113169   4.232   6.200   4.526
 4408TIP3    H213170   4.342   6.290   4.580
 4409TIP3   OH213171   4.059   4.502   5.730
 4409TIP3    H113172   4.083   4.594   5.743
 4409TIP3    H213173   4.050   4.493   5.635
 4410TIP3   OH213174   3.744   2.535   3.416
 4410TIP3    H113175   3.809   2.591   3.374
 4410TIP3    H213176   3.752   2.557   3.509
 4411TIP3   OH213177   5.821   3.278   5.435
 4411TIP3    H113178   5.759   3.310   5.370
 4411TIP3    H213179   5.859   3.200   5.395
 4412TIP3   OH213180   6.070   3.707   0.236
 4412TIP3    H113181   6.074   3.768   0.310
 4412TIP3    H213182   5.994   3.735   0.186
 4413TIP3   OH213183   8.094   0.057   5.559
 4413TIP3    H113184   8.114   0.011   5.478
 4413TIP3    H213185   8.178   0.087   5.592
 4414TIP3   OH213186   8.053   1.070   0.766
 4414TIP3    H113187   8.114   1.041   0.699
 4414TIP3    H213188   7.967   1.062   0.726
 4415TIP3   OH213189   5.045   7.028   2.293
 4415TIP3    H113190   5.003   7.064   2.215
 4415TIP3    H213191   5.137   7.055   2.285
 4416TIP3   OH213192   1.437   3.763   3.649
 4416TIP3    H113193   1.346   3.756   3.680
 4416TIP3    H213194   1.436   3.838   3.590
 4417TIP3   OH213195   1.682   7.353   0.212
 4417TIP3    H113196   1.717   7.441   0.224
 4417TIP3    H213197   1.678   7.317   0.301
 4418TIP3   OH213198   7.333   5.703   0.514
 4418TIP3    H113199   7.255   5.749   0.544
 4418TIP3    H213200   7.405   5.764   0.531
 4419TIP3   OH213201   5.459   2.190   5.393
 4419TIP3    H113202   5.468   2.219   5.483
 4419TIP3    H213203   5.537   2.138   5.376
 4420TIP3   OH213204   7.638   5.201   3.248
 4420TIP3    H113205   7.663   5.145   3.322
 4420TIP3    H213206   7.591   5.274   3.288
 4421TIP3   OH213207   6.344   5.193   2.475
 4421TIP3    H113208   6.353   5.133   2.400
 4421TIP3    H213209   6.381   5.276   2.444
 4422TIP3   OH213210   5.137   2.343   3.968
 4422TIP3    H113211   5.175   2.360   3.882
 4422TIP3    H213212   5.129   2.248   3.973
 4423TIP3   OH213213   0.669   5.742   5.714
 4423TIP3    H113214   0.582   5.732   5.752
 4423TIP3    H213215   0.655   5.795   5.635
 4424TIP3   OH213216   0.334   6.099   4.878
 4424TIP3    H113217   0.396   6.111   4.949
 4424TIP3    H213218   0.386   6.105   4.798
 4425TIP3   OH213219   0.173   0.461   2.852
 4425TIP3    H113220   0.194   0.370   2.830
 4425TIP3    H213221   0.169   0.462   2.948
 4426TIP3   OH213222   1.831   7.373   1.123
 4426TIP3    H113223   1.809   7.282   1.103
 4426TIP3    H213224   1.758   7.404   1.176
 4427TIP3   OH213225   5.249   0.262   3.186
 4427TIP3    H113226   5.306   0.210   3.129
 4427TIP3    H213227   5.287   0.251   3.273
 4428TIP3   OH213228   1.267   0.374   1.964
 4428TIP3    H113229   1.219   0.306   1.915
 4428TIP3    H213230   1.303   0.431   1.896
 4429TIP3   OH213231   6.577   2.815   4.813
 4429TIP3    H113232   6.543   2.754   4.878
 4429TIP3    H213233   6.521   2.801   4.736
 4430TIP3   OH213234   5.805   0.392   0.895
 4430TIP3    H113235   5.885   0.344   0.918
 4430TIP3    H213236   5.828   0.484   0.907
 4431TIP3   OH213237   6.169   7.667   0.551
 4431TIP3    H113238   6.247   7.612   0.562
 4431TIP3    H213239   6.103   7.607   0.517
 4432TIP3   OH213240   1.423   6.875   6.492
 4432TIP3    H113241   1.384   6.791   6.516
 4432TIP3    H213242   1.425   6.873   6.396
 4433TIP3   OH213243   1.896   3.242   4.978
 4433TIP3    H113244   1.826   3.177   4.989
 4433TIP3    H213245   1.952   3.206   4.909
 4434TIP3   OH213246   3.549   3.095   4.622
 4434TIP3    H113247   3.645   3.101   4.619
 4434TIP3    H213248   3.520   3.185   4.632
 4435TIP3   OH213249   1.465   7.001   0.530
 4435TIP3    H113250   1.500   7.009   0.619
 4435TIP3    H213251   1.473   6.908   0.509
 4436TIP3   OH213252   0.749   6.277   5.908
 4436TIP3    H113253   0.803   6.353   5.931
 4436TIP3    H213254   0.753   6.273   5.813
 4437TIP3   OH213255   6.101   2.109   4.274
 4437TIP3    H113256   6.118   2.040   4.337
 4437TIP3    H213257   6.151   2.184   4.305
 4438TIP3   OH213258   5.684   3.357   3.324
 4438TIP3    H113259   5.683   3.415   3.248
 4438TIP3    H213260   5.709   3.414   3.397
 4439TIP3   OH213261   7.291   1.041   1.312
 4439TIP3    H113262   7.254   1.127   1.295
 4439TIP3    H213263   7.250   0.984   1.247
 4440TIP3   OH213264   7.479   7.571   5.268
 4440TIP3    H113265   7.504   7.499   5.210
 4440TIP3    H213266   7.402   7.610   5.227
 4441TIP3   OH213267   7.032   4.181   4.514
 4441TIP3    H113268   6.990   4.202   4.431
 4441TIP3    H213269   7.032   4.263   4.563
 4442TIP3   OH213270   3.021   6.312   3.898
 4442TIP3    H113271   3.014   6.403   3.927
 4442TIP3    H213272   3.114   6.290   3.909
 4443TIP3   OH213273   5.886   0.033   2.167
 4443TIP3    H113274   5.849   0.095   2.104
 4443TIP3    H213275   5.916   0.088   2.239
 4444TIP3   OH213276   2.054   0.711   3.998
 4444TIP3    H113277   2.142   0.680   3.977
 4444TIP3    H213278   1.997   0.640   3.970
 4445TIP3   OH213279   4.107   5.632   4.749
 4445TIP3    H113280   4.016   5.663   4.748
 4445TIP3    H213281   4.129   5.619   4.657
 4446TIP3   OH213282   1.723   0.597   5.511
 4446TIP3    H113283   1.715   0.593   5.606
 4446TIP3    H213284   1.798   0.540   5.491
 4447TIP3   OH213285   7.083   0.369   0.095
 4447TIP3    H113286   7.127   0.454   0.091
 4447TIP3    H213287   7.039   0.369   0.180
 4448TIP3   OH213288   5.014   5.469   6.062
 4448TIP3    H113289   5.002   5.563   6.048
 4448TIP3    H213290   5.076   5.442   5.995
 4449TIP3   OH213291   0.567   4.814   2.201
 4449TIP3    H113292   0.598   4.771   2.121
 4449TIP3    H213293   0.555   4.905   2.177
 4450TIP3   OH213294   3.214   3.980   1.163
 4450TIP3    H113295   3.147   3.925   1.203
 4450TIP3    H213296   3.297   3.942   1.192
 4451TIP3   OH213297   1.171   2.299   4.246
 4451TIP3    H113298   1.084   2.328   4.217
 4451TIP3    H213299   1.153   2.236   4.316
 4452TIP3   OH213300   2.830   3.076   0.240
 4452TIP3    H113301   2.872   3.117   0.316
 4452TIP3    H213302   2.736   3.084   0.257
 4453TIP3   OH213303   7.265   6.972   4.724
 4453TIP3    H113304   7.189   6.914   4.716
 4453TIP3    H213305   7.340   6.914   4.712
 4454TIP3   OH213306   0.513   3.953   4.140
 4454TIP3    H113307   0.591   3.900   4.123
 4454TIP3    H213308   0.495   3.939   4.233
 4455TIP3   OH213309   5.135   7.606   4.938
 4455TIP3    H113310   5.069   7.588   4.870
 4455TIP3    H213311   5.096   7.675   4.992
 4456TIP3   OH213312   5.348   6.527   2.211
 4456TIP3    H113313   5.441   6.535   2.191
 4456TIP3    H213314   5.304   6.542   2.128
 4457TIP3   OH213315   1.012   1.566   0.061
 4457TIP3    H113316   1.031   1.477   0.090
 4457TIP3    H213317   1.006   1.617   0.142
 4458TIP3   OH213318   4.507   3.049   3.592
 4458TIP3    H113319   4.483   2.971   3.542
 4458TIP3    H213320   4.432   3.066   3.649
 4459TIP3   OH213321   6.952   5.190   5.305
 4459TIP3    H113322   6.901   5.194   5.224
 4459TIP3    H213323   6.959   5.097   5.324
 4460TIP3   OH213324   5.810   7.142   3.877
 4460TIP3    H113325   5.875   7.151   3.946
 4460TIP3    H213326   5.729   7.177   3.915
 4461TIP3   OH213327   5.796   1.827   2.185
 4461TIP3    H113328   5.745   1.849   2.263
 4461TIP3    H213329   5.882   1.804   2.219
 4462TIP3   OH213330   3.235   1.313   3.734
 4462TIP3    H113331   3.167   1.369   3.773
 4462TIP3    H213332   3.188   1.235   3.705
 4463TIP3   OH213333   3.378   0.284   0.039
 4463TIP3    H113334   3.317   0.358   0.033
 4463TIP3    H213335   3.385   0.267   0.133
 4464TIP3   OH213336   7.986   1.481   0.890
 4464TIP3    H113337   8.009   1.535   0.966
 4464TIP3    H213338   8.010   1.392   0.916
 4465TIP3   OH213339   7.610   2.165   4.316
 4465TIP3    H113340   7.532   2.121   4.281
 4465TIP3    H213341   7.655   2.199   4.239
 4466TIP3   OH213342   2.684   3.535   1.142
 4466TIP3    H113343   2.730   3.564   1.220
 4466TIP3    H213344   2.592   3.534   1.167
 4467TIP3   OH213345   0.307   5.320   5.268
 4467TIP3    H113346   0.267   5.351   5.187
 4467TIP3    H213347   0.298   5.225   5.265
 4468TIP3   OH213348   5.455   1.621   1.361
 4468TIP3    H113349   5.416   1.641   1.447
 4468TIP3    H213350   5.391   1.656   1.298
 4469TIP3   OH213351   5.451   4.690   2.357
 4469TIP3    H113352   5.467   4.667   2.449
 4469TIP3    H213353   5.357   4.679   2.345
 4470TIP3   OH213354   6.421   7.592   2.765
 4470TIP3    H113355   6.453   7.682   2.769
 4470TIP3    H213356   6.373   7.580   2.847
 4471TIP3   OH213357   4.981   0.704   3.128
 4471TIP3    H113358   4.930   0.784   3.138
 4471TIP3    H213359   4.958   0.652   3.205
 4472TIP3   OH213360   3.777   1.459   0.454
 4472TIP3    H113361   3.714   1.530   0.448
 4472TIP3    H213362   3.725   1.379   0.449
 4473TIP3   OH213363   1.899   4.724   5.186
 4473TIP3    H113364   1.959   4.772   5.129
 4473TIP3    H213365   1.863   4.655   5.130
 4474TIP3   OH213366   6.060   6.971   2.975
 4474TIP3    H113367   6.127   7.037   2.954
 4474TIP3    H213368   6.032   6.937   2.890
 4475TIP3   OH213369   7.212   6.526   1.853
 4475TIP3    H113370   7.237   6.538   1.945
 4475TIP3    H213371   7.261   6.449   1.824
 4476TIP3   OH213372   2.063   6.598   3.711
 4476TIP3    H113373   2.020   6.579   3.795
 4476TIP3    H213374   2.000   6.655   3.666
 4477TIP3   OH213375   6.890   4.586   5.542
 4477TIP3    H113376   6.972   4.615   5.582
 4477TIP3    H213377   6.916   4.544   5.461
 4478TIP3   OH213378   0.860   3.043   2.532
 4478TIP3    H113379   0.947   3.074   2.557
 4478TIP3    H213380   0.854   2.955   2.569
 4479TIP3   OH213381   8.171   7.319   4.383
 4479TIP3    H113382   8.193   7.278   4.467
 4479TIP3    H213383   8.188   7.251   4.318
 4480TIP3   OH213384   4.418   1.857   2.759
 4480TIP3    H113385   4.496   1.825   2.713
 4480TIP3    H213386   4.345   1.833   2.702
 4481TIP3   OH213387   5.239   1.975   2.214
 4481TIP3    H113388   5.298   2.031   2.164
 4481TIP3    H213389   5.153   2.015   2.201
 4482TIP3   OH213390   1.615   3.263   5.347
 4482TIP3    H113391   1.577   3.209   5.417
 4482TIP3    H213392   1.546   3.270   5.281
 4483TIP3   OH213393   7.370   7.459   3.461
 4483TIP3    H113394   7.419   7.380   3.439
 4483TIP3    H213395   7.430   7.531   3.441
 4484TIP3   OH213396   0.181   7.679   2.068
 4484TIP3    H113397   0.202   7.690   1.976
 4484TIP3    H213398   0.224   7.753   2.111
 4485TIP3   OH213399   6.166   3.065   0.364
 4485TIP3    H113400   6.224   3.074   0.289
 4485TIP3    H213401   6.211   3.110   0.435
 4486TIP3   OH213402   1.884   5.807   4.933
 4486TIP3    H113403   1.972   5.783   4.964
 4486TIP3    H213404   1.839   5.723   4.923
 4487TIP3   OH213405   8.008   7.628   5.910
 4487TIP3    H113406   7.966   7.712   5.889
 4487TIP3    H213407   8.088   7.628   5.858
 4488TIP3   OH213408   3.010   3.194   0.804
 4488TIP3    H113409   2.927   3.213   0.761
 4488TIP3    H213410   3.063   3.152   0.736
 4489TIP3   OH213411   2.727   1.138   2.591
 4489TIP3    H113412   2.725   1.104   2.681
 4489TIP3    H213413   2.654   1.094   2.547
 4490TIP3   OH213414   5.767   0.310   2.906
 4490TIP3    H113415   5.774   0.286   2.998
 4490TIP3    H213416   5.680   0.280   2.879
 4491TIP3   OH213417   1.299   3.616   6.363
 4491TIP3    H113418   1.355   3.584   6.292
 4491TIP3    H213419   1.224   3.654   6.318
 4492TIP3   OH213420   1.566   7.739   0.462
 4492TIP3    H113421   1.593   7.752   0.553
 4492TIP3    H213422   1.483   7.693   0.468
 4493TIP3   OH213423   8.195   5.143   4.151
 4493TIP3    H113424   8.202   5.219   4.209
 4493TIP3    H213425   8.286   5.121   4.130
 4494TIP3   OH213426   3.186   5.708   3.067
 4494TIP3    H113427   3.134   5.716   3.146
 4494TIP3    H213428   3.273   5.742   3.091
 4495TIP3   OH213429   4.683   5.448   2.012
 4495TIP3    H113430   4.708   5.493   1.931
 4495TIP3    H213431   4.765   5.422   2.053
 4496TIP3   OH213432   2.110   3.823   6.243
 4496TIP3    H113433   2.073   3.742   6.210
 4496TIP3    H213434   2.198   3.800   6.272
 4497TIP3   OH213435   6.946   4.969   1.142
 4497TIP3    H113436   6.964   4.928   1.226
 4497TIP3    H213437   6.983   5.057   1.150
 4498TIP3   OH213438   3.194   2.854   2.728
 4498TIP3    H113439   3.279   2.812   2.715
 4498TIP3    H213440   3.153   2.804   2.798
 4499TIP3   OH213441   2.326   4.335   3.928
 4499TIP3    H113442   2.248   4.379   3.892
 4499TIP3    H213443   2.308   4.242   3.916
 4500TIP3   OH213444   7.540   0.207   3.322
 4500TIP3    H113445   7.600   0.136   3.301
 4500TIP3    H213446   7.595   0.285   3.328
 4501TIP3   OH213447   4.277   1.338   3.609
 4501TIP3    H113448   4.285   1.252   3.649
 4501TIP3    H213449   4.351   1.344   3.548
 4502TIP3   OH213450   4.327   3.731   0.183
 4502TIP3    H113451   4.401   3.786   0.158
 4502TIP3    H213452   4.266   3.791   0.226
 4503TIP3   OH213453   6.201   6.377   4.606
 4503TIP3    H113454   6.206   6.312   4.536
 4503TIP3    H213455   6.157   6.332   4.678
 4504TIP3   OH213456   3.046   4.310   3.957
 4504TIP3    H113457   2.974   4.373   3.960
 4504TIP3    H213458   3.019   4.246   3.891
 4505TIP3   OH213459   3.119   5.608   5.677
 4505TIP3    H113460   3.094   5.690   5.721
 4505TIP3    H213461   3.082   5.617   5.589
 4506TIP3   OH213462   4.091   7.331   4.654
 4506TIP3    H113463   4.185   7.315   4.653
 4506TIP3    H213464   4.065   7.329   4.562
 4507TIP3   OH213465   0.078   7.046   5.196
 4507TIP3    H113466   0.165   7.052   5.235
 4507TIP3    H213467   0.021   7.023   5.269
 4508TIP3   OH213468   2.710   1.249   5.665
 4508TIP3    H113469   2.643   1.227   5.601
 4508TIP3    H213470   2.763   1.169   5.672
 4509TIP3   OH213471   7.622   5.311   1.857
 4509TIP3    H113472   7.644   5.218   1.868
 4509TIP3    H213473   7.671   5.337   1.779
 4510TIP3   OH213474   2.625   2.039   2.174
 4510TIP3    H113475   2.595   2.026   2.084
 4510TIP3    H213476   2.716   2.068   2.165
 4511TIP3   OH213477   3.111   3.519   6.009
 4511TIP3    H113478   3.185   3.466   6.037
 4511TIP3    H213479   3.150   3.596   5.968
 4512TIP3   OH213480   1.798   0.438   0.931
 4512TIP3    H113481   1.785   0.483   0.848
 4512TIP3    H213482   1.718   0.456   0.981
 4513TIP3   OH213483   2.268   1.986   6.343
 4513TIP3    H113484   2.346   1.930   6.342
 4513TIP3    H213485   2.284   2.051   6.274
 4514TIP3   OH213486   5.779   7.099   5.058
 4514TIP3    H113487   5.790   7.023   5.000
 4514TIP3    H213488   5.735   7.164   5.004
 4515TIP3   OH213489   4.407   4.103   5.834
 4515TIP3    H113490   4.320   4.080   5.866
 4515TIP3    H213491   4.422   4.191   5.868
 4516TIP3   OH213492   1.665   6.530   2.228
 4516TIP3    H113493   1.742   6.564   2.184
 4516TIP3    H213494   1.601   6.516   2.158
 4517TIP3   OH213495   7.833   2.657   6.455
 4517TIP3    H113496   7.839   2.749   6.431
 4517TIP3    H213497   7.794   2.615   6.378
 4518TIP3   OH213498   1.960   5.132   2.580
 4518TIP3    H113499   1.893   5.071   2.611
 4518TIP3    H213500   1.995   5.172   2.659
 4519TIP3   OH213501   3.770   4.263   4.605
 4519TIP3    H113502   3.761   4.301   4.692
 4519TIP3    H213503   3.825   4.186   4.619
 4520TIP3   OH213504   0.680   7.496   0.331
 4520TIP3    H113505   0.657   7.585   0.360
 4520TIP3    H213506   0.625   7.439   0.383
 4521TIP3   OH213507   2.843   7.121   0.383
 4521TIP3    H113508   2.751   7.130   0.359
 4521TIP3    H213509   2.866   7.207   0.420
 4522TIP3   OH213510   3.759   3.031   2.071
 4522TIP3    H113511   3.769   3.121   2.041
 4522TIP3    H213512   3.775   2.978   1.993
 4523TIP3   OH213513   4.477   4.865   4.671
 4523TIP3    H113514   4.390   4.863   4.710
 4523TIP3    H213515   4.520   4.940   4.711
 4524TIP3   OH213516   5.969   7.180   2.222
 4524TIP3    H113517   6.038   7.147   2.281
 4524TIP3    H213518   5.983   7.132   2.140
 4525TIP3   OH213519   7.187   5.717   4.800
 4525TIP3    H113520   7.194   5.773   4.877
 4525TIP3    H213521   7.274   5.720   4.760
 4526TIP3   OH213522   3.705   7.686   2.664
 4526TIP3    H113523   3.614   7.716   2.667
 4526TIP3    H213524   3.733   7.684   2.755
 4527TIP3   OH213525   3.794   2.956   4.020
 4527TIP3    H113526   3.828   3.045   4.008
 4527TIP3    H213527   3.779   2.949   4.114
 4528TIP3   OH213528   5.402   6.292   0.017
 4528TIP3    H113529   5.310   6.268   0.030
 4528TIP3    H213530   5.405   6.386   0.032
 4529TIP3   OH213531   3.041   4.530   3.295
 4529TIP3    H113532   3.051   4.518   3.201
 4529TIP3    H213533   2.962   4.480   3.317
 4530TIP3   OH213534   8.013   2.172   4.698
 4530TIP3    H113535   8.006   2.266   4.682
 4530TIP3    H213536   8.056   2.137   4.619
 4531TIP3   OH213537   1.131   4.184   2.443
 4531TIP3    H113538   1.080   4.186   2.524
 4531TIP3    H213539   1.181   4.266   2.444
 4532TIP3   OH213540   5.188   0.478   3.054
 4532TIP3    H113541   5.204   0.398   3.105
 4532TIP3    H213542   5.117   0.521   3.101
 4533TIP3   OH213543   7.074   4.061   1.538
 4533TIP3    H113544   7.142   4.077   1.604
 4533TIP3    H213545   7.102   4.113   1.462
 4534TIP3   OH213546   4.787   2.308   2.092
 4534TIP3    H113547   4.804   2.394   2.055
 4534TIP3    H213548   4.702   2.316   2.135
 4535TIP3   OH213549   0.521   0.552   3.244
 4535TIP3    H113550   0.499   0.511   3.160
 4535TIP3    H213551   0.595   0.501   3.277
 4536TIP3   OH213552   5.635   3.728   5.302
 4536TIP3    H113553   5.596   3.664   5.243
 4536TIP3    H213554   5.668   3.797   5.244
 4537TIP3   OH213555   3.016   0.327   1.648
 4537TIP3    H113556   3.054   0.370   1.571
 4537TIP3    H213557   3.082   0.263   1.674
 4538TIP3   OH213558   2.105   0.358   3.974
 4538TIP3    H113559   2.198   0.352   3.995
 4538TIP3    H213560   2.089   0.450   3.955
 4539TIP3   OH213561   1.722   0.093   3.911
 4539TIP3    H113562   1.629   0.075   3.925
 4539TIP3    H213563   1.724   0.146   3.831
 4540TIP3   OH213564   3.551   4.681   4.065
 4540TIP3    H113565   3.601   4.601   4.044
 4540TIP3    H213566   3.489   4.654   4.132
 4541TIP3   OH213567   2.945   2.919   6.444
 4541TIP3    H113568   2.905   3.005   6.458
 4541TIP3    H213569   2.955   2.913   6.349
 4542TIP3   OH213570   5.947   3.420   5.943
 4542TIP3    H113571   6.011   3.419   5.872
 4542TIP3    H213572   5.935   3.513   5.963
 4543TIP3   OH213573   7.472   4.000   3.879
 4543TIP3    H113574   7.549   3.957   3.916
 4543TIP3    H213575   7.461   3.960   3.793
 4544TIP3   OH213576   6.258   6.960   0.684
 4544TIP3    H113577   6.261   6.910   0.602
 4544TIP3    H213578   6.167   6.958   0.711
 4545TIP3   OH213579   0.690   2.190   4.289
 4545TIP3    H113580   0.694   2.262   4.351
 4545TIP3    H213581   0.659   2.230   4.208
 4546TIP3   OH213582   7.755   1.319   6.732
 4546TIP3    H113583   7.731   1.325   6.639
 4546TIP3    H213584   7.675   1.342   6.779
 4547TIP3   OH213585   4.632   3.269   1.701
 4547TIP3    H113586   4.585   3.209   1.759
 4547TIP3    H213587   4.694   3.214   1.653
 4548TIP3   OH213588   6.434   5.068   0.448
 4548TIP3    H113589   6.515   5.077   0.498
 4548TIP3    H213590   6.463   5.036   0.362
 4549TIP3   OH213591   6.135   5.171   3.118
 4549TIP3    H113592   6.065   5.231   3.092
 4549TIP3    H213593   6.116   5.089   3.072
 4550TIP3   OH213594   0.067   2.633   3.051
 4550TIP3    H113595   0.150   2.661   3.091
 4550TIP3    H213596   0.047   2.702   2.987
 4551TIP3   OH213597   1.540   6.548   4.348
 4551TIP3    H113598   1.465   6.528   4.291
 4551TIP3    H213599   1.589   6.467   4.352
 4552TIP3   OH213600   4.160   1.730   3.885
 4552TIP3    H113601   4.107   1.810   3.889
 4552TIP3    H213602   4.248   1.759   3.911
 4553TIP3   OH213603   6.689   2.142   2.645
 4553TIP3    H113604   6.755   2.072   2.649
 4553TIP3    H213605   6.668   2.161   2.736
 4554TIP3   OH213606   6.821   5.156   4.993
 4554TIP3    H113607   6.756   5.208   4.946
 4554TIP3    H213608   6.855   5.095   4.928
 4555TIP3   OH213609   1.989   7.358   0.036
 4555TIP3    H113610   1.994   7.334   0.129
 4555TIP3    H213611   2.018   7.280  -0.011
 4556TIP3   OH213612   7.279   6.536   3.710
 4556TIP3    H113613   7.245   6.616   3.669
 4556TIP3    H213614   7.261   6.546   3.803
 4557TIP3   OH213615   4.206   5.920   5.369
 4557TIP3    H113616   4.257   5.998   5.391
 4557TIP3    H213617   4.146   5.909   5.443
 4558TIP3   OH213618   1.806   3.360   2.985
 4558TIP3    H113619   1.826   3.373   3.077
 4558TIP3    H213620   1.834   3.270   2.967
 4559TIP3   OH213621   2.265   0.010   5.865
 4559TIP3    H113622   2.307   0.082   5.913
 4559TIP3    H213623   2.184  -0.006   5.913
 4560TIP3   OH213624   4.306   2.093   3.045
 4560TIP3    H113625   4.292   2.183   3.018
 4560TIP3    H213626   4.220   2.051   3.036
 4561TIP3   OH213627   4.361   5.152   0.631
 4561TIP3    H113628   4.355   5.073   0.685
 4561TIP3    H213629   4.374   5.119   0.542
 4562TIP3   OH213630   6.708   2.791   0.447
 4562TIP3    H113631   6.639   2.846   0.481
 4562TIP3    H213632   6.789   2.830   0.481
 4563TIP3   OH213633   0.404   3.924   4.379
 4563TIP3    H113634   0.476   3.894   4.434
 4563TIP3    H213635   0.325   3.905   4.429
 4564TIP3   OH213636   4.516   3.908   2.266
 4564TIP3    H113637   4.441   3.968   2.271
 4564TIP3    H213638   4.579   3.943   2.328
 4565TIP3   OH213639   5.347   5.074   4.192
 4565TIP3    H113640   5.316   5.029   4.271
 4565TIP3    H213641   5.291   5.151   4.185
 4566TIP3   OH213642   0.319   3.803   1.764
 4566TIP3    H113643   0.300   3.887   1.806
 4566TIP3    H213644   0.373   3.756   1.828
 4567TIP3   OH213645   7.166   0.658   5.806
 4567TIP3    H113646   7.166   0.713   5.728
 4567TIP3    H213647   7.115   0.581   5.782
 4568TIP3   OH213648   1.835   6.454   1.907
 4568TIP3    H113649   1.767   6.389   1.888
 4568TIP3    H213650   1.874   6.473   1.822
 4569TIP3   OH213651   7.227   3.349   5.364
 4569TIP3    H113652   7.181   3.266   5.380
 4569TIP3    H213653   7.164   3.416   5.392
 4570TIP3   OH213654   2.174   1.932   1.261
 4570TIP3    H113655   2.116   1.872   1.308
 4570TIP3    H213656   2.261   1.915   1.297
 4571TIP3   OH213657   2.453   2.097  -0.009
 4571TIP3    H113658   2.362   2.067  -0.006
 4571TIP3    H213659   2.480   2.101   0.083
 4572TIP3   OH213660   8.115   0.788   5.403
 4572TIP3    H113661   8.082   0.817   5.488
 4572TIP3    H213662   8.036   0.761   5.355
 4573TIP3   OH213663   3.773   5.912   4.917
 4573TIP3    H113664   3.806   5.973   4.851
 4573TIP3    H213665   3.822   5.934   4.996
 4574TIP3   OH213666   4.680   4.580   3.152
 4574TIP3    H113667   4.675   4.614   3.241
 4574TIP3    H213668   4.689   4.658   3.097
 4575TIP3   OH213669   5.618   1.319   2.881
 4575TIP3    H113670   5.538   1.266   2.884
 4575TIP3    H213671   5.621   1.353   2.791
 4576TIP3   OH213672   3.683   7.087   4.791
 4576TIP3    H113673   3.711   7.044   4.872
 4576TIP3    H213674   3.588   7.086   4.794
 4577TIP3   OH213675   7.964   7.663   6.182
 4577TIP3    H113676   7.871   7.671   6.202
 4577TIP3    H213677   7.967   7.650   6.087
 4578TIP3   OH213678   6.841   7.788   0.206
 4578TIP3    H113679   6.846   7.839   0.125
 4578TIP3    H213680   6.747   7.778   0.223
 4579TIP3   OH213681   7.572   5.252   5.751
 4579TIP3    H113682   7.611   5.231   5.835
 4579TIP3    H213683   7.589   5.175   5.696
 4580TIP3   OH213684   3.759   3.879   5.802
 4580TIP3    H113685   3.697   3.813   5.771
 4580TIP3    H213686   3.758   3.946   5.734
 4581TIP3   OH213687   7.846   2.424   2.922
 4581TIP3    H113688   7.831   2.444   2.830
 4581TIP3    H213689   7.885   2.503   2.958
 4582TIP3   OH213690   0.976   1.184   2.166
 4582TIP3    H113691   0.901   1.244   2.161
 4582TIP3    H213692   1.003   1.171   2.076
 4583TIP3   OH213693   7.715   0.291   5.382
 4583TIP3    H113694   7.666   0.340   5.448
 4583TIP3    H213695   7.807   0.306   5.404
 4584TIP3   OH213696   8.274   2.447   1.141
 4584TIP3    H113697   8.194   2.399   1.164
 4584TIP3    H213698   8.255   2.538   1.167
 4585TIP3   OH213699   1.654   1.041   0.169
 4585TIP3    H113700   1.630   1.020   0.259
 4585TIP3    H213701   1.678   1.133   0.171
 4586TIP3   OH213702   6.494   0.363   5.928
 4586TIP3    H113703   6.469   0.454   5.939
 4586TIP3    H213704   6.424   0.314   5.973
 4587TIP3   OH213705   5.671   0.358   0.651
 4587TIP3    H113706   5.651   0.270   0.682
 4587TIP3    H213707   5.738   0.391   0.711
 4588TIP3   OH213708   5.178   0.952   0.252
 4588TIP3    H113709   5.272   0.936   0.246
 4588TIP3    H213710   5.151   0.969   0.162
 4589TIP3   OH213711   2.927   1.701   6.568
 4589TIP3    H113712   2.936   1.609   6.543
 4589TIP3    H213713   2.854   1.733   6.515
 4590TIP3   OH213714   4.990   5.429   0.520
 4590TIP3    H113715   5.064   5.485   0.541
 4590TIP3    H213716   4.939   5.480   0.457
 4591TIP3   OH213717   4.641   0.808   2.123
 4591TIP3    H113718   4.581   0.797   2.196
 4591TIP3    H213719   4.651   0.903   2.114
 4592TIP3   OH213720   7.780   5.008   3.074
 4592TIP3    H113721   7.738   5.094   3.080
 4592TIP3    H213722   7.723   4.951   3.125
 4593TIP3   OH213723   6.580   4.621   4.801
 4593TIP3    H113724   6.597   4.608   4.708
 4593TIP3    H213725   6.514   4.555   4.823
 4594TIP3   OH213726   2.733   2.119   1.768
 4594TIP3    H113727   2.774   2.202   1.792
 4594TIP3    H213728   2.736   2.117   1.673
 4595TIP3   OH213729   0.202   6.835   5.413
 4595TIP3    H113730   0.296   6.821   5.397
 4595TIP3    H213731   0.160   6.813   5.330
 4596TIP3   OH213732   1.277   3.497   0.815
 4596TIP3    H113733   1.194   3.526   0.851
 4596TIP3    H213734   1.253   3.429   0.751
 4597TIP3   OH213735   6.109   3.025   3.881
 4597TIP3    H113736   6.192   2.985   3.855
 4597TIP3    H213737   6.131   3.078   3.958
 4598TIP3   OH213738   2.537   1.398   1.095
 4598TIP3    H113739   2.473   1.357   1.037
 4598TIP3    H213740   2.617   1.349   1.081
 4599TIP3   OH213741   2.779   6.783   5.624
 4599TIP3    H113742   2.687   6.808   5.618
 4599TIP3    H213743   2.804   6.804   5.715
 4600TIP3   OH213744   5.803   7.559   2.771
 4600TIP3    H113745   5.770   7.559   2.860
 4600TIP3    H213746   5.735   7.604   2.720
 4601TIP3   OH213747   1.466   0.541   0.907
 4601TIP3    H113748   1.525   0.585   0.845
 4601TIP3    H213749   1.405   0.492   0.852
 4602TIP3   OH213750   2.897   6.826   0.238
 4602TIP3    H113751   2.942   6.752   0.196
 4602TIP3    H213752   2.843   6.863   0.169
 4603TIP3   OH213753   8.090   7.193   1.102
 4603TIP3    H113754   8.062   7.141   1.027
 4603TIP3    H213755   8.150   7.137   1.150
 4604TIP3   OH213756   5.800   2.438   1.783
 4604TIP3    H113757   5.788   2.410   1.874
 4604TIP3    H213758   5.835   2.361   1.738
 4605TIP3   OH213759   7.048   7.599   6.667
 4605TIP3    H113760   7.114   7.559   6.610
 4605TIP3    H213761   7.096   7.664   6.718
 4606TIP3   OH213762   0.512   6.408   0.251
 4606TIP3    H113763   0.535   6.477   0.189
 4606TIP3    H213764   0.579   6.413   0.319
 4607TIP3   OH213765   0.828   6.102   2.566
 4607TIP3    H113766   0.734   6.115   2.563
 4607TIP3    H213767   0.843   6.051   2.645
 4608TIP3   OH213768   5.762   4.253   1.218
 4608TIP3    H113769   5.839   4.208   1.254
 4608TIP3    H213770   5.796   4.306   1.146
 4609TIP3   OH213771   2.301   7.454   5.770
 4609TIP3    H113772   2.276   7.524   5.831
 4609TIP3    H213773   2.227   7.393   5.772
 4610TIP3   OH213774   2.502   2.410   2.548
 4610TIP3    H113775   2.422   2.458   2.572
 4610TIP3    H213776   2.558   2.417   2.625
 4611TIP3   OH213777   4.150   4.193   4.404
 4611TIP3    H113778   4.097   4.112   4.403
 4611TIP3    H213779   4.240   4.162   4.407
 4612TIP3   OH213780   1.553   0.716   2.762
 4612TIP3    H113781   1.463   0.722   2.796
 4612TIP3    H213782   1.607   0.746   2.835
 4613TIP3   OH213783   6.277   3.379   3.042
 4613TIP3    H113784   6.306   3.382   3.133
 4613TIP3    H213785   6.230   3.297   3.034
 4614TIP3   OH213786   0.453   3.559   1.845
 4614TIP3    H113787   0.466   3.612   1.924
 4614TIP3    H213788   0.459   3.469   1.877
 4615TIP3   OH213789   7.417   6.685   5.586
 4615TIP3    H113790   7.448   6.720   5.502
 4615TIP3    H213791   7.350   6.621   5.561
 4616TIP3   OH213792   1.107   4.553   2.745
 4616TIP3    H113793   1.013   4.542   2.759
 4616TIP3    H213794   1.114   4.604   2.665
 4617TIP3   OH213795   1.889   1.922   5.008
 4617TIP3    H113796   1.907   2.014   4.992
 4617TIP3    H213797   1.886   1.914   5.103
 4618TIP3   OH213798   6.647   5.566   5.086
 4618TIP3    H113799   6.556   5.576   5.112
 4618TIP3    H213800   6.697   5.603   5.159
 4619TIP3   OH213801   2.337   3.721   2.737
 4619TIP3    H113802   2.384   3.643   2.768
 4619TIP3    H213803   2.247   3.709   2.767
 4620TIP3   OH213804   5.632   2.742   0.150
 4620TIP3    H113805   5.559   2.694   0.111
 4620TIP3    H213806   5.678   2.780   0.075
 4621TIP3   OH213807   5.946   3.556   3.949
 4621TIP3    H113808   5.945   3.460   3.946
 4621TIP3    H213809   5.962   3.582   3.858
 4622TIP3   OH213810   2.856   7.781   5.690
 4622TIP3    H113811   2.885   7.872   5.691
 4622TIP3    H213812   2.925   7.733   5.736
 4623TIP3   OH213813   2.066   1.451   3.752
 4623TIP3    H113814   2.142   1.393   3.754
 4623TIP3    H213815   2.101   1.536   3.726
 4624TIP3   OH213816   4.465   3.114   6.585
 4624TIP3    H113817   4.546   3.115   6.636
 4624TIP3    H213818   4.445   3.021   6.572
 4625TIP3   OH213819   5.318   0.379   1.992
 4625TIP3    H113820   5.334   0.455   2.048
 4625TIP3    H213821   5.287   0.417   1.909
 4626TIP3   OH213822   1.382   4.301   1.059
 4626TIP3    H113823   1.303   4.352   1.038
 4626TIP3    H213824   1.455   4.361   1.042
 4627TIP3   OH213825   0.137   5.611   6.141
 4627TIP3    H113826   0.176   5.561   6.069
 4627TIP3    H213827   0.162   5.701   6.123
 4628TIP3   OH213828   0.515   7.634   4.397
 4628TIP3    H113829   0.488   7.670   4.313
 4628TIP3    H213830   0.452   7.670   4.460
 4629TIP3   OH213831   5.918   7.559   6.141
 4629TIP3    H113832   5.897   7.628   6.078
 4629TIP3    H213833   5.871   7.482   6.108
 4630TIP3   OH213834   8.288   6.455   3.922
 4630TIP3    H113835   8.328   6.538   3.893
 4630TIP3    H213836   8.272   6.406   3.842
 4631TIP3   OH213837   8.000   6.714   6.744
 4631TIP3    H113838   7.905   6.715   6.729
 4631TIP3    H213839   8.020   6.802   6.777
 4632TIP3   OH213840   2.175   3.387   3.614
 4632TIP3    H113841   2.110   3.457   3.603
 4632TIP3    H213842   2.167   3.334   3.534
 4633TIP3   OH213843   0.849   1.778   2.969
 4633TIP3    H113844   0.792   1.824   3.032
 4633TIP3    H213845   0.911   1.846   2.940
 4634TIP3   OH213846   7.573   5.027   1.839
 4634TIP3    H113847   7.548   4.979   1.760
 4634TIP3    H213848   7.559   4.964   1.910
 4635TIP3   OH213849   8.207   6.553   0.110
 4635TIP3    H113850   8.179   6.556   0.019
 4635TIP3    H213851   8.171   6.633   0.149
 4636TIP3   OH213852   6.502   7.434   2.576
 4636TIP3    H113853   6.502   7.485   2.657
 4636TIP3    H213854   6.536   7.494   2.510
 4637TIP3   OH213855   0.284   2.962   1.625
 4637TIP3    H113856   0.289   3.025   1.553
 4637TIP3    H213857   0.193   2.966   1.654
 4638TIP3   OH213858   0.875   2.817   3.924
 4638TIP3    H113859   0.955   2.769   3.904
 4638TIP3    H213860   0.835   2.835   3.839
 4639TIP3   OH213861   0.139   4.669   2.208
 4639TIP3    H113862   0.060   4.634   2.248
 4639TIP3    H213863   0.173   4.598   2.154
 4640TIP3   OH213864   0.511   4.734   6.271
 4640TIP3    H113865   0.443   4.750   6.337
 4640TIP3    H213866   0.524   4.819   6.229
 4641TIP3   OH213867   2.436   6.447   0.346
 4641TIP3    H113868   2.366   6.501   0.382
 4641TIP3    H213869   2.391   6.367   0.316
 4642TIP3   OH213870   6.866   5.697   3.352
 4642TIP3    H113871   6.908   5.782   3.340
 4642TIP3    H213872   6.915   5.638   3.294
 4643TIP3   OH213873   4.235   0.522   6.126
 4643TIP3    H113874   4.282   0.439   6.128
 4643TIP3    H213875   4.225   0.547   6.218
 4644TIP3   OH213876   3.307   3.972   1.640
 4644TIP3    H113877   3.242   4.035   1.606
 4644TIP3    H213878   3.267   3.887   1.624
 4645TIP3   OH213879   6.590   7.474   3.169
 4645TIP3    H113880   6.501   7.458   3.139
 4645TIP3    H213881   6.589   7.565   3.200
 4646TIP3   OH213882   3.878   3.550   0.716
 4646TIP3    H113883   3.896   3.464   0.754
 4646TIP3    H213884   3.962   3.577   0.677
 4647TIP3   OH213885   3.612   2.820   1.644
 4647TIP3    H113886   3.621   2.798   1.737
 4647TIP3    H213887   3.550   2.893   1.643
 4648TIP3   OH213888   8.084   2.553   5.792
 4648TIP3    H113889   8.119   2.550   5.881
 4648TIP3    H213890   7.991   2.571   5.804
 4649TIP3   OH213891   1.119   7.304   0.996
 4649TIP3    H113892   1.163   7.386   1.022
 4649TIP3    H213893   1.030   7.330   0.975
 4650TIP3   OH213894   8.106   4.959   1.282
 4650TIP3    H113895   8.183   4.983   1.231
 4650TIP3    H213896   8.115   5.006   1.364
 4651TIP3   OH213897   6.296   7.590   6.025
 4651TIP3    H113898   6.233   7.553   6.087
 4651TIP3    H213899   6.276   7.548   5.942
 4652TIP3   OH213900   0.963   5.979   4.916
 4652TIP3    H113901   1.033   5.917   4.936
 4652TIP3    H213902   1.006   6.049   4.866
 4653TIP3   OH213903   1.642   4.222   2.821
 4653TIP3    H113904   1.708   4.188   2.880
 4653TIP3    H213905   1.567   4.163   2.832
 4654TIP3   OH213906   4.831   1.839   2.506
 4654TIP3    H113907   4.918   1.858   2.470
 4654TIP3    H213908   4.783   1.921   2.497
 4655TIP3   OH213909   8.317   7.108   6.127
 4655TIP3    H113910   8.246   7.043   6.128
 4655TIP3    H213911   8.373   7.080   6.054
 4656TIP3   OH213912   7.777   1.819   5.571
 4656TIP3    H113913   7.724   1.764   5.629
 4656TIP3    H213914   7.753   1.909   5.596
 4657TIP3   OH213915   5.808   4.953   3.649
 4657TIP3    H113916   5.741   4.933   3.583
 4657TIP3    H213917   5.877   4.998   3.600
 4658TIP3   OH213918   8.255   0.919   6.076
 4658TIP3    H113919   8.245   0.997   6.022
 4658TIP3    H213920   8.177   0.867   6.058
 4659TIP3   OH213921   6.297   4.796   1.228
 4659TIP3    H113922   6.223   4.857   1.224
 4659TIP3    H213923   6.257   4.710   1.216
 4660TIP3   OH213924   0.373   6.106   5.514
 4660TIP3    H113925   0.357   6.198   5.497
 4660TIP3    H213926   0.386   6.101   5.609
 4661TIP3   OH213927   3.276   6.798   5.153
 4661TIP3    H113928   3.227   6.853   5.093
 4661TIP3    H213929   3.269   6.843   5.238
 4662TIP3   OH213930   2.446   5.326   5.721
 4662TIP3    H113931   2.380   5.333   5.791
 4662TIP3    H213932   2.520   5.377   5.752
 4663TIP3   OH213933   0.540   3.404   0.948
 4663TIP3    H113934   0.472   3.339   0.965
 4663TIP3    H213935   0.565   3.436   1.035
 4664TIP3   OH213936   7.071   3.133   5.400
 4664TIP3    H113937   7.102   3.044   5.379
 4664TIP3    H213938   6.983   3.137   5.362
 4665TIP3   OH213939   4.578   5.796   4.586
 4665TIP3    H113940   4.565   5.869   4.525
 4665TIP3    H213941   4.587   5.719   4.530
 4666TIP3   OH213942   2.882   4.751   2.752
 4666TIP3    H113943   2.796   4.759   2.712
 4666TIP3    H213944   2.903   4.840   2.780
 4667TIP3   OH213945   2.748   4.183   3.020
 4667TIP3    H113946   2.798   4.230   2.953
 4667TIP3    H213947   2.766   4.232   3.101
 4668TIP3   OH213948   6.939   2.116   2.169
 4668TIP3    H113949   6.953   2.109   2.074
 4668TIP3    H213950   6.885   2.194   2.179
 4669TIP3   OH213951   5.854   5.452   5.263
 4669TIP3    H113952   5.832   5.442   5.356
 4669TIP3    H213953   5.878   5.364   5.235
 4670TIP3   OH213954   7.507   5.608   6.601
 4670TIP3    H113955   7.525   5.515   6.610
 4670TIP3    H213956   7.501   5.623   6.507
 4671TIP3   OH213957   8.227   3.913   4.460
 4671TIP3    H113958   8.191   3.884   4.543
 4671TIP3    H213959   8.223   4.009   4.464
 4672TIP3   OH213960   6.934   3.880   3.750
 4672TIP3    H113961   6.908   3.851   3.837
 4672TIP3    H213962   6.865   3.848   3.692
 4673TIP3   OH213963   7.242   0.517   4.820
 4673TIP3    H113964   7.300   0.507   4.745
 4673TIP3    H213965   7.155   0.528   4.782
 4674TIP3   OH213966   3.039   7.854   0.705
 4674TIP3    H113967   3.116   7.870   0.760
 4674TIP3    H213968   2.965   7.853   0.766
 4675TIP3   OH213969   5.450   6.966   4.954
 4675TIP3    H113970   5.419   7.013   5.031
 4675TIP3    H213971   5.443   6.873   4.977
 4676TIP3   OH213972   4.020   4.717   6.589
 4676TIP3    H113973   4.105   4.726   6.544
 4676TIP3    H213974   4.008   4.622   6.597
 4677TIP3   OH213975   6.347   5.640   2.047
 4677TIP3    H113976   6.438   5.659   2.072
 4677TIP3    H213977   6.302   5.624   2.130
 4678TIP3   OH213978   7.471   2.323   5.246
 4678TIP3    H113979   7.405   2.346   5.181
 4678TIP3    H213980   7.504   2.238   5.218
 4679TIP3   OH213981   6.658   5.170   3.613
 4679TIP3    H113982   6.709   5.151   3.534
 4679TIP3    H213983   6.641   5.085   3.652
 4680TIP3   OH213984   0.968   0.391   3.867
 4680TIP3    H113985   1.045   0.402   3.813
 4680TIP3    H213986   0.969   0.299   3.893
 4681TIP3   OH213987   7.840   0.113   2.492
 4681TIP3    H113988   7.814   0.053   2.422
 4681TIP3    H213989   7.927   0.144   2.465
 4682TIP3   OH213990   5.183   4.088   3.819
 4682TIP3    H113991   5.175   4.170   3.868
 4682TIP3    H213992   5.269   4.053   3.843
 4683TIP3   OH213993   7.356   6.287   6.173
 4683TIP3    H113994   7.394   6.239   6.246
 4683TIP3    H213995   7.291   6.344   6.214
 4684TIP3   OH213996   2.734   0.191   5.853
 4684TIP3    H113997   2.706   0.268   5.901
 4684TIP3    H213998   2.708   0.207   5.762
 4685TIP3   OH213999   4.117   6.394   1.734
 4685TIP3    H114000   4.091   6.417   1.645
 4685TIP3    H214001   4.140   6.301   1.729
 4686TIP3   OH214002   5.389   0.388   3.758
 4686TIP3    H114003   5.482   0.366   3.752
 4686TIP3    H214004   5.387   0.468   3.811
 4687TIP3   OH214005   7.823   6.238   4.103
 4687TIP3    H114006   7.910   6.199   4.113
 4687TIP3    H214007   7.762   6.166   4.122
 4688TIP3   OH214008   5.339   6.263   2.260
 4688TIP3    H114009   5.324   6.355   2.282
 4688TIP3    H214010   5.389   6.265   2.179
 4689TIP3   OH214011   1.351   2.371   1.389
 4689TIP3    H114012   1.299   2.339   1.463
 4689TIP3    H214013   1.430   2.316   1.390
 4690TIP3   OH214014   5.288   6.898   5.190
 4690TIP3    H114015   5.315   6.984   5.221
 4690TIP3    H214016   5.194   6.893   5.209
 4691TIP3   OH214017   2.182   2.102   3.226
 4691TIP3    H114018   2.250   2.039   3.206
 4691TIP3    H214019   2.102   2.065   3.187
 4692TIP3   OH214020   2.459   5.747   6.186
 4692TIP3    H114021   2.434   5.800   6.110
 4692TIP3    H214022   2.554   5.743   6.182
 4693TIP3   OH214023   5.962   5.629   4.855
 4693TIP3    H114024   6.012   5.635   4.774
 4693TIP3    H214025   5.983   5.542   4.890
 4694TIP3   OH214026   6.317   4.686   0.018
 4694TIP3    H114027   6.381   4.617   0.002
 4694TIP3    H214028   6.308   4.690   0.114
 4695TIP3   OH214029   4.310   1.158   2.705
 4695TIP3    H114030   4.275   1.238   2.666
 4695TIP3    H214031   4.310   1.174   2.799
 4696TIP3   OH214032   7.590   2.329   4.553
 4696TIP3    H114033   7.537   2.399   4.515
 4696TIP3    H214034   7.614   2.274   4.479
 4697TIP3   OH214035   6.157   5.052   3.374
 4697TIP3    H114036   6.170   5.081   3.284
 4697TIP3    H214037   6.235   4.999   3.393
 4698TIP3   OH214038   1.364   3.744   0.618
 4698TIP3    H114039   1.290   3.742   0.678
 4698TIP3    H214040   1.380   3.652   0.597
 4699TIP3   OH214041   2.640   0.940   4.188
 4699TIP3    H114042   2.677   0.852   4.185
 4699TIP3    H214043   2.590   0.941   4.270
 4700TIP3   OH214044   0.779   0.948   5.393
 4700TIP3    H114045   0.873   0.944   5.413
 4700TIP3    H214046   0.738   0.896   5.462
 4701TIP3   OH214047   7.252   6.402   0.365
 4701TIP3    H114048   7.336   6.420   0.407
 4701TIP3    H214049   7.197   6.477   0.387
 4702TIP3   OH214050   1.159   5.619   1.741
 4702TIP3    H114051   1.114   5.606   1.658
 4702TIP3    H214052   1.129   5.704   1.772
 4703TIP3   OH214053   0.298   4.482   2.046
 4703TIP3    H114054   0.314   4.471   1.953
 4703TIP3    H214055   0.384   4.474   2.087
 4704TIP3   OH214056   5.098   3.284   2.847
 4704TIP3    H114057   5.058   3.273   2.761
 4704TIP3    H214058   5.041   3.235   2.907
 4705TIP3   OH214059   4.403   3.014   6.127
 4705TIP3    H114060   4.359   3.035   6.045
 4705TIP3    H214061   4.357   2.937   6.161
 4706TIP3   OH214062   4.771   1.082   5.044
 4706TIP3    H114063   4.761   1.023   4.969
 4706TIP3    H214064   4.828   1.034   5.105
 4707TIP3   OH214065   2.219   0.173   0.782
 4707TIP3    H114066   2.288   0.217   0.732
 4707TIP3    H214067   2.249   0.082   0.789
 4708TIP3   OH214068   0.495   5.124   4.952
 4708TIP3    H114069   0.521   5.112   5.043
 4708TIP3    H214070   0.439   5.049   4.932
 4709TIP3   OH214071   1.141   4.862   5.978
 4709TIP3    H114072   1.067   4.885   5.922
 4709TIP3    H214073   1.217   4.902   5.936
 4710TIP3   OH214074   4.385   3.336   3.972
 4710TIP3    H114075   4.480   3.329   3.986
 4710TIP3    H214076   4.349   3.260   4.017
 4711TIP3   OH214077   3.740   3.516   0.467
 4711TIP3    H114078   3.790   3.549   0.541
 4711TIP3    H214079   3.666   3.577   0.458
 4712TIP3   OH214080   5.925   6.327   2.721
 4712TIP3    H114081   5.917   6.287   2.808
 4712TIP3    H214082   6.015   6.308   2.695
 4713TIP3   OH214083   7.266   5.906   0.681
 4713TIP3    H114084   7.259   5.927   0.774
 4713TIP3    H214085   7.209   5.969   0.638
 4714TIP3   OH214086   7.741   0.227   3.608
 4714TIP3    H114087   7.657   0.273   3.615
 4714TIP3    H214088   7.728   0.161   3.541
 4715TIP3   OH214089   2.980   7.340   4.372
 4715TIP3    H114090   3.024   7.279   4.313
 4715TIP3    H214091   2.890   7.343   4.341
 4716TIP3   OH214092   5.491   3.399   2.706
 4716TIP3    H114093   5.437   3.476   2.691
 4716TIP3    H214094   5.428   3.327   2.711
 4717TIP3   OH214095   4.327   6.298   5.603
 4717TIP3    H114096   4.415   6.306   5.638
 4717TIP3    H214097   4.314   6.378   5.551
 4718TIP3   OH214098   0.909   2.819   5.921
 4718TIP3    H114099   0.999   2.841   5.898
 4718TIP3    H214100   0.867   2.903   5.939
 4719TIP3   OH214101   0.067   1.560   5.128
 4719TIP3    H114102   0.117   1.605   5.060
 4719TIP3    H214103   0.002   1.509   5.080
 4720TIP3   OH214104   6.382   3.439   3.368
 4720TIP3    H114105   6.333   3.368   3.326
 4720TIP3    H214106   6.450   3.395   3.418
 4721TIP3   OH214107   3.367   0.115   2.091
 4721TIP3    H114108   3.340   0.164   2.013
 4721TIP3    H214109   3.463   0.118   2.090
 4722TIP3   OH214110   6.525   6.443   2.106
 4722TIP3    H114111   6.491   6.532   2.101
 4722TIP3    H214112   6.508   6.406   2.019
 4723TIP3   OH214113   2.600   2.815   3.434
 4723TIP3    H114114   2.506   2.823   3.450
 4723TIP3    H214115   2.637   2.788   3.519
 4724TIP3   OH214116   2.550   3.998   3.805
 4724TIP3    H114117   2.523   3.935   3.738
 4724TIP3    H214118   2.640   3.974   3.825
 4725TIP3   OH214119   0.172   2.625   5.120
 4725TIP3    H114120   0.080   2.611   5.098
 4725TIP3    H214121   0.220   2.600   5.041
 4726TIP3   OH214122   4.245   0.900   3.483
 4726TIP3    H114123   4.269   0.942   3.401
 4726TIP3    H214124   4.166   0.945   3.511
 4727TIP3   OH214125   2.307   6.053   6.553
 4727TIP3    H114126   2.379   6.019   6.501
 4727TIP3    H214127   2.304   5.996   6.630
 4728TIP3   OH214128   2.401   1.221   5.828
 4728TIP3    H114129   2.444   1.197   5.746
 4728TIP3    H214130   2.473   1.237   5.889
 4729TIP3   OH214131   2.823   0.260   1.108
 4729TIP3    H114132   2.794   0.311   1.183
 4729TIP3    H214133   2.892   0.203   1.143
 4730TIP3   OH214134   2.908   1.050   5.658
 4730TIP3    H114135   2.947   1.048   5.571
 4730TIP3    H214136   2.973   1.094   5.713
 4731TIP3   OH214137   5.233   0.685   6.287
 4731TIP3    H114138   5.148   0.727   6.302
 4731TIP3    H214139   5.218   0.625   6.214
 4732TIP3   OH214140   0.788   6.189   4.142
 4732TIP3    H114141   0.866   6.225   4.098
 4732TIP3    H214142   0.714   6.222   4.092
 4733TIP3   OH214143   1.748   3.797   2.943
 4733TIP3    H114144   1.833   3.815   2.984
 4733TIP3    H214145   1.706   3.734   3.001
 4734TIP3   OH214146   4.344   6.414   3.764
 4734TIP3    H114147   4.334   6.441   3.855
 4734TIP3    H214148   4.402   6.338   3.767
 4735TIP3   OH214149   3.668   6.325   2.568
 4735TIP3    H114150   3.636   6.251   2.619
 4735TIP3    H214151   3.588   6.369   2.537
 4736TIP3   OH214152   6.524   5.742   1.281
 4736TIP3    H114153   6.567   5.812   1.232
 4736TIP3    H214154   6.498   5.783   1.363
 4737TIP3   OH214155   4.793   6.783   0.847
 4737TIP3    H114156   4.714   6.832   0.827
 4737TIP3    H214157   4.827   6.823   0.927
 4738TIP3   OH214158   6.510   1.663   1.590
 4738TIP3    H114159   6.447   1.733   1.576
 4738TIP3    H214160   6.456   1.584   1.599
 4739TIP3   OH214161   5.197   6.483   0.820
 4739TIP3    H114162   5.146   6.553   0.861
 4739TIP3    H214163   5.209   6.512   0.730
 4740TIP3   OH214164   5.465   6.353   4.060
 4740TIP3    H114165   5.505   6.434   4.028
 4740TIP3    H214166   5.538   6.302   4.096
 4741TIP3   OH214167   0.239   1.111   4.754
 4741TIP3    H114168   0.253   1.128   4.847
 4741TIP3    H214169   0.321   1.137   4.712
 4742TIP3   OH214170   8.120   7.567   6.376
 4742TIP3    H114171   8.119   7.471   6.375
 4742TIP3    H214172   8.068   7.592   6.300
 4743TIP3   OH214173   7.230   2.020   3.704
 4743TIP3    H114174   7.322   2.043   3.690
 4743TIP3    H214175   7.207   2.063   3.787
 4744TIP3   OH214176   1.809   7.530   4.807
 4744TIP3    H114177   1.827   7.441   4.838
 4744TIP3    H214178   1.890   7.558   4.765
 4745TIP3   OH214179   7.439   7.422   3.986
 4745TIP3    H114180   7.373   7.380   4.041
 4745TIP3    H214181   7.420   7.392   3.897
 4746TIP3   OH214182   8.253   1.182   1.337
 4746TIP3    H114183   8.342   1.151   1.321
 4746TIP3    H214184   8.214   1.115   1.393
 4747TIP3   OH214185   2.763   0.155   2.275
 4747TIP3    H114186   2.732   0.206   2.350
 4747TIP3    H214187   2.758   0.064   2.304
 4748TIP3   OH214188   0.697   3.284   0.727
 4748TIP3    H114189   0.684   3.218   0.796
 4748TIP3    H214190   0.766   3.247   0.672
 4749TIP3   OH214191   3.559   4.254   3.219
 4749TIP3    H114192   3.554   4.340   3.176
 4749TIP3    H214193   3.547   4.191   3.148
 4750TIP3   OH214194   3.140   3.671   6.324
 4750TIP3    H114195   3.168   3.718   6.245
 4750TIP3    H214196   3.200   3.597   6.331
 4751TIP3   OH214197   0.129   1.968   3.452
 4751TIP3    H114198   0.079   2.020   3.515
 4751TIP3    H214199   0.106   1.878   3.472
 4752TIP3   OH214200   0.582   4.682   4.869
 4752TIP3    H114201   0.566   4.701   4.777
 4752TIP3    H214202   0.503   4.639   4.900
 4753TIP3   OH214203   3.233   3.773   1.355
 4753TIP3    H114204   3.286   3.756   1.434
 4753TIP3    H214205   3.239   3.691   1.306
 4754TIP3   OH214206   4.741   2.529   4.976
 4754TIP3    H114207   4.821   2.487   4.944
 4754TIP3    H214208   4.752   2.621   4.952
 4755TIP3   OH214209   3.502   2.615   3.278
 4755TIP3    H114210   3.573   2.584   3.336
 4755TIP3    H214211   3.483   2.539   3.223
 4756TIP3   OH214212   7.368   4.718   5.344
 4756TIP3    H114213   7.353   4.798   5.294
 4756TIP3    H214214   7.396   4.749   5.430
 4757TIP3   OH214215   2.916   1.420   5.591
 4757TIP3    H114216   2.930   1.421   5.496
 4757TIP3    H214217   2.839   1.364   5.603
 4758TIP3   OH214218   5.180   0.377   4.564
 4758TIP3    H114219   5.168   0.285   4.587
 4758TIP3    H214220   5.149   0.384   4.474
 4759TIP3   OH214221   0.973   2.032   0.657
 4759TIP3    H114222   0.989   2.026   0.563
 4759TIP3    H214223   0.975   2.125   0.677
 4760TIP3   OH214224   5.855   5.965   2.477
 4760TIP3    H114225   5.841   5.888   2.531
 4760TIP3    H214226   5.769   5.983   2.438
 4761TIP3   OH214227   0.724   4.551   1.694
 4761TIP3    H114228   0.733   4.646   1.683
 4761TIP3    H214229   0.811   4.523   1.724
 4762TIP3   OH214230   7.189   4.004   0.428
 4762TIP3    H114231   7.255   3.960   0.482
 4762TIP3    H214232   7.106   3.983   0.470
 4763TIP3   OH214233   2.186   1.033   0.663
 4763TIP3    H114234   2.197   1.053   0.756
 4763TIP3    H214235   2.275   1.032   0.629
 4764TIP3   OH214236   7.734   5.636   4.329
 4764TIP3    H114237   7.772   5.572   4.269
 4764TIP3    H214238   7.808   5.671   4.377
 4765TIP3   OH214239   7.748   5.654   6.306
 4765TIP3    H114240   7.822   5.599   6.282
 4765TIP3    H214241   7.673   5.594   6.309
 4766TIP3   OH214242   1.889   5.727   1.317
 4766TIP3    H114243   1.910   5.634   1.307
 4766TIP3    H214244   1.953   5.772   1.262
 4767TIP3   OH214245   7.751   2.292   5.916
 4767TIP3    H114246   7.824   2.325   5.969
 4767TIP3    H214247   7.773   2.317   5.827
 4768TIP3   OH214248   7.302   2.514   6.162
 4768TIP3    H114249   7.361   2.539   6.234
 4768TIP3    H214250   7.360   2.474   6.097
 4769TIP3   OH214251   5.773   2.592   3.352
 4769TIP3    H114252   5.844   2.530   3.338
 4769TIP3    H214253   5.816   2.671   3.385
 4770TIP3   OH214254   3.779   3.480   1.297
 4770TIP3    H114255   3.848   3.489   1.363
 4770TIP3    H214256   3.738   3.567   1.293
 4771TIP3   OH214257   2.867   7.268   1.139
 4771TIP3    H114258   2.951   7.224   1.129
 4771TIP3    H214259   2.819   7.247   1.059
 4772TIP3   OH214260   2.828   5.215   3.071
 4772TIP3    H114261   2.869   5.129   3.076
 4772TIP3    H214262   2.763   5.207   3.002
 4773TIP3   OH214263   6.347   4.173   5.686
 4773TIP3    H114264   6.408   4.148   5.755
 4773TIP3    H214265   6.348   4.098   5.625
 4774TIP3   OH214266   6.635   2.264   6.406
 4774TIP3    H114267   6.557   2.209   6.399
 4774TIP3    H214268   6.667   2.272   6.316
 4775TIP3   OH214269   4.689   6.144   2.740
 4775TIP3    H114270   4.724   6.110   2.822
 4775TIP3    H214271   4.755   6.121   2.674
 4776TIP3   OH214272   6.673   0.871   6.045
 4776TIP3    H114273   6.624   0.931   5.989
 4776TIP3    H214274   6.756   0.859   6.001
 4777TIP3   OH214275   2.232   5.973   0.203
 4777TIP3    H114276   2.180   5.924   0.139
 4777TIP3    H214277   2.278   5.906   0.253
 4778TIP3   OH214278   1.840   4.043   1.302
 4778TIP3    H114279   1.801   4.105   1.240
 4778TIP3    H214280   1.863   3.967   1.248
 4779TIP3   OH214281   7.928   5.015   2.058
 4779TIP3    H114282   7.894   5.049   2.141
 4779TIP3    H214283   7.907   4.922   2.060
 4780TIP3   OH214284   8.152   1.626   3.325
 4780TIP3    H114285   8.228   1.628   3.384
 4780TIP3    H214286   8.126   1.534   3.323
 4781TIP3   OH214287   2.305   7.415   5.105
 4781TIP3    H114288   2.315   7.500   5.147
 4781TIP3    H214289   2.393   7.391   5.075
 4782TIP3   OH214290   7.504   0.352   3.674
 4782TIP3    H114291   7.517   0.367   3.768
 4782TIP3    H214292   7.435   0.413   3.650
 4783TIP3   OH214293   2.331   2.821   5.803
 4783TIP3    H114294   2.245   2.792   5.771
 4783TIP3    H214295   2.324   2.816   5.898
 4784TIP3   OH214296   1.739   0.919   2.029
 4784TIP3    H114297   1.798   0.956   2.094
 4784TIP3    H214298   1.796   0.868   1.971
 4785TIP3   OH214299   7.896   4.530   3.334
 4785TIP3    H114300   7.893   4.625   3.336
 4785TIP3    H214301   7.861   4.506   3.248
 4786TIP3   OH214302   8.159   1.266   6.406
 4786TIP3    H114303   8.140   1.207   6.479
 4786TIP3    H214304   8.138   1.353   6.439
 4787TIP3   OH214305   3.492   2.834   4.112
 4787TIP3    H114306   3.569   2.826   4.168
 4787TIP3    H214307   3.466   2.926   4.118
 4788TIP3   OH214308   1.846   3.838   4.693
 4788TIP3    H114309   1.928   3.798   4.664
 4788TIP3    H214310   1.778   3.774   4.669
 4789TIP3   OH214311   5.505   4.641   2.617
 4789TIP3    H114312   5.418   4.603   2.622
 4789TIP3    H214313   5.516   4.688   2.700
 4790TIP3   OH214314   6.586   6.551   5.519
 4790TIP3    H114315   6.555   6.641   5.534
 4790TIP3    H214316   6.598   6.515   5.606
 4791TIP3   OH214317   7.443   6.066   1.183
 4791TIP3    H114318   7.476   6.151   1.212
 4791TIP3    H214319   7.473   6.058   1.092
 4792TIP3   OH214320   4.531   2.622   6.667
 4792TIP3    H114321   4.472   2.638   6.741
 4792TIP3    H214322   4.617   2.612   6.708
 4793TIP3   OH214323   4.159   4.945   2.888
 4793TIP3    H114324   4.129   4.992   2.966
 4793TIP3    H214325   4.109   4.983   2.816
 4794TIP3   OH214326   7.661   2.688   1.615
 4794TIP3    H114327   7.703   2.757   1.667
 4794TIP3    H214328   7.675   2.608   1.665
 4795TIP3   OH214329   4.345   1.799   1.427
 4795TIP3    H114330   4.308   1.849   1.499
 4795TIP3    H214331   4.409   1.741   1.468
 4796TIP3   OH214332   4.652   4.230   4.209
 4796TIP3    H114333   4.662   4.207   4.302
 4796TIP3    H214334   4.706   4.167   4.162
 4797TIP3   OH214335   7.572   6.686   2.736
 4797TIP3    H114336   7.643   6.744   2.763
 4797TIP3    H214337   7.615   6.617   2.685
 4798TIP3   OH214338   5.942   6.454   0.773
 4798TIP3    H114339   5.871   6.479   0.715
 4798TIP3    H214340   5.990   6.386   0.726
 4799TIP3   OH214341   3.557   5.087   2.618
 4799TIP3    H114342   3.469   5.051   2.625
 4799TIP3    H214343   3.555   5.143   2.541
 4800TIP3   OH214344   2.435   0.284   0.155
 4800TIP3    H114345   2.410   0.218   0.219
 4800TIP3    H214346   2.414   0.245   0.071
 4801TIP3   OH214347   4.566   5.213   1.759
 4801TIP3    H114348   4.564   5.145   1.826
 4801TIP3    H214349   4.657   5.245   1.760
 4802TIP3   OH214350   2.914   3.722   0.499
 4802TIP3    H114351   2.904   3.704   0.593
 4802TIP3    H214352   2.957   3.645   0.464
 4803TIP3   OH214353   3.916   7.641   6.509
 4803TIP3    H114354   3.834   7.629   6.558
 4803TIP3    H214355   3.969   7.697   6.565
 4804TIP3   OH214356   6.068   5.409   4.997
 4804TIP3    H114357   6.150   5.359   5.001
 4804TIP3    H214358   6.002   5.350   5.033
 4805TIP3   OH214359   5.314   6.035   5.452
 4805TIP3    H114360   5.271   6.055   5.535
 4805TIP3    H214361   5.243   6.036   5.387
 4806TIP3   OH214362   1.636   1.572   1.739
 4806TIP3    H114363   1.679   1.592   1.656
 4806TIP3    H214364   1.567   1.509   1.716
 4807TIP3   OH214365   6.916   4.076   1.002
 4807TIP3    H114366   6.828   4.051   1.031
 4807TIP3    H214367   6.947   4.000   0.952
 4808TIP3   OH214368   7.554   5.009   4.547
 4808TIP3    H114369   7.608   4.938   4.583
 4808TIP3    H214370   7.590   5.089   4.585
 4809TIP3   OH214371   0.207   0.913   5.918
 4809TIP3    H114372   0.141   0.946   5.978
 4809TIP3    H214373   0.249   0.841   5.964
 4810TIP3   OH214374   5.694   0.587   5.906
 4810TIP3    H114375   5.765   0.528   5.880
 4810TIP3    H214376   5.662   0.551   5.988
 4811TIP3   OH214377   5.932   0.820   1.623
 4811TIP3    H114378   5.935   0.801   1.529
 4811TIP3    H214379   5.925   0.915   1.628
 4812TIP3   OH214380   7.217   0.627   2.760
 4812TIP3    H114381   7.283   0.658   2.698
 4812TIP3    H214382   7.135   0.630   2.712
 4813TIP3   OH214383   5.062   0.162   5.795
 4813TIP3    H114384   5.139   0.194   5.749
 4813TIP3    H214385   5.011   0.118   5.728
 4814TIP3   OH214386   1.206   1.792   3.608
 4814TIP3    H114387   1.248   1.879   3.608
 4814TIP3    H214388   1.120   1.807   3.647
 4815TIP3   OH214389   2.122   4.608   0.646
 4815TIP3    H114390   2.199   4.661   0.626
 4815TIP3    H214391   2.048   4.660   0.615
 4816TIP3   OH214392   5.600   7.240   1.954
 4816TIP3    H114393   5.541   7.258   2.028
 4816TIP3    H214394   5.563   7.292   1.882
 4817TIP3   OH214395   3.904   2.440   5.200
 4817TIP3    H114396   3.877   2.479   5.283
 4817TIP3    H214397   3.894   2.511   5.136
 4818TIP3   OH214398   5.637   6.860   3.672
 4818TIP3    H114399   5.614   6.774   3.709
 4818TIP3    H214400   5.693   6.900   3.738
 4819TIP3   OH214401   1.746   4.191   5.257
 4819TIP3    H114402   1.789   4.117   5.298
 4819TIP3    H214403   1.678   4.217   5.319
 4820TIP3   OH214404   0.331   3.244   4.851
 4820TIP3    H114405   0.303   3.180   4.917
 4820TIP3    H214406   0.347   3.324   4.901
 4821TIP3   OH214407   5.545   4.673   6.319
 4821TIP3    H114408   5.487   4.662   6.244
 4821TIP3    H214409   5.508   4.747   6.367
 4822TIP3   OH214410   1.513   7.140   6.520
 4822TIP3    H114411   1.492   7.049   6.538
 4822TIP3    H214412   1.445   7.169   6.459
 4823TIP3   OH214413   5.739   3.870   5.513
 4823TIP3    H114414   5.713   3.813   5.441
 4823TIP3    H214415   5.782   3.812   5.576
 4824TIP3   OH214416   3.546   1.602   6.062
 4824TIP3    H114417   3.557   1.624   6.154
 4824TIP3    H214418   3.595   1.521   6.051
 4825TIP3   OH214419   1.596   2.939   0.956
 4825TIP3    H114420   1.685   2.973   0.947
 4825TIP3    H214421   1.588   2.874   0.887
 4826TIP3   OH214422   5.760   7.694   2.178
 4826TIP3    H114423   5.790   7.684   2.088
 4826TIP3    H214424   5.774   7.609   2.218
 4827TIP3   OH214425   3.766   7.359   1.857
 4827TIP3    H114426   3.818   7.411   1.796
 4827TIP3    H214427   3.689   7.332   1.807
 4828TIP3   OH214428   5.040   2.009   3.854
 4828TIP3    H114429   4.956   1.971   3.827
 4828TIP3    H214430   5.039   2.003   3.950
 4829TIP3   OH214431   7.904   1.818   2.106
 4829TIP3    H114432   7.883   1.899   2.153
 4829TIP3    H214433   7.999   1.808   2.117
 4830TIP3   OH214434   4.518   1.937   4.349
 4830TIP3    H114435   4.451   1.873   4.325
 4830TIP3    H214436   4.526   1.929   4.444
 4831TIP3   OH214437   2.220   2.653   3.272
 4831TIP3    H114438   2.210   2.559   3.289
 4831TIP3    H214439   2.143   2.693   3.312
 4832TIP3   OH214440   6.572   0.608   3.695
 4832TIP3    H114441   6.552   0.561   3.776
 4832TIP3    H214442   6.509   0.575   3.631
 4833TIP3   OH214443   2.366   1.671   4.897
 4833TIP3    H114444   2.271   1.683   4.899
 4833TIP3    H214445   2.379   1.592   4.845
 4834TIP3   OH214446   0.473   6.467   3.638
 4834TIP3    H114447   0.555   6.440   3.680
 4834TIP3    H214448   0.496   6.481   3.547
 4835TIP3   OH214449   5.585   4.711   1.411
 4835TIP3    H114450   5.539   4.685   1.492
 4835TIP3    H214451   5.667   4.749   1.442
 4836TIP3   OH214452   1.631   1.883   5.345
 4836TIP3    H114453   1.620   1.832   5.264
 4836TIP3    H214454   1.697   1.835   5.394
 4837TIP3   OH214455   1.879   0.786   1.042
 4837TIP3    H114456   1.963   0.742   1.054
 4837TIP3    H214457   1.901   0.865   0.992
 4838TIP3   OH214458   5.928   1.678   6.560
 4838TIP3    H114459   5.871   1.696   6.635
 4838TIP3    H214460   5.961   1.763   6.534
 4839TIP3   OH214461   8.228   6.745   1.120
 4839TIP3    H114462   8.282   6.671   1.149
 4839TIP3    H214463   8.249   6.755   1.027
 4840TIP3   OH214464   0.425   6.537   5.344
 4840TIP3    H114465   0.428   6.468   5.277
 4840TIP3    H214466   0.443   6.618   5.296
 4841TIP3   OH214467   1.763   4.256   0.525
 4841TIP3    H114468   1.684   4.218   0.565
 4841TIP3    H214469   1.765   4.219   0.437
 4842TIP3   OH214470   6.270   2.798   1.445
 4842TIP3    H114471   6.329   2.867   1.477
 4842TIP3    H214472   6.255   2.820   1.353
 4843TIP3   OH214473   1.335   1.018   1.397
 4843TIP3    H114474   1.257   1.073   1.403
 4843TIP3    H214475   1.388   1.060   1.328
 4844TIP3   OH214476   6.447   6.060   4.576
 4844TIP3    H114477   6.408   5.978   4.550
 4844TIP3    H214478   6.383   6.127   4.550
 4845TIP3   OH214479   6.452   3.206   5.014
 4845TIP3    H114480   6.361   3.182   5.003
 4845TIP3    H214481   6.450   3.299   5.038
 4846TIP3   OH214482   6.769   2.572   2.019
 4846TIP3    H114483   6.769   2.668   2.017
 4846TIP3    H214484   6.860   2.548   2.000
 4847TIP3   OH214485   4.006   3.482   3.522
 4847TIP3    H114486   4.051   3.567   3.515
 4847TIP3    H214487   3.914   3.503   3.510
 4848TIP3   OH214488   6.642   6.864   0.993
 4848TIP3    H114489   6.555   6.901   0.979
 4848TIP3    H214490   6.697   6.939   1.016
 4849TIP3   OH214491   7.941   0.365   0.290
 4849TIP3    H114492   7.853   0.386   0.321
 4849TIP3    H214493   7.943   0.399   0.200
 4850TIP3   OH214494   6.888   2.984   0.071
 4850TIP3    H114495   6.913   3.054   0.132
 4850TIP3    H214496   6.953   2.915   0.086
 4851TIP3   OH214497   3.164   5.108   0.848
 4851TIP3    H114498   3.184   5.180   0.908
 4851TIP3    H214499   3.191   5.140   0.762
 4852TIP3   OH214500   2.411   3.043   0.536
 4852TIP3    H114501   2.461   3.120   0.511
 4852TIP3    H214502   2.447   2.972   0.482
 4853TIP3   OH214503   1.020   6.096   0.694
 4853TIP3    H114504   1.058   6.032   0.634
 4853TIP3    H214505   1.044   6.065   0.781
 4854TIP3   OH214506   4.061   5.912   2.528
 4854TIP3    H114507   4.096   5.907   2.439
 4854TIP3    H214508   4.061   6.005   2.549
 4855TIP3   OH214509   4.365   3.351   5.970
 4855TIP3    H114510   4.425   3.407   5.920
 4855TIP3    H214511   4.394   3.359   6.061
 4856TIP3   OH214512   5.424   2.200   2.911
 4856TIP3    H114513   5.379   2.275   2.871
 4856TIP3    H214514   5.374   2.124   2.881
 4857TIP3   OH214515   1.373   4.289   6.077
 4857TIP3    H114516   1.282   4.320   6.084
 4857TIP3    H214517   1.425   4.370   6.079
 4858TIP3   OH214518   3.720   4.736   5.780
 4858TIP3    H114519   3.633   4.698   5.789
 4858TIP3    H214520   3.780   4.668   5.810
 4859TIP3   OH214521   2.306   7.242   0.997
 4859TIP3    H114522   2.264   7.279   1.074
 4859TIP3    H214523   2.392   7.284   0.994
 4860TIP3   OH214524   8.324   3.045   1.156
 4860TIP3    H114525   8.338   3.007   1.069
 4860TIP3    H214526   8.267   3.120   1.140
 4861TIP3   OH214527   1.947   3.652   3.091
 4861TIP3    H114528   1.994   3.709   3.152
 4861TIP3    H214529   1.937   3.570   3.138
 4862TIP3   OH214530   1.374   7.602   0.660
 4862TIP3    H114531   1.362   7.507   0.664
 4862TIP3    H214532   1.379   7.630   0.751
 4863TIP3   OH214533   3.966   4.658   4.247
 4863TIP3    H114534   3.915   4.587   4.286
 4863TIP3    H214535   3.964   4.640   4.153
 4864TIP3   OH214536   3.193   2.385   3.640
 4864TIP3    H114537   3.138   2.428   3.575
 4864TIP3    H214538   3.153   2.406   3.724
 4865TIP3   OH214539   6.413   3.557   6.313
 4865TIP3    H114540   6.414   3.495   6.240
 4865TIP3    H214541   6.327   3.546   6.353
 4866TIP3   OH214542   6.642   7.401   4.014
 4866TIP3    H114543   6.722   7.353   3.990
 4866TIP3    H214544   6.584   7.333   4.049
 4867TIP3   OH214545   6.601   4.486   3.870
 4867TIP3    H114546   6.521   4.495   3.923
 4867TIP3    H214547   6.651   4.417   3.912
 4868TIP3   OH214548   0.727   7.427   3.910
 4868TIP3    H114549   0.818   7.448   3.930
 4868TIP3    H214550   0.729   7.393   3.820
 4869TIP3   OH214551   6.543   6.942   0.057
 4869TIP3    H114552   6.633   6.972   0.057
 4869TIP3    H214553   6.538   6.878  -0.014
 4870TIP3   OH214554   3.242   6.362   2.256
 4870TIP3    H114555   3.291   6.416   2.194
 4870TIP3    H214556   3.227   6.280   2.210
 4871TIP3   OH214557   5.520   0.667   4.155
 4871TIP3    H114558   5.437   0.669   4.106
 4871TIP3    H214559   5.493   0.662   4.247
 4872TIP3   OH214560   4.962   3.940   1.442
 4872TIP3    H114561   4.947   3.861   1.494
 4872TIP3    H214562   4.987   3.907   1.355
 4873TIP3   OH214563   3.030   3.580   1.756
 4873TIP3    H114564   3.035   3.504   1.697
 4873TIP3    H214565   3.034   3.542   1.844
 4874TIP3   OH214566   3.536   3.444   6.655
 4874TIP3    H114567   3.610   3.459   6.714
 4874TIP3    H214568   3.568   3.474   6.570
 4875TIP3   OH214569   7.135   2.469   4.428
 4875TIP3    H114570   7.207   2.528   4.452
 4875TIP3    H214571   7.156   2.387   4.473
 4876TIP3   OH214572   4.389   1.564   5.170
 4876TIP3    H114573   4.363   1.478   5.204
 4876TIP3    H214574   4.399   1.550   5.076
 4877TIP3   OH214575   6.928   2.857   5.663
 4877TIP3    H114576   6.978   2.920   5.715
 4877TIP3    H214577   6.982   2.777   5.664
 4878TIP3   OH214578   0.541   5.968   6.446
 4878TIP3    H114579   0.468   5.936   6.392
 4878TIP3    H214580   0.606   5.997   6.383
 4879TIP3   OH214581   6.374   7.080   2.309
 4879TIP3    H114582   6.285   7.051   2.330
 4879TIP3    H214583   6.431   7.026   2.364
 4880TIP3   OH214584   6.499   7.145   1.184
 4880TIP3    H114585   6.572   7.126   1.243
 4880TIP3    H214586   6.471   7.059   1.152
 4881TIP3   OH214587   3.009   5.283   1.550
 4881TIP3    H114588   2.963   5.260   1.469
 4881TIP3    H214589   3.065   5.357   1.525
 4882TIP3   OH214590   7.117   7.072   1.426
 4882TIP3    H114591   7.040   7.015   1.430
 4882TIP3    H214592   7.082   7.158   1.404
 4883TIP3   OH214593   8.149   2.163   1.866
 4883TIP3    H114594   8.084   2.095   1.850
 4883TIP3    H214595   8.227   2.115   1.897
 4884TIP3   OH214596   3.638   0.197   6.494
 4884TIP3    H114597   3.630   0.274   6.438
 4884TIP3    H214598   3.730   0.172   6.486
 4885TIP3   OH214599   7.842   4.460   1.302
 4885TIP3    H114600   7.865   4.536   1.356
 4885TIP3    H214601   7.783   4.495   1.235
 4886TIP3   OH214602   0.360   1.022   1.547
 4886TIP3    H114603   0.447   0.981   1.537
 4886TIP3    H214604   0.379   1.112   1.573
 4887TIP3   OH214605   6.694   5.257   3.267
 4887TIP3    H114606   6.752   5.181   3.270
 4887TIP3    H214607   6.753   5.332   3.277
 4888TIP3   OH214608   3.564   1.326   0.718
 4888TIP3    H114609   3.506   1.250   0.728
 4888TIP3    H214610   3.585   1.327   0.624
 4889TIP3   OH214611   2.065   6.956   5.494
 4889TIP3    H114612   2.008   6.949   5.417
 4889TIP3    H214613   2.006   6.953   5.568
 4890TIP3   OH214614   0.463   2.866   3.396
 4890TIP3    H114615   0.427   2.886   3.309
 4890TIP3    H214616   0.539   2.924   3.404
 4891TIP3   OH214617   7.395   0.144   0.708
 4891TIP3    H114618   7.312   0.122   0.751
 4891TIP3    H214619   7.405   0.079   0.639
 4892TIP3   OH214620   5.879   6.242   1.466
 4892TIP3    H114621   5.939   6.310   1.496
 4892TIP3    H214622   5.835   6.213   1.545
 4893TIP3   OH214623   0.164   2.660   2.071
 4893TIP3    H114624   0.214   2.583   2.044
 4893TIP3    H214625   0.073   2.631   2.066
 4894TIP3   OH214626   4.621   5.390   5.558
 4894TIP3    H114627   4.603   5.462   5.618
 4894TIP3    H214628   4.541   5.381   5.506
 4895TIP3   OH214629   3.705   6.364   5.887
 4895TIP3    H114630   3.735   6.454   5.890
 4895TIP3    H214631   3.771   6.318   5.834
 4896TIP3   OH214632   3.170   4.427   4.518
 4896TIP3    H114633   3.140   4.396   4.604
 4896TIP3    H214634   3.122   4.373   4.456
 4897TIP3   OH214635   3.719   0.127   5.081
 4897TIP3    H114636   3.694   0.210   5.121
 4897TIP3    H214637   3.679   0.130   4.994
 4898TIP3   OH214638   8.160   2.622   5.118
 4898TIP3    H114639   8.142   2.701   5.169
 4898TIP3    H214640   8.094   2.621   5.049
 4899TIP3   OH214641   3.437   7.642   5.758
 4899TIP3    H114642   3.476   7.593   5.830
 4899TIP3    H214643   3.447   7.585   5.682
 4900TIP3   OH214644   0.325   2.069   4.155
 4900TIP3    H114645   0.313   2.058   4.250
 4900TIP3    H214646   0.270   2.144   4.133
 4901TIP3   OH214647   6.178   4.762   4.884
 4901TIP3    H114648   6.243   4.801   4.943
 4901TIP3    H214649   6.124   4.707   4.941
 4902TIP3   OH214650   2.247   0.640   0.127
 4902TIP3    H114651   2.270   0.725   0.091
 4902TIP3    H214652   2.153   0.644   0.144
 4903TIP3   OH214653   7.105   2.756   4.203
 4903TIP3    H114654   7.104   2.731   4.295
 4903TIP3    H214655   7.186   2.806   4.192
 4904TIP3   OH214656   4.859   4.013   4.303
 4904TIP3    H114657   4.900   4.037   4.220
 4904TIP3    H214658   4.778   3.969   4.278
 4905TIP3   OH214659   7.332   0.600   3.733
 4905TIP3    H114660   7.328   0.623   3.826
 4905TIP3    H214661   7.422   0.619   3.707
 4906TIP3   OH214662   7.822   5.021   2.304
 4906TIP3    H114663   7.770   4.940   2.308
 4906TIP3    H214664   7.763   5.089   2.337
 4907TIP3   OH214665   7.814   5.665   1.111
 4907TIP3    H114666   7.769   5.710   1.182
 4907TIP3    H214667   7.906   5.664   1.137
 4908TIP3   OH214668   6.626   0.451   3.932
 4908TIP3    H114669   6.646   0.395   4.007
 4908TIP3    H214670   6.530   0.449   3.925
 4909TIP3   OH214671   6.593   5.702   3.340
 4909TIP3    H114672   6.689   5.703   3.331
 4909TIP3    H214673   6.577   5.738   3.427
 4910TIP3   OH214674   7.308   7.592   6.556
 4910TIP3    H114675   7.352   7.549   6.630
 4910TIP3    H214676   7.340   7.546   6.479
 4911TIP3   OH214677   6.548   1.691   2.343
 4911TIP3    H114678   6.568   1.716   2.433
 4911TIP3    H214679   6.620   1.634   2.317
 4912TIP3   OH214680   3.137   3.618   2.389
 4912TIP3    H114681   3.128   3.680   2.317
 4912TIP3    H214682   3.187   3.666   2.456
 4913TIP3   OH214683   8.230   1.679   4.197
 4913TIP3    H114684   8.269   1.754   4.151
 4913TIP3    H214685   8.278   1.673   4.280
 4914TIP3   OH214686   7.090   1.038   4.230
 4914TIP3    H114687   7.052   1.048   4.317
 4914TIP3    H214688   7.040   0.967   4.190
 4915TIP3   OH214689   4.851   6.021   2.573
 4915TIP3    H114690   4.888   5.958   2.635
 4915TIP3    H214691   4.784   5.972   2.526
 4916TIP3   OH214692   4.828   4.382   1.459
 4916TIP3    H114693   4.804   4.418   1.373
 4916TIP3    H214694   4.803   4.289   1.453
 4917TIP3   OH214695   1.098   5.988   5.270
 4917TIP3    H114696   1.109   6.083   5.270
 4917TIP3    H214697   1.113   5.962   5.179
 4918TIP3   OH214698   6.633   4.034   4.081
 4918TIP3    H114699   6.571   3.994   4.143
 4918TIP3    H214700   6.606   4.001   3.996
 4919TIP3   OH214701   2.798   4.317   0.225
 4919TIP3    H114702   2.837   4.279   0.146
 4919TIP3    H214703   2.707   4.288   0.224
 4920TIP3   OH214704   4.736   0.548   5.234
 4920TIP3    H114705   4.766   0.459   5.218
 4920TIP3    H214706   4.740   0.558   5.329
 4921TIP3   OH214707   5.824   4.451   2.004
 4921TIP3    H114708   5.753   4.464   2.067
 4921TIP3    H214709   5.842   4.357   2.008
 4922TIP3   OH214710   7.669   6.779   1.033
 4922TIP3    H114711   7.624   6.696   1.019
 4922TIP3    H214712   7.677   6.818   0.946
 4923TIP3   OH214713   1.108   1.725   5.711
 4923TIP3    H114714   1.081   1.784   5.782
 4923TIP3    H214715   1.108   1.638   5.751
 4924TIP3   OH214716   2.188   6.790   4.675
 4924TIP3    H114717   2.212   6.779   4.583
 4924TIP3    H214718   2.269   6.772   4.723
 4925TIP3   OH214719   6.891   1.501   3.297
 4925TIP3    H114720   6.975   1.532   3.331
 4925TIP3    H214721   6.890   1.407   3.318
 4926TIP3   OH214722   0.068   4.374   3.293
 4926TIP3    H114723   0.011   4.403   3.364
 4926TIP3    H214724   0.023   4.297   3.257
 4927TIP3   OH214725   3.954   3.083   1.250
 4927TIP3    H114726   4.027   3.144   1.263
 4927TIP3    H214727   3.904   3.121   1.179
 4928TIP3   OH214728   3.126   0.625   3.552
 4928TIP3    H114729   3.130   0.610   3.457
 4928TIP3    H214730   3.214   0.656   3.574
 4929TIP3   OH214731   2.576   5.933   5.625
 4929TIP3    H114732   2.501   5.889   5.665
 4929TIP3    H214733   2.581   6.017   5.671
 4930TIP3   OH214734   0.519   3.981   3.242
 4930TIP3    H114735   0.430   3.998   3.272
 4930TIP3    H214736   0.509   3.931   3.161
 4931TIP3   OH214737   3.012   7.023   5.986
 4931TIP3    H114738   3.067   6.995   6.059
 4931TIP3    H214739   2.978   7.108   6.014
 4932TIP3   OH214740   1.682   2.388   1.788
 4932TIP3    H114741   1.704   2.316   1.848
 4932TIP3    H214742   1.767   2.420   1.758
 4933TIP3   OH214743   2.250   5.099   0.210
 4933TIP3    H114744   2.235   5.111   0.116
 4933TIP3    H214745   2.164   5.112   0.250
 4934TIP3   OH214746   2.642   1.561   5.975
 4934TIP3    H114747   2.564   1.566   6.029
 4934TIP3    H214748   2.715   1.558   6.037
 4935TIP3   OH214749   2.268   2.239   2.706
 4935TIP3    H114750   2.324   2.185   2.650
 4935TIP3    H214751   2.293   2.215   2.795
 4936TIP3   OH214752   1.165   4.857   3.194
 4936TIP3    H114753   1.207   4.803   3.127
 4936TIP3    H214754   1.091   4.804   3.224
 4937TIP3   OH214755   7.604   2.617   4.126
 4937TIP3    H114756   7.594   2.681   4.056
 4937TIP3    H214757   7.522   2.567   4.125
 4938TIP3   OH214758   5.421   3.951   5.713
 4938TIP3    H114759   5.427   3.901   5.632
 4938TIP3    H214760   5.441   4.041   5.687
 4939TIP3   OH214761   6.505   4.851   2.713
 4939TIP3    H114762   6.423   4.896   2.736
 4939TIP3    H214763   6.573   4.917   2.729
 4940TIP3   OH214764   5.185   7.502   6.154
 4940TIP3    H114765   5.192   7.485   6.060
 4940TIP3    H214766   5.185   7.597   6.161
 4941TIP3   OH214767   2.587   1.071   6.382
 4941TIP3    H114768   2.659   1.090   6.322
 4941TIP3    H214769   2.508   1.083   6.329
 4942TIP3   OH214770   5.816   6.271   2.259
 4942TIP3    H114771   5.868   6.191   2.267
 4942TIP3    H214772   5.828   6.299   2.169
 4943TIP3   OH214773   0.996   6.261   5.461
 4943TIP3    H114774   0.928   6.259   5.393
 4943TIP3    H214775   1.055   6.331   5.434
 4944TIP3   OH214776   7.906   5.832   3.778
 4944TIP3    H114777   7.873   5.847   3.867
 4944TIP3    H214778   7.899   5.917   3.735
 4945TIP3   OH214779   2.880   1.208   0.326
 4945TIP3    H114780   2.828   1.212   0.406
 4945TIP3    H214781   2.922   1.294   0.319
 4946TIP3   OH214782   6.904   7.683   2.147
 4946TIP3    H114783   6.954   7.644   2.076
 4946TIP3    H214784   6.826   7.718   2.105
 4947TIP3   OH214785   6.412   0.422   4.162
 4947TIP3    H114786   6.323   0.444   4.136
 4947TIP3    H214787   6.408   0.328   4.183
 4948TIP3   OH214788   4.062   6.498   0.817
 4948TIP3    H114789   4.138   6.458   0.775
 4948TIP3    H214790   4.022   6.428   0.868
 4949TIP3   OH214791   3.460   6.453   4.823
 4949TIP3    H114792   3.539   6.403   4.841
 4949TIP3    H214793   3.395   6.387   4.797
 4950TIP3   OH214794   2.439   5.352   1.820
 4950TIP3    H114795   2.523   5.346   1.866
 4950TIP3    H214796   2.460   5.397   1.738
 4951TIP3   OH214797   3.393   7.442   0.657
 4951TIP3    H114798   3.463   7.404   0.710
 4951TIP3    H214799   3.371   7.524   0.701
 4952TIP3   OH214800   3.600   7.529   4.025
 4952TIP3    H114801   3.670   7.590   4.048
 4952TIP3    H214802   3.589   7.474   4.102
 4953TIP3   OH214803   5.075   5.365   5.700
 4953TIP3    H114804   5.146   5.301   5.693
 4953TIP3    H214805   5.117   5.450   5.685
 4954TIP3   OH214806   0.927   2.371   4.152
 4954TIP3    H114807   0.895   2.461   4.160
 4954TIP3    H214808   0.848   2.317   4.153
 4955TIP3   OH214809   1.535   7.367   3.333
 4955TIP3    H114810   1.625   7.342   3.311
 4955TIP3    H214811   1.545   7.425   3.409
 4956TIP3   OH214812   4.294   0.843   1.033
 4956TIP3    H114813   4.245   0.922   1.056
 4956TIP3    H214814   4.227   0.782   1.002
 4957TIP3   OH214815   3.964   5.932   3.182
 4957TIP3    H114816   3.951   5.838   3.197
 4957TIP3    H214817   3.914   5.975   3.251
 4958TIP3   OH214818   3.165   4.694   4.722
 4958TIP3    H114819   3.257   4.721   4.725
 4958TIP3    H214820   3.168   4.599   4.734
 4959TIP3   OH214821   2.503   3.489   0.145
 4959TIP3    H114822   2.573   3.502   0.080
 4959TIP3    H214823   2.423   3.510   0.097
 4960TIP3   OH214824   7.887   4.460   5.253
 4960TIP3    H114825   7.876   4.551   5.223
 4960TIP3    H214826   7.923   4.468   5.341
 4961TIP3   OH214827   6.271   2.782   1.153
 4961TIP3    H114828   6.208   2.711   1.159
 4961TIP3    H214829   6.221   2.855   1.117
 4962TIP3   OH214830   2.143   2.326   0.748
 4962TIP3    H114831   2.220   2.280   0.780
 4962TIP3    H214832   2.083   2.328   0.823
 4963TIP3   OH214833   5.337   4.784   4.936
 4963TIP3    H114834   5.326   4.827   4.851
 4963TIP3    H214835   5.309   4.694   4.921
 4964TIP3   OH214836   2.265   2.824   0.272
 4964TIP3    H114837   2.241   2.915   0.251
 4964TIP3    H214838   2.293   2.787   0.188
 4965TIP3   OH214839   6.234   1.899   2.857
 4965TIP3    H114840   6.184   1.973   2.822
 4965TIP3    H214841   6.215   1.827   2.796
 4966TIP3   OH214842   5.088   1.829   2.425
 4966TIP3    H114843   5.147   1.763   2.461
 4966TIP3    H214844   5.143   1.907   2.412
 4967TIP3   OH214845   4.700   0.016   4.134
 4967TIP3    H114846   4.740   0.073   4.068
 4967TIP3    H214847   4.773  -0.015   4.188
 4968TIP3   OH214848   3.099   2.251   3.107
 4968TIP3    H114849   3.082   2.345   3.099
 4968TIP3    H214850   3.132   2.240   3.196
 4969TIP3   OH214851   1.413   1.541   4.588
 4969TIP3    H114852   1.415   1.471   4.523
 4969TIP3    H214853   1.427   1.621   4.537
 4970TIP3   OH214854   4.712   6.109   6.706
 4970TIP3    H114855   4.745   6.037   6.652
 4970TIP3    H214856   4.626   6.129   6.670
 4971TIP3   OH214857   0.055   4.883   5.410
 4971TIP3    H114858   0.030   4.872   5.319
 4971TIP3    H214859  -0.029   4.891   5.457
 4972TIP3   OH214860   4.390   4.439   0.955
 4972TIP3    H114861   4.473   4.406   0.920
 4972TIP3    H214862   4.343   4.471   0.879
 4973TIP3   OH214863   3.221   2.948   0.620
 4973TIP3    H114864   3.249   2.953   0.711
 4973TIP3    H214865   3.298   2.971   0.569
 4974TIP3   OH214866   4.622   7.102   5.421
 4974TIP3    H114867   4.620   7.087   5.326
 4974TIP3    H214868   4.531   7.095   5.448
 4975TIP3   OH214869   2.651   7.665   6.430
 4975TIP3    H114870   2.625   7.621   6.512
 4975TIP3    H214871   2.584   7.732   6.417
 4976TIP3   OH214872   2.635   6.718   2.228
 4976TIP3    H114873   2.616   6.728   2.322
 4976TIP3    H214874   2.604   6.630   2.207
 4977TIP3   OH214875   3.267   7.475   4.683
 4977TIP3    H114876   3.271   7.569   4.667
 4977TIP3    H214877   3.174   7.453   4.677
 4978TIP3   OH214878   7.771   4.964   2.784
 4978TIP3    H114879   7.785   4.871   2.803
 4978TIP3    H214880   7.775   5.007   2.869
 4979TIP3   OH214881   5.868   3.147   6.651
 4979TIP3    H114882   5.931   3.216   6.630
 4979TIP3    H214883   5.922   3.073   6.678
 4980TIP3   OH214884   7.200   0.935   0.053
 4980TIP3    H114885   7.154   0.982  -0.015
 4980TIP3    H214886   7.175   0.843   0.040
 4981TIP3   OH214887   3.005   4.117   0.591
 4981TIP3    H114888   3.015   4.206   0.557
 4981TIP3    H214889   3.074   4.108   0.657
 4982TIP3   OH214890   1.900   7.216   5.531
 4982TIP3    H114891   1.899   7.155   5.456
 4982TIP3    H214892   1.910   7.302   5.491
 4983TIP3   OH214893   0.766   3.417   4.717
 4983TIP3    H114894   0.690   3.404   4.659
 4983TIP3    H214895   0.760   3.346   4.781
 4984TIP3   OH214896   7.733   1.922   6.604
 4984TIP3    H114897   7.673   1.959   6.539
 4984TIP3    H214898   7.685   1.927   6.686
 4985TIP3   OH214899   2.935   1.013   5.384
 4985TIP3    H114900   2.902   1.076   5.320
 4985TIP3    H214901   2.857   0.972   5.421
 4986TIP3   OH214902   6.786   1.645   0.175
 4986TIP3    H114903   6.786   1.577   0.107
 4986TIP3    H214904   6.758   1.725   0.129
 4987TIP3   OH214905   6.564   0.656   5.134
 4987TIP3    H114906   6.637   0.705   5.172
 4987TIP3    H214907   6.506   0.723   5.099
 4988TIP3   OH214908   4.108   5.733   5.181
 4988TIP3    H114909   4.128   5.778   5.263
 4988TIP3    H214910   4.183   5.676   5.165
 4989TIP3   OH214911   1.298   3.038   3.511
 4989TIP3    H114912   1.381   3.018   3.553
 4989TIP3    H214913   1.316   3.035   3.417
 4990TIP3   OH214914   3.020   2.341   4.516
 4990TIP3    H114915   2.968   2.300   4.447
 4990TIP3    H214916   2.995   2.433   4.513
 4991TIP3   OH214917   4.568   4.337   1.268
 4991TIP3    H114918   4.655   4.334   1.230
 4991TIP3    H214919   4.509   4.353   1.194
 4992TIP3   OH214920   6.009   6.723   4.203
 4992TIP3    H114921   5.997   6.715   4.297
 4992TIP3    H214922   6.019   6.634   4.172
 4993TIP3   OH214923   6.685   6.146   4.235
 4993TIP3    H114924   6.639   6.131   4.318
 4993TIP3    H214925   6.775   6.164   4.261
 4994TIP3   OH214926   4.235   4.458   0.442
 4994TIP3    H114927   4.211   4.386   0.500
 4994TIP3    H214928   4.329   4.448   0.428
 4995TIP3   OH214929   0.799   1.289   5.238
 4995TIP3    H114930   0.865   1.341   5.193
 4995TIP3    H214931   0.838   1.268   5.323
 4996TIP3   OH214932   3.585   0.982   2.853
 4996TIP3    H114933   3.525   1.009   2.923
 4996TIP3    H214934   3.554   0.896   2.826
 4997TIP3   OH214935   3.233   1.010   4.612
 4997TIP3    H114936   3.210   1.009   4.519
 4997TIP3    H214937   3.152   1.033   4.657
 4998TIP3   OH214938   2.212   2.522   1.052
 4998TIP3    H114939   2.263   2.498   1.129
 4998TIP3    H214940   2.277   2.562   0.993
 4999TIP3   OH214941   2.963   2.557   5.470
 4999TIP3    H114942   2.921   2.595   5.393
 4999TIP3    H214943   2.995   2.631   5.520
 5000TIP3   OH214944   7.493   6.463   0.513
 5000TIP3    H114945   7.558   6.420   0.458
 5000TIP3    H214946   7.534   6.469   0.600
 5001TIP3   OH214947   8.064   1.904   1.793
 5001TIP3    H114948   8.142   1.942   1.752
 5001TIP3    H214949   8.081   1.809   1.792
 5002TIP3   OH214950   0.966   0.684   2.629
 5002TIP3    H114951   0.923   0.724   2.554
 5002TIP3    H214952   0.896   0.676   2.694
 5003TIP3   OH214953   5.829   1.566   4.576
 5003TIP3    H114954   5.868   1.511   4.508
 5003TIP3    H214955   5.808   1.506   4.647
 5004TIP3   OH214956   3.056   4.516   4.258
 5004TIP3    H114957   3.028   4.572   4.185
 5004TIP3    H214958   3.096   4.576   4.321
 5005TIP3   OH214959   3.022   2.777   3.295
 5005TIP3    H114960   2.989   2.698   3.254
 5005TIP3    H214961   2.968   2.847   3.260
 5006TIP3   OH214962   3.528   6.127   6.718
 5006TIP3    H114963   3.483   6.075   6.786
 5006TIP3    H214964   3.457   6.173   6.673
 5007TIP3   OH214965   3.046   7.565   0.594
 5007TIP3    H114966   3.028   7.657   0.614
 5007TIP3    H214967   3.021   7.518   0.674
 5008TIP3   OH214968   5.901   1.176   6.138
 5008TIP3    H114969   5.854   1.093   6.132
 5008TIP3    H214970   5.879   1.210   6.225
 5009TIP3   OH214971   7.906   5.895   6.008
 5009TIP3    H114972   7.976   5.903   5.944
 5009TIP3    H214973   7.950   5.886   6.092
 5010TIP3   OH214974   2.391   5.452   6.351
 5010TIP3    H114975   2.469   5.416   6.394
 5010TIP3    H214976   2.362   5.523   6.408
 5011TIP3   OH214977   4.874   3.352   6.499
 5011TIP3    H114978   4.827   3.284   6.548
 5011TIP3    H214979   4.955   3.365   6.549
 5012TIP3   OH214980   2.045   7.630   0.116
 5012TIP3    H114981   1.991   7.684   0.058
 5012TIP3    H214982   2.037   7.541   0.080
 5013TIP3   OH214983   3.249   6.887   2.863
 5013TIP3    H114984   3.308   6.823   2.903
 5013TIP3    H214985   3.162   6.862   2.892
 5014TIP3   OH214986   2.769   7.246   4.177
 5014TIP3    H114987   2.823   7.283   4.107
 5014TIP3    H214988   2.680   7.248   4.141
 5015TIP3   OH214989   2.883   6.696   4.815
 5015TIP3    H114990   2.966   6.664   4.851
 5015TIP3    H214991   2.818   6.631   4.841
 5016TIP3   OH214992   2.364   1.537   5.991
 5016TIP3    H114993   2.307   1.604   5.954
 5016TIP3    H214994   2.305   1.465   6.015
 5017TIP3   OH214995   7.004   5.938   3.308
 5017TIP3    H114996   7.088   5.984   3.304
 5017TIP3    H214997   6.939   6.005   3.293
 5018TIP3   OH214998   0.240   3.447   2.370
 5018TIP3    H114999   0.233   3.539   2.397
 5018TIP3    H215000   0.291   3.451   2.289
 5019TIP3   OH215001   6.660   0.773   0.943
 5019TIP3    H115002   6.725   0.837   0.974
 5019TIP3    H215003   6.707   0.689   0.945
 5020TIP3   OH215004   0.507   4.055   0.546
 5020TIP3    H115005   0.603   4.057   0.551
 5020TIP3    H215006   0.479   4.105   0.623
 5021TIP3   OH215007   3.606   2.538   1.685
 5021TIP3    H115008   3.684   2.550   1.740
 5021TIP3    H215009   3.600   2.619   1.635
 5022TIP3   OH215010   3.569   1.638   6.344
 5022TIP3    H115011   3.554   1.663   6.435
 5022TIP3    H215012   3.646   1.582   6.347
 5023TIP3   OH215013   0.430   1.701   5.551
 5023TIP3    H115014   0.463   1.683   5.463
 5023TIP3    H215015   0.338   1.724   5.539
 5024TIP3   OH215016   1.590   3.371   4.981
 5024TIP3    H115017   1.591   3.459   5.017
 5024TIP3    H215018   1.536   3.320   5.041
 5025TIP3   OH215019   7.580   7.117   3.185
 5025TIP3    H115020   7.527   7.108   3.106
 5025TIP3    H215021   7.666   7.082   3.160
 5026TIP3   OH215022   7.931   4.385   6.057
 5026TIP3    H115023   7.981   4.334   5.993
 5026TIP3    H215024   7.997   4.421   6.116
 5027TIP3   OH215025   1.629   2.496   4.044
 5027TIP3    H115026   1.545   2.539   4.060
 5027TIP3    H215027   1.682   2.563   4.002
 5028TIP3   OH215028   0.311   5.049   6.143
 5028TIP3    H115029   0.270   5.133   6.165
 5028TIP3    H215030   0.372   5.032   6.214
 5029TIP3   OH215031   0.007   5.814   0.896
 5029TIP3    H115032   0.046   5.897   0.868
 5029TIP3    H215033   0.068   5.747   0.863
 5030TIP3   OH215034   1.825   0.630   5.240
 5030TIP3    H115035   1.891   0.578   5.287
 5030TIP3    H215036   1.872   0.666   5.165
 5031TIP3   OH215037   4.662   3.740   3.199
 5031TIP3    H115038   4.622   3.739   3.112
 5031TIP3    H215039   4.690   3.831   3.211
 5032TIP3   OH215040   0.655   5.982   1.264
 5032TIP3    H115041   0.659   5.962   1.358
 5032TIP3    H215042   0.610   6.066   1.259
 5033TIP3   OH215043   3.177   6.330   2.666
 5033TIP3    H115044   3.117   6.330   2.592
 5033TIP3    H215045   3.148   6.403   2.721
 5034TIP3   OH215046   2.231   1.075   0.955
 5034TIP3    H115047   2.283   0.999   0.982
 5034TIP3    H215048   2.142   1.053   0.981
 5035TIP3   OH215049   7.168   7.292   3.507
 5035TIP3    H115050   7.244   7.349   3.503
 5035TIP3    H215051   7.102   7.336   3.454
 5036TIP3   OH215052   4.117   6.932   2.480
 5036TIP3    H115053   4.047   6.886   2.432
 5036TIP3    H215054   4.082   7.019   2.495
 5037TIP3   OH215055   5.939   5.396   2.371
 5037TIP3    H115056   5.909   5.485   2.353
 5037TIP3    H215057   5.996   5.405   2.448
 5038TIP3   OH215058   7.397   1.115   0.068
 5038TIP3    H115059   7.334   1.044   0.071
 5038TIP3    H215060   7.354   1.187   0.115
 5039TIP3   OH215061   0.398   2.126   1.574
 5039TIP3    H115062   0.457   2.201   1.581
 5039TIP3    H215063   0.313   2.159   1.603
 5040TIP3   OH215064   7.169   4.650   5.560
 5040TIP3    H115065   7.164   4.655   5.465
 5040TIP3    H215066   7.236   4.714   5.585
 5041TIP3   OH215067   4.884   7.557   3.542
 5041TIP3    H115068   4.813   7.511   3.588
 5041TIP3    H215069   4.840   7.607   3.473
 5042TIP3   OH215070   2.698   7.017   2.289
 5042TIP3    H115071   2.636   7.007   2.217
 5042TIP3    H215072   2.677   7.102   2.328
 5043TIP3   OH215073   5.174   6.115   0.277
 5043TIP3    H115074   5.227   6.038   0.258
 5043TIP3    H215075   5.177   6.167   0.197
 5044TIP3   OH215076   1.671   4.645   5.416
 5044TIP3    H115077   1.763   4.621   5.429
 5044TIP3    H215078   1.626   4.613   5.495
 5045TIP3   OH215079   3.360   2.868   0.231
 5045TIP3    H115080   3.405   2.893   0.312
 5045TIP3    H215081   3.429   2.831   0.176
 5046TIP3   OH215082   3.033   3.511   5.713
 5046TIP3    H115083   2.947   3.551   5.704
 5046TIP3    H215084   3.057   3.526   5.805
 5047TIP3   OH215085   7.463   1.440   3.894
 5047TIP3    H115086   7.403   1.366   3.907
 5047TIP3    H215087   7.413   1.517   3.923
 5048TIP3   OH215088   1.190   4.471   0.990
 5048TIP3    H115089   1.208   4.506   1.077
 5048TIP3    H215090   1.190   4.548   0.933
 5049TIP3   OH215091   4.329   2.453   6.477
 5049TIP3    H115092   4.337   2.497   6.392
 5049TIP3    H215093   4.419   2.441   6.507
 5050TIP3   OH215094   3.333   3.318   3.598
 5050TIP3    H115095   3.355   3.340   3.507
 5050TIP3    H215096   3.267   3.249   3.590
 5051TIP3   OH215097   4.058   5.832   3.612
 5051TIP3    H115098   4.050   5.922   3.579
 5051TIP3    H215099   3.970   5.812   3.645
 5052TIP3   OH215100   6.897   3.552   6.709
 5052TIP3    H115101   6.877   3.552   6.615
 5052TIP3    H215102   6.845   3.624   6.745
 5053TIP3   OH215103   0.176   7.057   5.912
 5053TIP3    H115104   0.263   7.057   5.951
 5053TIP3    H215105   0.169   6.972   5.868
 5054TIP3   OH215106   3.113   4.998   0.131
 5054TIP3    H115107   3.118   4.981   0.225
 5054TIP3    H215108   3.029   4.960   0.104
 5055TIP3   OH215109   5.455   3.144   2.089
 5055TIP3    H115110   5.405   3.209   2.039
 5055TIP3    H215111   5.503   3.094   2.023
 5056TIP3   OH215112   6.753   2.333   2.472
 5056TIP3    H115113   6.697   2.328   2.395
 5056TIP3    H215114   6.739   2.250   2.518
 5057TIP3   OH215115   0.328   1.319   6.530
 5057TIP3    H115116   0.406   1.264   6.532
 5057TIP3    H215117   0.268   1.279   6.593
 5058TIP3   OH215118   5.885   3.384   4.818
 5058TIP3    H115119   5.895   3.357   4.910
 5058TIP3    H215120   5.832   3.463   4.822
 5059TIP3   OH215121   3.687   0.565   6.418
 5059TIP3    H115122   3.721   0.486   6.376
 5059TIP3    H215123   3.682   0.542   6.511
 5060TIP3   OH215124   7.972   1.999   3.874
 5060TIP3    H115125   7.976   1.987   3.969
 5060TIP3    H215126   8.027   2.077   3.858
 5061TIP3   OH215127   3.356   0.433   3.753
 5061TIP3    H115128   3.417   0.466   3.820
 5061TIP3    H215129   3.281   0.492   3.758
 5062TIP3   OH215130   3.601   5.127   6.528
 5062TIP3    H115131   3.670   5.109   6.592
 5062TIP3    H215132   3.647   5.136   6.444
 5063TIP3   OH215133   0.014   1.351   0.610
 5063TIP3    H115134  -0.075   1.376   0.587
 5063TIP3    H215135   0.048   1.306   0.532
 5064TIP3   OH215136   1.239   2.396   5.701
 5064TIP3    H115137   1.240   2.384   5.606
 5064TIP3    H215138   1.185   2.324   5.733
 5065TIP3   OH215139   5.930   5.659   0.970
 5065TIP3    H115140   5.994   5.604   1.016
 5065TIP3    H215141   5.850   5.606   0.969
 5066TIP3   OH215142   7.665   6.274   4.532
 5066TIP3    H115143   7.613   6.338   4.582
 5066TIP3    H215144   7.737   6.252   4.591
 5067TIP3   OH215145   5.480   7.696   1.028
 5067TIP3    H115146   5.447   7.614   1.064
 5067TIP3    H215147   5.575   7.683   1.025
 5068TIP3   OH215148   2.549   3.142   0.193
 5068TIP3    H115149   2.548   3.054   0.229
 5068TIP3    H215150   2.560   3.199   0.268
 5069TIP3   OH215151   2.864   4.727   2.051
 5069TIP3    H115152   2.921   4.735   2.127
 5069TIP3    H215153   2.907   4.661   1.996
 5070TIP3   OH215154   6.096   3.538   1.482
 5070TIP3    H115155   6.070   3.452   1.514
 5070TIP3    H215156   6.191   3.534   1.478
 5071TIP3   OH215157   5.181   2.299   4.887
 5071TIP3    H115158   5.195   2.292   4.982
 5071TIP3    H215159   5.160   2.209   4.860
 5072TIP3   OH215160   3.763   5.344   0.201
 5072TIP3    H115161   3.716   5.263   0.178
 5072TIP3    H215162   3.790   5.381   0.117
 5073TIP3   OH215163   3.263   2.054   0.243
 5073TIP3    H115164   3.257   2.132   0.298
 5073TIP3    H215165   3.328   1.999   0.285
 5074TIP3   OH215166   3.047   2.837   1.570
 5074TIP3    H115167   2.965   2.881   1.552
 5074TIP3    H215168   3.113   2.907   1.572
 5075TIP3   OH215169   5.531   5.422   3.767
 5075TIP3    H115170   5.446   5.378   3.772
 5075TIP3    H215171   5.594   5.352   3.758
 5076TIP3   OH215172   4.982   7.683   5.584
 5076TIP3    H115173   4.941   7.597   5.594
 5076TIP3    H215174   4.974   7.703   5.491
 5077TIP3   OH215175   7.033   5.044   5.849
 5077TIP3    H115176   7.127   5.033   5.836
 5077TIP3    H215177   7.023   5.135   5.877
 5078TIP3   OH215178   1.353   5.692   4.063
 5078TIP3    H115179   1.396   5.715   3.980
 5078TIP3    H215180   1.273   5.646   4.036
 5079TIP3   OH215181   2.296   1.486  -0.012
 5079TIP3    H115182   2.275   1.474   0.080
 5079TIP3    H215183   2.351   1.565  -0.014
 5080TIP3   OH215184   1.491   6.221   5.457
 5080TIP3    H115185   1.502   6.175   5.541
 5080TIP3    H215186   1.482   6.313   5.481
 5081TIP3   OH215187   6.345   5.970   5.979
 5081TIP3    H115188   6.286   5.933   5.914
 5081TIP3    H215189   6.299   6.046   6.013
 5082TIP3   OH215190   5.322   0.067   4.771
 5082TIP3    H115191   5.343  -0.025   4.783
 5082TIP3    H215192   5.357   0.089   4.684
 5083TIP3   OH215193   3.978   3.318   4.435
 5083TIP3    H115194   3.922   3.353   4.366
 5083TIP3    H215195   4.058   3.371   4.430
 5084TIP3   OH215196   6.329   5.007   3.835
 5084TIP3    H115197   6.355   4.920   3.805
 5084TIP3    H215198   6.251   5.027   3.783
 5085TIP3   OH215199   3.408   0.499   2.309
 5085TIP3    H115200   3.467   0.436   2.351
 5085TIP3    H215201   3.328   0.449   2.293
 5086TIP3   OH215202   1.477   4.333   2.578
 5086TIP3    H115203   1.552   4.283   2.544
 5086TIP3    H215204   1.451   4.390   2.505
 5087TIP3   OH215205   7.368   7.350   5.660
 5087TIP3    H115206   7.380   7.437   5.623
 5087TIP3    H215207   7.279   7.348   5.692
 5088TIP3   OH215208   1.823   7.076   1.045
 5088TIP3    H115209   1.762   7.041   0.980
 5088TIP3    H215210   1.880   7.134   0.995
 5089TIP3   OH215211   5.940   7.209   1.841
 5089TIP3    H115212   5.952   7.121   1.877
 5089TIP3    H215213   6.016   7.222   1.783
 5090TIP3   OH215214   3.918   4.537   0.293
 5090TIP3    H115215   3.857   4.480   0.339
 5090TIP3    H215216   4.004   4.500   0.310
 5091TIP3   OH215217   5.967   0.799   1.353
 5091TIP3    H115218   6.056   0.794   1.318
 5091TIP3    H215219   5.919   0.730   1.305
 5092TIP3   OH215220   2.990   2.754   2.911
 5092TIP3    H115221   2.995   2.794   2.998
 5092TIP3    H215222   2.900   2.769   2.883
 5093TIP3   OH215223   0.137   3.977   0.250
 5093TIP3    H115224   0.053   4.017   0.272
 5093TIP3    H215225   0.140   3.896   0.301
 5094TIP3   OH215226   0.237   2.836   0.546
 5094TIP3    H115227   0.221   2.909   0.606
 5094TIP3    H215228   0.316   2.794   0.580
 5095TIP3   OH215229   7.905   4.793   3.351
 5095TIP3    H115230   7.811   4.812   3.345
 5095TIP3    H215231   7.938   4.852   3.419
 5096TIP3   OH215232   1.689   2.694   2.330
 5096TIP3    H115233   1.642   2.665   2.408
 5096TIP3    H215234   1.768   2.640   2.328
 5097TIP3   OH215235   2.918   5.863   6.359
 5097TIP3    H115236   2.951   5.935   6.413
 5097TIP3    H215237   2.933   5.785   6.411
 5098TIP3   OH215238   3.261   5.374   6.145
 5098TIP3    H115239   3.196   5.316   6.184
 5098TIP3    H215240   3.339   5.319   6.135
 5099TIP3   OH215241   3.349   7.277   3.247
 5099TIP3    H115242   3.391   7.350   3.201
 5099TIP3    H215243   3.288   7.240   3.183
 5100TIP3   OH215244   3.774   5.133   6.266
 5100TIP3    H115245   3.820   5.216   6.253
 5100TIP3    H215246   3.841   5.073   6.298
 5101TIP3   OH215247   3.822   5.242   3.687
 5101TIP3    H115248   3.862   5.328   3.679
 5101TIP3    H215249   3.833   5.219   3.779
 5102TIP3   OH215250   3.661   1.769   5.506
 5102TIP3    H115251   3.595   1.749   5.573
 5102TIP3    H215252   3.642   1.859   5.481
 5103TIP3   OH215253   5.685   4.295   5.784
 5103TIP3    H115254   5.724   4.320   5.700
 5103TIP3    H215255   5.748   4.233   5.821
 5104TIP3   OH215256   3.966   6.345   3.965
 5104TIP3    H115257   3.986   6.425   4.014
 5104TIP3    H215258   4.038   6.286   3.985
 5105TIP3   OH215259   3.981   4.335   0.795
 5105TIP3    H115260   4.059   4.390   0.797
 5105TIP3    H215261   4.009   4.254   0.753
 5106TIP3   OH215262   4.318   2.977   0.931
 5106TIP3    H115263   4.280   2.907   0.879
 5106TIP3    H215264   4.325   3.051   0.871
 5107TIP3   OH215265   6.233   3.566   2.087
 5107TIP3    H115266   6.319   3.537   2.056
 5107TIP3    H215267   6.184   3.583   2.007
 5108TIP3   OH215268   2.873   5.147   1.070
 5108TIP3    H115269   2.863   5.174   0.979
 5108TIP3    H215270   2.880   5.052   1.066
 5109TIP3   OH215271   5.353   6.671   3.329
 5109TIP3    H115272   5.433   6.681   3.279
 5109TIP3    H215273   5.320   6.760   3.342
 5110TIP3   OH215274   5.603   2.132   2.545
 5110TIP3    H115275   5.679   2.186   2.565
 5110TIP3    H215276   5.540   2.193   2.505
 5111TIP3   OH215277   4.277   7.234   3.349
 5111TIP3    H115278   4.365   7.243   3.313
 5111TIP3    H215279   4.289   7.247   3.443
 5112TIP3   OH215280   2.672   7.693   1.535
 5112TIP3    H115281   2.742   7.639   1.498
 5112TIP3    H215282   2.665   7.768   1.475
 5113TIP3   OH215283   0.329   2.343   2.962
 5113TIP3    H115284   0.416   2.351   2.921
 5113TIP3    H215285   0.307   2.251   2.952
 5114TIP3   OH215286   0.884   2.796   1.282
 5114TIP3    H115287   0.812   2.820   1.224
 5114TIP3    H215288   0.955   2.855   1.258
 5115TIP3   OH215289   0.526   2.407   2.785
 5115TIP3    H115290   0.509   2.422   2.692
 5115TIP3    H215291   0.612   2.366   2.788
 5116TIP3   OH215292   2.772   1.445   4.872
 5116TIP3    H115293   2.818   1.500   4.809
 5116TIP3    H215294   2.701   1.405   4.821
 5117TIP3   OH215295   1.340   1.026   0.872
 5117TIP3    H115296   1.316   1.119   0.870
 5117TIP3    H215297   1.424   1.025   0.919
 5118TIP3   OH215298   0.768   7.017   6.312
 5118TIP3    H115299   0.863   7.016   6.298
 5118TIP3    H215300   0.752   7.097   6.362
 5119TIP3   OH215301   4.701   3.853   3.487
 5119TIP3    H115302   4.769   3.868   3.421
 5119TIP3    H215303   4.717   3.764   3.518
 5120TIP3   OH215304   4.188   5.095   0.185
 5120TIP3    H115305   4.128   5.043   0.238
 5120TIP3    H215306   4.189   5.051   0.100
 5121TIP3   OH215307   2.932   0.573   6.270
 5121TIP3    H115308   2.857   0.526   6.306
 5121TIP3    H215309   2.990   0.586   6.345
 5122TIP3   OH215310   4.367   5.519   4.280
 5122TIP3    H115311   4.429   5.474   4.223
 5122TIP3    H215312   4.356   5.605   4.239
 5123TIP3   OH215313   7.889   0.178   3.184
 5123TIP3    H115314   7.915   0.149   3.097
 5123TIP3    H215315   7.915   0.106   3.242
 5124TIP3   OH215316   7.109   4.183   2.723
 5124TIP3    H115317   7.113   4.240   2.800
 5124TIP3    H215318   7.033   4.214   2.674
 5125TIP3   OH215319   5.754   6.898   5.984
 5125TIP3    H115320   5.681   6.937   5.935
 5125TIP3    H215321   5.739   6.923   6.075
 5126TIP3   OH215322   1.910   6.666   5.382
 5126TIP3    H115323   2.000   6.673   5.350
 5126TIP3    H215324   1.907   6.726   5.457
 5127TIP3   OH215325   5.489   4.867   6.005
 5127TIP3    H115326   5.431   4.923   6.058
 5127TIP3    H215327   5.446   4.782   6.005
 5128TIP3   OH215328   2.455   1.043   3.404
 5128TIP3    H115329   2.551   1.044   3.404
 5128TIP3    H215330   2.431   1.075   3.491
 5129TIP3   OH215331   4.162   0.079   2.474
 5129TIP3    H115332   4.179   0.147   2.409
 5129TIP3    H215333   4.122   0.125   2.548
 5130TIP3   OH215334   0.036   6.303   5.672
 5130TIP3    H115335  -0.029   6.372   5.662
 5130TIP3    H215336   0.058   6.303   5.765
 5131TIP3   OH215337   6.429   0.175   2.316
 5131TIP3    H115338   6.387   0.134   2.241
 5131TIP3    H215339   6.376   0.252   2.334
 5132TIP3   OH215340   8.213   5.724   6.419
 5132TIP3    H115341   8.295   5.712   6.371
 5132TIP3    H215342   8.236   5.711   6.511
 5133TIP3   OH215343   6.467   5.809   6.175
 5133TIP3    H115344   6.416   5.865   6.116
 5133TIP3    H215345   6.481   5.728   6.125
 5134TIP3   OH215346   4.780   5.595   1.813
 5134TIP3    H115347   4.803   5.688   1.816
 5134TIP3    H215348   4.824   5.563   1.734
 5135TIP3   OH215349   1.750   7.624   0.273
 5135TIP3    H115350   1.833   7.650   0.313
 5135TIP3    H215351   1.683   7.660   0.330
 5136TIP3   OH215352   4.320   3.520   0.382
 5136TIP3    H115353   4.317   3.442   0.328
 5136TIP3    H215354   4.321   3.593   0.320
 5137TIP3   OH215355   5.267   5.288   2.571
 5137TIP3    H115356   5.316   5.310   2.650
 5137TIP3    H215357   5.325   5.311   2.499
 5138TIP3   OH215358   6.161   2.634   2.373
 5138TIP3    H115359   6.128   2.696   2.308
 5138TIP3    H215360   6.106   2.556   2.363
 5139TIP3   OH215361   6.972   1.664   1.747
 5139TIP3    H115362   7.060   1.686   1.779
 5139TIP3    H215363   6.987   1.592   1.685
 5140TIP3   OH215364   4.363   5.538   1.405
 5140TIP3    H115365   4.418   5.587   1.466
 5140TIP3    H215366   4.309   5.605   1.363
 5141TIP3   OH215367   7.128   1.966   5.814
 5141TIP3    H115368   7.216   1.986   5.782
 5141TIP3    H215369   7.070   2.010   5.752
 5142TIP3   OH215370   7.124   5.404   5.229
 5142TIP3    H115371   7.090   5.491   5.248
 5142TIP3    H215372   7.051   5.345   5.252
 5143TIP3   OH215373   8.211   2.577   3.415
 5143TIP3    H115374   8.272   2.599   3.484
 5143TIP3    H215375   8.126   2.606   3.447
 5144TIP3   OH215376   4.220   6.073   6.064
 5144TIP3    H115377   4.147   6.013   6.080
 5144TIP3    H215378   4.231   6.121   6.146
 5145TIP3   OH215379   5.537   2.681   5.915
 5145TIP3    H115380   5.622   2.651   5.882
 5145TIP3    H215381   5.558   2.736   5.990
 5146TIP3   OH215382   4.632   7.074   2.005
 5146TIP3    H115383   4.619   7.026   2.086
 5146TIP3    H215384   4.601   7.015   1.936
 5147TIP3   OH215385   2.928   3.193   5.046
 5147TIP3    H115386   2.885   3.245   5.113
 5147TIP3    H215387   2.857   3.153   4.997
 5148TIP3   OH215388   1.777   3.784   0.719
 5148TIP3    H115389   1.807   3.872   0.743
 5148TIP3    H215390   1.711   3.799   0.651
 5149TIP3   OH215391   1.881   4.224   4.176
 5149TIP3    H115392   1.901   4.279   4.251
 5149TIP3    H215393   1.787   4.236   4.161
 5150TIP3   OH215394   1.222   0.235   4.566
 5150TIP3    H115395   1.168   0.312   4.550
 5150TIP3    H215396   1.169   0.162   4.535
 5151TIP3   OH215397   7.366   3.145   5.177
 5151TIP3    H115398   7.324   3.217   5.130
 5151TIP3    H215399   7.301   3.118   5.242
 5152TIP3   OH215400   3.541   3.231   2.813
 5152TIP3    H115401   3.454   3.192   2.820
 5152TIP3    H215402   3.561   3.261   2.901
 5153TIP3   OH215403   5.342   0.941   4.399
 5153TIP3    H115404   5.382   1.025   4.376
 5153TIP3    H215405   5.249   0.961   4.410
 5154TIP3   OH215406   2.627   2.806   5.091
 5154TIP3    H115407   2.688   2.787   5.163
 5154TIP3    H215408   2.661   2.886   5.052
 5155TIP3   OH215409   4.656   2.235   2.589
 5155TIP3    H115410   4.628   2.191   2.509
 5155TIP3    H215411   4.589   2.214   2.654
 5156TIP3   OH215412   6.316   6.351   3.004
 5156TIP3    H115413   6.342   6.421   3.064
 5156TIP3    H215414   6.385   6.349   2.938
 5157TIP3   OH215415   4.891   6.873   4.863
 5157TIP3    H115416   4.847   6.792   4.837
 5157TIP3    H215417   4.821   6.930   4.894
 5158TIP3   OH215418   2.364   7.253   6.371
 5158TIP3    H115419   2.415   7.288   6.297
 5158TIP3    H215420   2.291   7.314   6.381
 5159TIP3   OH215421   1.778   4.850   2.711
 5159TIP3    H115422   1.832   4.841   2.790
 5159TIP3    H215423   1.696   4.888   2.742
 5160TIP3   OH215424   5.042   7.448   2.137
 5160TIP3    H115425   5.003   7.524   2.095
 5160TIP3    H215426   4.967   7.398   2.170
 5161TIP3   OH215427   0.965   5.257   0.404
 5161TIP3    H115428   1.039   5.207   0.438
 5161TIP3    H215429   0.904   5.264   0.477
 5162TIP3   OH215430   0.345   2.283   0.186
 5162TIP3    H115431   0.407   2.309   0.254
 5162TIP3    H215432   0.350   2.353   0.121
 5163TIP3   OH215433   0.254   5.161   0.450
 5163TIP3    H115434   0.256   5.198   0.539
 5163TIP3    H215435   0.176   5.200   0.410
 5164TIP3   OH215436   5.269   1.014   6.479
 5164TIP3    H115437   5.351   1.050   6.445
 5164TIP3    H215438   5.226   0.975   6.403
 5165TIP3   OH215439   0.659   0.073   5.871
 5165TIP3    H115440   0.578   0.058   5.821
 5165TIP3    H215441   0.723   0.102   5.806
 5166TIP3   OH215442   6.941   4.775   4.229
 5166TIP3    H115443   7.008   4.788   4.162
 5166TIP3    H215444   6.941   4.857   4.279
 5167TIP3   OH215445   7.469   1.993   3.878
 5167TIP3    H115446   7.534   2.056   3.848
 5167TIP3    H215447   7.519   1.931   3.930
 5168TIP3   OH215448   0.481   6.354   5.148
 5168TIP3    H115449   0.500   6.260   5.156
 5168TIP3    H215450   0.441   6.364   5.062
 5169TIP3   OH215451   0.402   7.056   2.780
 5169TIP3    H115452   0.491   7.074   2.748
 5169TIP3    H215453   0.395   6.961   2.778
 5170TIP3   OH215454   2.368   3.735   4.397
 5170TIP3    H115455   2.389   3.782   4.478
 5170TIP3    H215456   2.419   3.780   4.329
 5171TIP3   OH215457   4.994   2.948  -0.028
 5171TIP3    H115458   4.962   2.978   0.057
 5171TIP3    H215459   5.042   3.023  -0.063
 5172TIP3   OH215460   6.835   3.889   3.066
 5172TIP3    H115461   6.793   3.813   3.026
 5172TIP3    H215462   6.859   3.945   2.992
 5173TIP3   OH215463   2.303   3.997   6.015
 5173TIP3    H115464   2.214   4.027   6.032
 5173TIP3    H215465   2.358   4.074   6.030
 5174TIP3   OH215466   4.407   5.289   5.701
 5174TIP3    H115467   4.314   5.269   5.692
 5174TIP3    H215468   4.410   5.384   5.712
 5175TIP3   OH215469   4.966   5.952   4.472
 5175TIP3    H115470   5.020   5.998   4.408
 5175TIP3    H215471   4.889   6.007   4.482
 5176TIP3   OH215472   5.940   4.825   1.194
 5176TIP3    H115473   5.972   4.736   1.209
 5176TIP3    H215474   5.855   4.813   1.151
 5177TIP3   OH215475   3.213   2.591   1.029
 5177TIP3    H115476   3.263   2.533   0.971
 5177TIP3    H215477   3.172   2.532   1.092
 5178TIP3   OH215478   5.182   5.524   1.162
 5178TIP3    H115479   5.176   5.564   1.248
 5178TIP3    H215480   5.101   5.547   1.118
 5179TIP3   OH215481   3.414   6.141   4.960
 5179TIP3    H115482   3.402   6.216   5.018
 5179TIP3    H215483   3.327   6.100   4.956
 5180TIP3   OH215484   0.760   0.152   4.722
 5180TIP3    H115485   0.676   0.108   4.728
 5180TIP3    H215486   0.814   0.110   4.790
 5181TIP3   OH215487   7.041   4.200   1.223
 5181TIP3    H115488   7.087   4.280   1.196
 5181TIP3    H215489   7.003   4.165   1.143
 5182TIP3   OH215490   7.741   2.628   5.930
 5182TIP3    H115491   7.752   2.633   5.835
 5182TIP3    H215492   7.734   2.719   5.959
 5183TIP3   OH215493   7.924   5.804   1.491
 5183TIP3    H115494   7.841   5.759   1.477
 5183TIP3    H215495   7.922   5.830   1.583
 5184TIP3   OH215496   2.793   0.388   0.583
 5184TIP3    H115497   2.889   0.385   0.576
 5184TIP3    H215498   2.774   0.349   0.668
 5185TIP3   OH215499   1.055   0.203   1.226
 5185TIP3    H115500   1.049   0.298   1.225
 5185TIP3    H215501   1.004   0.176   1.303
 5186TIP3   OH215502   4.131   5.507   1.140
 5186TIP3    H115503   4.159   5.539   1.054
 5186TIP3    H215504   4.198   5.445   1.166
 5187TIP3   OH215505   6.124   5.247   1.724
 5187TIP3    H115506   6.084   5.326   1.687
 5187TIP3    H215507   6.146   5.271   1.814
 5188TIP3   OH215508   5.690   3.165   3.763
 5188TIP3    H115509   5.602   3.134   3.742
 5188TIP3    H215510   5.716   3.113   3.839
 5189TIP3   OH215511   6.938   4.795   6.159
 5189TIP3    H115512   7.025   4.831   6.177
 5189TIP3    H215513   6.955   4.706   6.129
 5190TIP3   OH215514   5.565   7.368   2.697
 5190TIP3    H115515   5.498   7.384   2.630
 5190TIP3    H215516   5.562   7.447   2.752
 5191TIP3   OH215517   4.011   0.095   2.208
 5191TIP3    H115518   3.993   0.045   2.288
 5191TIP3    H215519   4.072   0.164   2.237
 5192TIP3   OH215520   4.942   1.105   3.783
 5192TIP3    H115521   5.025   1.061   3.765
 5192TIP3    H215522   4.966   1.197   3.794
 5193TIP3   OH215523   4.201   6.087   3.093
 5193TIP3    H115524   4.275   6.030   3.071
 5193TIP3    H215525   4.125   6.029   3.093
 5194TIP3   OH215526   2.615   3.621   5.448
 5194TIP3    H115527   2.625   3.705   5.403
 5194TIP3    H215528   2.642   3.638   5.538
 5195TIP3   OH215529   6.931   2.415   3.748
 5195TIP3    H115530   6.908   2.410   3.655
 5195TIP3    H215531   7.012   2.467   3.749
 5196TIP3   OH215532   2.448   1.080   1.759
 5196TIP3    H115533   2.448   0.988   1.734
 5196TIP3    H215534   2.523   1.089   1.817
 5197TIP3   OH215535   6.069   1.046   6.457
 5197TIP3    H115536   6.144   1.101   6.478
 5197TIP3    H215537   6.105   0.976   6.403
 5198TIP3   OH215538   2.410   1.303   2.420
 5198TIP3    H115539   2.385   1.250   2.497
 5198TIP3    H215540   2.473   1.249   2.373
 5199TIP3   OH215541   4.447   3.755   3.436
 5199TIP3    H115542   4.464   3.662   3.422
 5199TIP3    H215543   4.534   3.795   3.440
 5200TIP3   OH215544   3.501   5.373   4.456
 5200TIP3    H115545   3.551   5.362   4.376
 5200TIP3    H215546   3.565   5.362   4.526
 5201TIP3   OH215547   6.313   5.671   5.336
 5201TIP3    H115548   6.361   5.589   5.333
 5201TIP3    H215549   6.272   5.672   5.422
 5202TIP3   OH215550   6.005   0.989   1.948
 5202TIP3    H115551   6.081   0.932   1.934
 5202TIP3    H215552   6.021   1.031   2.032
 5203TIP3   OH215553   0.585   0.084   2.420
 5203TIP3    H115554   0.573   0.005   2.367
 5203TIP3    H215555   0.509   0.139   2.400
 5204TIP3   OH215556   3.141   1.227   3.193
 5204TIP3    H115557   3.193   1.148   3.208
 5204TIP3    H215558   3.203   1.290   3.156
 5205TIP3   OH215559   0.363   5.492   6.412
 5205TIP3    H115560   0.438   5.519   6.464
 5205TIP3    H215561   0.290   5.545   6.446
 5206TIP3   OH215562   7.578   6.383   4.003
 5206TIP3    H115563   7.671   6.359   4.008
 5206TIP3    H215564   7.558   6.416   4.091
 5207TIP3   OH215565   3.764   5.803   0.754
 5207TIP3    H115566   3.834   5.746   0.722
 5207TIP3    H215567   3.698   5.801   0.685
 5208TIP3   OH215568   7.708   1.399   0.218
 5208TIP3    H115569   7.666   1.444   0.146
 5208TIP3    H215570   7.749   1.322   0.178
 5209TIP3   OH215571   3.169   5.989   2.663
 5209TIP3    H115572   3.156   6.084   2.668
 5209TIP3    H215573   3.258   5.980   2.630
 5210TIP3   OH215574   6.044   7.086   6.784
 5210TIP3    H115575   6.057   6.995   6.756
 5210TIP3    H215576   5.951   7.091   6.806
 5211TIP3   OH215577   7.265   6.258   2.037
 5211TIP3    H115578   7.314   6.231   2.115
 5211TIP3    H215579   7.319   6.228   1.964
 5212TIP3   OH215580   1.705   5.983   1.478
 5212TIP3    H115581   1.702   5.983   1.382
 5212TIP3    H215582   1.639   5.920   1.504
 5213TIP3   OH215583   5.080   5.630   2.550
 5213TIP3    H115584   4.989   5.642   2.577
 5213TIP3    H215585   5.129   5.693   2.603
 5214TIP3   OH215586   7.558   0.462   2.744
 5214TIP3    H115587   7.567   0.366   2.742
 5214TIP3    H215588   7.549   0.487   2.652
 5215TIP3   OH215589   3.235   1.033   4.081
 5215TIP3    H115590   3.306   1.076   4.034
 5215TIP3    H215591   3.156   1.057   4.033
 5216TIP3   OH215592   3.731   1.256   6.538
 5216TIP3    H115593   3.639   1.284   6.529
 5216TIP3    H215594   3.726   1.175   6.588
 5217TIP3   OH215595   3.227   6.240   1.538
 5217TIP3    H115596   3.256   6.327   1.510
 5217TIP3    H215597   3.305   6.185   1.532
 5218TIP3   OH215598   0.298   3.577   3.271
 5218TIP3    H115599   0.304   3.626   3.353
 5218TIP3    H215600   0.221   3.614   3.228
 5219TIP3   OH215601   3.822   2.330   0.051
 5219TIP3    H115602   3.850   2.297   0.137
 5219TIP3    H215603   3.743   2.381   0.071
 5220TIP3   OH215604   1.446   3.374   1.278
 5220TIP3    H115605   1.516   3.309   1.271
 5220TIP3    H215606   1.439   3.392   1.372
 5221TIP3   OH215607   5.545   0.394   4.037
 5221TIP3    H115608   5.472   0.378   4.097
 5221TIP3    H215609   5.579   0.480   4.062
 5222TIP3   OH215610   0.932   4.919   6.382
 5222TIP3    H115611   0.992   4.879   6.319
 5222TIP3    H215612   0.985   4.983   6.429
 5223TIP3   OH215613   6.046   0.015   5.896
 5223TIP3    H115614   6.097  -0.065   5.891
 5223TIP3    H215615   6.092   0.076   5.839
 5224TIP3   OH215616   7.903   6.833   3.302
 5224TIP3    H115617   7.905   6.856   3.209
 5224TIP3    H215618   7.897   6.917   3.348
 5225TIP3   OH215619   6.546   6.543   4.739
 5225TIP3    H115620   6.586   6.565   4.654
 5225TIP3    H215621   6.586   6.605   4.800
 5226TIP3   OH215622   2.227   2.598   1.979
 5226TIP3    H115623   2.225   2.604   2.075
 5226TIP3    H215624   2.252   2.508   1.961
 5227TIP3   OH215625   4.734   7.484   5.749
 5227TIP3    H115626   4.755   7.438   5.831
 5227TIP3    H215627   4.806   7.462   5.690
 5228TIP3   OH215628   3.885   5.609   2.053
 5228TIP3    H115629   3.969   5.624   2.096
 5228TIP3    H215630   3.905   5.556   1.976
 5229TIP3   OH215631   4.699   0.446   3.552
 5229TIP3    H115632   4.768   0.388   3.522
 5229TIP3    H215633   4.733   0.534   3.537
 5230TIP3   OH215634   1.993   7.449   2.019
 5230TIP3    H115635   2.067   7.390   2.037
 5230TIP3    H215636   2.023   7.535   2.047
 5231TIP3   OH215637   5.700   0.126   1.938
 5231TIP3    H115638   5.624   0.135   1.997
 5231TIP3    H215639   5.669   0.158   1.854
 5232TIP3   OH215640   5.341   7.804   6.526
 5232TIP3    H115641   5.258   7.755   6.523
 5232TIP3    H215642   5.384   7.774   6.606
 5233TIP3   OH215643   7.000   3.188   0.268
 5233TIP3    H115644   7.007   3.228   0.181
 5233TIP3    H215645   7.080   3.214   0.313
 5234TIP3   OH215646   1.857   3.927   5.331
 5234TIP3    H115647   1.841   3.881   5.413
 5234TIP3    H215648   1.912   3.867   5.280
 5235TIP3   OH215649   8.035   1.022   3.174
 5235TIP3    H115650   8.075   1.107   3.193
 5235TIP3    H215651   7.942   1.040   3.166
 5236TIP3   OH215652   4.169   5.343   0.338
 5236TIP3    H115653   4.225   5.270   0.363
 5236TIP3    H215654   4.148   5.327   0.246
 5237TIP3   OH215655   7.769   1.817   4.952
 5237TIP3    H115656   7.749   1.744   5.009
 5237TIP3    H215657   7.833   1.869   5.001
 5238TIP3   OH215658   3.683   1.583   5.310
 5238TIP3    H115659   3.645   1.636   5.380
 5238TIP3    H215660   3.614   1.579   5.243
 5239TIP3   OH215661   6.268   6.506   5.248
 5239TIP3    H115662   6.191   6.452   5.229
 5239TIP3    H215663   6.291   6.483   5.338
 5240TIP3   OH215664   3.098   7.319   2.571
 5240TIP3    H115665   3.023   7.269   2.539
 5240TIP3    H215666   3.060   7.402   2.600
 5241TIP3   OH215667   4.876   6.381   5.275
 5241TIP3    H115668   4.914   6.443   5.337
 5241TIP3    H215669   4.811   6.332   5.326
 5242TIP3   OH215670   6.614   2.709   5.274
 5242TIP3    H115671   6.710   2.718   5.276
 5242TIP3    H215672   6.599   2.614   5.273
 5243TIP3   OH215673   3.569   2.932   0.881
 5243TIP3    H115674   3.584   3.008   0.937
 5243TIP3    H215675   3.647   2.877   0.893
 5244TIP3   OH215676   7.897   1.002   4.636
 5244TIP3    H115677   7.817   0.950   4.648
 5244TIP3    H215678   7.873   1.066   4.569
 5245TIP3   OH215679   6.375   5.293   3.598
 5245TIP3    H115680   6.362   5.365   3.661
 5245TIP3    H215681   6.368   5.335   3.512
 5246TIP3   OH215682   1.332   4.483   2.405
 5246TIP3    H115683   1.366   4.444   2.325
 5246TIP3    H215684   1.249   4.522   2.380
 5247TIP3   OH215685   0.473   4.488   6.482
 5247TIP3    H115686   0.416   4.559   6.453
 5247TIP3    H215687   0.522   4.526   6.555
 5248TIP3   OH215688   0.807   0.082   4.435
 5248TIP3    H115689   0.798   0.098   4.529
 5248TIP3    H215690   0.902   0.077   4.421
 5249TIP3   OH215691   4.318   6.030   0.267
 5249TIP3    H115692   4.330   6.022   0.172
 5249TIP3    H215693   4.390   5.979   0.304
 5250TIP3   OH215694   6.074   1.685   2.963
 5250TIP3    H115695   6.131   1.738   3.019
 5250TIP3    H215696   6.046   1.613   3.019
 5251TIP3   OH215697   3.071   5.382   5.804
 5251TIP3    H115698   3.148   5.337   5.770
 5251TIP3    H215699   3.070   5.467   5.761
 5252TIP3   OH215700   0.177   5.267   1.875
 5252TIP3    H115701   0.270   5.249   1.886
 5252TIP3    H215702   0.174   5.351   1.830
 5253TIP3   OH215703   5.252   1.326   0.070
 5253TIP3    H115704   5.319   1.261   0.048
 5253TIP3    H215705   5.172   1.275   0.082
 5254TIP3   OH215706   1.904   7.353   2.754
 5254TIP3    H115707   1.855   7.404   2.690
 5254TIP3    H215708   1.915   7.412   2.828
 5255TIP3   OH215709   0.239   3.033   5.021
 5255TIP3    H115710   0.170   3.041   5.087
 5255TIP3    H215711   0.194   3.004   4.942
 5256TIP3   OH215712   0.138   4.658   0.354
 5256TIP3    H115713   0.182   4.712   0.420
 5256TIP3    H215714   0.170   4.692   0.270
 5257TIP3   OH215715   4.542   2.225   1.046
 5257TIP3    H115716   4.624   2.262   1.014
 5257TIP3    H215717   4.484   2.301   1.054
 5258TIP3   OH215718   3.550   3.106   3.674
 5258TIP3    H115719   3.541   3.181   3.614
 5258TIP3    H215720   3.560   3.030   3.616
 5259TIP3   OH215721   7.702   2.614   2.413
 5259TIP3    H115722   7.613   2.579   2.412
 5259TIP3    H215723   7.709   2.665   2.333
 5260TIP3   OH215724   5.067   3.773   3.692
 5260TIP3    H115725   5.128   3.840   3.661
 5260TIP3    H215726   5.068   3.706   3.623
 5261TIP3   OH215727   5.314   5.374   2.116
 5261TIP3    H115728   5.221   5.374   2.090
 5261TIP3    H215729   5.350   5.297   2.074
 5262TIP3   OH215730   6.569   3.999   4.574
 5262TIP3    H115731   6.590   3.911   4.542
 5262TIP3    H215732   6.614   4.058   4.514
 5263TIP3   OH215733   3.249   5.475   2.943
 5263TIP3    H115734   3.212   5.547   2.994
 5263TIP3    H215735   3.308   5.430   3.003
 5264TIP3   OH215736   4.835   2.586   0.299
 5264TIP3    H115737   4.837   2.672   0.258
 5264TIP3    H215738   4.922   2.576   0.339
 5265TIP3   OH215739   2.943   3.432   1.987
 5265TIP3    H115740   2.885   3.356   1.985
 5265TIP3    H215741   2.955   3.451   2.080
 5266TIP3   OH215742   8.202   5.149   0.623
 5266TIP3    H115743   8.127   5.195   0.658
 5266TIP3    H215744   8.215   5.186   0.535
 5267TIP3   OH215745   7.982   0.195   4.346
 5267TIP3    H115746   7.991   0.101   4.360
 5267TIP3    H215747   7.889   0.212   4.358
 5268TIP3   OH215748   5.751   6.457   5.582
 5268TIP3    H115749   5.844   6.434   5.588
 5268TIP3    H215750   5.730   6.491   5.669
 5269TIP3   OH215751   0.181   7.109   0.546
 5269TIP3    H115752   0.265   7.065   0.532
 5269TIP3    H215753   0.118   7.059   0.494
 5270TIP3   OH215754   7.376   0.440   1.606
 5270TIP3    H115755   7.449   0.463   1.549
 5270TIP3    H215756   7.417   0.421   1.691
 5271TIP3   OH215757   4.984   7.810   2.863
 5271TIP3    H115758   5.003   7.738   2.923
 5271TIP3    H215759   5.063   7.863   2.864
 5272TIP3   OH215760   7.686   2.601   3.287
 5272TIP3    H115761   7.761   2.660   3.283
 5272TIP3    H215762   7.723   2.515   3.265
 5273TIP3   OH215763   2.626   6.210   1.889
 5273TIP3    H115764   2.677   6.129   1.892
 5273TIP3    H215765   2.612   6.227   1.796
 5274TIP3   OH215766   7.746   5.177   0.622
 5274TIP3    H115767   7.776   5.122   0.550
 5274TIP3    H215768   7.670   5.131   0.659
 5275TIP3   OH215769   7.786   6.908   6.292
 5275TIP3    H115770   7.832   6.949   6.365
 5275TIP3    H215771   7.706   6.872   6.330
 5276TIP3   OH215772   2.896   5.329   1.281
 5276TIP3    H115773   2.987   5.353   1.263
 5276TIP3    H215774   2.873   5.267   1.211
 5277TIP3   OH215775   5.313   0.049   5.881
 5277TIP3    H115776   5.374   0.115   5.912
 5277TIP3    H215777   5.228   0.093   5.878
 5278TIP3   OH215778   1.075   7.313   2.190
 5278TIP3    H115779   1.094   7.303   2.097
 5278TIP3    H215780   0.980   7.316   2.195
 5279TIP3   OH215781   0.485   7.632   5.323
 5279TIP3    H115782   0.463   7.566   5.257
 5279TIP3    H215783   0.566   7.599   5.363
 5280TIP3   OH215784   5.042   2.336   6.374
 5280TIP3    H115785   5.018   2.319   6.465
 5280TIP3    H215786   5.120   2.392   6.380
 5281TIP3   OH215787   4.552   2.880   0.574
 5281TIP3    H115788   4.558   2.791   0.538
 5281TIP3    H215789   4.464   2.885   0.610
 5282TIP3   OH215790   1.256   2.048   5.965
 5282TIP3    H115791   1.317   1.997   6.019
 5282TIP3    H215792   1.185   2.072   6.025
 5283TIP3   OH215793   1.653   2.034   2.243
 5283TIP3    H115794   1.617   2.115   2.278
 5283TIP3    H215795   1.583   1.970   2.255
 5284TIP3   OH215796   7.267   6.969   3.183
 5284TIP3    H115797   7.310   6.889   3.154
 5284TIP3    H215798   7.244   6.952   3.275
 5285TIP3   OH215799   4.795   0.216   6.560
 5285TIP3    H115800   4.837   0.222   6.474
 5285TIP3    H215801   4.834   0.139   6.600
 5286TIP3   OH215802   3.166   3.843   0.313
 5286TIP3    H115803   3.247   3.823   0.267
 5286TIP3    H215804   3.188   3.835   0.406
 5287TIP3   OH215805   5.603   1.293   2.186
 5287TIP3    H115806   5.649   1.365   2.142
 5287TIP3    H215807   5.573   1.331   2.269
 5288TIP3   OH215808   6.568   0.736   6.256
 5288TIP3    H115809   6.615   0.780   6.326
 5288TIP3    H215810   6.601   0.776   6.175
 5289TIP3   OH215811   6.026   0.301   1.308
 5289TIP3    H115812   6.115   0.326   1.284
 5289TIP3    H215813   6.024   0.309   1.403
 5290TIP3   OH215814   3.150   5.527   3.553
 5290TIP3    H115815   3.093   5.460   3.515
 5290TIP3    H215816   3.239   5.497   3.532
 5291TIP3   OH215817   0.844   2.695   2.788
 5291TIP3    H115818   0.791   2.771   2.813
 5291TIP3    H215819   0.918   2.697   2.849
 5292TIP3   OH215820   1.994   7.226   1.582
 5292TIP3    H115821   2.032   7.163   1.644
 5292TIP3    H215822   1.942   7.285   1.636
 5293TIP3   OH215823   5.291   4.296   5.976
 5293TIP3    H115824   5.347   4.222   5.999
 5293TIP3    H215825   5.295   4.353   6.053
 5294TIP3   OH215826   7.597   3.619   1.421
 5294TIP3    H115827   7.655   3.659   1.486
 5294TIP3    H215828   7.600   3.680   1.347
 5295TIP3   OH215829   5.316   0.554   5.030
 5295TIP3    H115830   5.293   0.461   5.023
 5295TIP3    H215831   5.233   0.598   5.052
 5296TIP3   OH215832   0.000   5.134   4.683
 5296TIP3    H115833   0.010   5.223   4.651
 5296TIP3    H215834   0.086   5.095   4.673
 5297TIP3   OH215835   4.512   6.403   3.254
 5297TIP3    H115836   4.606   6.400   3.271
 5297TIP3    H215837   4.473   6.423   3.339
 5298TIP3   OH215838   2.249   1.472   1.251
 5298TIP3    H115839   2.246   1.381   1.280
 5298TIP3    H215840   2.326   1.508   1.294
 5299TIP3   OH215841   4.800   3.125   2.060
 5299TIP3    H115842   4.723   3.181   2.069
 5299TIP3    H215843   4.873   3.180   2.090
 5300TIP3   OH215844   2.352   2.350   1.900
 5300TIP3    H115845   2.355   2.283   1.832
 5300TIP3    H215846   2.441   2.385   1.903
 5301TIP3   OH215847   7.241   1.810   6.175
 5301TIP3    H115848   7.209   1.871   6.241
 5301TIP3    H215849   7.336   1.825   6.171
 5302TIP3   OH215850   6.687   4.389   0.120
 5302TIP3    H115851   6.730   4.465   0.082
 5302TIP3    H215852   6.641   4.349   0.046
 5303TIP3   OH215853   2.819   0.602   1.573
 5303TIP3    H115854   2.834   0.512   1.546
 5303TIP3    H215855   2.907   0.637   1.588
 5304TIP3   OH215856   0.455   4.679   0.228
 5304TIP3    H115857   0.431   4.595   0.189
 5304TIP3    H215858   0.378   4.734   0.217
 5305TIP3   OH215859   1.681   1.788   1.250
 5305TIP3    H115860   1.595   1.825   1.271
 5305TIP3    H215861   1.670   1.751   1.163
 5306TIP3   OH215862   6.723   0.285   2.846
 5306TIP3    H115863   6.801   0.331   2.815
 5306TIP3    H215864   6.744   0.192   2.835
 5307TIP3   OH215865   4.230   6.757   1.074
 5307TIP3    H115866   4.166   6.737   1.142
 5307TIP3    H215867   4.211   6.695   1.004
 5308TIP3   OH215868   8.181   0.643   4.088
 5308TIP3    H115869   8.178   0.721   4.144
 5308TIP3    H215870   8.117   0.660   4.019
 5309TIP3   OH215871   5.170   1.552   1.064
 5309TIP3    H115872   5.108   1.494   1.107
 5309TIP3    H215873   5.185   1.511   0.978
 5310TIP3   OH215874   2.581   7.170   4.486
 5310TIP3    H115875   2.547   7.129   4.565
 5310TIP3    H215876   2.542   7.120   4.414
 5311TIP3   OH215877   2.462   0.896   6.037
 5311TIP3    H115878   2.438   0.951   6.112
 5311TIP3    H215879   2.511   0.824   6.076
 5312TIP3   OH215880   1.318   7.588   3.543
 5312TIP3    H115881   1.338   7.498   3.568
 5312TIP3    H215882   1.400   7.623   3.509
 5313TIP3   OH215883   2.279   2.084   3.743
 5313TIP3    H115884   2.296   2.173   3.712
 5313TIP3    H215885   2.260   2.034   3.663
 5314TIP3   OH215886   8.066   6.170   5.068
 5314TIP3    H115887   8.010   6.224   5.012
 5314TIP3    H215888   8.125   6.125   5.008
 5315TIP3   OH215889   1.331   4.729   2.018
 5315TIP3    H115890   1.403   4.729   1.955
 5315TIP3    H215891   1.259   4.773   1.973
 5316TIP3   OH215892   4.461   7.514   5.676
 5316TIP3    H115893   4.554   7.515   5.698
 5316TIP3    H215894   4.459   7.524   5.581
 5317TIP3   OH215895   7.447   3.685   4.801
 5317TIP3    H115896   7.430   3.776   4.774
 5317TIP3    H215897   7.540   3.684   4.823
 5318TIP3   OH215898   7.448   1.531   5.967
 5318TIP3    H115899   7.493   1.550   6.050
 5318TIP3    H215900   7.367   1.487   5.994
 5319TIP3   OH215901   6.847   3.643   1.014
 5319TIP3    H115902   6.844   3.717   0.954
 5319TIP3    H215903   6.910   3.583   0.974
 5320TIP3   OH215904   7.504   3.698   2.714
 5320TIP3    H115905   7.484   3.708   2.621
 5320TIP3    H215906   7.592   3.734   2.724
 5321TIP3   OH215907   3.080   2.288   2.741
 5321TIP3    H115908   3.172   2.311   2.725
 5321TIP3    H215909   3.054   2.239   2.663
 5322TIP3   OH215910   5.629   3.374   0.345
 5322TIP3    H115911   5.609   3.410   0.258
 5322TIP3    H215912   5.605   3.282   0.338
 5323TIP3   OH215913   5.910   7.697   2.503
 5323TIP3    H115914   5.962   7.638   2.448
 5323TIP3    H215915   5.974   7.753   2.546
 5324TIP3   OH215916   3.414   7.124   4.397
 5324TIP3    H115917   3.413   7.040   4.444
 5324TIP3    H215918   3.405   7.190   4.466
 5325TIP3   OH215919   2.536  -0.028   5.577
 5325TIP3    H115920   2.594  -0.056   5.647
 5325TIP3    H215921   2.503   0.057   5.606
 5326TIP3   OH215922   0.533   1.148   4.747
 5326TIP3    H115923   0.551   1.161   4.654
 5326TIP3    H215924   0.614   1.174   4.791
 5327TIP3   OH215925   5.784   2.458   5.460
 5327TIP3    H115926   5.837   2.384   5.429
 5327TIP3    H215927   5.755   2.502   5.380
 5328TIP3   OH215928   1.732   3.329   1.632
 5328TIP3    H115929   1.757   3.277   1.708
 5328TIP3    H215930   1.809   3.383   1.613
 5329TIP3   OH215931   3.109   1.431   6.786
 5329TIP3    H115932   3.086   1.463   6.699
 5329TIP3    H215933   3.061   1.349   6.795
 5330TIP3   OH215934   6.999   1.967   6.197
 5330TIP3    H115935   6.942   1.952   6.122
 5330TIP3    H215936   7.002   1.883   6.242
 5331TIP3   OH215937   0.796   4.539   4.055
 5331TIP3    H115938   0.745   4.581   3.985
 5331TIP3    H215939   0.821   4.454   4.018
 5332TIP3   OH215940   0.946   6.828   6.657
 5332TIP3    H115941   0.951   6.886   6.733
 5332TIP3    H215942   0.950   6.740   6.694
 5333TIP3   OH215943   0.244   7.613   6.205
 5333TIP3    H115944   0.169   7.671   6.198
 5333TIP3    H215945   0.265   7.590   6.114
 5334TIP3   OH215946   8.220   1.459   4.449
 5334TIP3    H115947   8.125   1.463   4.437
 5334TIP3    H215948   8.241   1.534   4.504
 5335TIP3   OH215949   4.305   0.169   3.833
 5335TIP3    H115950   4.374   0.235   3.834
 5335TIP3    H215951   4.243   0.198   3.900
 5336TIP3   OH215952   4.844   0.934   3.587
 5336TIP3    H115953   4.797   0.952   3.668
 5336TIP3    H215954   4.913   1.001   3.584
 5337TIP3   OH215955   7.032   7.542   5.496
 5337TIP3    H115956   7.063   7.462   5.539
 5337TIP3    H215957   6.937   7.536   5.502
 5338TIP3   OH215958   1.770   3.353   0.791
 5338TIP3    H115959   1.764   3.446   0.815
 5338TIP3    H215960   1.704   3.342   0.722
 5339TIP3   OH215961   3.900   6.225   1.373
 5339TIP3    H115962   3.940   6.311   1.384
 5339TIP3    H215963   3.830   6.238   1.309
 5340TIP3   OH215964   7.531   4.321   5.710
 5340TIP3    H115965   7.536   4.411   5.679
 5340TIP3    H215966   7.477   4.325   5.789
 5341TIP3   OH215967   3.002   7.606   4.251
 5341TIP3    H115968   2.982   7.516   4.276
 5341TIP3    H215969   3.054   7.640   4.324
 5342TIP3   OH215970   4.938   4.491   3.520
 5342TIP3    H115971   5.005   4.556   3.541
 5342TIP3    H215972   4.942   4.482   3.425
 5343TIP3   OH215973   7.201   6.536   4.972
 5343TIP3    H115974   7.179   6.630   4.970
 5343TIP3    H215975   7.282   6.529   4.922
 5344TIP3   OH215976   2.640   6.871   6.368
 5344TIP3    H115977   2.721   6.921   6.357
 5344TIP3    H215978   2.596   6.878   6.283
 5345TIP3   OH215979   2.017   1.873   6.405
 5345TIP3    H115980   2.110   1.894   6.399
 5345TIP3    H215981   2.003   1.852   6.497
 5346TIP3   OH215982   2.584   0.215   2.035
 5346TIP3    H115983   2.659   0.252   2.081
 5346TIP3    H215984   2.549   0.150   2.095
 5347TIP3   OH215985   7.948   6.944   5.845
 5347TIP3    H115986   7.853   6.953   5.838
 5347TIP3    H215987   7.967   6.965   5.937
 5348TIP3   OH215988   0.739   2.899   1.805
 5348TIP3    H115989   0.781   2.976   1.766
 5348TIP3    H215990   0.685   2.934   1.876
 5349TIP3   OH215991   7.401   5.586   2.542
 5349TIP3    H115992   7.330   5.613   2.601
 5349TIP3    H215993   7.361   5.587   2.455
 5350TIP3   OH215994   0.257   2.687   1.021
 5350TIP3    H115995   0.246   2.593   1.011
 5350TIP3    H215996   0.258   2.702   1.116
 5351TIP3   OH215997   6.653   2.610   4.237
 5351TIP3    H115998   6.746   2.593   4.251
 5351TIP3    H215999   6.640   2.699   4.272
 5352TIP3   OH216000   5.213   4.931   3.613
 5352TIP3    H116001   5.202   4.992   3.540
 5352TIP3    H216002   5.241   4.985   3.686
 5353TIP3   OH216003   2.016   1.548   6.254
 5353TIP3    H116004   2.011   1.499   6.172
 5353TIP3    H216005   2.015   1.640   6.227
 5354TIP3   OH216006   7.305   4.703   3.959
 5354TIP3    H116007   7.299   4.689   4.053
 5354TIP3    H216008   7.215   4.717   3.931
 5355TIP3   OH216009   5.285   6.930   1.723
 5355TIP3    H116010   5.217   6.903   1.661
 5355TIP3    H216011   5.247   6.915   1.809
 5356TIP3   OH216012   5.993   7.795   6.752
 5356TIP3    H116013   6.022   7.742   6.827
 5356TIP3    H216014   6.073   7.814   6.704
 5357TIP3   OH216015   3.465   2.348   3.686
 5357TIP3    H116016   3.375   2.366   3.658
 5357TIP3    H216017   3.456   2.324   3.779
 5358TIP3   OH216018   5.347   2.003   0.071
 5358TIP3    H116019   5.321   2.090   0.100
 5358TIP3    H216020   5.267   1.950   0.080
 5359TIP3   OH216021   0.588   1.491   4.942
 5359TIP3    H116022   0.605   1.398   4.956
 5359TIP3    H216023   0.671   1.534   4.962
 5360TIP3   OH216024   6.969   4.543   4.859
 5360TIP3    H116025   6.899   4.559   4.923
 5360TIP3    H216026   6.953   4.608   4.790
 5361TIP3   OH216027   0.874   1.473   5.026
 5361TIP3    H116028   0.891   1.556   4.981
 5361TIP3    H216029   0.961   1.439   5.047
 5362TIP3   OH216030   6.854   4.849   1.386
 5362TIP3    H116031   6.762   4.869   1.365
 5362TIP3    H216032   6.853   4.824   1.478
 5363TIP3   OH216033   4.698   6.576   5.631
 5363TIP3    H116034   4.658   6.508   5.686
 5363TIP3    H216035   4.658   6.657   5.662
 5364TIP3   OH216036   7.423   0.646   1.317
 5364TIP3    H116037   7.476   0.681   1.388
 5364TIP3    H216038   7.482   0.643   1.241
 5365TIP3   OH216039   4.028   4.292   3.311
 5365TIP3    H116040   4.027   4.259   3.221
 5365TIP3    H216041   4.104   4.248   3.351
 5366TIP3   OH216042   8.285   6.994   3.044
 5366TIP3    H116043   8.354   6.943   3.001
 5366TIP3    H216044   8.326   7.028   3.123
 5367TIP3   OH216045   5.087   6.416   6.183
 5367TIP3    H116046   5.069   6.509   6.174
 5367TIP3    H216047   5.076   6.381   6.094
 5368TIP3   OH216048   5.125   3.270   5.396
 5368TIP3    H116049   5.079   3.260   5.479
 5368TIP3    H216050   5.070   3.225   5.332
 5369TIP3   OH216051   4.806   4.307   1.135
 5369TIP3    H116052   4.896   4.279   1.152
 5369TIP3    H216053   4.809   4.350   1.050
 5370TIP3   OH216054   2.226   5.535   6.722
 5370TIP3    H116055   2.239   5.440   6.713
 5370TIP3    H216056   2.180   5.560   6.642
 5371TIP3   OH216057   1.783   0.449   2.938
 5371TIP3    H116058   1.688   0.450   2.925
 5371TIP3    H216059   1.813   0.374   2.886
 5372TIP3   OH216060   6.631   6.409   6.248
 5372TIP3    H116061   6.596   6.323   6.223
 5372TIP3    H216062   6.700   6.389   6.311
 5373TIP3   OH216063   0.637   1.394   0.323
 5373TIP3    H116064   0.568   1.453   0.351
 5373TIP3    H216065   0.595   1.336   0.260
 5374TIP3   OH216066   0.755   1.257   2.935
 5374TIP3    H116067   0.815   1.291   3.001
 5374TIP3    H216068   0.688   1.211   2.986
 5375TIP3   OH216069   1.889   4.171   1.854
 5375TIP3    H116070   1.976   4.146   1.885
 5375TIP3    H216071   1.881   4.129   1.769
 5376TIP3   OH216072   5.209   3.250   3.793
 5376TIP3    H116073   5.258   3.327   3.821
 5376TIP3    H216074   5.141   3.239   3.859
 5377TIP3   OH216075   6.664   6.943   5.752
 5377TIP3    H116076   6.664   6.854   5.786
 5377TIP3    H216077   6.655   6.998   5.830
 5378TIP3   OH216078   1.674   4.424   0.223
 5378TIP3    H116079   1.579   4.431   0.208
 5378TIP3    H216080   1.691   4.483   0.297
 5379TIP3   OH216081   0.996   0.985   3.890
 5379TIP3    H116082   0.987   0.894   3.861
 5379TIP3    H216083   0.929   0.995   3.958
 5380TIP3   OH216084   2.252   7.154   0.752
 5380TIP3    H116085   2.276   7.238   0.713
 5380TIP3    H216086   2.275   7.164   0.845
 5381TIP3   OH216087   3.282   0.498   4.175
 5381TIP3    H116088   3.265   0.522   4.084
 5381TIP3    H216089   3.375   0.475   4.177
 5382TIP3   OH216090   6.650   1.574   4.801
 5382TIP3    H116091   6.622   1.653   4.755
 5382TIP3    H216092   6.639   1.594   4.894
 5383TIP3   OH216093   6.254   4.365   5.877
 5383TIP3    H116094   6.275   4.289   5.822
 5383TIP3    H216095   6.282   4.340   5.965
 5384TIP3   OH216096   6.601   5.609   0.565
 5384TIP3    H116097   6.673   5.559   0.526
 5384TIP3    H216098   6.644   5.688   0.599
 5385TIP3   OH216099   2.587   3.601   1.409
 5385TIP3    H116100   2.666   3.563   1.449
 5385TIP3    H216101   2.603   3.695   1.409
 5386TIP3   OH216102   5.696   2.805   0.399
 5386TIP3    H116103   5.696   2.794   0.303
 5386TIP3    H216104   5.782   2.842   0.418
 5387TIP3   OH216105   4.214   3.853   2.409
 5387TIP3    H116106   4.162   3.782   2.370
 5387TIP3    H216107   4.238   3.908   2.336
 5388TIP3   OH216108   3.177   1.566   6.270
 5388TIP3    H116109   3.102   1.609   6.227
 5388TIP3    H216110   3.253   1.613   6.237
 5389TIP3   OH216111   6.600   2.692   1.377
 5389TIP3    H116112   6.652   2.710   1.455
 5389TIP3    H216113   6.569   2.778   1.348
 5390TIP3   OH216114   0.633   3.739   0.203
 5390TIP3    H116115   0.725   3.761   0.192
 5390TIP3    H216116   0.592   3.763   0.120
 5391TIP3   OH216117   3.420   1.155   3.917
 5391TIP3    H116118   3.493   1.145   3.856
 5391TIP3    H216119   3.357   1.209   3.869
 5392TIP3   OH216120   2.126   4.936   3.282
 5392TIP3    H116121   2.035   4.914   3.259
 5392TIP3    H216122   2.152   4.868   3.344
 5393TIP3   OH216123   0.564   1.191   2.169
 5393TIP3    H116124   0.535   1.194   2.078
 5393TIP3    H216125   0.646   1.241   2.169
 5394TIP3   OH216126   0.635   2.368   6.591
 5394TIP3    H116127   0.549   2.345   6.625
 5394TIP3    H216128   0.665   2.288   6.546
 5395TIP3   OH216129   6.352   7.230   4.950
 5395TIP3    H116130   6.392   7.161   5.004
 5395TIP3    H216131   6.411   7.237   4.875
 5396TIP3   OH216132   2.057   5.977   4.246
 5396TIP3    H116133   2.081   5.937   4.162
 5396TIP3    H216134   2.101   5.923   4.311
 5397TIP3   OH216135   6.251   6.928   1.211
 5397TIP3    H116136   6.322   6.865   1.224
 5397TIP3    H216137   6.220   6.912   1.122
 5398TIP3   OH216138   4.035   3.711   2.675
 5398TIP3    H116139   4.032   3.616   2.687
 5398TIP3    H216140   4.076   3.722   2.589
 5399TIP3   OH216141   5.224   5.999   0.658
 5399TIP3    H116142   5.164   5.942   0.608
 5399TIP3    H216143   5.306   5.950   0.660
 5400TIP3   OH216144   7.734   6.393   0.387
 5400TIP3    H116145   7.745   6.449   0.465
 5400TIP3    H216146   7.755   6.305   0.418
 5401TIP3   OH216147   8.234   3.927   3.079
 5401TIP3    H116148   8.303   3.957   3.138
 5401TIP3    H216149   8.211   4.004   3.027
 5402TIP3   OH216150   1.004   4.773   0.745
 5402TIP3    H116151   0.991   4.769   0.840
 5402TIP3    H216152   0.932   4.828   0.714
 5403TIP3   OH216153   1.310   1.171   2.621
 5403TIP3    H116154   1.400   1.179   2.590
 5403TIP3    H216155   1.277   1.261   2.625
 5404TIP3   OH216156   7.599   3.425   1.590
 5404TIP3    H116157   7.528   3.365   1.565
 5404TIP3    H216158   7.615   3.478   1.512
 5405TIP3   OH216159   2.491   6.782   5.624
 5405TIP3    H116160   2.423   6.788   5.556
 5405TIP3    H216161   2.474   6.698   5.667
 5406TIP3   OH216162   5.580   3.240   5.705
 5406TIP3    H116163   5.531   3.320   5.726
 5406TIP3    H216164   5.595   3.246   5.610
 5407TIP3   OH216165   2.408   5.914   5.980
 5407TIP3    H116166   2.418   6.000   6.022
 5407TIP3    H216167   2.339   5.927   5.916
 5408TIP3   OH216168   4.552   1.520   3.376
 5408TIP3    H116169   4.512   1.579   3.312
 5408TIP3    H216170   4.601   1.577   3.434
 5409TIP3   OH216171   0.601   3.579   1.602
 5409TIP3    H116172   0.567   3.616   1.684
 5409TIP3    H216173   0.610   3.485   1.620
 5410TIP3   OH216174   6.684   0.866   6.470
 5410TIP3    H116175   6.725   0.941   6.427
 5410TIP3    H216176   6.746   0.840   6.539
 5411TIP3   OH216177   4.891   1.162   3.296
 5411TIP3    H116178   4.838   1.209   3.361
 5411TIP3    H216179   4.979   1.199   3.305
 5412TIP3   OH216180   6.291   1.784   3.123
 5412TIP3    H116181   6.225   1.831   3.173
 5412TIP3    H216182   6.303   1.836   3.044
 5413TIP3   OH216183   1.423   2.106   5.085
 5413TIP3    H116184   1.476   2.140   5.157
 5413TIP3    H216185   1.347   2.066   5.127
 5414TIP3   OH216186   7.063   6.816   0.261
 5414TIP3    H116187   7.096   6.894   0.216
 5414TIP3    H216188   6.981   6.846   0.302
 5415TIP3   OH216189   3.536   5.212   3.892
 5415TIP3    H116190   3.569   5.122   3.893
 5415TIP3    H216191   3.503   5.224   3.803
 5416TIP3   OH216192   0.154   5.390   2.632
 5416TIP3    H116193   0.232   5.338   2.613
 5416TIP3    H216194   0.181   5.451   2.700
 5417TIP3   OH216195   3.240   3.689   3.509
 5417TIP3    H116196   3.263   3.782   3.500
 5417TIP3    H216197   3.228   3.659   3.419
 5418TIP3   OH216198   5.609   0.934   5.513
 5418TIP3    H116199   5.530   0.982   5.538
 5418TIP3    H216200   5.602   0.850   5.560
 5419TIP3   OH216201   5.723   4.608   2.474
 5419TIP3    H116202   5.641   4.603   2.524
 5419TIP3    H216203   5.721   4.694   2.433
 5420TIP3   OH216204   3.348   0.597   1.610
 5420TIP3    H116205   3.384   0.653   1.541
 5420TIP3    H216206   3.381   0.510   1.589
 5421TIP3   OH216207   3.426   3.692   0.596
 5421TIP3    H116208   3.451   3.631   0.526
 5421TIP3    H216209   3.353   3.742   0.559
 5422TIP3   OH216210   3.805   5.487   4.412
 5422TIP3    H116211   3.735   5.480   4.348
 5422TIP3    H216212   3.836   5.398   4.425
 5423TIP3   OH216213   1.696   7.678   3.110
 5423TIP3    H116214   1.727   7.763   3.079
 5423TIP3    H216215   1.605   7.694   3.134
 5424TIP3   OH216216   0.772   3.985   1.138
 5424TIP3    H116217   0.715   3.995   1.062
 5424TIP3    H216218   0.713   3.987   1.213
 5425TIP3   OH216219   4.889   2.626   3.415
 5425TIP3    H116220   4.795   2.622   3.401
 5425TIP3    H216221   4.922   2.682   3.345
 5426TIP3   OH216222   4.409   4.247   6.290
 5426TIP3    H116223   4.449   4.164   6.267
 5426TIP3    H216224   4.455   4.312   6.236
 5427TIP3   OH216225   7.543   0.424   5.905
 5427TIP3    H116226   7.538   0.462   5.993
 5427TIP3    H216227   7.518   0.332   5.918
 5428TIP3   OH216228   8.150   3.190   6.296
 5428TIP3    H116229   8.223   3.218   6.241
 5428TIP3    H216230   8.076   3.183   6.236
 5429TIP3   OH216231   7.996   1.615   5.494
 5429TIP3    H116232   7.922   1.673   5.512
 5429TIP3    H216233   8.026   1.587   5.581
 5430TIP3   OH216234   3.211   5.972   6.705
 5430TIP3    H116235   3.247   6.058   6.681
 5430TIP3    H216236   3.247   5.955   6.792
 5431TIP3   OH216237   0.348   4.334   3.461
 5431TIP3    H116238   0.320   4.297   3.378
 5431TIP3    H216239   0.329   4.267   3.526
 5432TIP3   OH216240   4.177   0.807   5.969
 5432TIP3    H116241   4.187   0.803   5.874
 5432TIP3    H216242   4.223   0.730   6.002
 5433TIP3   OH216243   3.121   1.510   2.794
 5433TIP3    H116244   3.056   1.461   2.845
 5433TIP3    H216245   3.155   1.446   2.731
 5434TIP3   OH216246   1.274   5.688   0.601
 5434TIP3    H116247   1.341   5.749   0.570
 5434TIP3    H216248   1.297   5.672   0.693
 5435TIP3   OH216249   3.088   6.893   6.400
 5435TIP3    H116250   3.104   6.987   6.409
 5435TIP3    H216251   3.048   6.868   6.484
 5436TIP3   OH216252   1.891   2.504   2.006
 5436TIP3    H116253   1.952   2.523   2.078
 5436TIP3    H216254   1.822   2.452   2.046
 5437TIP3   OH216255   8.253   1.187   4.477
 5437TIP3    H116256   8.221   1.277   4.469
 5437TIP3    H216257   8.347   1.194   4.459
 5438TIP3   OH216258   6.792   5.387   2.684
 5438TIP3    H116259   6.810   5.299   2.716
 5438TIP3    H216260   6.832   5.445   2.749
 5439TIP3   OH216261   1.610   2.040   6.046
 5439TIP3    H116262   1.665   1.993   6.109
 5439TIP3    H216263   1.550   2.090   6.100
 5440TIP3   OH216264   0.770   4.077   4.528
 5440TIP3    H116265   0.850   4.054   4.576
 5440TIP3    H216266   0.779   4.032   4.444
 5441TIP3   OH216267   2.047   3.615   0.206
 5441TIP3    H116268   2.097   3.565   0.269
 5441TIP3    H216269   2.076   3.582   0.121
 5442TIP3   OH216270   2.149   7.377   3.016
 5442TIP3    H116271   2.189   7.418   2.939
 5442TIP3    H216272   2.082   7.439   3.044
 5443TIP3   OH216273   4.576   5.181   6.419
 5443TIP3    H116274   4.558   5.247   6.486
 5443TIP3    H216275   4.507   5.194   6.354
 5444TIP3   OH216276   3.484   1.253   6.268
 5444TIP3    H116277   3.462   1.277   6.358
 5444TIP3    H216278   3.500   1.159   6.271
 5445TIP3   OH216279   5.744   1.690   5.168
 5445TIP3    H116280   5.677   1.758   5.162
 5445TIP3    H216281   5.706   1.623   5.225
 5446TIP3   OH216282   1.299   7.510   6.237
 5446TIP3    H116283   1.363   7.451   6.199
 5446TIP3    H216284   1.278   7.472   6.322
 5447TIP3   OH216285   1.627   0.696   1.072
 5447TIP3    H116286   1.704   0.723   1.021
 5447TIP3    H216287   1.572   0.649   1.009
 5448TIP3   OH216288   5.702   4.837   5.010
 5448TIP3    H116289   5.757   4.831   5.088
 5448TIP3    H216290   5.697   4.747   4.978
 5449TIP3   OH216291   1.945   1.070   2.160
 5449TIP3    H116292   1.975   1.155   2.128
 5449TIP3    H216293   1.933   1.082   2.254
 5450TIP3   OH216294   4.975   7.291   6.243
 5450TIP3    H116295   5.007   7.211   6.201
 5450TIP3    H216296   5.036   7.359   6.214
 5451TIP3   OH216297   6.879   5.284   1.665
 5451TIP3    H116298   6.877   5.189   1.658
 5451TIP3    H216299   6.814   5.315   1.603
 5452TIP3   OH216300   6.138   5.699   3.622
 5452TIP3    H116301   6.043   5.699   3.634
 5452TIP3    H216302   6.167   5.617   3.663
 5453TIP3   OH216303   1.659   6.365   2.439
 5453TIP3    H116304   1.683   6.404   2.354
 5453TIP3    H216305   1.620   6.281   2.416
 5454TIP3   OH216306   5.970   3.190   5.662
 5454TIP3    H116307   5.902   3.130   5.693
 5454TIP3    H216308   5.938   3.222   5.578
 5455TIP3   OH216309   7.527   0.876   3.766
 5455TIP3    H116310   7.484   0.893   3.682
 5455TIP3    H216311   7.459   0.890   3.832
 5456TIP3   OH216312   1.280   5.293   0.441
 5456TIP3    H116313   1.269   5.199   0.426
 5456TIP3    H216314   1.362   5.301   0.489
 5457TIP3   OH216315   2.812   1.973   0.860
 5457TIP3    H116316   2.787   2.007   0.946
 5457TIP3    H216317   2.789   1.880   0.863
 5458TIP3   OH216318   0.016   4.944   2.122
 5458TIP3    H116319   0.039   4.949   2.214
 5458TIP3    H216320  -0.010   5.033   2.099
 5459TIP3   OH216321   4.748   1.270   2.907
 5459TIP3    H116322   4.687   1.340   2.883
 5459TIP3    H216323   4.698   1.216   2.969
 5460TIP3   OH216324   5.431   2.909   3.855
 5460TIP3    H116325   5.368   2.910   3.928
 5460TIP3    H216326   5.382   2.947   3.782
 5461TIP3   OH216327   3.217   0.433   4.947
 5461TIP3    H116328   3.143   0.418   5.006
 5461TIP3    H216329   3.254   0.346   4.932
 5462TIP3   OH216330   2.651   4.361   1.995
 5462TIP3    H116331   2.631   4.413   1.917
 5462TIP3    H216332   2.662   4.426   2.064
 5463TIP3   OH216333   5.231   1.023   4.993
 5463TIP3    H116334   5.143   0.987   5.001
 5463TIP3    H216335   5.221   1.117   5.012
 5464TIP3   OH216336   1.362   6.671   5.933
 5464TIP3    H116337   1.303   6.620   5.988
 5464TIP3    H216338   1.324   6.664   5.845
 5465TIP3   OH216339   6.127   1.520   5.436
 5465TIP3    H116340   6.119   1.500   5.342
 5465TIP3    H216341   6.102   1.438   5.479
 5466TIP3   OH216342   5.222   3.083   1.080
 5466TIP3    H116343   5.145   3.106   1.131
 5466TIP3    H216344   5.259   3.008   1.125
 5467TIP3   OH216345   1.989   6.020   0.864
 5467TIP3    H116346   1.928   5.962   0.909
 5467TIP3    H216347   1.956   6.108   0.882
 5468TIP3   OH216348   5.518   1.752   4.887
 5468TIP3    H116349   5.499   1.787   4.975
 5468TIP3    H216350   5.560   1.825   4.842
 5469TIP3   OH216351   0.290   5.918   2.841
 5469TIP3    H116352   0.246   5.998   2.870
 5469TIP3    H216353   0.379   5.927   2.876
 5470TIP3   OH216354   6.448   1.356   2.736
 5470TIP3    H116355   6.538   1.369   2.706
 5470TIP3    H216356   6.414   1.444   2.748
 5471TIP3   OH216357   4.311   6.503   4.788
 5471TIP3    H116358   4.235   6.449   4.770
 5471TIP3    H216359   4.357   6.457   4.859
 5472TIP3   OH216360   5.992   4.478   2.457
 5472TIP3    H116361   5.912   4.529   2.445
 5472TIP3    H216362   5.976   4.396   2.411
 5473TIP3   OH216363   6.582   3.778   6.339
 5473TIP3    H116364   6.588   3.766   6.245
 5473TIP3    H216365   6.525   3.707   6.370
 5474TIP3   OH216366   0.465   6.230   1.736
 5474TIP3    H116367   0.520   6.244   1.659
 5474TIP3    H216368   0.522   6.186   1.798
 5475TIP3   OH216369   2.652   3.960   0.718
 5475TIP3    H116370   2.580   3.961   0.781
 5475TIP3    H216371   2.730   3.980   0.771
 5476TIP3   OH216372   8.031   7.472   2.345
 5476TIP3    H116373   8.058   7.516   2.264
 5476TIP3    H216374   8.090   7.397   2.352
 5477TIP3   OH216375   7.575   2.523   0.380
 5477TIP3    H116376   7.545   2.518   0.289
 5477TIP3    H216377   7.565   2.434   0.413
 5478TIP3   OH216378   0.773   7.662   6.665
 5478TIP3    H116379   0.680   7.683   6.666
 5478TIP3    H216380   0.811   7.716   6.735
 5479TIP3   OH216381   3.423   3.569   3.793
 5479TIP3    H116382   3.391   3.500   3.735
 5479TIP3    H216383   3.497   3.530   3.839
 5480TIP3   OH216384   1.118   1.303   0.621
 5480TIP3    H116385   1.152   1.387   0.593
 5480TIP3    H216386   1.038   1.324   0.670
 5481TIP3   OH216387   4.077   3.150   4.982
 5481TIP3    H116388   4.002   3.118   5.032
 5481TIP3    H216389   4.085   3.242   5.006
 5482TIP3   OH216390   2.593   4.373   4.361
 5482TIP3    H116391   2.564   4.317   4.289
 5482TIP3    H216392   2.655   4.434   4.322
 5483TIP3   OH216393   6.403   5.321   4.752
 5483TIP3    H116394   6.381   5.240   4.797
 5483TIP3    H216395   6.334   5.332   4.687
 5484TIP3   OH216396   5.264   3.146   3.205
 5484TIP3    H116397   5.274   3.241   3.206
 5484TIP3    H216398   5.178   3.131   3.165
 5485TIP3   OH216399   6.439   4.055   3.117
 5485TIP3    H116400   6.414   3.971   3.079
 5485TIP3    H216401   6.401   4.053   3.205
 5486TIP3   OH216402   1.026   2.480   6.780
 5486TIP3    H116403   0.944   2.434   6.792
 5486TIP3    H216404   1.048   2.513   6.867
 5487TIP3   OH216405   3.080   5.971   0.743
 5487TIP3    H116406   3.112   6.060   0.756
 5487TIP3    H216407   2.987   5.982   0.724
 5488TIP3   OH216408   5.005   7.536   2.419
 5488TIP3    H116409   5.016   7.630   2.400
 5488TIP3    H216410   4.913   7.519   2.398
 5489TIP3   OH216411   1.059   3.201   6.637
 5489TIP3    H116412   0.990   3.166   6.694
 5489TIP3    H216413   1.079   3.287   6.673
 5490TIP3   OH216414   4.850   4.787   0.661
 5490TIP3    H116415   4.916   4.848   0.629
 5490TIP3    H216416   4.877   4.702   0.626
 5491TIP3   OH216417   7.950   5.520   2.074
 5491TIP3    H116418   7.983   5.462   2.005
 5491TIP3    H216419   8.008   5.503   2.149
 5492TIP3   OH216420   4.562   0.750   4.608
 5492TIP3    H116421   4.532   0.778   4.521
 5492TIP3    H216422   4.511   0.803   4.669
 5493TIP3   OH216423   1.398   7.388   4.510
 5493TIP3    H116424   1.316   7.360   4.470
 5493TIP3    H216425   1.414   7.324   4.579
 5494TIP3   OH216426   2.804   7.349   5.838
 5494TIP3    H116427   2.765   7.436   5.846
 5494TIP3    H216428   2.841   7.348   5.750
 5495TIP3   OH216429   7.023   6.841   5.513
 5495TIP3    H116430   7.066   6.764   5.476
 5495TIP3    H216431   6.993   6.812   5.599
 5496TIP3   OH216432   6.450   5.572   6.036
 5496TIP3    H116433   6.501   5.503   5.995
 5496TIP3    H216434   6.368   5.573   5.987
 5497TIP3   OH216435   1.151   1.839   2.017
 5497TIP3    H116436   1.217   1.905   2.037
 5497TIP3    H216437   1.068   1.879   2.043
 5498TIP3   OH216438   4.905   2.445   5.281
 5498TIP3    H116439   4.848   2.404   5.216
 5498TIP3    H216440   4.936   2.525   5.238
 5499TIP3   OH216441   1.568   5.107   3.995
 5499TIP3    H116442   1.617   5.060   4.063
 5499TIP3    H216443   1.493   5.144   4.041
 5500TIP3   OH216444   0.393   6.913   1.853
 5500TIP3    H116445   0.299   6.915   1.873
 5500TIP3    H216446   0.428   6.992   1.894
 5501TIP3   OH216447   7.110   3.524   2.514
 5501TIP3    H116448   7.110   3.615   2.544
 5501TIP3    H216449   7.191   3.515   2.464
 5502TIP3   OH216450   7.479   2.644   5.128
 5502TIP3    H116451   7.555   2.606   5.084
 5502TIP3    H216452   7.516   2.689   5.204
 5503TIP3   OH216453   5.448   7.471   6.713
 5503TIP3    H116454   5.495   7.463   6.630
 5503TIP3    H216455   5.449   7.565   6.731
 5504TIP3   OH216456   4.170   4.998   5.168
 5504TIP3    H116457   4.150   5.091   5.158
 5504TIP3    H216458   4.243   4.996   5.230
 5505TIP3   OH216459   2.402   5.408   0.099
 5505TIP3    H116460   2.371   5.341   0.039
 5505TIP3    H216461   2.328   5.424   0.158
 5506TIP3   OH216462   2.655  -0.046   0.532
 5506TIP3    H116463   2.596  -0.094   0.474
 5506TIP3    H216464   2.673   0.036   0.487
 5507TIP3   OH216465   0.259   5.628   0.008
 5507TIP3    H116466   0.215   5.544   0.022
 5507TIP3    H216467   0.277   5.661   0.096
 5508TIP3   OH216468   7.720   4.432   4.555
 5508TIP3    H116469   7.701   4.389   4.472
 5508TIP3    H216470   7.815   4.424   4.564
 5509TIP3   OH216471   1.224   3.444   3.474
 5509TIP3    H116472   1.148   3.500   3.464
 5509TIP3    H216473   1.224   3.420   3.567
 5510TIP3   OH216474   6.958   6.438   0.535
 5510TIP3    H116475   6.864   6.427   0.551
 5510TIP3    H216476   6.988   6.491   0.608
 5511TIP3   OH216477   3.553   2.748   6.569
 5511TIP3    H116478   3.504   2.815   6.617
 5511TIP3    H216479   3.493   2.717   6.502
 5512TIP3   OH216480   3.233   1.072   5.547
 5512TIP3    H116481   3.247   0.977   5.542
 5512TIP3    H216482   3.295   1.102   5.612
 5513TIP3   OH216483   2.417   2.766   1.226
 5513TIP3    H116484   2.374   2.816   1.295
 5513TIP3    H216485   2.379   2.799   1.145
 5514TIP3   OH216486   7.739   7.103   4.312
 5514TIP3    H116487   7.789   7.120   4.232
 5514TIP3    H216488   7.786   7.030   4.353
 5515TIP3   OH216489   4.958   0.501   0.988
 5515TIP3    H116490   4.891   0.531   1.049
 5515TIP3    H216491   5.035   0.555   1.008
 5516TIP3   OH216492   6.736   7.570   1.355
 5516TIP3    H116493   6.786   7.512   1.298
 5516TIP3    H216494   6.712   7.515   1.429
 5517TIP3   OH216495   6.965   6.063   2.095
 5517TIP3    H116496   7.008   5.980   2.072
 5517TIP3    H216497   7.002   6.085   2.181
 5518TIP3   OH216498   7.987   3.964   5.566
 5518TIP3    H116499   7.951   4.028   5.627
 5518TIP3    H216500   8.062   3.926   5.612
 5519TIP3   OH216501   7.648   3.222   0.151
 5519TIP3    H116502   7.723   3.184   0.105
 5519TIP3    H216503   7.614   3.288   0.090
 5520TIP3   OH216504   6.786   5.727   5.269
 5520TIP3    H116505   6.816   5.681   5.348
 5520TIP3    H216506   6.731   5.797   5.302
 5521TIP3   OH216507   4.832   3.272   4.646
 5521TIP3    H116508   4.815   3.257   4.553
 5521TIP3    H216509   4.927   3.259   4.656
 5522TIP3   OH216510   6.782   1.569   2.306
 5522TIP3    H116511   6.818   1.588   2.219
 5522TIP3    H216512   6.819   1.637   2.362
 5523TIP3   OH216513   7.637   2.903   5.952
 5523TIP3    H116514   7.596   2.860   5.877
 5523TIP3    H216515   7.573   2.968   5.981
 5524TIP3   OH216516   1.467   3.068   1.429
 5524TIP3    H116517   1.490   3.037   1.341
 5524TIP3    H216518   1.464   3.164   1.420
 5525TIP3   OH216519   0.456   5.246   1.915
 5525TIP3    H116520   0.486   5.254   1.824
 5525TIP3    H216521   0.463   5.335   1.951
 5526TIP3   OH216522   2.070   0.524   0.448
 5526TIP3    H116523   2.153   0.538   0.403
 5526TIP3    H216524   2.084   0.444   0.500
 5527TIP3   OH216525   8.337   1.602   2.975
 5527TIP3    H116526   8.246   1.631   2.972
 5527TIP3    H216527   8.346   1.544   2.899
 5528TIP3   OH216528   3.087   7.490   6.247
 5528TIP3    H116529   3.002   7.459   6.277
 5528TIP3    H216530   3.073   7.582   6.224
 5529TIP3   OH216531   7.557   2.075   1.928
 5529TIP3    H116532   7.635   2.022   1.913
 5529TIP3    H216533   7.489   2.012   1.953
 5530TIP3   OH216534   1.991   3.948   2.775
 5530TIP3    H116535   2.062   4.012   2.774
 5530TIP3    H216536   1.932   3.975   2.704
 5531TIP3   OH216537   1.136   0.424   5.811
 5531TIP3    H116538   1.136   0.332   5.786
 5531TIP3    H216539   1.196   0.466   5.749
 5532TIP3   OH216540   2.163   4.142   2.760
 5532TIP3    H116541   2.253   4.170   2.772
 5532TIP3    H216542   2.140   4.171   2.671
 5533TIP3   OH216543   1.207   5.305   3.176
 5533TIP3    H116544   1.193   5.259   3.093
 5533TIP3    H216545   1.217   5.236   3.241
 5534TIP3   OH216546   6.438   6.196   5.378
 5534TIP3    H116547   6.417   6.130   5.443
 5534TIP3    H216548   6.422   6.279   5.422
 5535TIP3   OH216549   6.066   6.511   2.317
 5535TIP3    H116550   6.032   6.519   2.228
 5535TIP3    H216551   6.154   6.476   2.306
 5536TIP3   OH216552   0.625   7.747   4.622
 5536TIP3    H116553   0.627   7.671   4.565
 5536TIP3    H216554   0.712   7.750   4.661
 5537TIP3   OH216555   7.584   5.836   0.599
 5537TIP3    H116556   7.572   5.813   0.691
 5537TIP3    H216557   7.677   5.856   0.592
 5538TIP3   OH216558   7.613   6.821   4.097
 5538TIP3    H116559   7.555   6.886   4.136
 5538TIP3    H216560   7.559   6.778   4.031
 5539TIP3   OH216561   2.279   5.898   4.830
 5539TIP3    H116562   2.206   5.844   4.860
 5539TIP3    H216563   2.255   5.926   4.742
 5540TIP3   OH216564   0.379   1.880   3.375
 5540TIP3    H116565   0.384   1.856   3.468
 5540TIP3    H216566   0.292   1.920   3.366
 5541TIP3   OH216567   6.722   0.486   2.464
 5541TIP3    H116568   6.754   0.520   2.380
 5541TIP3    H216569   6.705   0.393   2.446
 5542TIP3   OH216570   0.262   0.324   4.315
 5542TIP3    H116571   0.219   0.306   4.398
 5542TIP3    H216572   0.226   0.258   4.255
 5543TIP3   OH216573   5.327   5.917   0.176
 5543TIP3    H116574   5.286   5.923   0.089
 5543TIP3    H216575   5.335   5.823   0.193
 5544TIP3   OH216576   1.808   2.587   6.481
 5544TIP3    H116577   1.743   2.608   6.414
 5544TIP3    H216578   1.765   2.523   6.538
 5545TIP3   OH216579   0.069   5.055   1.719
 5545TIP3    H116580   0.094   5.134   1.767
 5545TIP3    H216581  -0.003   5.018   1.769
 5546TIP3   OH216582   2.332   7.039   5.955
 5546TIP3    H116583   2.372   7.081   5.878
 5546TIP3    H216584   2.242   7.073   5.956
 5547TIP3   OH216585   4.736   6.948   5.803
 5547TIP3    H116586   4.756   7.018   5.740
 5547TIP3    H216587   4.739   6.991   5.888
 5548TIP3   OH216588   0.698   2.307   2.087
 5548TIP3    H116589   0.683   2.398   2.112
 5548TIP3    H216590   0.641   2.257   2.146
 5549TIP3   OH216591   3.770   2.033   6.444
 5549TIP3    H116592   3.788   2.118   6.405
 5549TIP3    H216593   3.703   1.994   6.386
 5550TIP3   OH216594   6.873   4.299   2.638
 5550TIP3    H116595   6.867   4.372   2.576
 5550TIP3    H216596   6.814   4.324   2.710
 5551TIP3   OH216597   2.790   5.457   4.927
 5551TIP3    H116598   2.726   5.467   4.856
 5551TIP3    H216599   2.759   5.516   4.996
 5552TIP3   OH216600   1.223   1.337   5.429
 5552TIP3    H116601   1.258   1.418   5.467
 5552TIP3    H216602   1.280   1.320   5.354
 5553TIP3   OH216603   1.321   6.627   6.490
 5553TIP3    H116604   1.319   6.576   6.409
 5553TIP3    H216605   1.378   6.577   6.548
 5554TIP3   OH216606   2.496   6.516   1.106
 5554TIP3    H116607   2.564   6.520   1.038
 5554TIP3    H216608   2.423   6.471   1.064
 5555TIP3   OH216609   5.178   0.954   2.070
 5555TIP3    H116610   5.230   0.896   2.126
 5555TIP3    H216611   5.243   1.006   2.023
 5556TIP3   OH216612   5.037   7.651   1.448
 5556TIP3    H116613   5.063   7.636   1.358
 5556TIP3    H216614   5.073   7.737   1.470
 5557TIP3   OH216615   5.624   1.933   6.642
 5557TIP3    H116616   5.715   1.904   6.652
 5557TIP3    H216617   5.572   1.859   6.673
 5558TIP3   OH216618   3.131   0.505   0.284
 5558TIP3    H116619   3.044   0.525   0.250
 5558TIP3    H216620   3.148   0.415   0.256
 5559TIP3   OH216621   1.611   0.491   2.315
 5559TIP3    H116622   1.640   0.576   2.346
 5559TIP3    H216623   1.680   0.461   2.256
 5560TIP3   OH216624   5.815   3.026   3.956
 5560TIP3    H116625   5.794   2.969   4.030
 5560TIP3    H216626   5.905   3.004   3.933
 5561TIP3   OH216627   4.171   3.231   0.577
 5561TIP3    H116628   4.113   3.160   0.606
 5561TIP3    H216629   4.113   3.292   0.532
 5562TIP3   OH216630   1.126   5.485   1.263
 5562TIP3    H116631   1.139   5.580   1.265
 5562TIP3    H216632   1.073   5.469   1.184
 5563TIP3   OH216633   8.084   4.026   4.239
 5563TIP3    H116634   8.035   3.943   4.236
 5563TIP3    H216635   8.025   4.086   4.285
 5564TIP3   OH216636   1.303   2.383   0.281
 5564TIP3    H116637   1.252   2.310   0.247
 5564TIP3    H216638   1.323   2.436   0.203
 5565TIP3   OH216639   3.492   0.367   1.616
 5565TIP3    H116640   3.586   0.385   1.625
 5565TIP3    H216641   3.485   0.318   1.534
 5566TIP3   OH216642   0.353   0.204   0.260
 5566TIP3    H116643   0.342   0.254   0.180
 5566TIP3    H216644   0.268   0.207   0.303
 5567TIP3   OH216645   5.139   4.709   4.446
 5567TIP3    H116646   5.147   4.679   4.356
 5567TIP3    H216647   5.052   4.680   4.474
 5568TIP3   OH216648   4.406   3.905   1.550
 5568TIP3    H116649   4.390   3.952   1.468
 5568TIP3    H216650   4.330   3.924   1.605
 5569TIP3   OH216651   0.131   6.653   3.732
 5569TIP3    H116652   0.153   6.726   3.790
 5569TIP3    H216653   0.198   6.657   3.664
 5570TIP3   OH216654   1.279   6.223   5.685
 5570TIP3    H116655   1.206   6.192   5.632
 5570TIP3    H216656   1.253   6.311   5.713
 5571TIP3   OH216657   6.276   3.536   5.405
 5571TIP3    H116658   6.328   3.615   5.423
 5571TIP3    H216659   6.330   3.464   5.438
 5572TIP3   OH216660   2.949   0.851   1.758
 5572TIP3    H116661   2.999   0.788   1.705
 5572TIP3    H216662   2.963   0.935   1.713
 5573TIP3   OH216663   1.790   6.419   5.474
 5573TIP3    H116664   1.841   6.497   5.451
 5573TIP3    H216665   1.848   6.368   5.530
 5574TIP3   OH216666   4.695   0.328   1.757
 5574TIP3    H116667   4.783   0.365   1.761
 5574TIP3    H216668   4.637   0.405   1.758
 5575TIP3   OH216669   4.870   3.442   5.456
 5575TIP3    H116670   4.899   3.393   5.379
 5575TIP3    H216671   4.921   3.523   5.453
 5576TIP3   OH216672   3.958   7.438   1.038
 5576TIP3    H116673   3.923   7.359   1.080
 5576TIP3    H216674   3.955   7.504   1.107
 5577TIP3   OH216675   0.754   1.393   3.893
 5577TIP3    H116676   0.754   1.324   3.827
 5577TIP3    H216677   0.664   1.397   3.923
 5578TIP3   OH216678   3.463   3.659   1.041
 5578TIP3    H116679   3.545   3.652   0.993
 5578TIP3    H216680   3.474   3.737   1.096
 5579TIP3   OH216681   5.412   2.071   5.837
 5579TIP3    H116682   5.395   2.044   5.747
 5579TIP3    H216683   5.363   2.008   5.891
 5580TIP3   OH216684   4.911   4.617   4.550
 5580TIP3    H116685   4.893   4.688   4.612
 5580TIP3    H216686   4.838   4.622   4.487
 5581TIP3   OH216687   5.178   5.586   5.593
 5581TIP3    H116688   5.099   5.615   5.549
 5581TIP3    H216689   5.235   5.555   5.522
 5582TIP3   OH216690   7.502   7.484   6.112
 5582TIP3    H116691   7.428   7.524   6.067
 5582TIP3    H216692   7.504   7.394   6.080
 5583TIP3   OH216693   4.190   2.587   0.720
 5583TIP3    H116694   4.111   2.570   0.772
 5583TIP3    H216695   4.261   2.581   0.783
 5584TIP3   OH216696   6.407   4.140   1.626
 5584TIP3    H116697   6.433   4.097   1.545
 5584TIP3    H216698   6.450   4.226   1.622
 5585TIP3   OH216699   5.492   2.996   5.486
 5585TIP3    H116700   5.411   2.951   5.509
 5585TIP3    H216701   5.466   3.086   5.470
 5586TIP3   OH216702   4.799   1.834   4.224
 5586TIP3    H116703   4.751   1.788   4.293
 5586TIP3    H216704   4.736   1.896   4.188
 5587TIP3   OH216705   5.932   1.962   5.297
 5587TIP3    H116706   5.987   2.036   5.324
 5587TIP3    H216707   5.956   1.891   5.357
 5588TIP3   OH216708   7.842   2.787   2.822
 5588TIP3    H116709   7.883   2.735   2.891
 5588TIP3    H216710   7.818   2.723   2.755
 5589TIP3   OH216711   6.538   0.775   1.500
 5589TIP3    H116712   6.600   0.703   1.498
 5589TIP3    H216713   6.465   0.742   1.552
 5590TIP3   OH216714   5.646   0.094   4.741
 5590TIP3    H116715   5.640   0.000   4.725
 5590TIP3    H216716   5.597   0.134   4.669
 5591TIP3   OH216717   6.536   3.279   3.499
 5591TIP3    H116718   6.541   3.213   3.430
 5591TIP3    H216719   6.591   3.245   3.570
 5592TIP3   OH216720   6.240   4.234   6.154
 5592TIP3    H116721   6.176   4.164   6.141
 5592TIP3    H216722   6.322   4.189   6.172
 5593TIP3   OH216723   2.604   2.009   2.805
 5593TIP3    H116724   2.572   2.056   2.883
 5593TIP3    H216725   2.657   1.938   2.841
 5594TIP3   OH216726   6.794   2.746   1.163
 5594TIP3    H116727   6.722   2.719   1.220
 5594TIP3    H216728   6.764   2.723   1.075
 5595TIP3   OH216729   3.588   0.997   1.041
 5595TIP3    H116730   3.622   0.914   1.008
 5595TIP3    H216731   3.501   1.005   1.002
 5596TIP3   OH216732   1.259   6.920   3.563
 5596TIP3    H116733   1.186   6.960   3.515
 5596TIP3    H216734   1.264   6.830   3.531
 5597TIP3   OH216735   1.507   0.370   4.598
 5597TIP3    H116736   1.474   0.454   4.630
 5597TIP3    H216737   1.429   0.315   4.589
 5598TIP3   OH216738   4.303   0.080   3.040
 5598TIP3    H116739   4.293   0.172   3.014
 5598TIP3    H216740   4.217   0.041   3.027
 5599TIP3   OH216741   1.080   6.211   5.995
 5599TIP3    H116742   1.039   6.294   5.969
 5599TIP3    H216743   1.035   6.145   5.941
 5600TIP3   OH216744   2.239   6.498   4.843
 5600TIP3    H116745   2.226   6.476   4.751
 5600TIP3    H216746   2.260   6.592   4.842
 5601TIP3   OH216747   2.808   6.041   0.528
 5601TIP3    H116748   2.839   6.014   0.441
 5601TIP3    H216749   2.783   5.959   0.571
 5602TIP3   OH216750   0.882   3.850   3.500
 5602TIP3    H116751   0.800   3.802   3.509
 5602TIP3    H216752   0.855   3.938   3.473
 5603TIP3   OH216753   3.858   1.088   1.610
 5603TIP3    H116754   3.784   1.118   1.557
 5603TIP3    H216755   3.865   0.995   1.591
 5604TIP3   OH216756   1.936   5.709   4.371
 5604TIP3    H116757   1.951   5.638   4.433
 5604TIP3    H216758   1.889   5.775   4.421
 5605TIP3   OH216759   0.790   0.591   1.015
 5605TIP3    H116760   0.739   0.671   1.005
 5605TIP3    H216761   0.861   0.614   1.075
 5606TIP3   OH216762   2.606   0.776   0.071
 5606TIP3    H116763   2.582   0.764   0.163
 5606TIP3    H216764   2.560   0.705   0.026
 5607TIP3   OH216765   2.750   7.346   1.389
 5607TIP3    H116766   2.674   7.297   1.419
 5607TIP3    H216767   2.770   7.310   1.302
 5608TIP3   OH216768   2.656   0.035   4.520
 5608TIP3    H116769   2.582   0.085   4.552
 5608TIP3    H216770   2.731   0.093   4.531
 5609TIP3   OH216771   3.053   0.306   6.657
 5609TIP3    H116772   2.965   0.345   6.651
 5609TIP3    H216773   3.053   0.238   6.590
 5610TIP3   OH216774   5.937   3.059   5.311
 5610TIP3    H116775   5.977   2.976   5.289
 5610TIP3    H216776   5.989   3.125   5.265
 5611TIP3   OH216777   1.733   3.055   3.354
 5611TIP3    H116778   1.767   3.077   3.267
 5611TIP3    H216779   1.775   3.119   3.412
 5612TIP3   OH216780   6.344   1.651   5.715
 5612TIP3    H116781   6.318   1.657   5.807
 5612TIP3    H216782   6.439   1.668   5.716
 5613TIP3   OH216783   0.637   4.335   5.592
 5613TIP3    H116784   0.680   4.418   5.569
 5613TIP3    H216785   0.663   4.274   5.523
 5614TIP3   OH216786   1.333   1.392   0.191
 5614TIP3    H116787   1.362   1.437   0.270
 5614TIP3    H216788   1.413   1.355   0.153
 5615TIP3   OH216789   1.712   2.526   0.227
 5615TIP3    H116790   1.692   2.619   0.217
 5615TIP3    H216791   1.649   2.482   0.170
 5616TIP3   OH216792   7.508   7.239   3.408
 5616TIP3    H116793   7.511   7.170   3.474
 5616TIP3    H216794   7.541   7.196   3.328
 5617TIP3   OH216795   4.541   5.345   0.505
 5617TIP3    H116796   4.465   5.309   0.551
 5617TIP3    H216797   4.584   5.401   0.569
 5618TIP3   OH216798   8.240   4.664   5.222
 5618TIP3    H116799   8.168   4.718   5.189
 5618TIP3    H216800   8.220   4.651   5.315
 5619TIP3   OH216801   0.972   6.958   5.857
 5619TIP3    H116802   0.885   6.950   5.897
 5619TIP3    H216803   0.992   7.051   5.861
 5620TIP3   OH216804   1.077   0.722   4.590
 5620TIP3    H116805   1.117   0.802   4.626
 5620TIP3    H216806   0.987   0.748   4.570
 5621TIP3   OH216807   4.817   5.228   5.640
 5621TIP3    H116808   4.900   5.276   5.641
 5621TIP3    H216809   4.753   5.290   5.605
 5622TIP3   OH216810   3.887   2.544   2.568
 5622TIP3    H116811   3.939   2.469   2.597
 5622TIP3    H216812   3.864   2.591   2.649
 5623TIP3   OH216813   1.863   5.684   0.546
 5623TIP3    H116814   1.792   5.706   0.606
 5623TIP3    H216815   1.872   5.589   0.553
 5624TIP3   OH216816   3.706   0.895   4.942
 5624TIP3    H116817   3.648   0.957   4.986
 5624TIP3    H216818   3.783   0.947   4.919
 5625TIP3   OH216819   5.371   1.039   0.708
 5625TIP3    H116820   5.353   1.052   0.801
 5625TIP3    H216821   5.355   0.945   0.694
 5626TIP3   OH216822   4.253   4.144   3.362
 5626TIP3    H116823   4.254   4.117   3.454
 5626TIP3    H216824   4.231   4.064   3.314
 5627TIP3   OH216825   3.196   3.933   3.710
 5627TIP3    H116826   3.247   3.920   3.790
 5627TIP3    H216827   3.149   3.850   3.699
 5628TIP3   OH216828   4.273   3.435   0.114
 5628TIP3    H116829   4.303   3.401   0.030
 5628TIP3    H216830   4.276   3.531   0.104
 5629TIP3   OH216831   7.429   1.760   1.399
 5629TIP3    H116832   7.352   1.808   1.369
 5629TIP3    H216833   7.444   1.694   1.331
 5630TIP3   OH216834   3.504   0.955   1.319
 5630TIP3    H116835   3.573   1.010   1.356
 5630TIP3    H216836   3.516   0.961   1.224
 5631TIP3   OH216837   0.476   5.004   5.396
 5631TIP3    H116838   0.415   5.014   5.323
 5631TIP3    H216839   0.440   4.934   5.449
 5632TIP3   OH216840   6.055   4.637   5.111
 5632TIP3    H116841   5.963   4.640   5.137
 5632TIP3    H216842   6.102   4.673   5.186
 5633TIP3   OH216843   5.764   0.390   4.410
 5633TIP3    H116844   5.673   0.361   4.415
 5633TIP3    H216845   5.814   0.309   4.397
 5634TIP3   OH216846   2.833   5.169   4.224
 5634TIP3    H116847   2.892   5.224   4.275
 5634TIP3    H216848   2.792   5.229   4.162
 5635TIP3   OH216849   3.963   6.940   0.655
 5635TIP3    H116850   3.963   6.845   0.647
 5635TIP3    H216851   4.000   6.971   0.572
 5636TIP3   OH216852   7.436   2.994   4.368
 5636TIP3    H116853   7.487   3.075   4.367
 5636TIP3    H216854   7.460   2.951   4.450
 5637TIP3   OH216855   7.614   2.993   2.522
 5637TIP3    H116856   7.663   2.997   2.604
 5637TIP3    H216857   7.679   2.972   2.455
 5638TIP3   OH216858   4.060   5.165   5.426
 5638TIP3    H116859   4.096   5.076   5.433
 5638TIP3    H216860   4.003   5.162   5.349
 5639TIP3   OH216861   5.711   7.044   2.112
 5639TIP3    H116862   5.693   7.133   2.081
 5639TIP3    H216863   5.805   7.042   2.128
 5640TIP3   OH216864   5.545   7.273   1.608
 5640TIP3    H116865   5.463   7.273   1.659
 5640TIP3    H216866   5.580   7.361   1.619
 5641TIP3   OH216867   0.419   5.916   5.297
 5641TIP3    H116868   0.336   5.921   5.250
 5641TIP3    H216869   0.398   5.944   5.386
 5642TIP3   OH216870   6.773   7.711   5.615
 5642TIP3    H116871   6.700   7.651   5.627
 5642TIP3    H216872   6.808   7.725   5.703
 5643TIP3   OH216873   3.231   5.481   1.476
 5643TIP3    H116874   3.293   5.413   1.503
 5643TIP3    H216875   3.286   5.549   1.436
 5644TIP3   OH216876   3.149   7.062   0.105
 5644TIP3    H116877   3.066   7.106   0.091
 5644TIP3    H216878   3.151   7.043   0.199
 5645TIP3   OH216879   3.954   7.041   2.998
 5645TIP3    H116880   4.013   7.048   3.073
 5645TIP3    H216881   3.998   6.982   2.937
 5646TIP3   OH216882   6.555   0.389   5.072
 5646TIP3    H116883   6.498   0.369   5.146
 5646TIP3    H216884   6.579   0.481   5.084
 5647TIP3   OH216885   7.452   2.391   3.170
 5647TIP3    H116886   7.408   2.349   3.244
 5647TIP3    H216887   7.460   2.321   3.105
 5648TIP3   OH216888   2.973   2.559   5.081
 5648TIP3    H116889   3.062   2.581   5.109
 5648TIP3    H216890   2.965   2.599   4.994
 5649TIP3   OH216891   3.481   1.643   5.802
 5649TIP3    H116892   3.532   1.631   5.882
 5649TIP3    H216893   3.433   1.725   5.815
 5650TIP3   OH216894   5.914   0.059   3.525
 5650TIP3    H116895   5.940   0.055   3.617
 5650TIP3    H216896   5.864  -0.021   3.510
 5651TIP3   OH216897   4.203   0.582   2.948
 5651TIP3    H116898   4.155   0.529   2.885
 5651TIP3    H216899   4.247   0.649   2.895
 5652TIP3   OH216900   5.659   1.106   2.415
 5652TIP3    H116901   5.738   1.064   2.382
 5652TIP3    H216902   5.639   1.175   2.351
 5653TIP3   OH216903   7.677   0.883   2.569
 5653TIP3    H116904   7.720   0.807   2.608
 5653TIP3    H216905   7.689   0.871   2.475
 5654TIP3   OH216906   2.966   4.114   5.550
 5654TIP3    H116907   2.981   4.207   5.563
 5654TIP3    H216908   3.022   4.090   5.476
 5655TIP3   OH216909   1.290   2.077   3.557
 5655TIP3    H116910   1.205   2.106   3.590
 5655TIP3    H216911   1.324   2.153   3.509
 5656TIP3   OH216912   8.145   5.483   2.271
 5656TIP3    H116913   8.079   5.487   2.341
 5656TIP3    H216914   8.202   5.410   2.296
 5657TIP3   OH216915   4.197   1.997   0.358
 5657TIP3    H116916   4.142   2.055   0.305
 5657TIP3    H216917   4.143   1.977   0.435
 5658TIP3   OH216918   7.789   2.876   3.927
 5658TIP3    H116919   7.714   2.927   3.899
 5658TIP3    H216920   7.798   2.808   3.860
 5659TIP3   OH216921   7.173   3.210   2.011
 5659TIP3    H116922   7.152   3.285   2.068
 5659TIP3    H216923   7.139   3.134   2.059
 5660TIP3   OH216924   7.511   6.060   4.601
 5660TIP3    H116925   7.558   6.125   4.549
 5660TIP3    H216926   7.543   5.975   4.568
 5661TIP3   OH216927   1.675   4.101   3.948
 5661TIP3    H116928   1.588   4.066   3.927
 5661TIP3    H216929   1.660   4.158   4.024
 5662TIP3   OH216930   6.063   6.553   1.008
 5662TIP3    H116931   6.019   6.506   0.937
 5662TIP3    H216932   6.005   6.543   1.083
 5663TIP3   OH216933   3.424   5.665   1.400
 5663TIP3    H116934   3.420   5.759   1.417
 5663TIP3    H216935   3.415   5.658   1.305
 5664TIP3   OH216936   1.173   6.444   4.521
 5664TIP3    H116937   1.230   6.369   4.508
 5664TIP3    H216938   1.120   6.449   4.441
 5665TIP3   OH216939   3.846   7.646   0.624
 5665TIP3    H116940   3.920   7.706   0.614
 5665TIP3    H216941   3.797   7.680   0.699
 5666TIP3   OH216942   7.794   1.330   3.247
 5666TIP3    H116943   7.740   1.267   3.295
 5666TIP3    H216944   7.749   1.414   3.259
 5667TIP3   OH216945   7.188   7.276   0.227
 5667TIP3    H116946   7.251   7.321   0.282
 5667TIP3    H216947   7.129   7.345   0.197
 5668TIP3   OH216948   2.247   0.158   5.009
 5668TIP3    H116949   2.280   0.089   4.952
 5668TIP3    H216950   2.152   0.150   5.005
 5669TIP3   OH216951   0.846   4.341   2.678
 5669TIP3    H116952   0.839   4.396   2.600
 5669TIP3    H216953   0.764   4.291   2.679
 5670TIP3   OH216954   3.206   6.210  -0.014
 5670TIP3    H116955   3.115   6.239  -0.013
 5670TIP3    H216956   3.219   6.170   0.072
 5671TIP3   OH216957   0.079   5.467   4.836
 5671TIP3    H116958   0.149   5.532   4.841
 5671TIP3    H216959   0.123   5.382   4.844
 5672TIP3   OH216960   3.167   1.997   3.404
 5672TIP3    H116961   3.242   2.016   3.348
 5672TIP3    H216962   3.195   2.023   3.492
 5673TIP3   OH216963   7.510   5.424   4.630
 5673TIP3    H116964   7.448   5.452   4.563
 5673TIP3    H216965   7.572   5.367   4.584
 5674TIP3   OH216966   5.215   1.310   1.317
 5674TIP3    H116967   5.275   1.244   1.284
 5674TIP3    H216968   5.137   1.302   1.263
 5675TIP3   OH216969   5.744   4.824   1.759
 5675TIP3    H116970   5.729   4.886   1.687
 5675TIP3    H216971   5.806   4.761   1.723
 5676TIP3   OH216972   5.548   3.587   6.186
 5676TIP3    H116973   5.551   3.582   6.090
 5676TIP3    H216974   5.455   3.600   6.206
 5677TIP3   OH216975   5.711   2.513   2.047
 5677TIP3    H116976   5.663   2.442   2.091
 5677TIP3    H216977   5.651   2.587   2.047
 5678TIP3   OH216978   5.883   1.121   4.740
 5678TIP3    H116979   5.964   1.160   4.706
 5678TIP3    H216980   5.867   1.046   4.683
 5679TIP3   OH216981   7.490   0.886   2.123
 5679TIP3    H116982   7.456   0.974   2.108
 5679TIP3    H216983   7.561   0.898   2.185
 5680TIP3   OH216984   5.422   4.118   2.951
 5680TIP3    H116985   5.437   4.186   3.016
 5680TIP3    H216986   5.346   4.070   2.983
 5681TIP3   OH216987   7.923   7.264   1.984
 5681TIP3    H116988   7.911   7.217   2.067
 5681TIP3    H216989   7.875   7.346   1.995
 5682TIP3   OH216990   2.682   2.078   5.767
 5682TIP3    H116991   2.646   2.103   5.853
 5682TIP3    H216992   2.693   1.984   5.772
 5683TIP3   OH216993   4.513   4.151   1.503
 5683TIP3    H116994   4.572   4.137   1.429
 5683TIP3    H216995   4.437   4.196   1.465
 5684TIP3   OH216996   1.032   6.171   6.275
 5684TIP3    H116997   1.059   6.179   6.183
 5684TIP3    H216998   1.087   6.101   6.310
 5685TIP3   OH216999   7.406   1.997   0.434
 5685TIP3    H117000   7.362   1.992   0.519
 5685TIP3    H217001   7.346   1.955   0.373
 5686TIP3   OH217002   6.471   4.408   0.383
 5686TIP3    H117003   6.562   4.435   0.373
 5686TIP3    H217004   6.474   4.336   0.446
 5687TIP3   OH217005   2.970   4.397   6.528
 5687TIP3    H117006   3.061   4.411   6.556
 5687TIP3    H217007   2.948   4.310   6.561
 5688TIP3   OH217008   1.616   2.692   6.314
 5688TIP3    H117009   1.544   2.722   6.260
 5688TIP3    H217010   1.579   2.620   6.366
 5689TIP3   OH217011   6.231   5.102   2.200
 5689TIP3    H117012   6.247   5.153   2.121
 5689TIP3    H217013   6.146   5.134   2.232
 5690TIP3   OH217014   4.904   3.347   2.639
 5690TIP3    H117015   4.920   3.435   2.672
 5690TIP3    H217016   4.940   3.347   2.551
 5691TIP3   OH217017   0.458   7.777   3.022
 5691TIP3    H117018   0.413   7.707   2.974
 5691TIP3    H217019   0.503   7.828   2.955
 5692TIP3   OH217020   8.296   4.988   2.414
 5692TIP3    H117021   8.279   5.049   2.486
 5692TIP3    H217022   8.277   4.902   2.449
 5693TIP3   OH217023   6.444   7.706   6.261
 5693TIP3    H117024   6.526   7.739   6.224
 5693TIP3    H217025   6.409   7.647   6.195
 5694TIP3   OH217026   2.585   7.309   5.297
 5694TIP3    H117027   2.608   7.395   5.261
 5694TIP3    H217028   2.633   7.247   5.242
 5695TIP3   OH217029   8.243   7.467   3.247
 5695TIP3    H117030   8.326   7.499   3.284
 5695TIP3    H217031   8.176   7.511   3.299
 5696TIP3   OH217032   6.173   6.823   4.560
 5696TIP3    H117033   6.082   6.797   4.554
 5696TIP3    H217034   6.220   6.761   4.504
 5697TIP3   OH217035   0.100   2.261   5.572
 5697TIP3    H117036   0.092   2.201   5.498
 5697TIP3    H217037   0.010   2.287   5.592
 5698TIP3   OH217038   0.777   6.666   2.174
 5698TIP3    H117039   0.767   6.761   2.166
 5698TIP3    H217040   0.702   6.638   2.225
 5699TIP3   OH217041   1.158   4.593   2.166
 5699TIP3    H117042   1.234   4.635   2.126
 5699TIP3    H217043   1.102   4.569   2.092
 5700TIP3   OH217044   6.004   5.465   0.686
 5700TIP3    H117045   5.914   5.432   0.694
 5700TIP3    H217046   6.029   5.485   0.776
 5701TIP3   OH217047   0.935   1.645   3.279
 5701TIP3    H117048   1.016   1.686   3.309
 5701TIP3    H217049   0.866   1.708   3.299
 5702TIP3   OH217050   8.008   1.579   1.701
 5702TIP3    H117051   7.994   1.495   1.658
 5702TIP3    H217052   7.999   1.644   1.631
 5703TIP3   OH217053   6.010   5.893   0.444
 5703TIP3    H117054   6.082   5.834   0.417
 5703TIP3    H217055   6.036   5.924   0.531
 5704TIP3   OH217056   6.662   3.174   2.787
 5704TIP3    H117057   6.596   3.112   2.757
 5704TIP3    H217058   6.663   3.165   2.883
 5705TIP3   OH217059   3.365   1.409   5.323
 5705TIP3    H117060   3.405   1.451   5.399
 5705TIP3    H217061   3.393   1.463   5.249
 5706TIP3   OH217062   3.885   1.595   4.191
 5706TIP3    H117063   3.822   1.581   4.261
 5706TIP3    H217064   3.868   1.524   4.129
 5707TIP3   OH217065   4.424   3.210   1.440
 5707TIP3    H117066   4.439   3.119   1.466
 5707TIP3    H217067   4.496   3.258   1.479
 5708TIP3   OH217068   1.375   5.046   5.282
 5708TIP3    H117069   1.434   5.035   5.356
 5708TIP3    H217070   1.298   5.089   5.319
 5709TIP3   OH217071   4.890   4.154   1.730
 5709TIP3    H117072   4.816   4.214   1.732
 5709TIP3    H217073   4.864   4.084   1.672
 5710TIP3   OH217074   1.696   2.393   0.491
 5710TIP3    H117075   1.705   2.418   0.399
 5710TIP3    H217076   1.781   2.413   0.530
 5711TIP3   OH217077   3.432   1.360   4.487
 5711TIP3    H117078   3.471   1.396   4.567
 5711TIP3    H217079   3.338   1.363   4.503
 5712TIP3   OH217080   4.832   1.272   5.828
 5712TIP3    H117081   4.871   1.248   5.744
 5712TIP3    H217082   4.828   1.368   5.826
 5713TIP3   OH217083   4.460   7.732   6.358
 5713TIP3    H117084   4.502   7.770   6.436
 5713TIP3    H217085   4.472   7.798   6.290
 5714TIP3   OH217086   6.071   7.461   2.433
 5714TIP3    H117087   6.141   7.441   2.372
 5714TIP3    H217088   6.095   7.414   2.513
 5715TIP3   OH217089   3.462   7.284   4.610
 5715TIP3    H117090   3.551   7.318   4.624
 5715TIP3    H217091   3.405   7.358   4.630
 5716TIP3   OH217092   5.868   5.966   2.786
 5716TIP3    H117093   5.925   5.986   2.712
 5716TIP3    H217094   5.797   5.914   2.749
 5717TIP3   OH217095   2.051   7.304   3.268
 5717TIP3    H117096   2.117   7.359   3.225
 5717TIP3    H217097   2.078   7.301   3.359
 5718TIP3   OH217098   3.039   6.522   6.044
 5718TIP3    H117099   3.078   6.535   6.131
 5718TIP3    H217100   2.967   6.585   6.041
 5719TIP3   OH217101   1.868   1.852   2.562
 5719TIP3    H117102   1.830   1.766   2.545
 5719TIP3    H217103   1.921   1.871   2.485
 5720TIP3   OH217104   4.452   6.458   2.123
 5720TIP3    H117105   4.491   6.529   2.173
 5720TIP3    H217106   4.395   6.413   2.185
 5721TIP3   OH217107   2.588   0.718   1.495
 5721TIP3    H117108   2.589   0.773   1.417
 5721TIP3    H217109   2.678   0.687   1.504
 5722TIP3   OH217110   7.214   7.227   2.690
 5722TIP3    H117111   7.166   7.243   2.771
 5722TIP3    H217112   7.305   7.250   2.711
 5723TIP3   OH217113   7.799   3.842   6.518
 5723TIP3    H117114   7.704   3.852   6.527
 5723TIP3    H217115   7.827   3.805   6.601
 5724TIP3   OH217116   5.113   2.269   5.149
 5724TIP3    H117117   5.102   2.328   5.224
 5724TIP3    H217118   5.024   2.248   5.122
 5725TIP3   OH217119   3.043   2.679   1.818
 5725TIP3    H117120   2.963   2.719   1.854
 5725TIP3    H217121   3.107   2.750   1.818
 5726TIP3   OH217122   7.800   5.348   5.329
 5726TIP3    H117123   7.745   5.426   5.330
 5726TIP3    H217124   7.841   5.346   5.415
 5727TIP3   OH217125   5.034   5.714   5.374
 5727TIP3    H117126   4.949   5.723   5.416
 5727TIP3    H217127   5.015   5.719   5.280
 5728TIP3   OH217128   3.737   2.379   0.902
 5728TIP3    H117129   3.727   2.420   0.817
 5728TIP3    H217130   3.708   2.289   0.889
 5729TIP3   OH217131   4.094   1.252   1.368
 5729TIP3    H117132   4.103   1.330   1.423
 5729TIP3    H217133   4.050   1.283   1.290
 5730TIP3   OH217134   0.267   4.921   4.940
 5730TIP3    H117135   0.295   4.829   4.936
 5730TIP3    H217136   0.269   4.950   4.848
 5731TIP3   OH217137   6.269   4.041   2.820
 5731TIP3    H117138   6.178   4.059   2.845
 5731TIP3    H217139   6.304   3.987   2.891
 5732TIP3   OH217140   3.434   1.379   6.752
 5732TIP3    H117141   3.476   1.361   6.836
 5732TIP3    H217142   3.343   1.400   6.774
 5733TIP3   OH217143   3.614   1.587   3.982
 5733TIP3    H117144   3.522   1.600   3.957
 5733TIP3    H217145   3.662   1.651   3.930
 5734TIP3   OH217146   3.180   3.282   1.396
 5734TIP3    H117147   3.127   3.213   1.356
 5734TIP3    H217148   3.119   3.327   1.456
 5735TIP3   OH217149   0.662   0.019   3.104
 5735TIP3    H117150   0.675  -0.069   3.070
 5735TIP3    H217151   0.717   0.023   3.183
 5736TIP3   OH217152   3.024   3.343   1.634
 5736TIP3    H117153   2.973   3.264   1.648
 5736TIP3    H217154   3.114   3.317   1.651
 5737TIP3   OH217155   7.852   7.016   1.854
 5737TIP3    H117156   7.877   7.094   1.902
 5737TIP3    H217157   7.890   7.028   1.767
 5738TIP3   OH217158   0.757   0.774   5.147
 5738TIP3    H117159   0.684   0.738   5.197
 5738TIP3    H217160   0.786   0.850   5.198
 5739TIP3   OH217161   7.018   0.155   2.627
 5739TIP3    H117162   7.071   0.080   2.598
 5739TIP3    H217163   7.082   0.226   2.636
 5740TIP3   OH217164   0.515   5.246   1.634
 5740TIP3    H117165   0.602   5.283   1.650
 5740TIP3    H217166   0.469   5.314   1.584
 5741TIP3   OH217167   5.509   7.736   2.336
 5741TIP3    H117168   5.423   7.714   2.299
 5741TIP3    H217169   5.571   7.708   2.269
 5742TIP3   OH217170   3.800   4.035   4.308
 5742TIP3    H117171   3.879   3.985   4.291
 5742TIP3    H217172   3.827   4.127   4.296
 5743TIP3   OH217173   3.847   0.058   0.666
 5743TIP3    H117174   3.813   0.128   0.611
 5743TIP3    H217175   3.770   0.016   0.703
 5744TIP3   OH217176   5.087   0.582   5.735
 5744TIP3    H117177   5.008   0.532   5.756
 5744TIP3    H217178   5.152   0.515   5.713
 5745TIP3   OH217179   4.040   4.209   3.694
 5745TIP3    H117180   3.996   4.128   3.719
 5745TIP3    H217181   4.112   4.218   3.757
 5746TIP3   OH217182   6.441   5.608   4.619
 5746TIP3    H117183   6.503   5.615   4.692
 5746TIP3    H217184   6.494   5.575   4.547
 5747TIP3   OH217185   3.111   0.110   0.678
 5747TIP3    H117186   3.120   0.031   0.731
 5747TIP3    H217187   3.130   0.182   0.739
 5748TIP3   OH217188   6.278   2.423   5.934
 5748TIP3    H117189   6.202   2.395   5.884
 5748TIP3    H217190   6.303   2.507   5.896
 5749TIP3   OH217191   6.409   0.983   0.019
 5749TIP3    H117192   6.452   0.911  -0.028
 5749TIP3    H217193   6.353   0.940   0.083
 5750TIP3   OH217194   6.439   0.204   1.400
 5750TIP3    H117195   6.520   0.196   1.449
 5750TIP3    H217196   6.376   0.149   1.447
 5751TIP3   OH217197   3.645   3.190   3.931
 5751TIP3    H117198   3.574   3.145   3.976
 5751TIP3    H217199   3.633   3.167   3.839
 5752TIP3   OH217200   8.227   2.363   6.579
 5752TIP3    H117201   8.252   2.327   6.664
 5752TIP3    H217202   8.151   2.419   6.598
 5753TIP3   OH217203   2.528   0.056   3.065
 5753TIP3    H117204   2.462   0.125   3.057
 5753TIP3    H217205   2.481  -0.024   3.041
 5754TIP3   OH217206   3.356   1.525   0.646
 5754TIP3    H117207   3.408   1.554   0.571
 5754TIP3    H217208   3.412   1.461   0.690
 5755TIP3   OH217209   2.991   2.132   2.485
 5755TIP3    H117210   2.941   2.115   2.565
 5755TIP3    H217211   2.946   2.206   2.444
 5756TIP3   OH217212   7.437   7.370   1.185
 5756TIP3    H117213   7.387   7.289   1.200
 5756TIP3    H217214   7.405   7.431   1.251
 5757TIP3   OH217215   7.455   3.821   1.002
 5757TIP3    H117216   7.447   3.859   0.915
 5757TIP3    H217217   7.390   3.750   1.003
 5758TIP3   OH217218   4.981   5.255   1.498
 5758TIP3    H117219   5.008   5.211   1.417
 5758TIP3    H217220   5.061   5.294   1.532
 5759TIP3   OH217221   4.826   7.762   2.662
 5759TIP3    H117222   4.848   7.669   2.652
 5759TIP3    H217223   4.890   7.794   2.725
 5760TIP3   OH217224   1.040   0.436   6.384
 5760TIP3    H117225   1.027   0.407   6.474
 5760TIP3    H217226   1.019   0.358   6.331
 5761TIP3   OH217227   2.509   7.067   0.643
 5761TIP3    H117228   2.529   6.976   0.668
 5761TIP3    H217229   2.419   7.080   0.672
 5762TIP3   OH217230   1.160   3.010   2.553
 5762TIP3    H117231   1.157   3.035   2.460
 5762TIP3    H217232   1.232   2.947   2.558
 5763TIP3   OH217233   6.648   6.412   5.760
 5763TIP3    H117234   6.737   6.380   5.746
 5763TIP3    H217235   6.659   6.495   5.807
 5764TIP3   OH217236   0.878   1.342   6.517
 5764TIP3    H117237   0.920   1.411   6.466
 5764TIP3    H217238   0.785   1.365   6.518
 5765TIP3   OH217239   8.035   3.557   1.684
 5765TIP3    H117240   8.100   3.547   1.753
 5765TIP3    H217241   7.995   3.642   1.700
 5766TIP3   OH217242   5.858   3.605   4.510
 5766TIP3    H117243   5.815   3.618   4.595
 5766TIP3    H217244   5.854   3.691   4.468
 5767TIP3   OH217245   0.058   0.812   0.388
 5767TIP3    H117246   0.141   0.853   0.362
 5767TIP3    H217247  -0.003   0.833   0.317
 5768TIP3   OH217248   2.778   4.261   0.719
 5768TIP3    H117249   2.827   4.195   0.670
 5768TIP3    H217250   2.815   4.345   0.689
 5769TIP3   OH217251   7.290   1.532   0.780
 5769TIP3    H117252   7.345   1.453   0.782
 5769TIP3    H217253   7.343   1.597   0.735
 5770TIP3   OH217254   1.446   6.809   2.368
 5770TIP3    H117255   1.393   6.745   2.416
 5770TIP3    H217256   1.467   6.766   2.285
 5771TIP3   OH217257   1.278   0.808   6.569
 5771TIP3    H117258   1.292   0.886   6.622
 5771TIP3    H217259   1.291   0.837   6.479
 5772TIP3   OH217260   5.959   4.068   3.069
 5772TIP3    H117261   6.026   4.131   3.098
 5772TIP3    H217262   5.957   4.078   2.974
 5773TIP3   OH217263   2.410   1.867   1.672
 5773TIP3    H117264   2.319   1.895   1.677
 5773TIP3    H217265   2.447   1.916   1.599
 5774TIP3   OH217266   0.819   6.842   0.348
 5774TIP3    H117267   0.805   6.936   0.342
 5774TIP3    H217268   0.772   6.806   0.273
 5775TIP3   OH217269   5.983   4.473   2.727
 5775TIP3    H117270   6.069   4.445   2.757
 5775TIP3    H217271   5.988   4.466   2.631
 5776TIP3   OH217272   4.081   5.317   2.536
 5776TIP3    H117273   4.000   5.345   2.578
 5776TIP3    H217274   4.065   5.327   2.442
 5777TIP3   OH217275   2.128   6.438   6.455
 5777TIP3    H117276   2.134   6.531   6.434
 5777TIP3    H217277   2.200   6.422   6.516
 5778TIP3   OH217278   0.206   4.610   3.174
 5778TIP3    H117279   0.290   4.622   3.218
 5778TIP3    H217280   0.160   4.546   3.227
 5779TIP3   OH217281   1.982   3.142   3.740
 5779TIP3    H117282   2.066   3.178   3.770
 5779TIP3    H217283   2.005   3.085   3.668
 5780TIP3   OH217284   8.030   0.585   0.465
 5780TIP3    H117285   8.002   0.520   0.400
 5780TIP3    H217286   8.049   0.663   0.413
 5781TIP3   OH217287   3.749   1.086   2.362
 5781TIP3    H117288   3.687   1.060   2.294
 5781TIP3    H217289   3.806   1.151   2.320
 5782TIP3   OH217290   7.216   2.162   2.870
 5782TIP3    H117291   7.203   2.099   2.800
 5782TIP3    H217292   7.201   2.247   2.829
 5783TIP3   OH217293   7.796   1.523   3.589
 5783TIP3    H117294   7.794   1.450   3.528
 5783TIP3    H217295   7.710   1.565   3.580
 5784TIP3   OH217296   3.581   5.368   5.476
 5784TIP3    H117297   3.535   5.365   5.560
 5784TIP3    H217298   3.516   5.338   5.412
 5785TIP3   OH217299   5.037   1.258   5.255
 5785TIP3    H117300   5.056   1.261   5.161
 5785TIP3    H217301   4.942   1.270   5.260
 5786TIP3   OH217302   3.392   0.662   4.921
 5786TIP3    H117303   3.333   0.589   4.943
 5786TIP3    H217304   3.339   0.740   4.936
 5787TIP3   OH217305   2.789   2.653   6.087
 5787TIP3    H117306   2.864   2.605   6.050
 5787TIP3    H217307   2.820   2.743   6.097
 5788TIP3   OH217308   7.901   5.047   6.212
 5788TIP3    H117309   7.935   5.035   6.123
 5788TIP3    H217310   7.852   4.967   6.230
 5789TIP3   OH217311   3.436   3.789   0.184
 5789TIP3    H117312   3.494   3.861   0.207
 5789TIP3    H217313   3.487   3.736   0.122
 5790TIP3   OH217314   7.058   7.317   5.703
 5790TIP3    H117315   6.990   7.292   5.765
 5790TIP3    H217316   7.065   7.243   5.643
 5791TIP3   OH217317   8.151   3.028   4.864
 5791TIP3    H117318   8.224   3.052   4.806
 5791TIP3    H217319   8.120   2.945   4.830
 5792TIP3   OH217320   0.850   0.584   0.375
 5792TIP3    H117321   0.795   0.591   0.296
 5792TIP3    H217322   0.935   0.619   0.349
 5793TIP3   OH217323   1.197   7.731   1.818
 5793TIP3    H117324   1.195   7.819   1.855
 5793TIP3    H217325   1.276   7.691   1.855
 5794TIP3   OH217326   7.342   5.365   1.769
 5794TIP3    H117327   7.316   5.274   1.757
 5794TIP3    H217328   7.432   5.361   1.801
 5795TIP3   OH217329   7.763   4.842   5.905
 5795TIP3    H117330   7.767   4.847   6.001
 5795TIP3    H217331   7.812   4.762   5.883
 5796TIP3   OH217332   2.324   2.886   0.987
 5796TIP3    H117333   2.313   2.952   0.919
 5796TIP3    H217334   2.326   2.803   0.939
 5797TIP3   OH217335   2.519   3.990   0.223
 5797TIP3    H117336   2.547   4.082   0.217
 5797TIP3    H217337   2.538   3.965   0.313
 5798TIP3   OH217338   6.021   1.756   5.032
 5798TIP3    H117339   5.988   1.733   4.945
 5798TIP3    H217340   5.946   1.741   5.090
 5799TIP3   OH217341   5.778   4.428   1.543
 5799TIP3    H117342   5.708   4.492   1.558
 5799TIP3    H217343   5.852   4.460   1.594
 5800TIP3   OH217344   5.340   5.535   4.620
 5800TIP3    H117345   5.356   5.442   4.603
 5800TIP3    H217346   5.245   5.544   4.616
 5801TIP3   OH217347   1.039   6.560   3.257
 5801TIP3    H117348   1.100   6.514   3.313
 5801TIP3    H217349   1.072   6.649   3.252
 5802TIP3   OH217350   5.379   5.858   2.366
 5802TIP3    H117351   5.321   5.933   2.353
 5802TIP3    H217352   5.374   5.840   2.460
 5803TIP3   OH217353   7.954   3.952   5.089
 5803TIP3    H117354   7.927   3.892   5.158
 5803TIP3    H217355   7.872   3.985   5.052
 5804TIP3   OH217356   7.092   7.386   2.416
 5804TIP3    H117357   7.087   7.319   2.484
 5804TIP3    H217358   7.112   7.338   2.335
 5805TIP3   OH217359   6.528   0.944   5.775
 5805TIP3    H117360   6.459   0.881   5.798
 5805TIP3    H217361   6.481   1.019   5.740
 5806TIP3   OH217362   2.202   0.982   1.580
 5806TIP3    H117363   2.205   0.955   1.672
 5806TIP3    H217364   2.261   0.921   1.535
 5807TIP3   OH217365   4.269   7.772   2.002
 5807TIP3    H117366   4.308   7.724   1.928
 5807TIP3    H217367   4.330   7.758   2.074
 5808TIP3   OH217368   3.896   0.740   5.836
 5808TIP3    H117369   3.971   0.682   5.846
 5808TIP3    H217370   3.837   0.694   5.776
 5809TIP3   OH217371   6.359   4.541   5.591
 5809TIP3    H117372   6.409   4.622   5.601
 5809TIP3    H217373   6.424   4.471   5.599
 5810TIP3   OH217374   1.623   7.344   4.155
 5810TIP3    H117375   1.576   7.283   4.210
 5810TIP3    H217376   1.698   7.372   4.207
 5811TIP3   OH217377   4.111   3.064   6.610
 5811TIP3    H117378   4.165   3.014   6.671
 5811TIP3    H217379   4.063   2.997   6.561
 5812TIP3   OH217380   7.840   2.016   4.406
 5812TIP3    H117381   7.833   1.921   4.414
 5812TIP3    H217382   7.751   2.048   4.419
 5813TIP3   OH217383   3.436   3.298   5.424
 5813TIP3    H117384   3.460   3.384   5.391
 5813TIP3    H217385   3.510   3.271   5.479
 5814TIP3   OH217386   3.638   6.976   0.025
 5814TIP3    H117387   3.625   6.939   0.112
 5814TIP3    H217388   3.556   7.021   0.005
 5815TIP3   OH217389   0.179   1.960   0.778
 5815TIP3    H117390   0.177   1.908   0.858
 5815TIP3    H217391   0.087   1.973   0.756
 5816TIP3   OH217392   8.198   5.833   6.061
 5816TIP3    H117393   8.242   5.904   6.109
 5816TIP3    H217394   8.213   5.854   5.969
 5817TIP3   OH217395   6.808   1.773   3.637
 5817TIP3    H117396   6.790   1.693   3.685
 5817TIP3    H217397   6.722   1.807   3.612
 5818TIP3   OH217398   5.200   0.758   2.941
 5818TIP3    H117399   5.132   0.711   2.990
 5818TIP3    H217400   5.268   0.693   2.925
 5819TIP3   OH217401   6.840   3.627   0.285
 5819TIP3    H117402   6.761   3.601   0.333
 5819TIP3    H217403   6.836   3.723   0.282
 5820TIP3   OH217404   1.762   7.437   5.124
 5820TIP3    H117405   1.773   7.458   5.031
 5820TIP3    H217406   1.699   7.503   5.156
 5821TIP3   OH217407   2.659   2.251   0.324
 5821TIP3    H117408   2.601   2.177   0.307
 5821TIP3    H217409   2.746   2.212   0.329
 5822TIP3   OH217410   7.228   5.363   6.023
 5822TIP3    H117411   7.305   5.319   6.059
 5822TIP3    H217412   7.155   5.308   6.050
 5823TIP3   OH217413   2.817   3.737   1.785
 5823TIP3    H117414   2.848   3.653   1.751
 5823TIP3    H217415   2.730   3.748   1.747
 5824TIP3   OH217416   1.141   0.015   6.112
 5824TIP3    H117417   1.131   0.095   6.163
 5824TIP3    H217418   1.071   0.019   6.046
 5825TIP3   OH217419   0.341   4.243   4.551
 5825TIP3    H117420   0.341   4.337   4.534
 5825TIP3    H217421   0.326   4.203   4.465
 5826TIP3   OH217422   5.524   4.552   5.720
 5826TIP3    H117423   5.565   4.511   5.797
 5826TIP3    H217424   5.452   4.603   5.756
 5827TIP3   OH217425   6.475   7.828   1.709
 5827TIP3    H117426   6.562   7.792   1.697
 5827TIP3    H217427   6.432   7.769   1.771
 5828TIP3   OH217428   5.499   3.173   2.459
 5828TIP3    H117429   5.577   3.176   2.403
 5828TIP3    H217430   5.534   3.161   2.548
 5829TIP3   OH217431   7.751   0.512   1.147
 5829TIP3    H117432   7.796   0.595   1.128
 5829TIP3    H217433   7.662   0.526   1.114
 5830TIP3   OH217434   1.905   1.797   1.639
 5830TIP3    H117435   1.953   1.716   1.622
 5830TIP3    H217436   1.950   1.837   1.713
 5831TIP3   OH217437   4.247   4.944   5.443
 5831TIP3    H117438   4.335   4.969   5.469
 5831TIP3    H217439   4.242   4.850   5.460
 5832TIP3   OH217440   7.443   7.657   0.648
 5832TIP3    H117441   7.524   7.701   0.621
 5832TIP3    H217442   7.374   7.718   0.623
 5833TIP3   OH217443   8.171   3.419   2.983
 5833TIP3    H117444   8.204   3.344   2.934
 5833TIP3    H217445   8.080   3.428   2.955
 5834TIP3   OH217446   1.562   3.217   2.123
 5834TIP3    H117447   1.625   3.255   2.184
 5834TIP3    H217448   1.615   3.192   2.047
 5835TIP3   OH217449   5.026   5.830   0.510
 5835TIP3    H117450   4.970   5.820   0.434
 5835TIP3    H217451   5.104   5.779   0.489
 5836TIP3   OH217452   4.272   6.514   5.449
 5836TIP3    H117453   4.324   6.594   5.462
 5836TIP3    H217454   4.252   6.513   5.356
 5837TIP3   OH217455   0.666   7.145   2.699
 5837TIP3    H117456   0.709   7.218   2.744
 5837TIP3    H217457   0.646   7.178   2.612
 5838TIP3   OH217458   7.811   5.188   5.923
 5838TIP3    H117459   7.861   5.238   5.858
 5838TIP3    H217460   7.800   5.248   5.996
 5839TIP3   OH217461   7.654   7.709   2.561
 5839TIP3    H117462   7.701   7.631   2.590
 5839TIP3    H217463   7.585   7.676   2.504
 5840TIP3   OH217464   6.716   4.178   4.407
 5840TIP3    H117465   6.702   4.256   4.460
 5840TIP3    H217466   6.775   4.205   4.337
 5841TIP3   OH217467   1.841   5.115   2.233
 5841TIP3    H117468   1.860   5.203   2.264
 5841TIP3    H217469   1.750   5.120   2.202
 5842TIP3   OH217470   7.471   7.517   3.130
 5842TIP3    H117471   7.450   7.551   3.043
 5842TIP3    H217472   7.402   7.452   3.147
 5843TIP3   OH217473   5.634   1.125   0.900
 5843TIP3    H117474   5.539   1.122   0.910
 5843TIP3    H217475   5.659   1.035   0.884
 5844TIP3   OH217476   6.144   3.007   6.471
 5844TIP3    H117477   6.137   3.039   6.381
 5844TIP3    H217478   6.079   2.936   6.476
 5845TIP3   OH217479   6.533   3.390   2.664
 5845TIP3    H117480   6.464   3.325   2.671
 5845TIP3    H217481   6.606   3.353   2.714
 5846TIP3   OH217482   4.906   4.085   2.619
 5846TIP3    H117483   4.882   4.024   2.549
 5846TIP3    H217484   4.899   4.171   2.577
 5847TIP3   OH217485   3.494   0.146   4.237
 5847TIP3    H117486   3.537   0.066   4.207
 5847TIP3    H217487   3.446   0.120   4.315
 5848TIP3   OH217488   5.452   6.534   6.533
 5848TIP3    H117489   5.432   6.613   6.584
 5848TIP3    H217490   5.466   6.466   6.599
 5849TIP3   OH217491   5.989   0.126   4.092
 5849TIP3    H117492   6.031   0.162   4.171
 5849TIP3    H217493   5.897   0.151   4.101
 5850TIP3   OH217494   2.743   4.905   5.075
 5850TIP3    H117495   2.766   4.979   5.019
 5850TIP3    H217496   2.806   4.836   5.052
 5851TIP3   OH217497   5.105   5.543   0.750
 5851TIP3    H117498   5.193   5.572   0.725
 5851TIP3    H217499   5.108   5.448   0.740
 5852TIP3   OH217500   1.265   4.360   3.954
 5852TIP3    H117501   1.213   4.364   3.873
 5852TIP3    H217502   1.203   4.382   4.023
 5853TIP3   OH217503   6.258   6.864   1.549
 5853TIP3    H117504   6.214   6.927   1.491
 5853TIP3    H217505   6.229   6.778   1.518
 5854TIP3   OH217506   4.440   7.503   5.414
 5854TIP3    H117507   4.507   7.435   5.405
 5854TIP3    H217508   4.454   7.561   5.340
 5855TIP3   OH217509   0.775   4.401   4.617
 5855TIP3    H117510   0.731   4.353   4.547
 5855TIP3    H217511   0.778   4.491   4.585
 5856TIP3   OH217512   2.639   5.967   5.132
 5856TIP3    H117513   2.643   5.882   5.176
 5856TIP3    H217514   2.647   5.946   5.038
 5857TIP3   OH217515   5.645   0.856   5.956
 5857TIP3    H117516   5.651   0.774   5.908
 5857TIP3    H217517   5.677   0.836   6.043
 5858TIP3   OH217518   3.545   5.100   1.917
 5858TIP3    H117519   3.565   5.174   1.860
 5858TIP3    H217520   3.613   5.036   1.898
 5859TIP3   OH217521   2.432   4.519   0.647
 5859TIP3    H117522   2.452   4.426   0.635
 5859TIP3    H217523   2.367   4.522   0.717
 5860TIP3   OH217524   0.293   4.297   2.896
 5860TIP3    H117525   0.338   4.315   2.979
 5860TIP3    H217526   0.201   4.314   2.915
 5861TIP3   OH217527   1.932   6.489   1.223
 5861TIP3    H117528   1.934   6.405   1.269
 5861TIP3    H217529   1.871   6.543   1.272
 5862TIP3   OH217530   0.875   0.209   3.577
 5862TIP3    H117531   0.842   0.228   3.665
 5862TIP3    H217532   0.847   0.284   3.525
 5863TIP3   OH217533   0.064   3.230   2.258
 5863TIP3    H117534   0.101   3.317   2.272
 5863TIP3    H217535   0.139   3.171   2.266
 5864TIP3   OH217536   4.315   6.234   6.317
 5864TIP3    H117537   4.391   6.234   6.260
 5864TIP3    H217538   4.271   6.317   6.299
 5865TIP3   OH217539   8.004   1.714   0.001
 5865TIP3    H117540   8.019   1.713   0.096
 5865TIP3    H217541   7.914   1.683  -0.009
 5866TIP3   OH217542   1.728   0.065   0.379
 5866TIP3    H117543   1.725   0.062   0.475
 5866TIP3    H217544   1.646   0.109   0.355
 5867TIP3   OH217545   5.546   0.590   2.213
 5867TIP3    H117546   5.569   0.650   2.285
 5867TIP3    H217547   5.598   0.512   2.231
 5868TIP3   OH217548   7.326   2.236   3.404
 5868TIP3    H117549   7.230   2.234   3.397
 5868TIP3    H217550   7.352   2.144   3.410
 5869TIP3   OH217551   7.926   6.165   1.742
 5869TIP3    H117552   7.887   6.079   1.756
 5869TIP3    H217553   7.983   6.179   1.817
 5870TIP3   OH217554   6.336   2.237   3.098
 5870TIP3    H117555   6.348   2.330   3.083
 5870TIP3    H217556   6.344   2.226   3.193
 5871TIP3   OH217557   7.306   2.829   5.905
 5871TIP3    H117558   7.319   2.923   5.894
 5871TIP3    H217559   7.234   2.808   5.846
 5872TIP3   OH217560   2.394   7.392   0.678
 5872TIP3    H117561   2.385   7.402   0.583
 5872TIP3    H217562   2.329   7.452   0.714
 5873TIP3   OH217563   5.923   2.830   6.450
 5873TIP3    H117564   5.858   2.868   6.391
 5873TIP3    H217565   5.912   2.735   6.440
 5874TIP3   OH217566   1.573   5.075   6.451
 5874TIP3    H117567   1.639   5.007   6.458
 5874TIP3    H217568   1.587   5.113   6.364
 5875TIP3   OH217569   1.858   6.268   5.231
 5875TIP3    H117570   1.838   6.292   5.321
 5875TIP3    H217571   1.895   6.347   5.192
 5876TIP3   OH217572   4.023   5.478   3.452
 5876TIP3    H117573   4.009   5.483   3.546
 5876TIP3    H217574   3.936   5.461   3.416
 5877TIP3   OH217575   7.736   0.017   5.326
 5877TIP3    H117576   7.820   0.024   5.282
 5877TIP3    H217577   7.723   0.103   5.367
 5878TIP3   OH217578   2.652   5.320   0.195
 5878TIP3    H117579   2.687   5.328   0.107
 5878TIP3    H217580   2.562   5.353   0.189
 5879TIP3   OH217581   6.034   4.112   1.284
 5879TIP3    H117582   6.020   4.018   1.295
 5879TIP3    H217583   6.057   4.121   1.191
 5880TIP3   OH217584   0.631   2.670   6.777
 5880TIP3    H117585   0.614   2.749   6.726
 5880TIP3    H217586   0.564   2.608   6.750
 5881TIP3   OH217587   2.563   2.919   2.324
 5881TIP3    H117588   2.571   2.982   2.253
 5881TIP3    H217589   2.478   2.939   2.364
 5882TIP3   OH217590   7.822   2.387   0.662
 5882TIP3    H117591   7.741   2.437   0.658
 5882TIP3    H217592   7.890   2.454   0.674
 5883TIP3   OH217593   5.867   5.651   2.281
 5883TIP3    H117594   5.779   5.686   2.272
 5883TIP3    H217595   5.922   5.709   2.227
 5884TIP3   OH217596   0.404   4.581   4.056
 5884TIP3    H117597   0.444   4.520   4.117
 5884TIP3    H217598   0.310   4.573   4.073
 5885TIP3   OH217599   1.283   1.558   5.086
 5885TIP3    H117600   1.229   1.625   5.128
 5885TIP3    H217601   1.329   1.604   5.016
 5886TIP3   OH217602   1.059   7.156   0.771
 5886TIP3    H117603   1.111   7.161   0.691
 5886TIP3    H217604   1.112   7.201   0.836
 5887TIP3   OH217605   2.346   2.019   2.268
 5887TIP3    H117606   2.339   1.943   2.326
 5887TIP3    H217607   2.440   2.038   2.263
 5888TIP3   OH217608   1.299   3.585   1.173
 5888TIP3    H117609   1.297   3.671   1.216
 5888TIP3    H217610   1.373   3.540   1.215
 5889TIP3   OH217611   1.040   3.076   4.720
 5889TIP3    H117612   1.105   3.146   4.725
 5889TIP3    H217613   1.056   3.034   4.636
 5890TIP3   OH217614   5.033   0.615   6.703
 5890TIP3    H117615   5.095   0.684   6.681
 5890TIP3    H217616   5.041   0.553   6.630
 5891TIP3   OH217617   7.721   3.326   3.122
 5891TIP3    H117618   7.770   3.298   3.045
 5891TIP3    H217619   7.788   3.351   3.186
 5892TIP3   OH217620   2.727   2.098   1.084
 5892TIP3    H117621   2.796   2.126   1.144
 5892TIP3    H217622   2.691   2.019   1.125
 5893TIP3   OH217623   4.575   0.708   0.077
 5893TIP3    H117624   4.543   0.790   0.115
 5893TIP3    H217625   4.610   0.659   0.152
 5894TIP3   OH217626   4.768   5.583   0.412
 5894TIP3    H117627   4.793   5.662   0.365
 5894TIP3    H217628   4.681   5.562   0.380
 5895TIP3   OH217629   6.779   4.549   0.843
 5895TIP3    H117630   6.810   4.533   0.932
 5895TIP3    H217631   6.857   4.535   0.788
 5896TIP3   OH217632   4.663   5.785   4.841
 5896TIP3    H117633   4.758   5.774   4.846
 5896TIP3    H217634   4.647   5.813   4.751
 5897TIP3   OH217635   1.654   1.998   3.149
 5897TIP3    H117636   1.590   2.026   3.214
 5897TIP3    H217637   1.696   2.079   3.120
 5898TIP3   OH217638   6.532   0.787   1.909
 5898TIP3    H117639   6.448   0.826   1.887
 5898TIP3    H217640   6.560   0.835   1.987
 5899TIP3   OH217641   7.908   4.742   1.947
 5899TIP3    H117642   7.962   4.702   1.878
 5899TIP3    H217643   7.965   4.743   2.024
 5900TIP3   OH217644   6.067   6.734   5.000
 5900TIP3    H117645   6.036   6.645   5.018
 5900TIP3    H217646   6.146   6.723   4.949
 5901TIP3   OH217647   5.817   4.690   5.238
 5901TIP3    H117648   5.859   4.708   5.322
 5901TIP3    H217649   5.732   4.653   5.260
 5902TIP3   OH217650   0.980   0.708   3.877
 5902TIP3    H117651   0.955   0.632   3.824
 5902TIP3    H217652   0.943   0.691   3.963
 5903TIP3   OH217653   5.268   4.532   4.887
 5903TIP3    H117654   5.254   4.449   4.842
 5903TIP3    H217655   5.299   4.507   4.974
 5904TIP3   OH217656   3.764   0.932   3.324
 5904TIP3    H117657   3.810   0.848   3.318
 5904TIP3    H217658   3.772   0.957   3.416
 5905TIP3   OH217659   1.378   1.131   3.599
 5905TIP3    H117660   1.429   1.057   3.568
 5905TIP3    H217661   1.337   1.100   3.680
 5906TIP3   OH217662   5.878   1.064   2.266
 5906TIP3    H117663   5.886   1.142   2.211
 5906TIP3    H217664   5.953   1.010   2.241
 5907TIP3   OH217665   7.531   6.497   5.168
 5907TIP3    H117666   7.474   6.566   5.203
 5907TIP3    H217667   7.507   6.491   5.075
 5908TIP3   OH217668   0.895   7.339   3.660
 5908TIP3    H117669   0.845   7.341   3.578
 5908TIP3    H217670   0.980   7.303   3.635
 5909TIP3   OH217671   7.053   6.206   2.694
 5909TIP3    H117672   7.002   6.280   2.662
 5909TIP3    H217673   7.136   6.211   2.646
 5910TIP3   OH217674   4.938   5.690   4.426
 5910TIP3    H117675   4.958   5.783   4.433
 5910TIP3    H217676   4.922   5.676   4.332
 5911TIP3   OH217677   7.553   4.379   6.566
 5911TIP3    H117678   7.470   4.426   6.558
 5911TIP3    H217679   7.577   4.389   6.658
 5912TIP3   OH217680   1.773   4.885   6.469
 5912TIP3    H117681   1.756   4.791   6.466
 5912TIP3    H217682   1.869   4.893   6.469
 5913TIP3   OH217683   3.798   5.669   3.254
 5913TIP3    H117684   3.785   5.575   3.248
 5913TIP3    H217685   3.719   5.702   3.297
 5914TIP3   OH217686   5.257   2.119   1.516
 5914TIP3    H117687   5.300   2.034   1.519
 5914TIP3    H217688   5.164   2.099   1.514
 5915TIP3   OH217689   6.017   1.264   5.535
 5915TIP3    H117690   5.990   1.317   5.610
 5915TIP3    H217691   5.950   1.197   5.528
 5916TIP3   OH217692   7.744   2.589   6.203
 5916TIP3    H117693   7.840   2.591   6.195
 5916TIP3    H217694   7.712   2.612   6.116
 5917TIP3   OH217695   4.361   0.127   2.151
 5917TIP3    H117696   4.375   0.073   2.073
 5917TIP3    H217697   4.396   0.213   2.128
 5918TIP3   OH217698   2.833   0.460   6.637
 5918TIP3    H117699   2.843   0.555   6.635
 5918TIP3    H217700   2.781   0.439   6.560
 5919TIP3   OH217701   8.182   0.635   4.418
 5919TIP3    H117702   8.157   0.695   4.488
 5919TIP3    H217703   8.266   0.668   4.387
 5920TIP3   OH217704   0.414   2.498   0.565
 5920TIP3    H117705   0.423   2.513   0.659
 5920TIP3    H217706   0.464   2.569   0.525
 5921TIP3   OH217707   4.633   7.669   0.142
 5921TIP3    H117708   4.663   7.608   0.074
 5921TIP3    H217709   4.541   7.646   0.156
 5922TIP3   OH217710   4.715   3.777   0.344
 5922TIP3    H117711   4.723   3.799   0.251
 5922TIP3    H217712   4.710   3.682   0.345
 5923TIP3   OH217713   4.981   5.400   3.149
 5923TIP3    H117714   4.999   5.494   3.156
 5923TIP3    H217715   5.012   5.363   3.232
 5924TIP3   OH217716   7.110   2.560   2.094
 5924TIP3    H117717   7.175   2.603   2.039
 5924TIP3    H217718   7.074   2.630   2.148
 5925TIP3   OH217719   4.823   1.454   4.808
 5925TIP3    H117720   4.823   1.409   4.892
 5925TIP3    H217721   4.895   1.517   4.815
 5926TIP3   OH217722   2.672   4.207   1.001
 5926TIP3    H117723   2.679   4.137   1.066
 5926TIP3    H217724   2.731   4.179   0.931
 5927TIP3   OH217725   6.606   1.010   1.332
 5927TIP3    H117726   6.575   0.932   1.286
 5927TIP3    H217727   6.577   0.998   1.423
 5928TIP3   OH217728   1.361   5.723   2.053
 5928TIP3    H117729   1.321   5.807   2.031
 5928TIP3    H217730   1.402   5.737   2.138
 5929TIP3   OH217731   1.877   2.707   2.997
 5929TIP3    H117732   1.897   2.657   2.918
 5929TIP3    H217733   1.786   2.686   3.017
 5930TIP3   OH217734   2.800   7.246   2.799
 5930TIP3    H117735   2.734   7.200   2.851
 5930TIP3    H217736   2.845   7.303   2.862
 5931TIP3   OH217737   7.001   4.391   3.898
 5931TIP3    H117738   7.035   4.332   3.965
 5931TIP3    H217739   6.910   4.364   3.885
 5932TIP3   OH217740   3.577   3.577   2.619
 5932TIP3    H117741   3.572   3.484   2.595
 5932TIP3    H217742   3.596   3.577   2.712
 5933TIP3   OH217743   6.693   3.133   5.901
 5933TIP3    H117744   6.600   3.138   5.880
 5933TIP3    H217745   6.721   3.048   5.867
 5934TIP3   OH217746   3.184   5.921   5.902
 5934TIP3    H117747   3.232   5.839   5.916
 5934TIP3    H217748   3.183   5.964   5.987
 5935TIP3   OH217749   7.668   6.359   5.357
 5935TIP3    H117750   7.757   6.342   5.326
 5935TIP3    H217751   7.628   6.410   5.287
 5936TIP3   OH217752   1.085   6.964   2.010
 5936TIP3    H117753   1.013   6.913   1.972
 5936TIP3    H217754   1.073   7.052   1.973
 5937TIP3   OH217755   4.048   1.183   4.525
 5937TIP3    H117756   3.966   1.176   4.574
 5937TIP3    H217757   4.036   1.261   4.471
 5938TIP3   OH217758   5.971   2.893   6.736
 5938TIP3    H117759   6.023   2.840   6.797
 5938TIP3    H217760   5.987   2.854   6.650
 5939TIP3   OH217761   7.066   5.000   4.108
 5939TIP3    H117762   7.040   5.006   4.200
 5939TIP3    H217763   7.161   5.006   4.110
 5940TIP3   OH217764   2.754   4.309   4.573
 5940TIP3    H117765   2.739   4.376   4.639
 5940TIP3    H217766   2.694   4.332   4.501
 5941TIP3   OH217767   7.810   5.965   5.417
 5941TIP3    H117768   7.829   5.999   5.330
 5941TIP3    H217769   7.881   5.999   5.472
 5942TIP3   OH217770   0.233   0.378   3.763
 5942TIP3    H117771   0.156   0.329   3.734
 5942TIP3    H217772   0.208   0.413   3.849
 5943TIP3   OH217773   3.172   2.391   5.679
 5943TIP3    H117774   3.229   2.463   5.652
 5943TIP3    H217775   3.106   2.386   5.610
 5944TIP3   OH217776   5.191   6.575   5.337
 5944TIP3    H117777   5.185   6.548   5.245
 5944TIP3    H217778   5.109   6.622   5.353
 5945TIP3   OH217779   0.458   5.758   1.146
 5945TIP3    H117780   0.550   5.751   1.173
 5945TIP3    H217781   0.462   5.797   1.059
 5946TIP3   OH217782   4.866   7.404   0.016
 5946TIP3    H117783   4.861   7.481  -0.041
 5946TIP3    H217784   4.783   7.358   0.001
 5947TIP3   OH217785   6.755   1.047   3.983
 5947TIP3    H117786   6.809   1.125   3.972
 5947TIP3    H217787   6.756   1.005   3.897
 5948TIP3   OH217788   7.080   2.100   1.451
 5948TIP3    H117789   7.017   2.028   1.456
 5948TIP3    H217790   7.040   2.162   1.390
 5949TIP3   OH217791   6.028   0.294   0.177
 5949TIP3    H117792   6.097   0.333   0.123
 5949TIP3    H217793   6.074   0.260   0.254
 5950TIP3   OH217794   5.855   2.036   1.331
 5950TIP3    H117795   5.903   1.957   1.355
 5950TIP3    H217796   5.782   2.004   1.278
 5951TIP3   OH217797   7.591   0.754   6.378
 5951TIP3    H117798   7.514   0.746   6.435
 5951TIP3    H217799   7.664   0.724   6.432
 5952TIP3   OH217800   4.426   6.715   4.120
 5952TIP3    H117801   4.446   6.808   4.133
 5952TIP3    H217802   4.511   6.671   4.126
 5953TIP3   OH217803   2.863   2.615   3.830
 5953TIP3    H117804   2.870   2.640   3.738
 5953TIP3    H217805   2.927   2.545   3.840
 5954TIP3   OH217806   4.800   4.330   2.021
 5954TIP3    H117807   4.841   4.357   1.938
 5954TIP3    H217808   4.763   4.411   2.056
 5955TIP3   OH217809   7.231   4.880   2.036
 5955TIP3    H117810   7.289   4.956   2.026
 5955TIP3    H217811   7.212   4.877   2.130
 5956TIP3   OH217812   3.164   0.835   5.777
 5956TIP3    H117813   3.123   0.778   5.842
 5956TIP3    H217814   3.214   0.898   5.829
 5957TIP3   OH217815   5.621   2.133   1.754
 5957TIP3    H117816   5.544   2.077   1.761
 5957TIP3    H217817   5.602   2.193   1.683
 5958TIP3   OH217818   6.590   4.630   3.304
 5958TIP3    H117819   6.505   4.600   3.337
 5958TIP3    H217820   6.651   4.561   3.329
 5959TIP3   OH217821   2.272   2.567   2.620
 5959TIP3    H117822   2.223   2.644   2.649
 5959TIP3    H217823   2.209   2.517   2.567
 5960TIP3   OH217824   3.317   3.297   3.075
 5960TIP3    H117825   3.352   3.371   3.025
 5960TIP3    H217826   3.331   3.221   3.019
 5961TIP3   OH217827   4.194   4.266   5.063
 5961TIP3    H117828   4.287   4.271   5.044
 5961TIP3    H217829   4.169   4.355   5.087
 5962TIP3   OH217830   7.057   3.993   5.751
 5962TIP3    H117831   7.127   3.949   5.702
 5962TIP3    H217832   7.102   4.061   5.802
 5963TIP3   OH217833   6.904   2.814   3.971
 5963TIP3    H117834   6.989   2.834   3.932
 5963TIP3    H217835   6.906   2.719   3.985
 5964TIP3   OH217836   1.625   3.930   5.851
 5964TIP3    H117837   1.620   3.975   5.767
 5964TIP3    H217838   1.616   4.000   5.916
 5965TIP3   OH217839   8.282   6.193   2.234
 5965TIP3    H117840   8.207   6.134   2.232
 5965TIP3    H217841   8.255   6.263   2.294
 5966TIP3   OH217842   7.877   3.009   6.040
 5966TIP3    H117843   7.877   3.103   6.024
 5966TIP3    H217844   7.795   2.978   6.000
 5967TIP3   OH217845   4.677   4.505   6.721
 5967TIP3    H117846   4.591   4.482   6.754
 5967TIP3    H217847   4.737   4.491   6.794
 5968TIP3   OH217848   2.602   2.491   2.797
 5968TIP3    H117849   2.526   2.443   2.831
 5968TIP3    H217850   2.566   2.574   2.767
 5969TIP3   OH217851   7.304   0.263   0.999
 5969TIP3    H117852   7.374   0.202   1.022
 5969TIP3    H217853   7.308   0.331   1.066
 5970TIP3   OH217854   3.884   7.347   2.450
 5970TIP3    H117855   3.841   7.268   2.481
 5970TIP3    H217856   3.975   7.321   2.435
 5971TIP3   OH217857   6.004   7.643   4.471
 5971TIP3    H117858   5.993   7.554   4.504
 5971TIP3    H217859   6.037   7.693   4.546
 5972TIP3   OH217860   5.378   3.294   0.984
 5972TIP3    H117861   5.326   3.226   1.027
 5972TIP3    H217862   5.424   3.249   0.914
 5973TIP3   OH217863   3.602   1.587   6.623
 5973TIP3    H117864   3.681   1.572   6.674
 5973TIP3    H217865   3.530   1.565   6.683
 5974TIP3   OH217866   0.190   2.643   2.583
 5974TIP3    H117867   0.168   2.683   2.668
 5974TIP3    H217868   0.137   2.691   2.520
 5975TIP3   OH217869   1.313   6.851   4.612
 5975TIP3    H117870   1.351   6.764   4.622
 5975TIP3    H217871   1.273   6.869   4.697
 5976TIP3   OH217872   6.584   4.947   5.865
 5976TIP3    H117873   6.667   4.909   5.837
 5976TIP3    H217874   6.541   4.877   5.914
 5977TIP3   OH217875   7.180   0.278   5.538
 5977TIP3    H117876   7.137   0.319   5.613
 5977TIP3    H217877   7.232   0.349   5.499
 5978TIP3   OH217878   6.271   7.682   3.562
 5978TIP3    H117879   6.267   7.765   3.609
 5978TIP3    H217880   6.207   7.626   3.606
 5979TIP3   OH217881   3.684   6.423   3.976
 5979TIP3    H117882   3.693   6.480   4.053
 5979TIP3    H217883   3.773   6.393   3.958
 5980TIP3   OH217884   5.026   5.945   1.251
 5980TIP3    H117885   4.939   5.905   1.255
 5980TIP3    H217886   5.012   6.027   1.203
 5981TIP3   OH217887   3.309   7.504   3.609
 5981TIP3    H117888   3.358   7.586   3.600
 5981TIP3    H217889   3.220   7.531   3.630
 5982TIP3   OH217890   5.207   4.603   4.196
 5982TIP3    H117891   5.255   4.683   4.216
 5982TIP3    H217892   5.275   4.538   4.177
 5983TIP3   OH217893   0.623   1.780   1.244
 5983TIP3    H117894   0.560   1.748   1.181
 5983TIP3    H217895   0.570   1.819   1.314
 5984TIP3   OH217896   3.607   3.124   5.128
 5984TIP3    H117897   3.545   3.196   5.122
 5984TIP3    H217898   3.679   3.158   5.182
 5985TIP3   OH217899   0.503   3.301   4.611
 5985TIP3    H117900   0.448   3.277   4.685
 5985TIP3    H217901   0.442   3.327   4.542
 5986TIP3   OH217902   3.235   5.412   6.456
 5986TIP3    H117903   3.302   5.467   6.413
 5986TIP3    H217904   3.286   5.344   6.501
 5987TIP3   OH217905   5.476   6.714   2.622
 5987TIP3    H117906   5.457   6.757   2.539
 5987TIP3    H217907   5.407   6.648   2.631
 5988TIP3   OH217908   3.221   0.999   6.178
 5988TIP3    H117909   3.316   0.996   6.173
 5988TIP3    H217910   3.200   0.945   6.254
 5989TIP3   OH217911   3.730   1.806   6.023
 5989TIP3    H117912   3.759   1.724   6.063
 5989TIP3    H217913   3.634   1.804   6.032
 5990TIP3   OH217914   4.566   1.659   1.190
 5990TIP3    H117915   4.522   1.712   1.124
 5990TIP3    H217916   4.593   1.721   1.258
 5991TIP3   OH217917   6.057   7.330   3.021
 5991TIP3    H117918   6.142   7.296   2.993
 5991TIP3    H217919   6.002   7.322   2.943
 5992TIP3   OH217920   6.356   7.327   3.630
 5992TIP3    H117921   6.266   7.344   3.657
 5992TIP3    H217922   6.392   7.414   3.609
 5993TIP3   OH217923   1.874   5.459   3.113
 5993TIP3    H117924   1.961   5.482   3.080
 5993TIP3    H217925   1.813   5.512   3.060
 5994TIP3   OH217926   1.216   4.516   1.286
 5994TIP3    H117927   1.169   4.538   1.366
 5994TIP3    H217928   1.309   4.525   1.309
 5995TIP3   OH217929   0.781   7.549   3.060
 5995TIP3    H117930   0.724   7.589   3.125
 5995TIP3    H217931   0.724   7.536   2.984
 5996TIP3   OH217932   8.212   4.330   1.288
 5996TIP3    H117933   8.178   4.266   1.225
 5996TIP3    H217934   8.246   4.276   1.359
 5997TIP3   OH217935   3.794   5.240   4.954
 5997TIP3    H117936   3.762   5.257   5.043
 5997TIP3    H217937   3.876   5.289   4.948
 5998TIP3   OH217938   6.963   0.303   3.778
 5998TIP3    H117939   7.041   0.273   3.732
 5998TIP3    H217940   6.995   0.332   3.864
 5999TIP3   OH217941   4.012   1.070   3.505
 5999TIP3    H117942   4.017   1.154   3.458
 5999TIP3    H217943   3.931   1.077   3.556
 6000TIP3   OH217944   5.138   2.282   0.012
 6000TIP3    H117945   5.184   2.327   0.083
 6000TIP3    H217946   5.117   2.196   0.047
 6001TIP3   OH217947   4.533   4.826   4.134
 6001TIP3    H117948   4.567   4.854   4.219
 6001TIP3    H217949   4.609   4.826   4.077
 6002TIP3   OH217950   6.791   3.846   1.225
 6002TIP3    H117951   6.785   3.777   1.159
 6002TIP3    H217952   6.875   3.831   1.268
 6003TIP3   OH217953   3.810   6.892   1.812
 6003TIP3    H117954   3.854   6.949   1.749
 6003TIP3    H217955   3.757   6.951   1.866
 6004TIP3   OH217956   4.981   4.376   2.546
 6004TIP3    H117957   4.981   4.462   2.502
 6004TIP3    H217958   4.936   4.392   2.629
 6005TIP3   OH217959   6.895   2.154   1.184
 6005TIP3    H117960   6.837   2.186   1.253
 6005TIP3    H217961   6.920   2.232   1.135
 6006TIP3   OH217962   8.045   0.977   2.908
 6006TIP3    H117963   8.044   0.947   2.998
 6006TIP3    H217964   7.954   0.994   2.887
 6007TIP3   OH217965   1.586   0.371   1.610
 6007TIP3    H117966   1.658   0.385   1.671
 6007TIP3    H217967   1.508   0.397   1.659
 6008TIP3   OH217968   4.548   0.797   3.767
 6008TIP3    H117969   4.475   0.830   3.817
 6008TIP3    H217970   4.621   0.855   3.788
 6009TIP3   OH217971   1.972   5.590   5.481
 6009TIP3    H117972   1.952   5.664   5.538
 6009TIP3    H217973   1.901   5.588   5.418
 6010TIP3   OH217974   2.048   5.176   0.411
 6010TIP3    H117975   2.064   5.091   0.452
 6010TIP3    H217976   1.972   5.162   0.355
 6011TIP3   OH217977   5.812   5.198   6.095
 6011TIP3    H117978   5.778   5.160   6.013
 6011TIP3    H217979   5.859   5.277   6.068
 6012TIP3   OH217980   7.097   7.617   1.286
 6012TIP3    H117981   7.133   7.649   1.369
 6012TIP3    H217982   7.044   7.690   1.254
 6013TIP3   OH217983   6.171   5.804   1.816
 6013TIP3    H117984   6.093   5.750   1.811
 6013TIP3    H217985   6.232   5.754   1.870
 6014TIP3   OH217986   3.721   2.498   1.400
 6014TIP3    H117987   3.651   2.510   1.463
 6014TIP3    H217988   3.775   2.577   1.408
 6015TIP3   OH217989   2.706   1.878   0.515
 6015TIP3    H117990   2.783   1.868   0.460
 6015TIP3    H217991   2.697   1.972   0.527
 6016TIP3   OH217992   7.322   1.418   2.968
 6016TIP3    H117993   7.307   1.359   2.894
 6016TIP3    H217994   7.314   1.362   3.046
 6017TIP3   OH217995   1.530   7.739   3.460
 6017TIP3    H117996   1.533   7.779   3.547
 6017TIP3    H217997   1.618   7.704   3.447
 6018TIP3   OH217998   4.010   4.855   0.048
 6018TIP3    H117999   3.955   4.846   0.126
 6018TIP3    H218000   4.001   4.947   0.023
 6019TIP3   OH218001   0.550   6.432   0.975
 6019TIP3    H118002   0.533   6.495   1.045
 6019TIP3    H218003   0.557   6.485   0.896
 6020TIP3   OH218004   1.136   1.522   2.545
 6020TIP3    H118005   1.060   1.466   2.528
 6020TIP3    H218006   1.133   1.588   2.475
 6021TIP3   OH218007   0.397   0.923   3.958
 6021TIP3    H118008   0.462   0.859   3.930
 6021TIP3    H218009   0.317   0.872   3.973
 6022TIP3   OH218010   1.430   0.953   4.511
 6022TIP3    H118011   1.425   0.901   4.431
 6022TIP3    H218012   1.509   1.006   4.500
 6023TIP3   OH218013   6.855   6.544   1.230
 6023TIP3    H118014   6.876   6.572   1.319
 6023TIP3    H218015   6.940   6.541   1.185
 6024TIP3   OH218016   5.189   7.761   6.192
 6024TIP3    H118017   5.221   7.828   6.253
 6024TIP3    H218018   5.125   7.807   6.138
 6025TIP3   OH218019   2.675   2.207   4.672
 6025TIP3    H118020   2.761   2.197   4.714
 6025TIP3    H218021   2.613   2.181   4.740
 6026TIP3   OH218022   7.683   2.636   5.660
 6026TIP3    H118023   7.616   2.569   5.674
 6026TIP3    H218024   7.634   2.716   5.644
 6027TIP3   OH218025   8.051   1.790   3.733
 6027TIP3    H118026   8.012   1.857   3.788
 6027TIP3    H218027   8.094   1.730   3.795
 6028TIP3   OH218028   7.210   5.191   1.131
 6028TIP3    H118029   7.298   5.178   1.097
 6028TIP3    H218030   7.203   5.285   1.146
 6029TIP3   OH218031   8.108   3.778   2.222
 6029TIP3    H118032   8.095   3.782   2.317
 6029TIP3    H218033   8.087   3.688   2.199
 6030TIP3   OH218034   5.479   5.270   0.145
 6030TIP3    H118035   5.508   5.184   0.174
 6030TIP3    H218036   5.531   5.331   0.198
 6031TIP3   OH218037   6.483   2.485   5.350
 6031TIP3    H118038   6.425   2.421   5.392
 6031TIP3    H218039   6.514   2.541   5.421
 6032TIP3   OH218040   8.050   4.924   2.836
 6032TIP3    H118041   8.034   4.945   2.928
 6032TIP3    H218042   7.970   4.950   2.790
 6033TIP3   OH218043   5.025   5.643   2.886
 6033TIP3    H118044   4.973   5.565   2.864
 6033TIP3    H218045   4.987   5.674   2.968
 6034TIP3   OH218046   5.245   3.281   2.498
 6034TIP3    H118047   5.325   3.270   2.446
 6034TIP3    H218048   5.194   3.346   2.448
 6035TIP3   OH218049   5.462   1.555   5.837
 6035TIP3    H118050   5.390   1.618   5.835
 6035TIP3    H218051   5.541   1.607   5.824
 6036TIP3   OH218052   4.206   0.196   1.869
 6036TIP3    H118053   4.156   0.259   1.920
 6036TIP3    H218054   4.208   0.117   1.923
 6037TIP3   OH218055   6.312   0.053   4.055
 6037TIP3    H118056   6.245  -0.010   4.027
 6037TIP3    H218057   6.368   0.064   3.978
 6038TIP3   OH218058   7.431   6.725   5.297
 6038TIP3    H118059   7.518   6.764   5.291
 6038TIP3    H218060   7.375   6.781   5.243
 6039TIP3   OH218061   7.179   3.523   5.580
 6039TIP3    H118062   7.192   3.550   5.671
 6039TIP3    H218063   7.108   3.579   5.547
 6040TIP3   OH218064   5.368   7.473   1.164
 6040TIP3    H118065   5.313   7.407   1.122
 6040TIP3    H218066   5.320   7.498   1.243
 6041TIP3   OH218067   5.262   4.548   2.655
 6041TIP3    H118068   5.176   4.589   2.667
 6041TIP3    H218069   5.276   4.497   2.735
 6042TIP3   OH218070   7.790   2.233   1.723
 6042TIP3    H118071   7.771   2.260   1.813
 6042TIP3    H218072   7.861   2.292   1.695
 6043TIP3   OH218073   5.536   4.893   2.756
 6043TIP3    H118074   5.605   4.943   2.711
 6043TIP3    H218075   5.584   4.828   2.807
 6044TIP3   OH218076   3.172   3.422   5.208
 6044TIP3    H118077   3.158   3.368   5.286
 6044TIP3    H218078   3.191   3.509   5.242
 6045TIP3   OH218079   2.688   4.936   4.682
 6045TIP3    H118080   2.740   4.921   4.603
 6045TIP3    H218081   2.686   4.850   4.725
 6046TIP3   OH218082   2.665   5.242   0.855
 6046TIP3    H118083   2.652   5.332   0.825
 6046TIP3    H218084   2.731   5.207   0.796
 6047TIP3   OH218085   6.049   3.049   2.421
 6047TIP3    H118086   6.095   2.980   2.470
 6047TIP3    H218087   6.066   3.129   2.470
 6048TIP3   OH218088   3.316   2.374   5.337
 6048TIP3    H118089   3.278   2.287   5.338
 6048TIP3    H218090   3.406   2.360   5.305
 6049TIP3   OH218091   6.205   5.088   0.631
 6049TIP3    H118092   6.279   5.066   0.574
 6049TIP3    H218093   6.179   5.005   0.671
 6050TIP3   OH218094   1.234   3.710   0.315
 6050TIP3    H118095   1.223   3.785   0.256
 6050TIP3    H218096   1.191   3.738   0.396
 6051TIP3   OH218097   7.032   2.603   1.214
 6051TIP3    H118098   6.958   2.650   1.175
 6051TIP3    H218099   7.106   2.625   1.158
 6052TIP3   OH218100   5.201   0.352   5.345
 6052TIP3    H118101   5.195   0.442   5.314
 6052TIP3    H218102   5.255   0.358   5.424
 6053TIP3   OH218103   0.149   3.697   3.817
 6053TIP3    H118104   0.199   3.773   3.786
 6053TIP3    H218105   0.089   3.677   3.745
 6054TIP3   OH218106   5.170   6.726   0.443
 6054TIP3    H118107   5.101   6.747   0.505
 6054TIP3    H218108   5.207   6.644   0.475
 6055TIP3   OH218109   4.293   1.531   1.048
 6055TIP3    H118110   4.227   1.549   1.115
 6055TIP3    H218111   4.348   1.609   1.046
 6056TIP3   OH218112   4.179   4.382   4.000
 6056TIP3    H118113   4.223   4.409   4.080
 6056TIP3    H218114   4.243   4.395   3.930
 6057TIP3   OH218115   0.919   2.997   3.085
 6057TIP3    H118116   0.941   3.064   3.151
 6057TIP3    H218117   1.002   2.980   3.040
 6058TIP3   OH218118   1.467   2.114   5.804
 6058TIP3    H118119   1.532   2.102   5.873
 6058TIP3    H218120   1.383   2.094   5.846
 6059TIP3   OH218121   6.698   6.085   2.773
 6059TIP3    H118122   6.770   6.058   2.830
 6059TIP3    H218123   6.620   6.047   2.813
 6060TIP3   OH218124   4.823   6.411   2.438
 6060TIP3    H118125   4.798   6.447   2.524
 6060TIP3    H218126   4.827   6.488   2.381
 6061TIP3   OH218127   3.185   3.520   1.258
 6061TIP3    H118128   3.241   3.494   1.184
 6061TIP3    H218129   3.182   3.442   1.313
 6062TIP3   OH218130   0.911   1.421   0.334
 6062TIP3    H118131   0.818   1.441   0.325
 6062TIP3    H218132   0.913   1.332   0.369
 6063TIP3   OH218133   7.449   7.566   5.526
 6063TIP3    H118134   7.451   7.579   5.431
 6063TIP3    H218135   7.541   7.551   5.549
 6064TIP3   OH218136   3.137   4.527   1.171
 6064TIP3    H118137   3.096   4.461   1.114
 6064TIP3    H218138   3.161   4.598   1.112
 6065TIP3   OH218139   4.080   7.760   5.949
 6065TIP3    H118140   4.042   7.702   5.883
 6065TIP3    H218141   4.155   7.800   5.905
 6066TIP3   OH218142   4.805   2.282   0.936
 6066TIP3    H118143   4.858   2.352   0.897
 6066TIP3    H218144   4.811   2.210   0.874
 6067TIP3   OH218145   6.612   3.169   4.778
 6067TIP3    H118146   6.553   3.186   4.852
 6067TIP3    H218147   6.671   3.244   4.778
 6068TIP3   OH218148   7.686   2.786   4.313
 6068TIP3    H118149   7.704   2.731   4.390
 6068TIP3    H218150   7.639   2.727   4.253
 6069TIP3   OH218151   7.405   1.121   5.565
 6069TIP3    H118152   7.461   1.064   5.513
 6069TIP3    H218153   7.465   1.167   5.624
 6070TIP3   OH218154   0.130   6.560   6.575
 6070TIP3    H118155   0.207   6.601   6.615
 6070TIP3    H218156   0.123   6.475   6.619
 6071TIP3   OH218157   4.908   6.935   4.150
 6071TIP3    H118158   4.911   6.901   4.240
 6071TIP3    H218159   4.815   6.932   4.126
 6072TIP3   OH218160   7.646   3.915   3.267
 6072TIP3    H118161   7.557   3.944   3.250
 6072TIP3    H218162   7.670   3.957   3.350
 6073TIP3   OH218163   2.667   7.361   0.627
 6073TIP3    H118164   2.681   7.290   0.690
 6073TIP3    H218165   2.572   7.365   0.615
 6074TIP3   OH218166   5.313   2.461   3.316
 6074TIP3    H118167   5.397   2.457   3.271
 6074TIP3    H218168   5.313   2.545   3.362
 6075TIP3   OH218169   5.744   2.569   1.283
 6075TIP3    H118170   5.753   2.474   1.295
 6075TIP3    H218171   5.726   2.579   1.190
 6076TIP3   OH218172   5.535   4.011   6.687
 6076TIP3    H118173   5.588   4.054   6.754
 6076TIP3    H218174   5.582   4.026   6.605
 6077TIP3   OH218175   0.482   5.985   3.809
 6077TIP3    H118176   0.535   5.944   3.740
 6077TIP3    H218177   0.471   5.916   3.875
 6078TIP3   OH218178   5.687   3.637   6.708
 6078TIP3    H118179   5.778   3.650   6.734
 6078TIP3    H218180   5.639   3.704   6.758
 6079TIP3   OH218181   3.343   5.245   5.370
 6079TIP3    H118182   3.265   5.277   5.416
 6079TIP3    H218183   3.377   5.176   5.427
 6080TIP3   OH218184   3.224   7.151   5.217
 6080TIP3    H118185   3.218   7.224   5.278
 6080TIP3    H218186   3.156   7.090   5.244
 6081TIP3   OH218187   7.446   3.140   6.777
 6081TIP3    H118188   7.416   3.058   6.738
 6081TIP3    H218189   7.370   3.197   6.775
 6082TIP3   OH218190   1.992   3.486   4.851
 6082TIP3    H118191   2.080   3.451   4.866
 6082TIP3    H218192   1.934   3.420   4.891
 6083TIP3   OH218193   3.107   0.413   3.137
 6083TIP3    H118194   3.122   0.479   3.204
 6083TIP3    H218195   3.146   0.333   3.172
 6084TIP3   OH218196   2.679   6.442   0.226
 6084TIP3    H118197   2.596   6.451   0.274
 6084TIP3    H218198   2.681   6.350   0.199
 6085TIP3   OH218199   7.093   5.049   3.614
 6085TIP3    H118200   7.135   5.124   3.656
 6085TIP3    H218201   7.047   5.003   3.684
 6086TIP3   OH218202   0.709   4.979   1.994
 6086TIP3    H118203   0.636   4.923   1.966
 6086TIP3    H218204   0.676   5.024   2.072
 6087TIP3   OH218205   1.567   4.506   1.003
 6087TIP3    H118206   1.637   4.508   1.068
 6087TIP3    H218207   1.613   4.492   0.920
 6088TIP3   OH218208   0.904   4.799   2.180
 6088TIP3    H118209   0.867   4.836   2.260
 6088TIP3    H218210   0.857   4.717   2.167
 6089TIP3   OH218211   0.751   5.463   5.609
 6089TIP3    H118212   0.716   5.500   5.690
 6089TIP3    H218213   0.761   5.370   5.627
 6090TIP3   OH218214   2.249   2.695   5.394
 6090TIP3    H118215   2.269   2.769   5.338
 6090TIP3    H218216   2.203   2.633   5.338
 6091TIP3   OH218217   4.793   3.671   4.631
 6091TIP3    H118218   4.812   3.583   4.663
 6091TIP3    H218219   4.772   3.658   4.538
 6092TIP3   OH218220   2.619   2.744   2.607
 6092TIP3    H118221   2.617   2.763   2.513
 6092TIP3    H218222   2.553   2.804   2.644
 6093TIP3   OH218223   1.400   4.433   0.225
 6093TIP3    H118224   1.336   4.426   0.296
 6093TIP3    H218225   1.379   4.516   0.182
 6094TIP3   OH218226   0.744   6.807   6.491
 6094TIP3    H118227   0.820   6.826   6.545
 6094TIP3    H218228   0.748   6.871   6.420
 6095TIP3   OH218229   6.390   1.231   5.856
 6095TIP3    H118230   6.375   1.322   5.881
 6095TIP3    H218231   6.461   1.235   5.792
 6096TIP3   OH218232   5.037   2.381   5.625
 6096TIP3    H118233   5.035   2.286   5.640
 6096TIP3    H218234   5.004   2.392   5.536
 6097TIP3   OH218235   8.012   5.348   6.460
 6097TIP3    H118236   8.067   5.384   6.529
 6097TIP3    H218237   8.023   5.408   6.386
 6098TIP3   OH218238   1.192   5.965   2.106
 6098TIP3    H118239   1.127   6.035   2.098
 6098TIP3    H218240   1.176   5.929   2.194
 6099TIP3   OH218241   6.501   1.031   4.702
 6099TIP3    H118242   6.534   1.022   4.792
 6099TIP3    H218243   6.515   1.123   4.681
 6100TIP3   OH218244   0.443   5.906   0.925
 6100TIP3    H118245   0.391   5.925   0.847
 6100TIP3    H218246   0.507   5.977   0.930
 6101TIP3   OH218247   0.419   6.685   3.781
 6101TIP3    H118248   0.451   6.615   3.724
 6101TIP3    H218249   0.428   6.651   3.870
 6102TIP3   OH218250   6.560   6.954   3.650
 6102TIP3    H118251   6.565   6.861   3.670
 6102TIP3    H218252   6.642   6.974   3.606
 6103TIP3   OH218253   7.596   1.631   6.186
 6103TIP3    H118254   7.577   1.724   6.171
 6103TIP3    H218255   7.672   1.614   6.131
 6104TIP3   OH218256   3.434   7.756   3.567
 6104TIP3    H118257   3.506   7.735   3.506
 6104TIP3    H218258   3.375   7.812   3.515
 6105TIP3   OH218259   7.553   5.571   1.060
 6105TIP3    H118260   7.648   5.579   1.068
 6105TIP3    H218261   7.529   5.509   1.129
 6106TIP3   OH218262   0.585   6.600   2.791
 6106TIP3    H118263   0.560   6.507   2.797
 6106TIP3    H218264   0.673   6.604   2.828
 6107TIP3   OH218265   5.015   6.623   2.643
 6107TIP3    H118266   4.924   6.611   2.667
 6107TIP3    H218267   5.016   6.705   2.594
 6108TIP3   OH218268   1.084   0.382   2.203
 6108TIP3    H118269   1.160   0.387   2.145
 6108TIP3    H218270   1.009   0.400   2.145
 6109TIP3   OH218271   4.566   2.125   5.569
 6109TIP3    H118272   4.648   2.094   5.608
 6109TIP3    H218273   4.591   2.206   5.523
 6110TIP3   OH218274   4.916   2.901   4.363
 6110TIP3    H118275   4.916   2.878   4.455
 6110TIP3    H218276   4.883   2.823   4.318
 6111TIP3   OH218277   8.139   2.833   0.770
 6111TIP3    H118278   8.187   2.916   0.764
 6111TIP3    H218279   8.047   2.859   0.770
 6112TIP3   OH218280   1.320   5.916   0.109
 6112TIP3    H118281   1.308   5.968   0.030
 6112TIP3    H218282   1.396   5.954   0.152
 6113TIP3   OH218283   7.013   6.216   6.794
 6113TIP3    H118284   7.078   6.208   6.724
 6113TIP3    H218285   7.040   6.293   6.843
 6114TIP3   OH218286   3.250   5.703   4.313
 6114TIP3    H118287   3.242   5.617   4.354
 6114TIP3    H218288   3.163   5.741   4.318
 6115TIP3   OH218289   6.736   2.374   4.999
 6115TIP3    H118290   6.825   2.346   5.022
 6115TIP3    H218291   6.679   2.312   5.043
 6116TIP3   OH218292   6.294   4.769   3.082
 6116TIP3    H118293   6.357   4.696   3.079
 6116TIP3    H218294   6.242   4.753   3.160
 6117TIP3   OH218295   6.853   2.549   5.686
 6117TIP3    H118296   6.891   2.602   5.756
 6117TIP3    H218297   6.929   2.516   5.637
 6118TIP3   OH218298   5.749   3.409   3.638
 6118TIP3    H118299   5.756   3.327   3.688
 6118TIP3    H218300   5.715   3.472   3.702
 6119TIP3   OH218301   3.579   1.873   0.224
 6119TIP3    H118302   3.550   1.940   0.287
 6119TIP3    H218303   3.545   1.903   0.140
 6120TIP3   OH218304   7.135   4.615   0.352
 6120TIP3    H118305   7.199   4.552   0.385
 6120TIP3    H218306   7.146   4.692   0.408
 6121TIP3   OH218307   0.540   2.001   5.640
 6121TIP3    H118308   0.476   2.072   5.643
 6121TIP3    H218309   0.506   1.941   5.574
 6122TIP3   OH218310   0.914   2.215   3.872
 6122TIP3    H118311   0.950   2.127   3.870
 6122TIP3    H218312   0.925   2.243   3.963
 6123TIP3   OH218313   0.086   1.992   3.864
 6123TIP3    H118314   0.054   1.914   3.819
 6123TIP3    H218315   0.055   1.984   3.954
 6124TIP3   OH218316   6.415   7.059   4.561
 6124TIP3    H118317   6.348   7.111   4.517
 6124TIP3    H218318   6.367   6.988   4.602
 6125TIP3   OH218319   2.984   6.688   5.203
 6125TIP3    H118320   2.965   6.596   5.219
 6125TIP3    H218321   3.050   6.710   5.269
 6126TIP3   OH218322   1.068   0.329   0.494
 6126TIP3    H118323   1.051   0.247   0.541
 6126TIP3    H218324   1.033   0.397   0.551
 6127TIP3   OH218325   2.525   5.233   3.147
 6127TIP3    H118326   2.575   5.197   3.220
 6127TIP3    H218327   2.445   5.180   3.145
 6128TIP3   OH218328   5.464   3.658   2.579
 6128TIP3    H118329   5.373   3.667   2.605
 6128TIP3    H218330   5.471   3.708   2.498
 6129TIP3   OH218331   8.189   4.935   0.881
 6129TIP3    H118332   8.267   4.937   0.827
 6129TIP3    H218333   8.117   4.924   0.819
 6130TIP3   OH218334   4.181   3.409   1.225
 6130TIP3    H118335   4.261   3.460   1.209
 6130TIP3    H218336   4.110   3.465   1.192
 6131TIP3   OH218337   1.147   0.362   3.167
 6131TIP3    H118338   1.175   0.368   3.075
 6131TIP3    H218339   1.067   0.310   3.164
 6132TIP3   OH218340   7.978   0.645   3.893
 6132TIP3    H118341   7.925   0.714   3.852
 6132TIP3    H218342   7.944   0.564   3.855
 6133TIP3   OH218343   5.465   0.425   6.684
 6133TIP3    H118344   5.463   0.521   6.682
 6133TIP3    H218345   5.383   0.401   6.727
 6134TIP3   OH218346   2.629   2.902   0.724
 6134TIP3    H118347   2.658   2.925   0.812
 6134TIP3    H218348   2.700   2.933   0.666
 6135TIP3   OH218349   0.402   6.184   4.604
 6135TIP3    H118350   0.474   6.224   4.555
 6135TIP3    H218351   0.344   6.149   4.536
 6136TIP3   OH218352   6.726   3.801   4.278
 6136TIP3    H118353   6.657   3.773   4.217
 6136TIP3    H218354   6.699   3.766   4.363
 6137TIP3   OH218355   5.333   2.575   1.042
 6137TIP3    H118356   5.402   2.559   0.978
 6137TIP3    H218357   5.324   2.491   1.089
 6138TIP3   OH218358   1.337   5.227   6.432
 6138TIP3    H118359   1.371   5.258   6.348
 6138TIP3    H218360   1.386   5.147   6.450
 6139TIP3   OH218361   5.557   2.987   6.425
 6139TIP3    H118362   5.631   2.950   6.376
 6139TIP3    H218363   5.538   3.070   6.380
 6140TIP3   OH218364   0.407   3.081   3.183
 6140TIP3    H118365   0.375   3.079   3.093
 6140TIP3    H218366   0.348   3.141   3.228
 6141TIP3   OH218367   3.932   4.771   2.699
 6141TIP3    H118368   3.841   4.802   2.706
 6141TIP3    H218369   3.975   4.836   2.645
 6142TIP3   OH218370   6.810   1.734   3.134
 6142TIP3    H118371   6.880   1.738   3.068
 6142TIP3    H218372   6.836   1.661   3.191
 6143TIP3   OH218373   1.420   0.879   6.339
 6143TIP3    H118374   1.356   0.817   6.305
 6143TIP3    H218375   1.436   0.939   6.266
 6144TIP3   OH218376   5.740   6.771   1.008
 6144TIP3    H118377   5.712   6.852   0.966
 6144TIP3    H218378   5.706   6.702   0.952
 6145TIP3   OH218379   4.390   0.451   2.243
 6145TIP3    H118380   4.394   0.535   2.289
 6145TIP3    H218381   4.472   0.407   2.266
 6146TIP3   OH218382   5.846   3.012   2.203
 6146TIP3    H118383   5.796   2.989   2.126
 6146TIP3    H218384   5.845   2.933   2.257
 6147TIP3   OH218385   2.894   2.917   6.049
 6147TIP3    H118386   2.984   2.909   6.019
 6147TIP3    H218387   2.889   3.004   6.087
 6148TIP3   OH218388   5.363   1.422   0.297
 6148TIP3    H118389   5.321   1.508   0.292
 6148TIP3    H218390   5.329   1.375   0.221
 6149TIP3   OH218391   4.104   3.144   1.702
 6149TIP3    H118392   4.126   3.213   1.638
 6149TIP3    H218393   4.067   3.073   1.649
 6150TIP3   OH218394   1.766   2.561   5.852
 6150TIP3    H118395   1.724   2.527   5.931
 6150TIP3    H218396   1.825   2.630   5.885
 6151TIP3   OH218397   7.422   7.157   0.645
 6151TIP3    H118398   7.393   7.231   0.699
 6151TIP3    H218399   7.451   7.091   0.709
 6152TIP3   OH218400   8.140   4.160   2.458
 6152TIP3    H118401   8.133   4.250   2.490
 6152TIP3    H218402   8.083   4.110   2.516
 6153TIP3   OH218403   4.698   5.901   2.943
 6153TIP3    H118404   4.723   5.809   2.953
 6153TIP3    H218405   4.761   5.949   2.996
 6154TIP3   OH218406   2.955   3.528   0.090
 6154TIP3    H118407   2.933   3.613   0.128
 6154TIP3    H218408   2.873   3.498   0.050
 6155TIP3   OH218409   1.740   5.555   4.927
 6155TIP3    H118410   1.650   5.562   4.961
 6155TIP3    H218411   1.780   5.485   4.978
 6156TIP3   OH218412   0.201   4.873   4.323
 6156TIP3    H118413   0.247   4.927   4.387
 6156TIP3    H218414   0.137   4.824   4.375
 6157TIP3   OH218415   5.615   1.800   5.823
 6157TIP3    H118416   5.639   1.855   5.897
 6157TIP3    H218417   5.590   1.862   5.754
 6158TIP3   OH218418   0.845   6.489   2.419
 6158TIP3    H118419   0.852   6.475   2.324
 6158TIP3    H218420   0.783   6.561   2.428
 6159TIP3   OH218421   1.186   7.748   2.792
 6159TIP3    H118422   1.225   7.710   2.713
 6159TIP3    H218423   1.137   7.676   2.831
 6160TIP3   OH218424   4.833   6.620   1.123
 6160TIP3    H118425   4.773   6.572   1.066
 6160TIP3    H218426   4.838   6.568   1.203
 6161TIP3   OH218427   1.189   2.645   3.383
 6161TIP3    H118428   1.104   2.631   3.341
 6161TIP3    H218429   1.210   2.560   3.422
 6162TIP3   OH218430   4.604   7.325   4.756
 6162TIP3    H118431   4.587   7.414   4.725
 6162TIP3    H218432   4.685   7.300   4.712
 6163TIP3   OH218433   3.785   1.391   1.395
 6163TIP3    H118434   3.733   1.431   1.326
 6163TIP3    H218435   3.809   1.464   1.452
 6164TIP3   OH218436   6.711   7.203   0.985
 6164TIP3    H118437   6.637   7.192   1.045
 6164TIP3    H218438   6.682   7.271   0.924
 6165TIP3   OH218439   4.748   2.816   1.162
 6165TIP3    H118440   4.664   2.784   1.127
 6165TIP3    H218441   4.795   2.846   1.084
 6166TIP3   OH218442   1.004   2.346   5.341
 6166TIP3    H118443   0.987   2.252   5.334
 6166TIP3    H218444   0.941   2.377   5.406
 6167TIP3   OH218445   2.857   6.297   0.607
 6167TIP3    H118446   2.948   6.309   0.578
 6167TIP3    H218447   2.842   6.203   0.602
 6168TIP3   OH218448   1.293   1.592   5.546
 6168TIP3    H118449   1.368   1.651   5.541
 6168TIP3    H218450   1.221   1.647   5.577
 6169TIP3   OH218451   5.193   0.206   1.632
 6169TIP3    H118452   5.128   0.205   1.561
 6169TIP3    H218453   5.256   0.138   1.608
 6170TIP3   OH218454   0.927   2.084   5.365
 6170TIP3    H118455   0.928   2.002   5.316
 6170TIP3    H218456   0.885   2.061   5.448
 6171TIP3   OH218457   0.938   6.940   0.844
 6171TIP3    H118458   1.012   6.882   0.859
 6171TIP3    H218459   0.973   7.010   0.789
 6172TIP3   OH218460   3.878   3.192   3.013
 6172TIP3    H118461   3.959   3.199   2.961
 6172TIP3    H218462   3.880   3.104   3.048
 6173TIP3   OH218463   5.995   7.380   4.565
 6173TIP3    H118464   5.960   7.348   4.482
 6173TIP3    H218465   5.944   7.334   4.632
 6174TIP3   OH218466   3.955   5.480   1.827
 6174TIP3    H118467   3.922   5.497   1.739
 6174TIP3    H218468   4.049   5.497   1.821
 6175TIP3   OH218469   6.970   4.111   4.063
 6175TIP3    H118470   7.054   4.071   4.040
 6175TIP3    H218471   6.910   4.037   4.073
 6176TIP3   OH218472   2.022   1.639   2.062
 6176TIP3    H118473   1.978   1.555   2.044
 6176TIP3    H218474   1.954   1.692   2.105
 6177TIP3   OH218475   3.064   1.098   1.671
 6177TIP3    H118476   3.146   1.120   1.626
 6177TIP3    H218477   3.044   1.175   1.724
 6178TIP3   OH218478   7.936   6.927   1.409
 6178TIP3    H118479   7.911   6.965   1.325
 6178TIP3    H218480   7.853   6.900   1.449
 6179TIP3   OH218481   2.220   1.034   5.278
 6179TIP3    H118482   2.165   0.967   5.317
 6179TIP3    H218483   2.279   0.986   5.219
 6180TIP3   OH218484   2.263   0.635   1.864
 6180TIP3    H118485   2.323   0.560   1.861
 6180TIP3    H218486   2.272   0.670   1.952
 6181TIP3   OH218487   6.827   5.925   1.728
 6181TIP3    H118488   6.831   6.016   1.698
 6181TIP3    H218489   6.917   5.893   1.720
 6182TIP3   OH218490   2.053   4.606   6.599
 6182TIP3    H118491   2.003   4.686   6.585
 6182TIP3    H218492   2.123   4.608   6.534
 6183TIP3   OH218493   7.002   0.960   3.427
 6183TIP3    H118494   6.961   0.886   3.472
 6183TIP3    H218495   6.960   0.961   3.341
 6184TIP3   OH218496   6.300   5.904   2.255
 6184TIP3    H118497   6.325   5.865   2.339
 6184TIP3    H218498   6.381   5.945   2.222
 6185TIP3   OH218499   4.069   6.363   6.527
 6185TIP3    H118500   4.044   6.304   6.457
 6185TIP3    H218501   4.119   6.432   6.483
 6186TIP3   OH218502   4.585   7.259   0.660
 6186TIP3    H118503   4.512   7.311   0.625
 6186TIP3    H218504   4.650   7.258   0.590
 6187TIP3   OH218505   5.579   4.361   0.833
 6187TIP3    H118506   5.569   4.443   0.881
 6187TIP3    H218507   5.505   4.360   0.771
 6188TIP3   OH218508   4.569   5.402   4.096
 6188TIP3    H118509   4.593   5.441   4.012
 6188TIP3    H218510   4.522   5.322   4.073
 6189TIP3   OH218511   1.548   3.715   1.275
 6189TIP3    H118512   1.483   3.770   1.231
 6189TIP3    H218513   1.613   3.695   1.208
 6190TIP3   OH218514   3.940   0.463   1.798
 6190TIP3    H118515   3.913   0.429   1.712
 6190TIP3    H218516   3.998   0.536   1.777
 6191TIP3   OH218517   1.110   0.078   3.603
 6191TIP3    H118518   1.172   0.146   3.631
 6191TIP3    H218519   1.038   0.126   3.562
 6192TIP3   OH218520   4.820   0.016   5.030
 6192TIP3    H118521   4.798   0.052   5.116
 6192TIP3    H218522   4.750   0.047   4.972
 6193TIP3   OH218523   5.093   1.552   5.219
 6193TIP3    H118524   5.012   1.503   5.234
 6193TIP3    H218525   5.157   1.485   5.197
 6194TIP3   OH218526   6.293   6.577   1.946
 6194TIP3    H118527   6.369   6.559   1.891
 6194TIP3    H218528   6.322   6.644   2.008
 6195TIP3   OH218529   7.170   7.036   0.103
 6195TIP3    H118530   7.166   7.118   0.153
 6195TIP3    H218531   7.147   7.060   0.014
 6196TIP3   OH218532   2.692   3.645   3.989
 6196TIP3    H118533   2.609   3.638   4.035
 6196TIP3    H218534   2.753   3.680   4.055
 6197TIP3   OH218535   8.154   7.544   2.115
 6197TIP3    H118536   8.115   7.593   2.043
 6197TIP3    H218537   8.190   7.465   2.074
 6198TIP3   OH218538   4.551   5.323   3.346
 6198TIP3    H118539   4.487   5.379   3.301
 6198TIP3    H218540   4.591   5.380   3.411
 6199TIP3   OH218541   8.042   0.777   5.697
 6199TIP3    H118542   8.119   0.833   5.704
 6199TIP3    H218543   8.076   0.688   5.703
 6200TIP3   OH218544   6.949   4.594   2.854
 6200TIP3    H118545   6.921   4.508   2.887
 6200TIP3    H218546   7.013   4.625   2.919
 6201TIP3   OH218547   1.238   2.986   6.597
 6201TIP3    H118548   1.163   3.046   6.590
 6201TIP3    H218549   1.303   3.023   6.537
 6202TIP3   OH218550   3.687   4.867   2.720
 6202TIP3    H118551   3.632   4.943   2.701
 6202TIP3    H218552   3.624   4.799   2.745
 6203TIP3   OH218553   2.513   3.620   3.677
 6203TIP3    H118554   2.474   3.565   3.609
 6203TIP3    H218555   2.482   3.582   3.759
 6204TIP3   OH218556   6.617   2.842   2.075
 6204TIP3    H118557   6.699   2.890   2.088
 6204TIP3    H218558   6.549   2.903   2.105
 6205TIP3   OH218559   0.479   6.635   4.941
 6205TIP3    H118560   0.386   6.622   4.922
 6205TIP3    H218561   0.520   6.552   4.916
 6206TIP3   OH218562   3.242   7.800   5.271
 6206TIP3    H118563   3.281   7.812   5.185
 6206TIP3    H218564   3.315   7.770   5.327
 6207TIP3   OH218565   6.910   3.385   4.576
 6207TIP3    H118566   6.876   3.323   4.511
 6207TIP3    H218567   6.905   3.470   4.532
 6208TIP3   OH218568   2.349   7.782   1.508
 6208TIP3    H118569   2.380   7.864   1.468
 6208TIP3    H218570   2.291   7.744   1.442
 6209TIP3   OH218571   4.436   3.424   6.226
 6209TIP3    H118572   4.526   3.391   6.234
 6209TIP3    H218573   4.390   3.386   6.301
 6210TIP3   OH218574   0.270   6.696   3.487
 6210TIP3    H118575   0.355   6.739   3.479
 6210TIP3    H218576   0.207   6.768   3.483
 6211TIP3   OH218577   6.204   6.632   3.206
 6211TIP3    H118578   6.138   6.577   3.249
 6211TIP3    H218579   6.246   6.680   3.277
 6212TIP3   OH218580   2.356   0.803   4.265
 6212TIP3    H118581   2.350   0.707   4.264
 6212TIP3    H218582   2.398   0.823   4.349
 6213TIP3   OH218583   2.929   0.401   3.519
 6213TIP3    H118584   2.911   0.376   3.609
 6213TIP3    H218585   2.983   0.480   3.527
 6214TIP3   OH218586   1.031   0.728   3.087
 6214TIP3    H118587   1.012   0.682   3.168
 6214TIP3    H218588   0.982   0.810   3.094
 6215TIP3   OH218589   0.401   4.749   3.371
 6215TIP3    H118590   0.330   4.802   3.334
 6215TIP3    H218591   0.473   4.811   3.384
 6216TIP3   OH218592   2.543   2.246   6.427
 6216TIP3    H118593   2.594   2.167   6.408
 6216TIP3    H218594   2.589   2.316   6.381
 6217TIP3   OH218595   4.190   1.253   1.716
 6217TIP3    H118596   4.229   1.284   1.798
 6217TIP3    H218597   4.223   1.314   1.650
 6218TIP3   OH218598   5.914   7.398   0.987
 6218TIP3    H118599   6.004   7.426   0.968
 6218TIP3    H218600   5.859   7.471   0.959
 6219TIP3   OH218601   6.240   2.334   5.290
 6219TIP3    H118602   6.245   2.301   5.379
 6219TIP3    H218603   6.164   2.393   5.290
 6220TIP3   OH218604   0.714   0.468   3.848
 6220TIP3    H118605   0.809   0.464   3.862
 6220TIP3    H218606   0.677   0.476   3.936
 6221TIP3   OH218607   1.480   2.546   5.191
 6221TIP3    H118608   1.562   2.593   5.208
 6221TIP3    H218609   1.487   2.518   5.100
 6222TIP3   OH218610   5.391   3.432   3.244
 6222TIP3    H118611   5.400   3.404   3.335
 6222TIP3    H218612   5.462   3.388   3.198
 6223TIP3   OH218613   7.303   4.377   4.096
 6223TIP3    H118614   7.277   4.400   4.007
 6223TIP3    H218615   7.314   4.461   4.141
 6224TIP3   OH218616   6.914   3.960   2.067
 6224TIP3    H118617   6.916   4.021   1.994
 6224TIP3    H218618   6.831   3.979   2.111
 6225TIP3   OH218619   7.445   6.774   0.333
 6225TIP3    H118620   7.511   6.726   0.384
 6225TIP3    H218621   7.371   6.714   0.328
 6226TIP3   OH218622   0.566   1.698   2.024
 6226TIP3    H118623   0.482   1.652   2.021
 6226TIP3    H218624   0.594   1.690   2.115
 6227TIP3   OH218625   7.430   4.002   3.130
 6227TIP3    H118626   7.406   3.909   3.136
 6227TIP3    H218627   7.423   4.022   3.037
 6228TIP3   OH218628   0.560   5.004   0.463
 6228TIP3    H118629   0.614   4.947   0.409
 6228TIP3    H218630   0.529   5.072   0.403
 6229TIP3   OH218631   1.511   7.150   4.288
 6229TIP3    H118632   1.433   7.114   4.246
 6229TIP3    H218633   1.501   7.130   4.381
 6230TIP3   OH218634   7.868   0.641   3.113
 6230TIP3    H118635   7.944   0.585   3.127
 6230TIP3    H218636   7.849   0.634   3.020
 6231TIP3   OH218637   4.073   7.008   0.370
 6231TIP3    H118638   4.053   6.949   0.297
 6231TIP3    H218639   4.165   7.033   0.355
 6232TIP3   OH218640   7.439   3.009   2.313
 6232TIP3    H118641   7.390   3.090   2.325
 6232TIP3    H218642   7.506   3.011   2.382
 6233TIP3   OH218643   5.298   6.738   0.783
 6233TIP3    H118644   5.335   6.785   0.708
 6233TIP3    H218645   5.309   6.798   0.857
 6234TIP3   OH218646   1.711   4.457   0.757
 6234TIP3    H118647   1.740   4.400   0.686
 6234TIP3    H218648   1.775   4.528   0.760
 6235TIP3   OH218649   3.953   3.704   1.105
 6235TIP3    H118650   3.966   3.792   1.069
 6235TIP3    H218651   3.887   3.716   1.174
 6236TIP3   OH218652   7.070   2.036   3.105
 6236TIP3    H118653   7.119   2.094   3.047
 6236TIP3    H218654   6.992   2.013   3.055
 6237TIP3   OH218655   3.061   2.482   1.237
 6237TIP3    H118656   3.087   2.568   1.269
 6237TIP3    H218657   2.967   2.490   1.221
 6238TIP3   OH218658   3.978   3.191   3.893
 6238TIP3    H118659   3.938   3.276   3.912
 6238TIP3    H218660   3.936   3.163   3.812
 6239TIP3   OH218661   3.045   4.533   3.023
 6239TIP3    H118662   3.139   4.541   3.004
 6239TIP3    H218663   3.006   4.613   2.986
 6240TIP3   OH218664   5.377   3.459   5.743
 6240TIP3    H118665   5.338   3.505   5.818
 6240TIP3    H218666   5.340   3.504   5.667
 6241TIP3   OH218667   6.922   3.674   2.038
 6241TIP3    H118668   6.896   3.617   2.110
 6241TIP3    H218669   6.913   3.763   2.073
 6242TIP3   OH218670   7.340   1.811   4.216
 6242TIP3    H118671   7.313   1.781   4.303
 6242TIP3    H218672   7.434   1.826   4.224
 6243TIP3   OH218673   3.939   2.185   5.171
 6243TIP3    H118674   3.907   2.275   5.180
 6243TIP3    H218675   3.903   2.156   5.087
 6244TIP3   OH218676   0.780   3.480   3.525
 6244TIP3    H118677   0.781   3.463   3.431
 6244TIP3    H218678   0.688   3.474   3.549
 6245TIP3   OH218679   6.836   2.312   0.909
 6245TIP3    H118680   6.781   2.236   0.890
 6245TIP3    H218681   6.858   2.348   0.823
 6246TIP3   OH218682   5.756   7.691   1.381
 6246TIP3    H118683   5.750   7.602   1.348
 6246TIP3    H218684   5.847   7.701   1.408
 6247TIP3   OH218685   3.203   3.094   0.280
 6247TIP3    H118686   3.241   3.007   0.278
 6247TIP3    H218687   3.216   3.129   0.192
 6248TIP3   OH218688   2.754   2.913   1.549
 6248TIP3    H118689   2.755   2.862   1.468
 6248TIP3    H218690   2.694   2.865   1.607
 6249TIP3   OH218691   6.767   2.908   3.746
 6249TIP3    H118692   6.808   2.880   3.828
 6249TIP3    H218693   6.689   2.853   3.738
 6250TIP3   OH218694   4.522   0.574   0.351
 6250TIP3    H118695   4.559   0.499   0.398
 6250TIP3    H218696   4.493   0.634   0.420
 6251TIP3   OH218697   2.560   2.668   0.623
 6251TIP3    H118698   2.648   2.638   0.645
 6251TIP3    H218699   2.556   2.758   0.657
 6252TIP3   OH218700   3.237   1.417   2.545
 6252TIP3    H118701   3.331   1.404   2.557
 6252TIP3    H218702   3.229   1.509   2.518
 6253TIP3   OH218703   1.775   3.096   4.052
 6253TIP3    H118704   1.780   3.046   3.970
 6253TIP3    H218705   1.697   3.062   4.095
 6254TIP3   OH218706   0.981   6.201   1.650
 6254TIP3    H118707   0.911   6.266   1.657
 6254TIP3    H218708   1.059   6.245   1.684
 6255TIP3   OH218709   2.693   5.111   1.593
 6255TIP3    H118710   2.759   5.080   1.654
 6255TIP3    H218711   2.621   5.048   1.600
 6256TIP3   OH218712   6.879   1.870   2.283
 6256TIP3    H118713   6.944   1.921   2.236
 6256TIP3    H218714   6.862   1.920   2.362
 6257TIP3   OH218715   1.932   0.917   5.368
 6257TIP3    H118716   1.940   0.966   5.450
 6257TIP3    H218717   1.989   0.841   5.380
 6258TIP3   OH218718   5.427   1.205   3.635
 6258TIP3    H118719   5.359   1.236   3.696
 6258TIP3    H218720   5.505   1.195   3.689
 6259TIP3   OH218721   5.487   2.283   2.326
 6259TIP3    H118722   5.466   2.310   2.237
 6259TIP3    H218723   5.561   2.223   2.316
 6260TIP3   OH218724   7.631   3.173   3.921
 6260TIP3    H118725   7.697   3.179   3.989
 6260TIP3    H218726   7.633   3.258   3.877
 6261TIP3   OH218727   5.151   2.644   4.364
 6261TIP3    H118728   5.211   2.607   4.298
 6261TIP3    H218729   5.064   2.627   4.329
 6262TIP3   OH218730   8.037   3.016   1.401
 6262TIP3    H118731   8.077   3.081   1.459
 6262TIP3    H218732   7.953   3.055   1.378
 6263TIP3   OH218733   0.725   7.062   3.673
 6263TIP3    H118734   0.735   6.992   3.608
 6263TIP3    H218735   0.651   7.114   3.642
 6264TIP3   OH218736   1.921   4.617   0.869
 6264TIP3    H118737   1.963   4.609   0.955
 6264TIP3    H218738   1.994   4.615   0.806
 6265TIP3   OH218739   2.201   3.276   5.128
 6265TIP3    H118740   2.113   3.291   5.160
 6265TIP3    H218741   2.218   3.184   5.147
 6266TIP3   OH218742   5.011   4.669   3.776
 6266TIP3    H118743   5.066   4.728   3.828
 6266TIP3    H218744   5.029   4.693   3.685
 6267TIP3   OH218745   3.287   2.929   0.875
 6267TIP3    H118746   3.373   2.892   0.893
 6267TIP3    H218747   3.279   3.003   0.935
 6268TIP3   OH218748   3.832   2.641   2.812
 6268TIP3    H118749   3.795   2.625   2.899
 6268TIP3    H218750   3.913   2.690   2.829
 6269TIP3   OH218751   0.576   7.768   4.921
 6269TIP3    H118752   0.622   7.723   4.850
 6269TIP3    H218753   0.493   7.721   4.930
 6270TIP3   OH218754   2.491   7.529   3.405
 6270TIP3    H118755   2.447   7.469   3.466
 6270TIP3    H218756   2.582   7.500   3.405
 6271TIP3   OH218757   7.277   3.377   4.491
 6271TIP3    H118758   7.324   3.460   4.492
 6271TIP3    H218759   7.321   3.326   4.423
 6272TIP3   OH218760   2.335   7.753   1.770
 6272TIP3    H118761   2.332   7.779   1.678
 6272TIP3    H218762   2.371   7.829   1.816
 6273TIP3   OH218763   1.515   5.222   0.911
 6273TIP3    H118764   1.458   5.278   0.964
 6273TIP3    H218765   1.604   5.245   0.940
 6274TIP3   OH218766   2.283   5.755   2.763
 6274TIP3    H118767   2.298   5.666   2.733
 6274TIP3    H218768   2.312   5.756   2.854
 6275TIP3   OH218769   0.661   1.803   0.030
 6275TIP3    H118770   0.620   1.889   0.037
 6275TIP3    H218771   0.675   1.775   0.120
 6276TIP3   OH218772   2.245   7.575   2.837
 6276TIP3    H118773   2.199   7.591   2.755
 6276TIP3    H218774   2.332   7.544   2.810
 6277TIP3   OH218775   8.177   2.546   2.509
 6277TIP3    H118776   8.229   2.490   2.451
 6277TIP3    H218777   8.086   2.520   2.491
 6278TIP3   OH218778   3.401   2.848   3.184
 6278TIP3    H118779   3.316   2.820   3.218
 6278TIP3    H218780   3.458   2.772   3.196
 6279TIP3   OH218781   7.232   7.158   5.026
 6279TIP3    H118782   7.240   7.182   4.934
 6279TIP3    H218783   7.158   7.209   5.058
 6280TIP3   OH218784   1.416   7.746   6.341
 6280TIP3    H118785   1.365   7.672   6.308
 6280TIP3    H218786   1.497   7.744   6.290
 6281TIP3   OH218787   1.413   3.589   6.013
 6281TIP3    H118788   1.501   3.559   5.992
 6281TIP3    H218789   1.360   3.509   6.012
 6282TIP3   OH218790   4.323   1.813   6.137
 6282TIP3    H118791   4.301   1.721   6.125
 6282TIP3    H218792   4.360   1.841   6.054
 6283TIP3   OH218793   0.891   1.633   3.935
 6283TIP3    H118794   0.853   1.679   4.010
 6283TIP3    H218795   0.845   1.549   3.934
 6284TIP3   OH218796   5.307   1.458   2.245
 6284TIP3    H118797   5.307   1.551   2.266
 6284TIP3    H218798   5.379   1.421   2.296
 6285TIP3   OH218799   0.299   6.094   3.652
 6285TIP3    H118800   0.349   6.059   3.726
 6285TIP3    H218801   0.361   6.096   3.579
 6286TIP3   OH218802   0.919   3.131   0.566
 6286TIP3    H118803   0.965   3.079   0.632
 6286TIP3    H218804   0.962   3.108   0.483
 6287TIP3   OH218805   6.633   6.570   4.470
 6287TIP3    H118806   6.680   6.488   4.458
 6287TIP3    H218807   6.659   6.624   4.395
 6288TIP3   OH218808   1.644   0.942   2.500
 6288TIP3    H118809   1.550   0.934   2.488
 6288TIP3    H218810   1.655   0.984   2.586
 6289TIP3   OH218811   4.000   2.156   3.843
 6289TIP3    H118812   3.925   2.131   3.789
 6289TIP3    H218813   3.962   2.185   3.925
 6290TIP3   OH218814   2.772   6.171   2.832
 6290TIP3    H118815   2.823   6.117   2.893
 6290TIP3    H218816   2.685   6.132   2.832
 6291TIP3   OH218817   5.182   4.965   1.458
 6291TIP3    H118818   5.130   4.995   1.384
 6291TIP3    H218819   5.132   4.892   1.495
 6292TIP3   OH218820   7.294   2.432   1.774
 6292TIP3    H118821   7.309   2.405   1.864
 6292TIP3    H218822   7.379   2.423   1.732
 6293TIP3   OH218823   3.279   3.112   2.064
 6293TIP3    H118824   3.225   3.117   2.142
 6293TIP3    H218825   3.358   3.066   2.092
 6294TIP3   OH218826   1.430   6.505   5.472
 6294TIP3    H118827   1.442   6.561   5.396
 6294TIP3    H218828   1.405   6.565   5.543
 6295TIP3   OH218829   6.202   1.012   5.884
 6295TIP3    H118830   6.183   0.989   5.793
 6295TIP3    H218831   6.268   1.081   5.878
 6296TIP3   OH218832   6.220   3.271   1.454
 6296TIP3    H118833   6.312   3.296   1.454
 6296TIP3    H218834   6.215   3.195   1.513
 6297TIP3   OH218835   4.023   5.934   6.170
 6297TIP3    H118836   3.938   5.954   6.130
 6297TIP3    H218837   4.008   5.853   6.220
 6298TIP3   OH218838   5.709   7.057   1.793
 6298TIP3    H118839   5.653   7.109   1.850
 6298TIP3    H218840   5.786   7.112   1.777
 6299TIP3   OH218841   0.580   4.707   5.724
 6299TIP3    H118842   0.609   4.616   5.734
 6299TIP3    H218843   0.560   4.717   5.631
 6300TIP3   OH218844   2.189   5.651   1.983
 6300TIP3    H118845   2.282   5.666   1.996
 6300TIP3    H218846   2.152   5.737   1.967
 6301TIP3   OH218847   0.926   3.847   1.859
 6301TIP3    H118848   0.982   3.920   1.834
 6301TIP3    H218849   0.890   3.815   1.776
 6302TIP3   OH218850   5.792   2.872   3.050
 6302TIP3    H118851   5.821   2.781   3.046
 6302TIP3    H218852   5.804   2.898   3.141
 6303TIP3   OH218853   4.901   2.369   3.084
 6303TIP3    H118854   4.928   2.281   3.107
 6303TIP3    H218855   4.983   2.418   3.075
 6304TIP3   OH218856   6.864   0.545   6.440
 6304TIP3    H118857   6.943   0.493   6.453
 6304TIP3    H218858   6.824   0.550   6.527
 6305TIP3   OH218859   5.263   2.380   3.719
 6305TIP3    H118860   5.259   2.327   3.639
 6305TIP3    H218861   5.301   2.463   3.690
 6306TIP3   OH218862   0.686   0.844   2.043
 6306TIP3    H118863   0.774   0.850   2.079
 6306TIP3    H218864   0.636   0.797   2.109
 6307TIP3   OH218865   5.916   4.704   5.500
 6307TIP3    H118866   6.006   4.735   5.505
 6307TIP3    H218867   5.914   4.628   5.559
 6308TIP3   OH218868   0.537   5.482   1.470
 6308TIP3    H118869   0.479   5.558   1.457
 6308TIP3    H218870   0.605   5.492   1.404
 6309TIP3   OH218871   6.527   4.331   3.183
 6309TIP3    H118872   6.525   4.352   3.277
 6309TIP3    H218873   6.487   4.245   3.177
 6310TIP3   OH218874   1.530   2.004   3.385
 6310TIP3    H118875   1.512   1.979   3.476
 6310TIP3    H218876   1.465   2.072   3.366
 6311TIP3   OH218877   6.804   6.521   2.158
 6311TIP3    H118878   6.865   6.459   2.118
 6311TIP3    H218879   6.720   6.476   2.157
 6312TIP3   OH218880   6.108   4.429   4.764
 6312TIP3    H118881   6.027   4.438   4.815
 6312TIP3    H218882   6.129   4.336   4.769
 6313TIP3   OH218883   0.986   3.320   5.500
 6313TIP3    H118884   0.937   3.248   5.460
 6313TIP3    H218885   1.008   3.288   5.588
 6314TIP3   OH218886   0.152   5.539   1.292
 6314TIP3    H118887   0.103   5.615   1.260
 6314TIP3    H218888   0.171   5.489   1.213
 6315TIP3   OH218889   6.698   6.041   3.074
 6315TIP3    H118890   6.753   6.035   3.153
 6315TIP3    H218891   6.614   6.074   3.106
 6316TIP3   OH218892   0.673   6.268   4.658
 6316TIP3    H118893   0.720   6.213   4.595
 6316TIP3    H218894   0.665   6.353   4.615
 6317TIP3   OH218895   1.661   1.032   5.847
 6317TIP3    H118896   1.623   0.979   5.916
 6317TIP3    H218897   1.663   0.975   5.770
 6318TIP3   OH218898   5.435   6.983   6.645
 6318TIP3    H118899   5.407   7.006   6.733
 6318TIP3    H218900   5.525   7.016   6.638
 6319TIP3   OH218901   6.233   2.151   3.968
 6319TIP3    H118902   6.294   2.172   4.039
 6319TIP3    H218903   6.162   2.104   4.010
 6320TIP3   OH218904   5.328   5.489   5.009
 6320TIP3    H118905   5.392   5.493   4.938
 6320TIP3    H218906   5.327   5.397   5.036
 6321TIP3   OH218907   0.086   4.092   1.079
 6321TIP3    H118908  -0.002   4.109   1.048
 6321TIP3    H218909   0.117   4.177   1.110
 6322TIP3   OH218910   4.523   2.124  -0.022
 6322TIP3    H118911   4.572   2.168   0.048
 6322TIP3    H218912   4.454   2.076   0.023
 6323TIP3   OH218913   6.911   7.474   2.660
 6323TIP3    H118914   6.923   7.514   2.574
 6323TIP3    H218915   6.939   7.541   2.722
 6324TIP3   OH218916   7.796   7.436   4.277
 6324TIP3    H118917   7.802   7.342   4.258
 6324TIP3    H218918   7.759   7.440   4.365
 6325TIP3   OH218919   2.541   5.174   2.208
 6325TIP3    H118920   2.608   5.135   2.152
 6325TIP3    H218921   2.510   5.101   2.262
 6326TIP3   OH218922   4.795   0.119   1.208
 6326TIP3    H118923   4.739   0.049   1.242
 6326TIP3    H218924   4.739   0.197   1.208
 6327TIP3   OH218925   7.510   7.750   3.376
 6327TIP3    H118926   7.548   7.837   3.369
 6327TIP3    H218927   7.558   7.697   3.312
 6328TIP3   OH218928   4.750   5.116   2.565
 6328TIP3    H118929   4.793   5.170   2.632
 6328TIP3    H218930   4.774   5.027   2.587
 6329TIP3   OH218931   0.318   1.449   1.748
 6329TIP3    H118932   0.269   1.394   1.687
 6329TIP3    H218933   0.355   1.518   1.693
 6330TIP3   OH218934   0.094   1.256   4.084
 6330TIP3    H118935   0.138   1.246   4.169
 6330TIP3    H218936   0.002   1.272   4.106
 6331TIP3   OH218937   0.846   6.899   3.479
 6331TIP3    H118938   0.808   6.813   3.497
 6331TIP3    H218939   0.810   6.924   3.394
 6332TIP3   OH218940   6.079   1.167   0.264
 6332TIP3    H118941   6.083   1.244   0.320
 6332TIP3    H218942   6.077   1.093   0.324
 6333TIP3   OH218943   0.894   5.187   1.832
 6333TIP3    H118944   0.925   5.127   1.900
 6333TIP3    H218945   0.799   5.190   1.844
 6334TIP3   OH218946   2.717   3.779   0.330
 6334TIP3    H118947   2.784   3.742   0.389
 6334TIP3    H218948   2.703   3.868   0.363
 6335TIP3   OH218949   5.150   7.116   6.571
 6335TIP3    H118950   5.225   7.059   6.589
 6335TIP3    H218951   5.107   7.076   6.496
 6336TIP3   OH218952   7.400   7.757   4.290
 6336TIP3    H118953   7.434   7.707   4.216
 6336TIP3    H218954   7.477   7.780   4.341
 6337TIP3   OH218955   2.598   0.601   2.599
 6337TIP3    H118956   2.544   0.572   2.526
 6337TIP3    H218957   2.608   0.695   2.586
 6338TIP3   OH218958   5.358   0.178   6.275
 6338TIP3    H118959   5.413   0.248   6.312
 6338TIP3    H218960   5.295   0.158   6.344
 6339TIP3   OH218961   0.265   0.673   6.347
 6339TIP3    H118962   0.264   0.675   6.443
 6339TIP3    H218963   0.232   0.760   6.322
 6340TIP3   OH218964   2.855   2.983   0.551
 6340TIP3    H118965   2.903   2.903   0.530
 6340TIP3    H218966   2.909   3.054   0.514
 6341TIP3   OH218967   6.166   6.869   5.848
 6341TIP3    H118968   6.165   6.818   5.929
 6341TIP3    H218969   6.237   6.932   5.860
 6342TIP3   OH218970   7.899   6.383   2.064
 6342TIP3    H118971   7.951   6.324   2.010
 6342TIP3    H218972   7.811   6.378   2.027
 6343TIP3   OH218973   3.921   4.823   6.008
 6343TIP3    H118974   3.965   4.820   5.923
 6343TIP3    H218975   3.877   4.738   6.014
 6344TIP3   OH218976   0.636   1.565   4.171
 6344TIP3    H118977   0.593   1.540   4.090
 6344TIP3    H218978   0.680   1.485   4.201
 6345TIP3   OH218979   5.070   2.796   3.584
 6345TIP3    H118980   4.996   2.750   3.544
 6345TIP3    H218981   5.068   2.769   3.676
 6346TIP3   OH218982   0.981   1.279   5.539
 6346TIP3    H118983   1.013   1.304   5.626
 6346TIP3    H218984   1.059   1.283   5.483
 6347TIP3   OH218985   1.124   5.596   2.197
 6347TIP3    H118986   1.070   5.650   2.255
 6347TIP3    H218987   1.161   5.658   2.134
 6348TIP3   OH218988   2.292   0.487   1.319
 6348TIP3    H118989   2.352   0.521   1.252
 6348TIP3    H218990   2.294   0.553   1.388
 6349TIP3   OH218991   7.093   2.113   2.393
 6349TIP3    H118992   7.152   2.188   2.393
 6349TIP3    H218993   7.029   2.132   2.325
 6350TIP3   OH218994   4.380   6.978   2.454
 6350TIP3    H118995   4.284   6.981   2.455
 6350TIP3    H218996   4.405   6.980   2.546
 6351TIP3   OH218997   5.556   3.801   1.030
 6351TIP3    H118998   5.520   3.840   0.950
 6351TIP3    H218999   5.488   3.816   1.096
 6352TIP3   OH219000   3.467   2.316   6.551
 6352TIP3    H119001   3.378   2.339   6.525
 6352TIP3    H219002   3.515   2.308   6.468
 6353TIP3   OH219003   6.348   3.296   3.854
 6353TIP3    H119004   6.410   3.366   3.875
 6353TIP3    H219005   6.312   3.269   3.939
 6354TIP3   OH219006   4.905   6.152   0.268
 6354TIP3    H119007   4.994   6.121   0.285
 6354TIP3    H219008   4.916   6.240   0.233
 6355TIP3   OH219009   1.736   7.337   1.429
 6355TIP3    H119010   1.775   7.378   1.506
 6355TIP3    H219011   1.777   7.251   1.423
 6356TIP3   OH219012   6.165   6.247   4.878
 6356TIP3    H119013   6.181   6.176   4.940
 6356TIP3    H219014   6.231   6.313   4.901
 6357TIP3   OH219015   2.484   2.132   4.834
 6357TIP3    H119016   2.504   2.038   4.832
 6357TIP3    H219017   2.504   2.158   4.924
 6358TIP3   OH219018   1.095   5.514   5.460
 6358TIP3    H119019   1.017   5.569   5.458
 6358TIP3    H219020   1.164   5.572   5.492
 6359TIP3   OH219021   4.369   6.457   3.487
 6359TIP3    H119022   4.338   6.545   3.469
 6359TIP3    H219023   4.346   6.442   3.579
 6360TIP3   OH219024   1.706   3.598   5.223
 6360TIP3    H119025   1.781   3.657   5.235
 6360TIP3    H219026   1.658   3.636   5.150
 6361TIP3   OH219027   5.525   1.140   4.336
 6361TIP3    H119028   5.613   1.117   4.364
 6361TIP3    H219029   5.511   1.228   4.371
 6362TIP3   OH219030   0.890   7.148   5.466
 6362TIP3    H119031   0.927   7.063   5.442
 6362TIP3    H219032   0.798   7.130   5.487
 6363TIP3   OH219033   6.131   7.741   4.242
 6363TIP3    H119034   6.058   7.718   4.300
 6363TIP3    H219035   6.162   7.658   4.208
 6364TIP3   OH219036   6.066   5.577   3.024
 6364TIP3    H119037   6.012   5.564   3.102
 6364TIP3    H219038   6.112   5.495   3.012
 6365TIP3   OH219039   0.983   2.940   2.005
 6365TIP3    H119040   1.025   3.025   1.994
 6365TIP3    H219041   0.890   2.959   1.997
 6366TIP3   OH219042   7.166   3.712   0.810
 6366TIP3    H119043   7.198   3.720   0.900
 6366TIP3    H219044   7.225   3.649   0.769
 6367TIP3   OH219045   1.922   0.721   5.000
 6367TIP3    H119046   1.917   0.675   4.916
 6367TIP3    H219047   1.941   0.812   4.977
 6368TIP3   OH219048   0.266   0.914   5.655
 6368TIP3    H119049   0.294   0.824   5.638
 6368TIP3    H219050   0.245   0.916   5.748
 6369TIP3   OH219051   3.870   5.643   5.108
 6369TIP3    H119052   3.937   5.712   5.111
 6369TIP3    H219053   3.789   5.690   5.090
 6370TIP3   OH219054   2.706   7.413   4.404
 6370TIP3    H119055   2.667   7.362   4.475
 6370TIP3    H219056   2.709   7.353   4.330
 6371TIP3   OH219057   0.356   4.542   6.123
 6371TIP3    H119058   0.400   4.604   6.182
 6371TIP3    H219059   0.316   4.478   6.181
 6372TIP3   OH219060   4.574   2.068   3.058
 6372TIP3    H119061   4.612   2.029   3.136
 6372TIP3    H219062   4.481   2.047   3.063
 6373TIP3   OH219063   8.034   2.354   1.700
 6373TIP3    H119064   8.104   2.419   1.699
 6373TIP3    H219065   8.074   2.276   1.739
 6374TIP3   OH219066   3.571   1.896   3.589
 6374TIP3    H119067   3.560   1.803   3.568
 6374TIP3    H219068   3.634   1.898   3.661
 6375TIP3   OH219069   7.950   2.068   2.653
 6375TIP3    H119070   7.977   2.017   2.730
 6375TIP3    H219071   7.875   2.020   2.618
 6376TIP3   OH219072   5.733   2.457   4.856
 6376TIP3    H119073   5.646   2.473   4.892
 6376TIP3    H219074   5.726   2.371   4.814
 6377TIP3   OH219075   7.019   1.094   5.534
 6377TIP3    H119076   6.927   1.073   5.546
 6377TIP3    H219077   7.038   1.158   5.603
 6378TIP3   OH219078   1.341   1.946   6.636
 6378TIP3    H119079   1.246   1.947   6.622
 6378TIP3    H219080   1.357   2.020   6.695
 6379TIP3   OH219081   3.960   4.286   2.242
 6379TIP3    H119082   3.900   4.349   2.203
 6379TIP3    H219083   4.044   4.303   2.198
 6380TIP3   OH219084   0.737   5.385   1.689
 6380TIP3    H119085   0.693   5.469   1.691
 6380TIP3    H219086   0.807   5.392   1.754
 6381TIP3   OH219087   3.158   6.972   4.964
 6381TIP3    H119088   3.138   7.064   4.982
 6381TIP3    H219089   3.119   6.955   4.878
 6382TIP3   OH219090   4.802   0.915   5.369
 6382TIP3    H119091   4.794   1.009   5.385
 6382TIP3    H219092   4.735   0.897   5.302
 6383TIP3   OH219093   1.090   3.621   0.990
 6383TIP3    H119094   1.157   3.581   1.045
 6383TIP3    H219095   1.020   3.643   1.052
 6384TIP3   OH219096   2.448   5.763   2.060
 6384TIP3    H119097   2.543   5.763   2.048
 6384TIP3    H219098   2.432   5.827   2.128
 6385TIP3   OH219099   7.964   3.474   1.411
 6385TIP3    H119100   7.935   3.559   1.381
 6385TIP3    H219101   7.996   3.489   1.500
 6386TIP3   OH219102   7.549   4.585   2.808
 6386TIP3    H119103   7.575   4.541   2.727
 6386TIP3    H219104   7.470   4.634   2.785
 6387TIP3   OH219105   0.368   7.708   3.751
 6387TIP3    H119106   0.319   7.759   3.815
 6387TIP3    H219107   0.457   7.744   3.756
 6388TIP3   OH219108   6.035   0.136   3.786
 6388TIP3    H119109   6.034   0.230   3.769
 6388TIP3    H219110   6.031   0.129   3.881
 6389TIP3   OH219111   5.791   2.220   6.119
 6389TIP3    H119112   5.732   2.296   6.118
 6389TIP3    H219113   5.878   2.258   6.125
 6390TIP3   OH219114   3.143   6.443   4.193
 6390TIP3    H119115   3.082   6.503   4.151
 6390TIP3    H219116   3.219   6.497   4.215
 6391TIP3   OH219117   0.486   6.679   1.984
 6391TIP3    H119118   0.504   6.770   1.959
 6391TIP3    H219119   0.426   6.686   2.058
 6392TIP3   OH219120   6.203   4.396   0.358
 6392TIP3    H119121   6.294   4.401   0.385
 6392TIP3    H219122   6.177   4.487   0.343
 6393TIP3   OH219123   3.943   6.712   5.953
 6393TIP3    H119124   4.004   6.781   5.977
 6393TIP3    H219125   3.955   6.700   5.859
 6394TIP3   OH219126   1.866   6.494   0.775
 6394TIP3    H119127   1.771   6.477   0.775
 6394TIP3    H219128   1.901   6.430   0.836
 6395TIP3   OH219129   4.552   4.014   0.343
 6395TIP3    H119130   4.569   3.925   0.376
 6395TIP3    H219131   4.622   4.067   0.382
 6396TIP3   OH219132   1.998   4.956   1.652
 6396TIP3    H119133   1.906   4.954   1.625
 6396TIP3    H219134   2.045   4.909   1.583
 6397TIP3   OH219135   2.591   2.673   6.508
 6397TIP3    H119136   2.627   2.615   6.441
 6397TIP3    H219137   2.637   2.649   6.589
 6398TIP3   OH219138   2.275   5.109   5.475
 6398TIP3    H119139   2.317   5.136   5.394
 6398TIP3    H219140   2.204   5.173   5.489
 6399TIP3   OH219141   1.102   5.063   2.991
 6399TIP3    H119142   1.022   5.080   3.040
 6399TIP3    H219143   1.134   4.979   3.024
 6400TIP3   OH219144   2.086   3.951   3.732
 6400TIP3    H119145   2.007   4.005   3.736
 6400TIP3    H219146   2.148   4.003   3.680
 6401TIP3   OH219147   7.126   5.995   4.122
 6401TIP3    H119148   7.036   5.970   4.138
 6401TIP3    H219149   7.178   5.921   4.153
 6402TIP3   OH219150   2.978   1.400   3.373
 6402TIP3    H119151   3.014   1.333   3.315
 6402TIP3    H219152   3.046   1.468   3.376
 6403TIP3   OH219153   2.418   5.581   4.211
 6403TIP3    H119154   2.337   5.587   4.160
 6403TIP3    H219155   2.422   5.664   4.259
 6404TIP3   OH219156   7.376   7.735   1.133
 6404TIP3    H119157   7.373   7.671   1.204
 6404TIP3    H219158   7.389   7.819   1.178
 6405TIP3   OH219159   4.150   6.493   0.378
 6405TIP3    H119160   4.155   6.507   0.473
 6405TIP3    H219161   4.239   6.468   0.353
 6406TIP3   OH219162   0.024   4.873   3.947
 6406TIP3    H119163   0.056   4.788   3.917
 6406TIP3    H219164   0.093   4.906   4.004
 6407TIP3   OH219165   5.516   5.043   2.426
 6407TIP3    H119166   5.447   5.074   2.368
 6407TIP3    H219167   5.540   4.957   2.391
 6408TIP3   OH219168   4.426   1.135   5.098
 6408TIP3    H119169   4.350   1.191   5.110
 6408TIP3    H219170   4.498   1.181   5.143
 6409TIP3   OH219171   4.931   6.695   5.771
 6409TIP3    H119172   4.866   6.632   5.741
 6409TIP3    H219173   4.879   6.766   5.809
 6410TIP3   OH219174   4.063   5.099   3.105
 6410TIP3    H119175   4.020   5.037   3.165
 6410TIP3    H219176   4.139   5.130   3.154
 6411TIP3   OH219177   1.458   1.669   3.256
 6411TIP3    H119178   1.481   1.584   3.219
 6411TIP3    H219179   1.507   1.672   3.338
 6412TIP3   OH219180   0.606   4.694   1.936
 6412TIP3    H119181   0.531   4.661   1.887
 6412TIP3    H219182   0.676   4.631   1.918
 6413TIP3   OH219183   7.413  -0.001   0.474
 6413TIP3    H119184   7.343  -0.011   0.410
 6413TIP3    H219185   7.480   0.050   0.429
 6414TIP3   OH219186   6.109   4.528   5.734
 6414TIP3    H119187   6.187   4.556   5.685
 6414TIP3    H219188   6.143   4.470   5.802
 6415TIP3   OH219189   0.095   6.487   0.769
 6415TIP3    H119190   0.059   6.570   0.801
 6415TIP3    H219191   0.017   6.436   0.744
 6416TIP3   OH219192   0.889   7.491   0.179
 6416TIP3    H119193   0.818   7.472   0.240
 6416TIP3    H219194   0.910   7.583   0.195
 6417TIP3   OH219195   6.569   1.912   3.521
 6417TIP3    H119196   6.538   1.894   3.432
 6417TIP3    H219197   6.490   1.911   3.574
 6418TIP3   OH219198   2.697   4.738   2.994
 6418TIP3    H119199   2.695   4.642   2.993
 6418TIP3    H219200   2.668   4.763   2.906
 6419TIP3   OH219201   4.009   0.392   6.409
 6419TIP3    H119202   4.071   0.319   6.414
 6419TIP3    H219203   3.975   0.388   6.319
 6420TIP3   OH219204   2.283   1.828   2.878
 6420TIP3    H119205   2.318   1.750   2.834
 6420TIP3    H219206   2.193   1.835   2.846
 6421TIP3   OH219207   4.178   1.861   2.594
 6421TIP3    H119208   4.159   1.931   2.657
 6421TIP3    H219209   4.113   1.872   2.525
 6422TIP3   OH219210   3.900   0.561   4.211
 6422TIP3    H119211   3.853   0.570   4.294
 6422TIP3    H219212   3.988   0.593   4.230
 6423TIP3   OH219213   5.006   3.472   5.915
 6423TIP3    H119214   5.094   3.495   5.944
 6423TIP3    H219215   4.982   3.396   5.968
 6424TIP3   OH219216   8.194   0.994   0.220
 6424TIP3    H119217   8.148   1.058   0.274
 6424TIP3    H219218   8.282   1.030   0.208
 6425TIP3   OH219219   3.983   6.538   1.549
 6425TIP3    H119220   3.937   6.542   1.466
 6425TIP3    H219221   3.919   6.567   1.614
 6426TIP3   OH219222   7.640   2.731   1.181
 6426TIP3    H119223   7.706   2.717   1.113
 6426TIP3    H219224   7.671   2.677   1.255
 6427TIP3   OH219225   2.412   0.166   5.253
 6427TIP3    H119226   2.338   0.188   5.197
 6427TIP3    H219227   2.468   0.112   5.198
 6428TIP3   OH219228   2.908   5.246   1.815
 6428TIP3    H119229   2.941   5.282   1.733
 6428TIP3    H219230   2.949   5.159   1.821
 6429TIP3   OH219231   4.085   1.567   5.933
 6429TIP3    H119232   4.073   1.661   5.938
 6429TIP3    H219233   3.997   1.532   5.919
 6430TIP3   OH219234  -0.027   1.008   0.593
 6430TIP3    H119235  -0.017   0.918   0.562
 6430TIP3    H219236   0.044   1.057   0.551
 6431TIP3   OH219237   0.985   6.254   3.469
 6431TIP3    H119238   1.024   6.261   3.382
 6431TIP3    H219239   1.019   6.330   3.517
 6432TIP3   OH219240   8.168   4.640   2.360
 6432TIP3    H119241   8.105   4.573   2.388
 6432TIP3    H219242   8.200   4.679   2.441
 6433TIP3   OH219243   5.092   0.040   0.596
 6433TIP3    H119244   5.133   0.118   0.633
 6433TIP3    H219245   5.163  -0.007   0.552
 6434TIP3   OH219246   1.964   0.969   0.863
 6434TIP3    H119247   1.965   1.064   0.877
 6434TIP3    H219248   1.954   0.959   0.768
 6435TIP3   OH219249   0.369   2.252   5.662
 6435TIP3    H119250   0.388   2.313   5.590
 6435TIP3    H219251   0.277   2.230   5.652
 6436TIP3   OH219252   5.656   0.826   3.981
 6436TIP3    H119253   5.609   0.773   4.046
 6436TIP3    H219254   5.644   0.780   3.898
 6437TIP3   OH219255   0.783   3.584   5.559
 6437TIP3    H119256   0.780   3.499   5.516
 6437TIP3    H219257   0.705   3.630   5.529
 6438TIP3   OH219258   6.084   2.300   5.778
 6438TIP3    H119259   5.994   2.334   5.775
 6438TIP3    H219260   6.119   2.318   5.691
 6439TIP3   OH219261   0.583   1.361   1.212
 6439TIP3    H119262   0.631   1.278   1.213
 6439TIP3    H219263   0.532   1.360   1.293
 6440TIP3   OH219264   6.166   2.121   5.954
 6440TIP3    H119265   6.141   2.183   5.886
 6440TIP3    H219266   6.130   2.157   6.035
 6441TIP3   OH219267   0.061   6.739   2.574
 6441TIP3    H119268   0.081   6.826   2.607
 6441TIP3    H219269   0.037   6.753   2.482
 6442TIP3   OH219270   6.647   2.719   3.566
 6442TIP3    H119271   6.601   2.638   3.588
 6442TIP3    H219272   6.580   2.787   3.574
 6443TIP3   OH219273   4.450   3.836   5.195
 6443TIP3    H119274   4.384   3.900   5.223
 6443TIP3    H219275   4.525   3.889   5.169
 6444TIP3   OH219276   0.434   5.964   0.473
 6444TIP3    H119277   0.399   5.884   0.433
 6444TIP3    H219278   0.412   6.033   0.410
 6445TIP3   OH219279   1.641   2.059   1.022
 6445TIP3    H119280   1.568   1.998   1.029
 6445TIP3    H219281   1.607   2.141   1.057
 6446TIP3   OH219282   1.195   1.311   1.973
 6446TIP3    H119283   1.244   1.255   1.912
 6446TIP3    H219284   1.173   1.389   1.922
 6447TIP3   OH219285   0.728   6.924   5.245
 6447TIP3    H119286   0.651   6.882   5.283
 6447TIP3    H219287   0.800   6.900   5.304
 6448TIP3   OH219288   8.093   4.362   3.723
 6448TIP3    H119289   8.007   4.378   3.762
 6448TIP3    H219290   8.155   4.399   3.786
 6449TIP3   OH219291   7.636   6.730   2.133
 6449TIP3    H119292   7.626   6.817   2.173
 6449TIP3    H219293   7.723   6.731   2.094
 6450TIP3   OH219294   3.038   0.546   5.134
 6450TIP3    H119295   3.094   0.622   5.118
 6450TIP3    H219296   2.985   0.571   5.210
 6451TIP3   OH219297   7.167   1.899   2.207
 6451TIP3    H119298   7.143   1.984   2.242
 6451TIP3    H219299   7.234   1.918   2.141
 6452TIP3   OH219300   6.074   0.497   2.395
 6452TIP3    H119301   6.089   0.509   2.489
 6452TIP3    H219302   5.993   0.546   2.378
 6453TIP3   OH219303   1.965   2.100   0.927
 6453TIP3    H119304   1.927   2.015   0.947
 6453TIP3    H219305   1.890   2.159   0.919
 6454TIP3   OH219306   8.216   7.007   2.116
 6454TIP3    H119307   8.223   6.980   2.208
 6454TIP3    H219308   8.133   6.970   2.086
 6455TIP3   OH219309   2.574   6.666   6.566
 6455TIP3    H119310   2.583   6.590   6.509
 6455TIP3    H219311   2.594   6.741   6.509
 6456TIP3   OH219312   5.038   1.481   6.243
 6456TIP3    H119313   5.020   1.574   6.238
 6456TIP3    H219314   5.016   1.457   6.334
 6457TIP3   OH219315   6.325   6.116   5.119
 6457TIP3    H119316   6.410   6.160   5.118
 6457TIP3    H219317   6.329   6.056   5.193
 6458TIP3   OH219318   4.327   2.435   3.346
 6458TIP3    H119319   4.244   2.413   3.388
 6458TIP3    H219320   4.388   2.447   3.418
 6459TIP3   OH219321   2.890   3.575   1.341
 6459TIP3    H119322   2.978   3.549   1.313
 6459TIP3    H219323   2.877   3.530   1.425
 6460TIP3   OH219324   8.011   3.856   4.631
 6460TIP3    H119325   8.071   3.895   4.694
 6460TIP3    H219326   7.934   3.834   4.683
 6461TIP3   OH219327   4.658   0.704   6.716
 6461TIP3    H119328   4.641   0.618   6.756
 6461TIP3    H219329   4.592   0.761   6.755
 6462TIP3   OH219330   1.924   0.210   1.461
 6462TIP3    H119331   1.861   0.264   1.412
 6462TIP3    H219332   2.009   0.249   1.441
 6463TIP3   OH219333   4.559   5.321   6.647
 6463TIP3    H119334   4.504   5.397   6.632
 6463TIP3    H219335   4.615   5.346   6.721
 6464TIP3   OH219336   6.123   6.252   2.538
 6464TIP3    H119337   6.164   6.328   2.498
 6464TIP3    H219338   6.120   6.186   2.469
 6465TIP3   OH219339   0.527   6.365   4.406
 6465TIP3    H119340   0.541   6.397   4.317
 6465TIP3    H219341   0.453   6.416   4.439
 6466TIP3   OH219342   5.635   5.957   0.123
 6466TIP3    H119343   5.587   5.942   0.205
 6466TIP3    H219344   5.720   5.991   0.152
 6467TIP3   OH219345   5.470   2.691   2.155
 6467TIP3    H119346   5.413   2.768   2.161
 6467TIP3    H219347   5.424   2.631   2.096
 6468TIP3   OH219348   6.418   6.247   1.762
 6468TIP3    H119349   6.432   6.156   1.786
 6468TIP3    H219350   6.364   6.243   1.683
 6469TIP3   OH219351   8.126   6.725   1.516
 6469TIP3    H119352   8.059   6.668   1.553
 6469TIP3    H219353   8.077   6.798   1.478
 6470TIP3   OH219354   2.532   1.872   4.857
 6470TIP3    H119355   2.480   1.795   4.880
 6470TIP3    H219356   2.576   1.848   4.776
 6471TIP3   OH219357   2.056   2.999   4.527
 6471TIP3    H119358   2.035   2.967   4.615
 6471TIP3    H219359   2.049   2.922   4.471
 6472TIP3   OH219360   7.885   7.672   5.384
 6472TIP3    H119361   7.836   7.734   5.330
 6472TIP3    H219362   7.930   7.726   5.449
 6473TIP3   OH219363   7.502   5.177   1.133
 6473TIP3    H119364   7.563   5.121   1.182
 6473TIP3    H219365   7.503   5.260   1.181
 6474TIP3   OH219366   4.104   5.236   5.717
 6474TIP3    H119367   4.031   5.240   5.778
 6474TIP3    H219368   4.064   5.245   5.631
 6475TIP3   OH219369   6.626   5.356   1.607
 6475TIP3    H119370   6.594   5.377   1.520
 6475TIP3    H219371   6.607   5.435   1.659
 6476TIP3   OH219372   2.057   0.243   6.608
 6476TIP3    H119373   2.110   0.289   6.542
 6476TIP3    H219374   2.050   0.154   6.574
 6477TIP3   OH219375   0.123   5.305   3.813
 6477TIP3    H119376   0.164   5.245   3.750
 6477TIP3    H219377   0.197   5.352   3.852
 6478TIP3   OH219378   6.258   6.630   4.812
 6478TIP3    H119379   6.211   6.639   4.729
 6478TIP3    H219380   6.337   6.581   4.790
 6479TIP3   OH219381   1.366   2.558   0.077
 6479TIP3    H119382   1.454   2.520   0.068
 6479TIP3    H219383   1.374   2.618   0.151
 6480TIP3   OH219384   3.596   0.973   0.714
 6480TIP3    H119385   3.514   1.012   0.683
 6480TIP3    H219386   3.619   0.909   0.646
 6481TIP3   OH219387   3.333   3.372   2.033
 6481TIP3    H119388   3.246   3.412   2.043
 6481TIP3    H219389   3.316   3.278   2.030
 6482TIP3   OH219390   1.820   6.087   2.800
 6482TIP3    H119391   1.762   6.133   2.861
 6482TIP3    H219392   1.837   6.150   2.730
 6483TIP3   OH219393   0.850   3.694   1.111
 6483TIP3    H119394   0.848   3.788   1.090
 6483TIP3    H219395   0.778   3.682   1.173
 6484TIP3   OH219396   1.108   4.555   3.776
 6484TIP3    H119397   1.048   4.624   3.746
 6484TIP3    H219398   1.188   4.569   3.724
 6485TIP3   OH219399   6.196   4.359   3.972
 6485TIP3    H119400   6.245   4.402   4.042
 6485TIP3    H219401   6.120   4.322   4.016
 6486TIP3   OH219402   3.492   4.380   1.294
 6486TIP3    H119403   3.417   4.323   1.278
 6486TIP3    H219404   3.465   4.466   1.262
 6487TIP3   OH219405   5.605   3.046   0.483
 6487TIP3    H119406   5.625   2.960   0.446
 6487TIP3    H219407   5.654   3.049   0.565
 6488TIP3   OH219408   3.627   3.093   6.545
 6488TIP3    H119409   3.631   3.143   6.626
 6488TIP3    H219410   3.536   3.064   6.539
 6489TIP3   OH219411   7.247   5.105   1.756
 6489TIP3    H119412   7.301   5.037   1.717
 6489TIP3    H219413   7.157   5.075   1.741
 6490TIP3   OH219414   4.374   3.825   4.355
 6490TIP3    H119415   4.287   3.833   4.317
 6490TIP3    H219416   4.360   3.780   4.438
 6491TIP3   OH219417   3.150   3.368   5.491
 6491TIP3    H119418   3.116   3.399   5.575
 6491TIP3    H219419   3.240   3.343   5.510
 6492TIP3   OH219420   4.649   4.230   0.871
 6492TIP3    H119421   4.715   4.162   0.884
 6492TIP3    H219422   4.698   4.312   0.874
 6493TIP3   OH219423   1.357   3.040   0.755
 6493TIP3    H119424   1.406   3.076   0.829
 6493TIP3    H219425   1.315   2.961   0.790
 6494TIP3   OH219426   3.574   2.512   2.783
 6494TIP3    H119427   3.662   2.536   2.812
 6494TIP3    H219428   3.588   2.446   2.715
 6495TIP3   OH219429   8.223   2.101   3.583
 6495TIP3    H119430   8.131   2.079   3.596
 6495TIP3    H219431   8.228   2.195   3.603
 6496TIP3   OH219432   5.949   6.668   1.509
 6496TIP3    H119433   6.010   6.668   1.435
 6496TIP3    H219434   5.895   6.746   1.496
 6497TIP3   OH219435   2.573   4.762   1.586
 6497TIP3    H119436   2.536   4.756   1.498
 6497TIP3    H219437   2.668   4.764   1.573
 6498TIP3   OH219438   4.635   1.913   4.957
 6498TIP3    H119439   4.676   1.969   4.891
 6498TIP3    H219440   4.708   1.881   5.010
 6499TIP3   OH219441   0.516   1.867   3.922
 6499TIP3    H119442   0.552   1.794   3.872
 6499TIP3    H219443   0.592   1.917   3.950
 6500TIP3   OH219444   5.300   5.546   2.882
 6500TIP3    H119445   5.213   5.581   2.901
 6500TIP3    H219446   5.358   5.622   2.884
 6501TIP3   OH219447   3.005   7.395   4.649
 6501TIP3    H119448   2.982   7.403   4.557
 6501TIP3    H219449   2.980   7.305   4.672
 6502TIP3   OH219450   1.861   1.159   6.631
 6502TIP3    H119451   1.808   1.232   6.664
 6502TIP3    H219452   1.935   1.155   6.692
 6503TIP3   OH219453   1.773   0.349   6.637
 6503TIP3    H119454   1.868   0.354   6.639
 6503TIP3    H219455   1.747   0.411   6.569
 6504TIP3   OH219456   4.987   4.431   4.173
 6504TIP3    H119457   4.927   4.465   4.107
 6504TIP3    H219458   5.053   4.500   4.183
 6505TIP3   OH219459   4.527   4.662   0.242
 6505TIP3    H119460   4.442   4.686   0.203
 6505TIP3    H219461   4.516   4.571   0.269
 6506TIP3   OH219462   7.486   7.722   4.878
 6506TIP3    H119463   7.407   7.691   4.835
 6506TIP3    H219464   7.481   7.818   4.871
 6507TIP3   OH219465   1.829   5.646   6.721
 6507TIP3    H119466   1.786   5.729   6.701
 6507TIP3    H219467   1.910   5.671   6.765
 6508TIP3   OH219468   1.256   4.879   5.055
 6508TIP3    H119469   1.303   4.957   5.082
 6508TIP3    H219470   1.280   4.867   4.963
 6509TIP3   OH219471   5.497   1.543   6.614
 6509TIP3    H119472   5.408   1.580   6.619
 6509TIP3    H219473   5.528   1.568   6.527
 6510TIP3   OH219474   4.270   2.602   5.077
 6510TIP3    H119475   4.215   2.672   5.110
 6510TIP3    H219476   4.357   2.641   5.070
 6511TIP3   OH219477   4.356   1.279   2.963
 6511TIP3    H119478   4.291   1.337   2.925
 6511TIP3    H219479   4.438   1.328   2.958
 6512TIP3   OH219480   6.506   3.943   3.830
 6512TIP3    H119481   6.480   4.027   3.793
 6512TIP3    H219482   6.432   3.915   3.883
 6513TIP3   OH219483   6.233   4.497   1.386
 6513TIP3    H119484   6.219   4.404   1.407
 6513TIP3    H219485   6.239   4.540   1.471
 6514TIP3   OH219486   1.475   3.083   2.407
 6514TIP3    H119487   1.426   3.003   2.427
 6514TIP3    H219488   1.519   3.063   2.324
 6515TIP3   OH219489   7.750   0.873   1.079
 6515TIP3    H119490   7.815   0.934   1.114
 6515TIP3    H219491   7.689   0.860   1.151
 6516TIP3   OH219492   5.005   0.687   2.576
 6516TIP3    H119493   4.953   0.690   2.656
 6516TIP3    H219494   5.086   0.642   2.601
 6517TIP3   OH219495   6.862   7.227   3.980
 6517TIP3    H119496   6.881   7.136   3.958
 6517TIP3    H219497   6.883   7.234   4.073
 6518TIP3   OH219498   1.974   0.851   1.437
 6518TIP3    H119499   2.053   0.893   1.472
 6518TIP3    H219500   1.956   0.779   1.498
 6519TIP3   OH219501   6.212   6.694   6.063
 6519TIP3    H119502   6.132   6.672   6.111
 6519TIP3    H219503   6.282   6.659   6.118
 6520TIP3   OH219504   1.869   1.264   4.271
 6520TIP3    H119505   1.828   1.224   4.194
 6520TIP3    H219506   1.956   1.291   4.241
 6521TIP3   OH219507   7.192   1.275   1.223
 6521TIP3    H119508   7.204   1.351   1.280
 6521TIP3    H219509   7.145   1.309   1.148
 6522TIP3   OH219510   4.771   6.469   1.651
 6522TIP3    H119511   4.761   6.560   1.681
 6522TIP3    H219512   4.741   6.417   1.726
 6523TIP3   OH219513   4.075   4.156   1.829
 6523TIP3    H119514   4.091   4.190   1.917
 6523TIP3    H219515   4.124   4.215   1.771
 6524TIP3   OH219516   7.786   1.878   2.596
 6524TIP3    H119517   7.697   1.908   2.612
 6524TIP3    H219518   7.782   1.783   2.605
 6525TIP3   OH219519   6.215   3.559   4.445
 6525TIP3    H119520   6.295   3.512   4.468
 6525TIP3    H219521   6.157   3.546   4.520
 6526TIP3   OH219522   2.287   4.375   1.532
 6526TIP3    H119523   2.336   4.349   1.611
 6526TIP3    H219524   2.265   4.466   1.546
 6527TIP3   OH219525   0.079   1.693   3.512
 6527TIP3    H119526   0.076   1.682   3.607
 6527TIP3    H219527   0.163   1.654   3.486
 6528TIP3   OH219528   8.041   0.200   5.817
 6528TIP3    H119529   8.059   0.151   5.736
 6528TIP3    H219530   7.951   0.229   5.808
 6529TIP3   OH219531   4.560   0.955   1.460
 6529TIP3    H119532   4.491   0.953   1.527
 6529TIP3    H219533   4.612   1.033   1.482
 6530TIP3   OH219534   7.807   4.123   5.416
 6530TIP3    H119535   7.809   4.157   5.505
 6530TIP3    H219536   7.896   4.089   5.401
 6531TIP3   OH219537   0.449   5.800   5.861
 6531TIP3    H119538   0.478   5.763   5.944
 6531TIP3    H219539   0.456   5.894   5.873
 6532TIP3   OH219540   1.634   1.580   2.139
 6532TIP3    H119541   1.682   1.524   2.077
 6532TIP3    H219542   1.543   1.552   2.131
 6533TIP3   OH219543   5.929   5.474   4.549
 6533TIP3    H119544   5.875   5.553   4.555
 6533TIP3    H219545   5.996   5.495   4.485
 6534TIP3   OH219546   4.691   1.753   2.708
 6534TIP3    H119547   4.745   1.791   2.638
 6534TIP3    H219548   4.717   1.801   2.786
 6535TIP3   OH219549   7.370   2.904   1.814
 6535TIP3    H119550   7.456   2.929   1.780
 6535TIP3    H219551   7.356   2.962   1.889
 6536TIP3   OH219552   6.019   2.393   6.125
 6536TIP3    H119553   6.008   2.448   6.203
 6536TIP3    H219554   6.043   2.454   6.055
 6537TIP3   OH219555   4.678   1.091   0.769
 6537TIP3    H119556   4.734   1.014   0.758
 6537TIP3    H219557   4.594   1.054   0.799
 6538TIP3   OH219558   0.659   0.285   5.483
 6538TIP3    H119559   0.576   0.320   5.516
 6538TIP3    H219560   0.726   0.338   5.527
 6539TIP3   OH219561   1.948   2.853   3.219
 6539TIP3    H119562   1.900   2.832   3.139
 6539TIP3    H219563   1.917   2.789   3.283
 6540TIP3   OH219564   6.066   2.679   0.205
 6540TIP3    H119565   6.044   2.613   0.140
 6540TIP3    H219566   6.065   2.762   0.157
 6541TIP3   OH219567   3.894   1.453   6.407
 6541TIP3    H119568   3.846   1.417   6.481
 6541TIP3    H219569   3.948   1.380   6.376
 6542TIP3   OH219570   6.886   5.358   4.259
 6542TIP3    H119571   6.939   5.327   4.333
 6542TIP3    H219572   6.949   5.368   4.187
 6543TIP3   OH219573   7.202   0.883   6.644
 6543TIP3    H119574   7.160   0.896   6.559
 6543TIP3    H219575   7.135   0.909   6.707
 6544TIP3   OH219576   5.914   5.131   3.451
 6544TIP3    H119577   5.985   5.092   3.399
 6544TIP3    H219578   5.861   5.178   3.388
 6545TIP3   OH219579   5.795   7.363   0.612
 6545TIP3    H119580   5.800   7.271   0.586
 6545TIP3    H219581   5.882   7.383   0.647
 6546TIP3   OH219582   0.548   1.114   3.026
 6546TIP3    H119583   0.490   1.104   3.102
 6546TIP3    H219584   0.550   1.027   2.987
 6547TIP3   OH219585   2.400   1.593   4.600
 6547TIP3    H119586   2.383   1.643   4.520
 6547TIP3    H219587   2.386   1.502   4.576
 6548TIP3   OH219588   0.543   5.749   6.654
 6548TIP3    H119589   0.510   5.713   6.736
 6548TIP3    H219590   0.508   5.838   6.651
 6549TIP3   OH219591   4.831   5.976   6.461
 6549TIP3    H119592   4.814   5.923   6.383
 6549TIP3    H219593   4.876   6.054   6.429
 6550TIP3   OH219594   6.934   1.171   6.649
 6550TIP3    H119595   6.876   1.238   6.684
 6550TIP3    H219596   6.955   1.116   6.724
 6551TIP3   OH219597   3.097   7.554   5.227
 6551TIP3    H119598   3.133   7.545   5.138
 6551TIP3    H219599   3.127   7.640   5.256
 6552TIP3   OH219600   5.518   1.897   3.119
 6552TIP3    H119601   5.605   1.915   3.154
 6552TIP3    H219602   5.508   1.802   3.127
 6553TIP3   OH219603   2.945   1.479   0.921
 6553TIP3    H119604   2.887   1.554   0.910
 6553TIP3    H219605   3.029   1.509   0.884
 6554TIP3   OH219606   4.713   1.010   3.878
 6554TIP3    H119607   4.647   1.079   3.869
 6554TIP3    H219608   4.796   1.054   3.860
 6555TIP3   OH219609   3.885   0.712   5.403
 6555TIP3    H119610   3.923   0.717   5.315
 6555TIP3    H219611   3.800   0.754   5.395
 6556TIP3   OH219612   0.260   1.212   5.955
 6556TIP3    H119613   0.259   1.300   5.994
 6556TIP3    H219614   0.343   1.175   5.983
 6557TIP3   OH219615   4.339   7.677   0.960
 6557TIP3    H119616   4.400   7.705   0.891
 6557TIP3    H219617   4.393   7.672   1.039
 6558TIP3   OH219618   0.057   3.016   4.209
 6558TIP3    H119619   0.120   2.965   4.261
 6558TIP3    H219620  -0.014   2.954   4.190
 6559TIP3   OH219621   5.337   6.279   5.153
 6559TIP3    H119622   5.305   6.190   5.162
 6559TIP3    H219623   5.361   6.306   5.242
 6560TIP3   OH219624   1.754   7.000   0.712
 6560TIP3    H119625   1.814   7.074   0.710
 6560TIP3    H219626   1.757   6.964   0.623
 6561TIP3   OH219627   5.686   2.239   4.280
 6561TIP3    H119628   5.733   2.170   4.234
 6561TIP3    H219629   5.699   2.221   4.373
 6562TIP3   OH219630   4.721   6.487   3.743
 6562TIP3    H119631   4.693   6.427   3.812
 6562TIP3    H219632   4.723   6.573   3.786
 6563TIP3   OH219633   7.815   1.439   3.857
 6563TIP3    H119634   7.808   1.462   3.764
 6563TIP3    H219635   7.725   1.424   3.885
 6564TIP3   OH219636   4.335   7.297   3.612
 6564TIP3    H119637   4.335   7.275   3.705
 6564TIP3    H219638   4.416   7.258   3.578
 6565TIP3   OH219639   0.203   2.851   3.453
 6565TIP3    H119640   0.154   2.930   3.430
 6565TIP3    H219641   0.294   2.880   3.457
 6566TIP3   OH219642   6.117   2.510   1.571
 6566TIP3    H119643   6.211   2.506   1.589
 6566TIP3    H219644   6.090   2.419   1.559
 6567TIP3   OH219645   0.951   3.722   3.959
 6567TIP3    H119646   1.037   3.743   3.995
 6567TIP3    H219647   0.968   3.661   3.888
 6568TIP3   OH219648   6.255   0.883   2.699
 6568TIP3    H119649   6.191   0.894   2.628
 6568TIP3    H219650   6.333   0.929   2.669
 6569TIP3   OH219651   1.521   6.352   3.200
 6569TIP3    H119652   1.570   6.434   3.186
 6569TIP3    H219653   1.447   6.358   3.141
 6570TIP3   OH219654   5.009   2.015   0.498
 6570TIP3    H119655   5.063   1.969   0.562
 6570TIP3    H219656   4.926   2.031   0.544
 6571TIP3   OH219657   3.006   7.403   0.858
 6571TIP3    H119658   3.089   7.356   0.858
 6571TIP3    H219659   3.010   7.459   0.935
 6572TIP3   OH219660   3.438   2.655   0.433
 6572TIP3    H119661   3.529   2.633   0.415
 6572TIP3    H219662   3.441   2.743   0.470
 6573TIP3   OH219663   8.034   6.693   3.630
 6573TIP3    H119664   8.068   6.775   3.593
 6573TIP3    H219665   7.984   6.720   3.707
 6574TIP3   OH219666   3.460   7.384   1.513
 6574TIP3    H119667   3.475   7.290   1.515
 6574TIP3    H219668   3.490   7.415   1.599
 6575TIP3   OH219669   1.096   4.759   6.222
 6575TIP3    H119670   1.098   4.793   6.133
 6575TIP3    H219671   1.187   4.765   6.252
 6576TIP3   OH219672   2.497   4.516   4.624
 6576TIP3    H119673   2.516   4.488   4.534
 6576TIP3    H219674   2.428   4.457   4.653
 6577TIP3   OH219675   2.610   1.248   6.033
 6577TIP3    H119676   2.640   1.287   6.115
 6577TIP3    H219677   2.658   1.296   5.965
 6578TIP3   OH219678   3.298   5.066   3.366
 6578TIP3    H119679   3.268   4.991   3.316
 6578TIP3    H219680   3.391   5.073   3.346
 6579TIP3   OH219681   6.606   1.484   6.109
 6579TIP3    H119682   6.575   1.510   6.196
 6579TIP3    H219683   6.597   1.563   6.057
 6580TIP3   OH219684   6.148   0.661   0.330
 6580TIP3    H119685   6.058   0.644   0.303
 6580TIP3    H219686   6.193   0.578   0.320
 6581TIP3   OH219687   0.089   5.572   0.394
 6581TIP3    H119688   0.016   5.630   0.416
 6581TIP3    H219689   0.159   5.631   0.367
 6582TIP3   OH219690   4.159   2.911   5.125
 6582TIP3    H119691   4.150   2.856   5.203
 6582TIP3    H219692   4.083   2.970   5.128
 6583TIP3   OH219693   4.957   1.969   6.657
 6583TIP3    H119694   5.030   2.008   6.609
 6583TIP3    H219695   4.914   2.042   6.701
 6584TIP3   OH219696   2.604   0.393   4.703
 6584TIP3    H119697   2.559   0.319   4.743
 6584TIP3    H219698   2.606   0.373   4.609
 6585TIP3   OH219699   2.054   0.386   2.014
 6585TIP3    H119700   2.065   0.296   1.983
 6585TIP3    H219701   2.138   0.409   2.052
 6586TIP3   OH219702   0.019   3.710   3.581
 6586TIP3    H119703   0.087   3.737   3.520
 6586TIP3    H219704  -0.057   3.763   3.558
 6587TIP3   OH219705   7.028   3.383   1.017
 6587TIP3    H119706   6.960   3.331   1.059
 6587TIP3    H219707   7.089   3.404   1.087
 6588TIP3   OH219708   1.193   4.092   1.505
 6588TIP3    H119709   1.206   4.140   1.423
 6588TIP3    H219710   1.210   4.001   1.483
 6589TIP3   OH219711   2.069   3.410   5.639
 6589TIP3    H119712   2.043   3.321   5.615
 6589TIP3    H219713   2.121   3.399   5.718
 6590TIP3   OH219714   2.928   5.831   5.687
 6590TIP3    H119715   2.878   5.821   5.606
 6590TIP3    H219716   2.863   5.819   5.757
 6591TIP3   OH219717   0.903   6.694   5.794
 6591TIP3    H119718   0.938   6.779   5.819
 6591TIP3    H219719   0.896   6.697   5.699
 6592TIP3   OH219720   2.281   6.858   2.077
 6592TIP3    H119721   2.345   6.795   2.045
 6592TIP3    H219722   2.331   6.939   2.089
 6593TIP3   OH219723   3.289   3.808   6.145
 6593TIP3    H119724   3.335   3.872   6.198
 6593TIP3    H219725   3.320   3.823   6.056
 6594TIP3   OH219726   7.473   6.227   3.817
 6594TIP3    H119727   7.560   6.217   3.778
 6594TIP3    H219728   7.472   6.316   3.851
 6595TIP3   OH219729   4.502   0.106   3.591
 6595TIP3    H119730   4.561   0.111   3.667
 6595TIP3    H219731   4.449   0.186   3.597
 6596TIP3   OH219732   4.936   1.649   1.275
 6596TIP3    H119733   4.884   1.694   1.342
 6596TIP3    H219734   4.940   1.712   1.203
 6597TIP3   OH219735   4.579   2.076   6.577
 6597TIP3    H119736   4.537   1.994   6.603
 6597TIP3    H219737   4.662   2.077   6.625
 6598TIP3   OH219738   4.957   7.473   2.687
 6598TIP3    H119739   4.986   7.480   2.596
 6598TIP3    H219740   5.035   7.444   2.735
 6599TIP3   OH219741   7.230   0.606   0.285
 6599TIP3    H119742   7.267   0.681   0.331
 6599TIP3    H219743   7.239   0.628   0.192
 6600TIP3   OH219744   5.167   5.482   6.390
 6600TIP3    H119745   5.129   5.395   6.383
 6600TIP3    H219746   5.260   5.467   6.408
 6601TIP3   OH219747   6.255   4.692   2.731
 6601TIP3    H119748   6.232   4.782   2.756
 6601TIP3    H219749   6.331   4.702   2.674
 6602TIP3   OH219750   1.479   5.275   4.848
 6602TIP3    H119751   1.446   5.192   4.813
 6602TIP3    H219752   1.450   5.277   4.939
 6603TIP3   OH219753   0.159   7.559   0.954
 6603TIP3    H119754   0.182   7.505   0.878
 6603TIP3    H219755   0.171   7.649   0.923
 6604TIP3   OH219756   7.621   2.115   5.071
 6604TIP3    H119757   7.566   2.037   5.080
 6604TIP3    H219758   7.615   2.138   4.978
 6605TIP3   OH219759   6.380   2.479   0.300
 6605TIP3    H119760   6.351   2.427   0.225
 6605TIP3    H219761   6.425   2.553   0.260
 6606TIP3   OH219762   7.841   6.884   4.940
 6606TIP3    H119763   7.916   6.901   4.996
 6606TIP3    H219764   7.793   6.814   4.984
 6607TIP3   OH219765   1.347   2.249   3.332
 6607TIP3    H119766   1.293   2.244   3.253
 6607TIP3    H219767   1.298   2.307   3.390
 6608TIP3   OH219768   3.990   0.913   0.718
 6608TIP3    H119769   4.077   0.883   0.695
 6608TIP3    H219770   3.998   0.943   0.809
 6609TIP3   OH219771   6.887   3.095   6.192
 6609TIP3    H119772   6.894   3.138   6.277
 6609TIP3    H219773   6.812   3.037   6.201
 6610TIP3   OH219774   1.464   5.191   3.308
 6610TIP3    H119775   1.513   5.137   3.370
 6610TIP3    H219776   1.372   5.171   3.326
 6611TIP3   OH219777   1.097   7.364   6.438
 6611TIP3    H119778   1.064   7.452   6.457
 6611TIP3    H219779   1.022   7.307   6.455
 6612TIP3   OH219780   7.365   3.725   3.089
 6612TIP3    H119781   7.367   3.663   3.017
 6612TIP3    H219782   7.421   3.686   3.157
 6613TIP3   OH219783   3.245   0.520   6.225
 6613TIP3    H119784   3.334   0.555   6.216
 6613TIP3    H219785   3.221   0.539   6.316
 6614TIP3   OH219786   2.544   6.577   3.192
 6614TIP3    H119787   2.556   6.535   3.106
 6614TIP3    H219788   2.483   6.520   3.238
 6615TIP3   OH219789   8.333   6.810   6.522
 6615TIP3    H119790   8.338   6.722   6.559
 6615TIP3    H219791   8.386   6.805   6.442
 6616TIP3   OH219792   0.256   0.732   3.055
 6616TIP3    H119793   0.249   0.790   2.980
 6616TIP3    H219794   0.235   0.788   3.130
 6617TIP3   OH219795   5.136   4.281   1.074
 6617TIP3    H119796   5.088   4.304   0.995
 6617TIP3    H219797   5.140   4.364   1.123
 6618TIP3   OH219798   6.026   4.210   3.754
 6618TIP3    H119799   6.072   4.258   3.822
 6618TIP3    H219800   5.938   4.247   3.754
 6619TIP3   OH219801   1.207   5.412   4.406
 6619TIP3    H119802   1.248   5.401   4.320
 6619TIP3    H219803   1.153   5.491   4.397
 6620TIP3   OH219804   4.573   5.269   1.486
 6620TIP3    H119805   4.555   5.265   1.580
 6620TIP3    H219806   4.565   5.362   1.464
 6621TIP3   OH219807   4.636   7.248   1.421
 6621TIP3    H119808   4.635   7.207   1.335
 6621TIP3    H219809   4.603   7.181   1.480
 6622TIP3   OH219810   6.707   4.577   5.750
 6622TIP3    H119811   6.743   4.651   5.799
 6622TIP3    H219812   6.765   4.568   5.674
 6623TIP3   OH219813   6.945   6.060   4.450
 6623TIP3    H119814   7.009   6.017   4.507
 6623TIP3    H219815   6.862   6.050   4.496
 6624TIP3   OH219816   7.211   1.818   1.613
 6624TIP3    H119817   7.268   1.893   1.596
 6624TIP3    H219818   7.214   1.767   1.532
 6625TIP3   OH219819   6.875   4.756   1.651
 6625TIP3    H119820   6.909   4.672   1.622
 6625TIP3    H219821   6.796   4.735   1.701
 6626TIP3   OH219822   3.647   1.731   3.115
 6626TIP3    H119823   3.694   1.764   3.038
 6626TIP3    H219824   3.637   1.808   3.171
 6627TIP3   OH219825   4.248   4.670   1.261
 6627TIP3    H119826   4.221   4.603   1.323
 6627TIP3    H219827   4.188   4.743   1.278
 6628TIP3   OH219828   4.050   7.065   5.421
 6628TIP3    H119829   4.034   6.991   5.479
 6628TIP3    H219830   3.997   7.047   5.343
 6629TIP3   OH219831   5.652   5.055   5.906
 6629TIP3    H119832   5.602   4.977   5.929
 6629TIP3    H219833   5.717   5.025   5.844
 6630TIP3   OH219834   3.252   7.263   0.496
 6630TIP3    H119835   3.326   7.219   0.454
 6630TIP3    H219836   3.292   7.334   0.547
 6631TIP3   OH219837   7.178   4.963   2.764
 6631TIP3    H119838   7.182   4.967   2.859
 6631TIP3    H219839   7.261   5.003   2.735
 6632TIP3   OH219840   0.902   3.667   2.550
 6632TIP3    H119841   0.824   3.628   2.590
 6632TIP3    H219842   0.894   3.761   2.569
 6633TIP3   OH219843   5.683   5.180   6.549
 6633TIP3    H119844   5.666   5.108   6.610
 6633TIP3    H219845   5.659   5.259   6.597
 6634TIP3   OH219846   0.650   0.073   3.713
 6634TIP3    H119847   0.582   0.140   3.721
 6634TIP3    H219848   0.655   0.033   3.799
 6635TIP3   OH219849   5.508   7.275   2.213
 6635TIP3    H119850   5.558   7.260   2.293
 6635TIP3    H219851   5.452   7.349   2.232
 6636TIP3   OH219852   3.013   7.732   6.121
 6636TIP3    H119853   2.918   7.740   6.132
 6636TIP3    H219854   3.024   7.684   6.039
 6637TIP3   OH219855   0.814   6.088   3.073
 6637TIP3    H119856   0.821   6.016   3.010
 6637TIP3    H219857   0.839   6.050   3.157
 6638TIP3   OH219858   2.472   4.664   4.861
 6638TIP3    H119859   2.396   4.609   4.876
 6638TIP3    H219860   2.505   4.637   4.775
 6639TIP3   OH219861   3.863   2.437   1.135
 6639TIP3    H119862   3.800   2.443   1.063
 6639TIP3    H219863   3.809   2.427   1.213
 6640TIP3   OH219864   7.848   3.699   6.757
 6640TIP3    H119865   7.825   3.669   6.845
 6640TIP3    H219866   7.920   3.642   6.730
 6641TIP3   OH219867   0.002   1.744   6.351
 6641TIP3    H119868   0.070   1.721   6.287
 6641TIP3    H219869   0.009   1.677   6.419
 6642TIP3   OH219870   5.605   1.813   1.594
 6642TIP3    H119871   5.586   1.863   1.515
 6642TIP3    H219872   5.564   1.728   1.578
 6643TIP3   OH219873   2.870   1.079   1.200
 6643TIP3    H119874   2.882   1.020   1.125
 6643TIP3    H219875   2.809   1.146   1.169
 6644TIP3   OH219876   4.312   1.338   4.614
 6644TIP3    H119877   4.276   1.427   4.614
 6644TIP3    H219878   4.311   1.312   4.522
 6645TIP3   OH219879   1.967   4.889   2.093
 6645TIP3    H119880   1.935   4.955   2.154
 6645TIP3    H219881   2.013   4.938   2.025
 6646TIP3   OH219882   1.204   1.583   0.573
 6646TIP3    H119883   1.178   1.638   0.647
 6646TIP3    H219884   1.296   1.607   0.557
 6647TIP3   OH219885   5.020   3.809   3.051
 6647TIP3    H119886   5.062   3.723   3.056
 6647TIP3    H219887   4.966   3.804   2.972
 6648TIP3   OH219888   2.204   0.176   1.920
 6648TIP3    H119889   2.176   0.085   1.934
 6648TIP3    H219890   2.234   0.178   1.829
 6649TIP3   OH219891   4.623   5.093   0.234
 6649TIP3    H119892   4.528   5.097   0.248
 6649TIP3    H219893   4.653   5.022   0.291
 6650TIP3   OH219894   2.380   6.305   6.574
 6650TIP3    H119895   2.352   6.214   6.583
 6650TIP3    H219896   2.395   6.334   6.664
 6651TIP3   OH219897   1.792   5.932   2.018
 6651TIP3    H119898   1.737   5.854   2.031
 6651TIP3    H219899   1.773   5.960   1.929
 6652TIP3   OH219900   5.440   0.906   0.172
 6652TIP3    H119901   5.507   0.915   0.240
 6652TIP3    H219902   5.483   0.856   0.103
 6653TIP3   OH219903   7.973   3.342   2.339
 6653TIP3    H119904   7.906   3.303   2.395
 6653TIP3    H219905   8.051   3.348   2.395
 6654TIP3   OH219906   7.725   5.021   4.078
 6654TIP3    H119907   7.787   5.093   4.084
 6654TIP3    H219908   7.773   4.945   4.111
 6655TIP3   OH219909   1.928   3.873   2.162
 6655TIP3    H119910   1.984   3.878   2.084
 6655TIP3    H219911   1.876   3.794   2.148
 6656TIP3   OH219912   3.367   5.344   3.531
 6656TIP3    H119913   3.444   5.391   3.499
 6656TIP3    H219914   3.358   5.270   3.471
 6657TIP3   OH219915   1.653   2.228   2.925
 6657TIP3    H119916   1.640   2.299   2.987
 6657TIP3    H219917   1.717   2.263   2.862
 6658TIP3   OH219918   6.264   3.793   1.225
 6658TIP3    H119919   6.235   3.843   1.149
 6658TIP3    H219920   6.339   3.842   1.260
 6659TIP3   OH219921   2.292   0.258   5.485
 6659TIP3    H119922   2.347   0.220   5.417
 6659TIP3    H219923   2.227   0.190   5.503
 6660TIP3   OH219924   2.904   6.814   0.538
 6660TIP3    H119925   2.987   6.779   0.571
 6660TIP3    H219926   2.838   6.757   0.575
 6661TIP3   OH219927   5.147   3.367   3.447
 6661TIP3    H119928   5.132   3.461   3.457
 6661TIP3    H219929   5.235   3.353   3.483
 6662TIP3   OH219930   4.788   5.335   4.262
 6662TIP3    H119931   4.744   5.415   4.233
 6662TIP3    H219932   4.740   5.264   4.220
 6663TIP3   OH219933   3.243   3.040   1.582
 6663TIP3    H119934   3.219   3.132   1.594
 6663TIP3    H219935   3.336   3.041   1.560
 6664TIP3   OH219936   6.115   2.746   0.838
 6664TIP3    H119937   6.137   2.826   0.887
 6664TIP3    H219938   6.036   2.769   0.788
 6665TIP3   OH219939   7.896   7.734   2.860
 6665TIP3    H119940   7.892   7.679   2.782
 6665TIP3    H219941   7.926   7.819   2.828
 6666TIP3   OH219942   1.980   3.697   5.237
 6666TIP3    H119943   2.055   3.713   5.294
 6666TIP3    H219944   2.003   3.618   5.188
 6667TIP3   OH219945   3.271   0.574   2.927
 6667TIP3    H119946   3.273   0.495   2.981
 6667TIP3    H219947   3.264   0.541   2.837
 6668TIP3   OH219948   3.903   4.944   4.966
 6668TIP3    H119949   3.991   4.910   4.950
 6668TIP3    H219950   3.912   5.039   4.960
 6669TIP3   OH219951   3.210   5.771   0.590
 6669TIP3    H119952   3.151   5.823   0.644
 6669TIP3    H219953   3.171   5.775   0.502
 6670TIP3   OH219954   2.043   5.609   4.600
 6670TIP3    H119955   2.047   5.569   4.687
 6670TIP3    H219956   1.988   5.687   4.613
 6671TIP3   OH219957   5.201   4.567   2.388
 6671TIP3    H119958   5.156   4.493   2.347
 6671TIP3    H219959   5.218   4.538   2.478
 6672TIP3   OH219960   6.727   3.414   4.818
 6672TIP3    H119961   6.805   3.401   4.765
 6672TIP3    H219962   6.757   3.405   4.908
 6673TIP3   OH219963   2.693   7.590   0.106
 6673TIP3    H119964   2.651   7.526   0.049
 6673TIP3    H219965   2.786   7.583   0.085
 6674TIP3   OH219966   0.385   6.765   2.724
 6674TIP3    H119967   0.421   6.790   2.638
 6674TIP3    H219968   0.445   6.699   2.757
 6675TIP3   OH219969   5.899   0.270   5.329
 6675TIP3    H119970   5.980   0.316   5.352
 6675TIP3    H219971   5.898   0.272   5.233
 6676TIP3   OH219972   0.131   6.394   1.479
 6676TIP3    H119973   0.164   6.315   1.437
 6676TIP3    H219974   0.050   6.367   1.522
 6677TIP3   OH219975   4.995   6.212   6.398
 6677TIP3    H119976   5.073   6.220   6.453
 6677TIP3    H219977   5.011   6.271   6.324
 6678TIP3   OH219978   7.901   2.688   4.145
 6678TIP3    H119979   7.869   2.729   4.065
 6678TIP3    H219980   7.849   2.728   4.215
 6679TIP3   OH219981   7.396   3.927   4.710
 6679TIP3    H119982   7.444   4.004   4.680
 6679TIP3    H219983   7.304   3.953   4.707
 6680TIP3   OH219984   4.503   4.013   3.991
 6680TIP3    H119985   4.505   3.987   3.899
 6680TIP3    H219986   4.414   3.991   4.019
 6681TIP3   OH219987   4.573   3.659   4.075
 6681TIP3    H119988   4.644   3.723   4.072
 6681TIP3    H219989   4.615   3.576   4.098
 6682TIP3   OH219990   4.549   3.481   3.056
 6682TIP3    H119991   4.587   3.564   3.025
 6682TIP3    H219992   4.463   3.477   3.014
 6683TIP3   OH219993   7.733   7.250   3.671
 6683TIP3    H119994   7.740   7.202   3.754
 6683TIP3    H219995   7.648   7.222   3.635
 6684TIP3   OH219996   3.719   5.370   5.234
 6684TIP3    H119997   3.689   5.445   5.181
 6684TIP3    H219998   3.704   5.397   5.324
 6685TIP3   OH219999   1.728   1.021   1.473
 6685TIP3    H120000   1.705   1.011   1.381
 6685TIP3    H220001   1.820   0.995   1.478
 6686TIP3   OH220002   2.491   7.499   3.784
 6686TIP3    H120003   2.430   7.436   3.821
 6686TIP3    H220004   2.436   7.558   3.732
 6687TIP3   OH220005   4.462   6.566   0.963
 6687TIP3    H120006   4.440   6.477   0.936
 6687TIP3    H220007   4.451   6.619   0.884
 6688TIP3   OH220008   0.063   4.524   6.487
 6688TIP3    H120009   0.095   4.470   6.559
 6688TIP3    H220010  -0.032   4.518   6.493
 6689TIP3   OH220011   6.287   1.629   5.989
 6689TIP3    H120012   6.352   1.635   6.060
 6689TIP3    H220013   6.215   1.579   6.027
 6690TIP3   OH220014   4.696   0.107   2.636
 6690TIP3    H120015   4.765   0.173   2.643
 6690TIP3    H220016   4.633   0.145   2.575
 6691TIP3   OH220017   5.927   2.303   3.498
 6691TIP3    H120018   5.834   2.310   3.522
 6691TIP3    H220019   5.974   2.330   3.577
 6692TIP3   OH220020   4.056   0.777   2.278
 6692TIP3    H120021   3.995   0.705   2.287
 6692TIP3    H220022   4.040   0.811   2.190
 6693TIP3   OH220023   5.374   7.782   4.191
 6693TIP3    H120024   5.355   7.694   4.158
 6693TIP3    H220025   5.388   7.770   4.285
 6694TIP3   OH220026   2.237   4.408   0.388
 6694TIP3    H120027   2.291   4.398   0.466
 6694TIP3    H220028   2.168   4.342   0.398
 6695TIP3   OH220029   0.979   0.091   3.899
 6695TIP3    H120030   1.023   0.007   3.891
 6695TIP3    H220031   0.886   0.070   3.900
 6696TIP3   OH220032   1.144   3.945   0.204
 6696TIP3    H120033   1.200   3.998   0.260
 6696TIP3    H220034   1.056   3.960   0.238
 6697TIP3   OH220035   1.712   0.735   2.353
 6697TIP3    H120036   1.696   0.783   2.434
 6697TIP3    H220037   1.806   0.716   2.355
 6698TIP3   OH220038   1.177   0.179   0.865
 6698TIP3    H120039   1.191   0.133   0.782
 6698TIP3    H220040   1.114   0.125   0.912
 6699TIP3   OH220041   1.994   5.038   5.519
 6699TIP3    H120042   1.925   4.996   5.468
 6699TIP3    H220043   2.073   5.027   5.466
 6700TIP3   OH220044   3.533   2.066   5.710
 6700TIP3    H120045   3.548   2.041   5.619
 6700TIP3    H220046   3.448   2.028   5.732
 6701TIP3   OH220047   3.469   0.673   5.726
 6701TIP3    H120048   3.558   0.638   5.730
 6701TIP3    H220049   3.478   0.764   5.755
 6702TIP3   OH220050   7.123   7.364   0.590
 6702TIP3    H120051   7.174   7.334   0.665
 6702TIP3    H220052   7.189   7.390   0.525
 6703TIP3   OH220053   5.149   7.233   1.983
 6703TIP3    H120054   5.130   7.315   2.030
 6703TIP3    H220055   5.070   7.180   1.996
 6704TIP3   OH220056   1.226   3.531   3.062
 6704TIP3    H120057   1.248   3.603   3.121
 6704TIP3    H220058   1.153   3.564   3.009
 6705TIP3   OH220059   7.989   7.842   6.449
 6705TIP3    H120060   7.994   7.802   6.535
 6705TIP3    H220061   7.976   7.769   6.389
 6706TIP3   OH220062   6.419   4.652   2.312
 6706TIP3    H120063   6.486   4.605   2.261
 6706TIP3    H220064   6.429   4.619   2.401
 6707TIP3   OH220065   3.236   2.882   3.427
 6707TIP3    H120066   3.206   2.968   3.456
 6707TIP3    H220067   3.173   2.856   3.359
 6708TIP3   OH220068   5.268   3.560   0.903
 6708TIP3    H120069   5.329   3.486   0.908
 6708TIP3    H220070   5.324   3.637   0.913
 6709TIP3   OH220071   5.004   2.924   4.982
 6709TIP3    H120072   5.090   2.911   4.941
 6709TIP3    H220073   5.008   3.013   5.019
 6710TIP3   OH220074   2.162   7.407   6.465
 6710TIP3    H120075   2.092   7.416   6.530
 6710TIP3    H220076   2.122   7.435   6.383
 6711TIP3   OH220077   5.874   0.455   4.157
 6711TIP3    H120078   5.828   0.446   4.241
 6711TIP3    H220079   5.875   0.366   4.121
 6712TIP3   OH220080   8.257   6.422   5.920
 6712TIP3    H120081   8.327   6.472   5.962
 6712TIP3    H220082   8.190   6.486   5.900
 6713TIP3   OH220083   0.847   6.758   0.079
 6713TIP3    H120084   0.927   6.809   0.093
 6713TIP3    H220085   0.876   6.680   0.033
 6714TIP3   OH220086   0.284   2.583   4.876
 6714TIP3    H120087   0.240   2.613   4.796
 6714TIP3    H220088   0.364   2.634   4.879
 6715TIP3   OH220089   3.364   3.106   5.702
 6715TIP3    H120090   3.418   3.042   5.655
 6715TIP3    H220091   3.282   3.109   5.653
 6716TIP3   OH220092   4.853   0.274   2.068
 6716TIP3    H120093   4.935   0.234   2.039
 6716TIP3    H220094   4.793   0.259   1.996
 6717TIP3   OH220095   4.738   7.616   4.975
 6717TIP3    H120096   4.723   7.630   4.882
 6717TIP3    H220097   4.812   7.673   4.996
 6718TIP3   OH220098   7.402   0.855   4.867
 6718TIP3    H120099   7.410   0.772   4.820
 6718TIP3    H220100   7.416   0.832   4.959
 6719TIP3   OH220101   5.306   4.472   0.641
 6719TIP3    H120102   5.251   4.526   0.584
 6719TIP3    H220103   5.395   4.500   0.622
 6720TIP3   OH220104   1.802   2.843   6.175
 6720TIP3    H120105   1.866   2.828   6.244
 6720TIP3    H220106   1.731   2.782   6.195
 6721TIP3   OH220107   7.227   6.690   3.430
 6721TIP3    H120108   7.136   6.720   3.431
 6721TIP3    H220109   7.265   6.728   3.509
 6722TIP3   OH220110   3.907   4.002   5.284
 6722TIP3    H120111   3.926   3.921   5.237
 6722TIP3    H220112   3.960   3.998   5.363
 6723TIP3   OH220113   2.730   6.876   2.014
 6723TIP3    H120114   2.724   6.839   2.102
 6723TIP3    H220115   2.650   6.848   1.970
 6724TIP3   OH220116   0.851   0.462   5.886
 6724TIP3    H120117   0.823   0.541   5.932
 6724TIP3    H220118   0.946   0.465   5.888
 6725TIP3   OH220119   2.821   3.920   3.003
 6725TIP3    H120120   2.903   3.916   3.052
 6725TIP3    H220121   2.789   4.009   3.016
 6726TIP3   OH220122   5.430   4.800   1.123
 6726TIP3    H120123   5.478   4.784   1.204
 6726TIP3    H220124   5.356   4.738   1.127
 6727TIP3   OH220125   6.055   3.226   4.507
 6727TIP3    H120126   6.074   3.314   4.542
 6727TIP3    H220127   5.961   3.217   4.515
 6728TIP3   OH220128   2.451   3.953   0.930
 6728TIP3    H120129   2.393   3.876   0.921
 6728TIP3    H220130   2.422   3.995   1.011
 6729TIP3   OH220131   7.807   7.586   4.038
 6729TIP3    H120132   7.788   7.528   4.112
 6729TIP3    H220133   7.720   7.609   4.003
 6730TIP3   OH220134   3.862   3.906   1.677
 6730TIP3    H120135   3.852   3.925   1.584
 6730TIP3    H220136   3.802   3.966   1.721
 6731TIP3   OH220137   5.199   7.785   2.091
 6731TIP3    H120138   5.267   7.718   2.088
 6731TIP3    H220139   5.118   7.738   2.068
 6732TIP3   OH220140   6.665   3.744   4.545
 6732TIP3    H120141   6.738   3.731   4.605
 6732TIP3    H220142   6.608   3.668   4.559
 6733TIP3   OH220143   1.513   3.376   0.384
 6733TIP3    H120144   1.426   3.406   0.356
 6733TIP3    H220145   1.573   3.415   0.321
 6734TIP3   OH220146   1.631   7.333   6.203
 6734TIP3    H120147   1.666   7.399   6.262
 6734TIP3    H220148   1.679   7.346   6.121
 6735TIP3   OH220149  -0.001   1.975   4.145
 6735TIP3    H120150   0.025   1.944   4.232
 6735TIP3    H220151   0.023   2.067   4.145
 6736TIP3   OH220152   4.938   4.696   0.204
 6736TIP3    H120153   4.959   4.779   0.162
 6736TIP3    H220154   5.021   4.650   0.209
 6737TIP3   OH220155   2.809   5.069   2.737
 6737TIP3    H120156   2.752   5.046   2.811
 6737TIP3    H220157   2.761   5.039   2.660
 6738TIP3   OH220158   2.314   3.276   0.148
 6738TIP3    H120159   2.339   3.348   0.206
 6738TIP3    H220160   2.395   3.228   0.133
 6739TIP3   OH220161   6.644   1.011   2.501
 6739TIP3    H120162   6.702   0.952   2.550
 6739TIP3    H220163   6.693   1.031   2.421
 6740TIP3   OH220164   3.221   1.673   5.308
 6740TIP3    H120165   3.244   1.677   5.400
 6740TIP3    H220166   3.148   1.612   5.304
 6741TIP3   OH220167   1.320   3.143   4.116
 6741TIP3    H120168   1.330   3.203   4.042
 6741TIP3    H220169   1.370   3.184   4.187
 6742TIP3   OH220170   5.071   1.664   2.178
 6742TIP3    H120171   5.159   1.668   2.217
 6742TIP3    H220172   5.049   1.755   2.158
 6743TIP3   OH220173   4.811   7.273   5.148
 6743TIP3    H120174   4.778   7.361   5.164
 6743TIP3    H220175   4.771   7.246   5.065
 6744TIP3   OH220176   6.473   5.023   0.171
 6744TIP3    H120177   6.526   4.943   0.166
 6744TIP3    H220178   6.446   5.038   0.081
 6745TIP3   OH220179   1.093   3.175   3.644
 6745TIP3    H120180   1.153   3.138   3.581
 6745TIP3    H220181   1.118   3.136   3.728
 6746TIP3   OH220182   5.547   3.847   2.805
 6746TIP3    H120183   5.495   3.822   2.881
 6746TIP3    H220184   5.506   3.800   2.732
 6747TIP3   OH220185   3.546   3.109   1.873
 6747TIP3    H120186   3.531   3.020   1.905
 6747TIP3    H220187   3.566   3.159   1.952
 6748TIP3   OH220188   7.951   3.614   6.041
 6748TIP3    H120189   8.027   3.594   6.096
 6748TIP3    H220190   7.977   3.587   5.953
 6749TIP3   OH220191   4.080   2.491   3.199
 6749TIP3    H120192   4.172   2.498   3.226
 6749TIP3    H220193   4.080   2.421   3.133
 6750TIP3   OH220194   5.535   2.948   4.831
 6750TIP3    H120195   5.475   2.914   4.897
 6750TIP3    H220196   5.527   2.887   4.758
 6751TIP3   OH220197   2.440   5.609   1.168
 6751TIP3    H120198   2.347   5.597   1.188
 6751TIP3    H220199   2.447   5.593   1.074
 6752TIP3   OH220200   4.358   1.170   0.746
 6752TIP3    H120201   4.278   1.209   0.781
 6752TIP3    H220202   4.422   1.179   0.817
 6753TIP3   OH220203   5.218   3.857   4.788
 6753TIP3    H120204   5.195   3.896   4.703
 6753TIP3    H220205   5.177   3.915   4.852
 6754TIP3   OH220206   3.771   1.235   0.041
 6754TIP3    H120207   3.676   1.245   0.052
 6754TIP3    H220208   3.802   1.212   0.129
 6755TIP3   OH220209   4.664   3.408   1.406
 6755TIP3    H120210   4.698   3.394   1.317
 6755TIP3    H220211   4.617   3.491   1.400
 6756TIP3   OH220212   4.684   2.847   1.669
 6756TIP3    H120213   4.634   2.794   1.730
 6756TIP3    H220214   4.681   2.799   1.586
 6757TIP3   OH220215   4.869   3.164   2.993
 6757TIP3    H120216   4.928   3.177   3.068
 6757TIP3    H220217   4.782   3.184   3.028
 6758TIP3   OH220218   1.460   7.339   4.845
 6758TIP3    H120219   1.418   7.304   4.924
 6758TIP3    H220220   1.443   7.433   4.850
 6759TIP3   OH220221   5.868   7.700   1.921
 6759TIP3    H120222   5.956   7.683   1.889
 6759TIP3    H220223   5.817   7.721   1.843
 6760TIP3   OH220224   0.532   3.974   3.857
 6760TIP3    H120225   0.618   3.940   3.833
 6760TIP3    H220226   0.526   3.958   3.951
 6761TIP3   OH220227   1.504   5.017   5.070
 6761TIP3    H120228   1.545   4.932   5.051
 6761TIP3    H220229   1.476   5.011   5.161
 6762TIP3   OH220230   6.622   6.657   0.423
 6762TIP3    H120231   6.618   6.584   0.485
 6762TIP3    H220232   6.547   6.644   0.365
 6763TIP3   OH220233   7.757   5.833   2.098
 6763TIP3    H120234   7.675   5.881   2.110
 6763TIP3    H220235   7.736   5.761   2.040
 6764TIP3   OH220236   7.793   4.676   5.621
 6764TIP3    H120237   7.839   4.618   5.561
 6764TIP3    H220238   7.841   4.670   5.703
 6765TIP3   OH220239   6.039   2.982   0.064
 6765TIP3    H120240   5.972   3.029   0.113
 6765TIP3    H220241   6.105   3.049   0.043
 6766TIP3   OH220242   7.975   4.556   2.542
 6766TIP3    H120243   7.915   4.614   2.495
 6766TIP3    H220244   7.965   4.581   2.633
 6767TIP3   OH220245   8.288   5.376   3.201
 6767TIP3    H120246   8.197   5.347   3.194
 6767TIP3    H220247   8.283   5.472   3.200
 6768TIP3   OH220248   3.585   3.180   2.344
 6768TIP3    H120249   3.666   3.161   2.391
 6768TIP3    H220250   3.540   3.095   2.338
 6769TIP3   OH220251   5.023   3.652   4.807
 6769TIP3    H120252   4.937   3.685   4.831
 6769TIP3    H220253   5.080   3.728   4.811
 6770TIP3   OH220254   3.441   2.316   1.130
 6770TIP3    H120255   3.424   2.317   1.036
 6770TIP3    H220256   3.454   2.408   1.154
 6771TIP3   OH220257   2.072   4.582   1.105
 6771TIP3    H120258   2.072   4.537   1.189
 6771TIP3    H220259   2.123   4.662   1.121
 6772TIP3   OH220260   6.788   5.876   6.686
 6772TIP3    H120261   6.695   5.857   6.674
 6772TIP3    H220262   6.807   5.942   6.620
 6773TIP3   OH220263   6.361   2.088   1.126
 6773TIP3    H120264   6.360   2.157   1.059
 6773TIP3    H220265   6.374   2.134   1.208
 6774TIP3   OH220266   2.784   4.362   3.232
 6774TIP3    H120267   2.824   4.307   3.299
 6774TIP3    H220268   2.731   4.425   3.281
 6775TIP3   OH220269   6.372   5.933   3.291
 6775TIP3    H120270   6.423   5.858   3.322
 6775TIP3    H220271   6.318   5.958   3.366
 6776TIP3   OH220272   0.221   4.192   6.004
 6776TIP3    H120273   0.151   4.184   6.069
 6776TIP3    H220274   0.197   4.270   5.953
 6777TIP3   OH220275   1.275   7.886   3.007
 6777TIP3    H120276   1.231   7.825   2.948
 6777TIP3    H220277   1.208   7.909   3.072
 6778TIP3   OH220278   6.724   6.923   1.668
 6778TIP3    H120279   6.664   6.870   1.617
 6778TIP3    H220280   6.698   6.909   1.759
 6779TIP3   OH220281   2.901   7.656   4.680
 6779TIP3    H120282   2.806   7.655   4.695
 6779TIP3    H220283   2.929   7.566   4.695
 6780TIP3   OH220284   0.346   0.921   2.754
 6780TIP3    H120285   0.274   0.863   2.778
 6780TIP3    H220286   0.305   1.008   2.747
 6781TIP3   OH220287   7.344   0.052   2.477
 6781TIP3    H120288   7.303   0.115   2.417
 6781TIP3    H220289   7.280  -0.018   2.486
 6782TIP3   OH220290   2.780   2.906   5.550
 6782TIP3    H120291   2.718   2.895   5.623
 6782TIP3    H220292   2.781   3.001   5.535
 6783TIP3   OH220293   6.807   7.153   0.096
 6783TIP3    H120294   6.883   7.105   0.064
 6783TIP3    H220295   6.833   7.245   0.090
 6784TIP3   OH220296   2.593   5.908   3.100
 6784TIP3    H120297   2.622   5.885   3.189
 6784TIP3    H220298   2.674   5.928   3.053
 6785TIP3   OH220299   1.656   7.707   0.025
 6785TIP3    H120300   1.567   7.739   0.036
 6785TIP3    H220301   1.679   7.671   0.110
 6786TIP3   OH220302   1.008   1.269   4.624
 6786TIP3    H120303   1.076   1.331   4.652
 6786TIP3    H220304   0.995   1.213   4.700
 6787TIP3   OH220305   7.928   2.899   5.660
 6787TIP3    H120306   7.888   2.983   5.636
 6787TIP3    H220307   7.854   2.843   5.684
 6788TIP3   OH220308   2.010   7.636   6.328
 6788TIP3    H120309   1.933   7.587   6.300
 6788TIP3    H220310   2.041   7.679   6.248
 6789TIP3   OH220311   4.936   0.566   1.928
 6789TIP3    H120312   4.945   0.498   1.861
 6789TIP3    H220313   4.947   0.648   1.881
 6790TIP3   OH220314   6.247   4.612   1.640
 6790TIP3    H120315   6.268   4.706   1.644
 6790TIP3    H220316   6.237   4.586   1.731
 6791TIP3   OH220317   6.161   6.263   5.752
 6791TIP3    H120318   6.144   6.200   5.682
 6791TIP3    H220319   6.109   6.339   5.730
 6792TIP3   OH220320   0.675   5.657   2.243
 6792TIP3    H120321   0.709   5.583   2.194
 6792TIP3    H220322   0.725   5.657   2.325
 6793TIP3   OH220323   4.153   2.745   3.752
 6793TIP3    H120324   4.144   2.814   3.686
 6793TIP3    H220325   4.082   2.683   3.732
 6794TIP3   OH220326   6.029   0.898   4.110
 6794TIP3    H120327   5.954   0.948   4.076
 6794TIP3    H220328   6.067   0.955   4.176
 6795TIP3   OH220329   2.134   1.017   6.521
 6795TIP3    H120330   2.063   0.997   6.460
 6795TIP3    H220331   2.091   1.036   6.604
 6796TIP3   OH220332  -0.010   3.579   0.735
 6796TIP3    H120333  -0.050   3.621   0.811
 6796TIP3    H220334   0.055   3.643   0.704
 6797TIP3   OH220335   0.554   3.071   5.842
 6797TIP3    H120336   0.488   3.118   5.892
 6797TIP3    H220337   0.532   2.979   5.852
 6798TIP3   OH220338   4.061   0.124   5.627
 6798TIP3    H120339   4.068   0.116   5.722
 6798TIP3    H220340   4.063   0.034   5.595
 6799TIP3   OH220341   5.853   1.370   5.240
 6799TIP3    H120342   5.827   1.279   5.255
 6799TIP3    H220343   5.802   1.420   5.304
 6800TIP3   OH220344   7.969   4.729   3.922
 6800TIP3    H120345   7.908   4.737   3.995
 6800TIP3    H220346   7.939   4.794   3.859
 6801TIP3   OH220347   4.505   6.089   3.438
 6801TIP3    H120348   4.412   6.109   3.427
 6801TIP3    H220349   4.511   5.994   3.429
 6802TIP3   OH220350   5.198   7.762   0.713
 6802TIP3    H120351   5.287   7.728   0.699
 6802TIP3    H220352   5.210   7.857   0.718
 6803TIP3   OH220353   1.057   6.672   0.302
 6803TIP3    H120354   1.043   6.635   0.389
 6803TIP3    H220355   0.979   6.725   0.286
 6804TIP3   OH220356   4.509   4.468   4.670
 6804TIP3    H120357   4.470   4.522   4.601
 6804TIP3    H220358   4.478   4.507   4.751
 6805TIP3   OH220359   3.524   1.498   3.285
 6805TIP3    H120360   3.569   1.517   3.367
 6805TIP3    H220361   3.528   1.581   3.236
 6806TIP3   OH220362   3.616   0.490   4.716
 6806TIP3    H120363   3.559   0.480   4.792
 6806TIP3    H220364   3.676   0.561   4.740
 6807TIP3   OH220365   2.170   1.417   2.262
 6807TIP3    H120366   2.243   1.376   2.309
 6807TIP3    H220367   2.093   1.390   2.311
 6808TIP3   OH220368   6.925   2.093   5.397
 6808TIP3    H120369   6.871   2.018   5.423
 6808TIP3    H220370   6.951   2.074   5.307
 6809TIP3   OH220371   2.741   7.853   1.755
 6809TIP3    H120372   2.758   7.811   1.839
 6809TIP3    H220373   2.715   7.782   1.697
 6810TIP3   OH220374   5.292   3.931   6.789
 6810TIP3    H120375   5.214   3.960   6.742
 6810TIP3    H220376   5.365   3.955   6.732
 6811TIP3   OH220377   0.957   5.173   0.161
 6811TIP3    H120378   0.877   5.215   0.129
 6811TIP3    H220379   0.967   5.207   0.250
 6812TIP3   OH220380   6.682   0.462   3.475
 6812TIP3    H120381   6.675   0.533   3.539
 6812TIP3    H220382   6.729   0.392   3.521
 6813TIP3   OH220383   1.653   0.076   0.068
 6813TIP3    H120384   1.569   0.086   0.022
 6813TIP3    H220385   1.680   0.166   0.088
 6814TIP3   OH220386   0.523   5.975   3.255
 6814TIP3    H120387   0.430   5.978   3.234
 6814TIP3    H220388   0.533   6.029   3.333
 6815TIP3   OH220389   0.556   0.836   2.986
 6815TIP3    H120390   0.499   0.762   2.965
 6815TIP3    H220391   0.619   0.839   2.914
 6816TIP3   OH220392   4.454   7.155   0.235
 6816TIP3    H120393   4.401   7.219   0.282
 6816TIP3    H220394   4.406   7.073   0.244
 6817TIP3   OH220395   3.281   6.247   3.880
 6817TIP3    H120396   3.318   6.256   3.792
 6817TIP3    H220397   3.350   6.279   3.938
 6818TIP3   OH220398   6.291   3.615   3.641
 6818TIP3    H120399   6.341   3.587   3.564
 6818TIP3    H220400   6.226   3.545   3.654
 6819TIP3   OH220401   6.536   1.927   1.005
 6819TIP3    H120402   6.593   1.899   1.077
 6819TIP3    H220403   6.468   1.980   1.046
 6820TIP3   OH220404   7.479   4.929   3.479
 6820TIP3    H120405   7.424   4.940   3.557
 6820TIP3    H220406   7.552   4.988   3.492
 6821TIP3   OH220407   7.715   4.206   6.009
 6821TIP3    H120408   7.794   4.253   6.034
 6821TIP3    H220409   7.650   4.274   5.995
 6822TIP3   OH220410   5.042   3.264   2.121
 6822TIP3    H120411   5.000   3.349   2.126
 6822TIP3    H220412   5.135   3.281   2.138
 6823TIP3   OH220413   3.462   5.769   0.636
 6823TIP3    H120414   3.367   5.770   0.647
 6823TIP3    H220415   3.488   5.680   0.661
 6824TIP3   OH220416   0.186   6.005   0.760
 6824TIP3    H120417   0.210   6.092   0.792
 6824TIP3    H220418   0.171   6.017   0.667
 6825TIP3   OH220419   1.516   5.024   1.249
 6825TIP3    H120420   1.427   5.033   1.214
 6825TIP3    H220421   1.516   4.938   1.291
 6826TIP3   OH220422   0.244   2.221   1.941
 6826TIP3    H120423   0.273   2.214   2.032
 6826TIP3    H220424   0.226   2.314   1.929
 6827TIP3   OH220425   4.217   5.764   3.170
 6827TIP3    H120426   4.211   5.738   3.078
 6827TIP3    H220427   4.158   5.839   3.178
 6828TIP3   OH220428   2.040   0.264   0.606
 6828TIP3    H120429   2.043   0.197   0.537
 6828TIP3    H220430   2.119   0.249   0.658
 6829TIP3   OH220431   2.193   6.759   5.948
 6829TIP3    H120432   2.183   6.693   6.016
 6829TIP3    H220433   2.269   6.810   5.976
 6830TIP3   OH220434   2.037   1.549   1.617
 6830TIP3    H120435   2.114   1.590   1.577
 6830TIP3    H220436   2.062   1.458   1.629
 6831TIP3   OH220437   2.950   5.102   2.071
 6831TIP3    H120438   2.910   5.017   2.052
 6831TIP3    H220439   2.884   5.166   2.043
 6832TIP3   OH220440   2.351   0.738   4.586
 6832TIP3    H120441   2.356   0.654   4.540
 6832TIP3    H220442   2.396   0.722   4.670
 6833TIP3   OH220443   2.124   3.316   1.284
 6833TIP3    H120444   2.119   3.395   1.339
 6833TIP3    H220445   2.155   3.248   1.343
 6834TIP3   OH220446   4.152   1.742   5.133
 6834TIP3    H120447   4.228   1.732   5.191
 6834TIP3    H220448   4.109   1.821   5.163
 6835TIP3   OH220449   1.973   7.073   2.740
 6835TIP3    H120450   1.998   7.164   2.728
 6835TIP3    H220451   1.927   7.050   2.659
 6836TIP3   OH220452   5.004   0.035   2.248
 6836TIP3    H120453   4.999   0.130   2.252
 6836TIP3    H220454   5.086   0.012   2.292
 6837TIP3   OH220455   6.262   5.379   0.830
 6837TIP3    H120456   6.193   5.314   0.847
 6837TIP3    H220457   6.271   5.379   0.735
 6838TIP3   OH220458   7.344   5.339   3.953
 6838TIP3    H120459   7.266   5.395   3.953
 6838TIP3    H220460   7.373   5.338   3.862
 6839TIP3   OH220461   1.460   1.406   3.192
 6839TIP3    H120462   1.386   1.418   3.251
 6839TIP3    H220463   1.485   1.314   3.203
 6840TIP3   OH220464   2.331   7.028   1.193
 6840TIP3    H120465   2.332   7.096   1.126
 6840TIP3    H220466   2.262   7.054   1.253
 6841TIP3   OH220467   1.133   2.786   6.343
 6841TIP3    H120468   1.189   2.795   6.420
 6841TIP3    H220469   1.049   2.823   6.371
 6842TIP3   OH220470   2.745   0.971   3.920
 6842TIP3    H120471   2.689   0.984   3.996
 6842TIP3    H220472   2.730   0.881   3.893
 6843TIP3   OH220473   3.157   3.930   2.402
 6843TIP3    H120474   3.124   3.897   2.319
 6843TIP3    H220475   3.079   3.960   2.448
 6844TIP3   OH220476   6.654   1.628   0.632
 6844TIP3    H120477   6.642   1.690   0.704
 6844TIP3    H220478   6.743   1.596   0.641
 6845TIP3   OH220479   5.659   1.618   0.527
 6845TIP3    H120480   5.751   1.601   0.548
 6845TIP3    H220481   5.617   1.532   0.533
 6846TIP3   OH220482   7.956   1.818   6.498
 6846TIP3    H120483   7.869   1.835   6.535
 6846TIP3    H220484   8.005   1.777   6.569
 6847TIP3   OH220485   2.605   7.609   4.761
 6847TIP3    H120486   2.585   7.525   4.803
 6847TIP3    H220487   2.587   7.594   4.668
 6848TIP3   OH220488   3.061   0.613   1.670
 6848TIP3    H120489   3.070   0.534   1.723
 6848TIP3    H220490   3.150   0.633   1.642
 6849TIP3   OH220491   3.915   0.633   0.628
 6849TIP3    H120492   3.891   0.710   0.576
 6849TIP3    H220493   3.908   0.663   0.719
 6850TIP3   OH220494   1.513   0.602   6.227
 6850TIP3    H120495   1.455   0.573   6.157
 6850TIP3    H220496   1.505   0.534   6.295
 6851TIP3   OH220497   5.914   6.158   1.808
 6851TIP3    H120498   5.837   6.107   1.784
 6851TIP3    H220499   5.986   6.117   1.761
 6852TIP3   OH220500   7.062   2.674   6.146
 6852TIP3    H120501   7.153   2.648   6.163
 6852TIP3    H220502   7.064   2.769   6.147
 6853TIP3   OH220503   2.564   6.431   2.167
 6853TIP3    H120504   2.585   6.418   2.260
 6853TIP3    H220505   2.623   6.371   2.121
 6854TIP3   OH220506   0.154   6.577   6.056
 6854TIP3    H120507   0.179   6.639   5.987
 6854TIP3    H220508   0.237   6.537   6.083
 6855TIP3   OH220509   2.503   2.034   1.460
 6855TIP3    H120510   2.542   1.973   1.397
 6855TIP3    H220511   2.576   2.088   1.488
 6856TIP3   OH220512   1.578   6.563   6.251
 6856TIP3    H120513   1.569   6.658   6.241
 6856TIP3    H220514   1.531   6.543   6.332
 6857TIP3   OH220515   3.953   7.166   3.456
 6857TIP3    H120516   3.860   7.148   3.442
 6857TIP3    H220517   3.966   7.152   3.550
 6858TIP3   OH220518   6.591   1.851   4.784
 6858TIP3    H120519   6.502   1.873   4.810
 6858TIP3    H220520   6.642   1.930   4.805
 6859TIP3   OH220521   2.292   2.667   2.368
 6859TIP3    H120522   2.298   2.650   2.463
 6859TIP3    H220523   2.370   2.626   2.332
 6860TIP3   OH220524   6.099   7.399   5.553
 6860TIP3    H120525   6.086   7.309   5.522
 6860TIP3    H220526   6.013   7.439   5.544
 6861TIP3   OH220527   2.100   3.100   0.189
 6861TIP3    H120528   2.121   3.089   0.281
 6861TIP3    H220529   2.143   3.181   0.163
 6862TIP3   OH220530   1.356   3.919   4.684
 6862TIP3    H120531   1.374   3.983   4.753
 6862TIP3    H220532   1.408   3.949   4.609
 6863TIP3   OH220533   6.515   2.181   4.098
 6863TIP3    H120534   6.606   2.185   4.068
 6863TIP3    H220535   6.509   2.099   4.146
 6864TIP3   OH220536   8.123   1.152   3.450
 6864TIP3    H120537   8.098   1.229   3.398
 6864TIP3    H220538   8.213   1.134   3.423
 6865TIP3   OH220539   7.352   4.058   5.057
 6865TIP3    H120540   7.431   4.107   5.082
 6865TIP3    H220541   7.315   4.107   4.984
 6866TIP3   OH220542   5.581   6.818   5.368
 6866TIP3    H120543   5.654   6.796   5.310
 6866TIP3    H220544   5.568   6.912   5.357
 6867TIP3   OH220545   5.246   3.949   3.063
 6867TIP3    H120546   5.298   3.873   3.089
 6867TIP3    H220547   5.157   3.916   3.053
 6868TIP3   OH220548   0.842   1.838   5.203
 6868TIP3    H120549   0.765   1.888   5.226
 6868TIP3    H220550   0.843   1.764   5.265
 6869TIP3   OH220551   5.770   3.199   2.418
 6869TIP3    H120552   5.812   3.147   2.349
 6869TIP3    H220553   5.806   3.164   2.500
 6870TIP3   OH220554   1.605   2.928   2.192
 6870TIP3    H120555   1.547   2.899   2.122
 6870TIP3    H220556   1.631   2.847   2.236
 6871TIP3   OH220557   4.231   0.974   0.606
 6871TIP3    H120558   4.175   1.043   0.572
 6871TIP3    H220559   4.284   1.017   0.673
 6872TIP3   OH220560   5.112   3.639   3.413
 6872TIP3    H120561   5.174   3.709   3.434
 6872TIP3    H220562   5.045   3.682   3.360
 6873TIP3   OH220563   1.980   6.267   1.589
 6873TIP3    H120564   2.069   6.235   1.608
 6873TIP3    H220565   1.978   6.356   1.625
 6874TIP3   OH220566   0.074   7.020   4.351
 6874TIP3    H120567   0.023   6.949   4.390
 6874TIP3    H220568   0.106   7.071   4.425
 6875TIP3   OH220569   7.383   0.880   3.531
 6875TIP3    H120570   7.318   0.817   3.500
 6875TIP3    H220571   7.455   0.873   3.469
 6876TIP3   OH220572   1.647   3.513   5.491
 6876TIP3    H120573   1.636   3.421   5.467
 6876TIP3    H220574   1.632   3.562   5.410
 6877TIP3   OH220575   5.205   2.479   1.701
 6877TIP3    H120576   5.119   2.444   1.676
 6877TIP3    H220577   5.228   2.538   1.629
 6878TIP3   OH220578   3.609   7.608   4.387
 6878TIP3    H120579   3.688   7.555   4.379
 6878TIP3    H220580   3.541   7.556   4.345
 6879TIP3   OH220581   5.133   6.825   2.962
 6879TIP3    H120582   5.163   6.891   3.024
 6879TIP3    H220583   5.194   6.752   2.973
 6880TIP3   OH220584   4.758   3.067   6.585
 6880TIP3    H120585   4.800   2.992   6.542
 6880TIP3    H220586   4.739   3.035   6.674
 6881TIP3   OH220587   4.717   5.171   2.147
 6881TIP3    H120588   4.687   5.103   2.086
 6881TIP3    H220589   4.707   5.253   2.098
 6882TIP3   OH220590   2.981   1.345   6.043
 6882TIP3    H120591   3.013   1.255   6.032
 6882TIP3    H220592   2.971   1.378   5.954
 6883TIP3   OH220593   6.954   6.226   3.560
 6883TIP3    H120594   6.945   6.321   3.554
 6883TIP3    H220595   7.015   6.203   3.490
 6884TIP3   OH220596   4.386   0.472   2.560
 6884TIP3    H120597   4.445   0.456   2.634
 6884TIP3    H220598   4.348   0.558   2.578
 6885TIP3   OH220599   3.742   3.093   1.433
 6885TIP3    H120600   3.792   3.173   1.446
 6885TIP3    H220601   3.799   3.038   1.379
 6886TIP3   OH220602   7.477   3.115   2.883
 6886TIP3    H120603   7.456   3.184   2.946
 6886TIP3    H220604   7.548   3.151   2.831
 6887TIP3   OH220605   1.572   2.348   0.967
 6887TIP3    H120606   1.500   2.339   0.905
 6887TIP3    H220607   1.651   2.331   0.914
 6888TIP3   OH220608   3.202   4.234   6.306
 6888TIP3    H120609   3.278   4.181   6.282
 6888TIP3    H220610   3.238   4.316   6.339
 6889TIP3   OH220611   6.308   5.258   6.669
 6889TIP3    H120612   6.267   5.315   6.603
 6889TIP3    H220613   6.395   5.239   6.634
 6890TIP3   OH220614   1.910   5.775   6.445
 6890TIP3    H120615   1.829   5.734   6.476
 6890TIP3    H220616   1.917   5.855   6.497
 6891TIP3   OH220617   1.407   3.148   5.491
 6891TIP3    H120618   1.365   3.229   5.520
 6891TIP3    H220619   1.340   3.103   5.441
 6892TIP3   OH220620   4.859   4.034   4.965
 6892TIP3    H120621   4.898   4.121   4.958
 6892TIP3    H220622   4.824   4.017   4.877
 6893TIP3   OH220623   2.579   7.134   1.891
 6893TIP3    H120624   2.649   7.139   1.826
 6893TIP3    H220625   2.549   7.225   1.901
 6894TIP3   OH220626   7.830   1.618   3.251
 6894TIP3    H120627   7.871   1.656   3.328
 6894TIP3    H220628   7.811   1.692   3.194
 6895TIP3   OH220629   2.054   4.881   4.496
 6895TIP3    H120630   2.004   4.875   4.414
 6895TIP3    H220631   2.138   4.840   4.477
 6896TIP3   OH220632   5.036   6.296   5.062
 6896TIP3    H120633   5.008   6.334   4.978
 6896TIP3    H220634   4.980   6.338   5.127
 6897TIP3   OH220635   0.735   1.510   1.872
 6897TIP3    H120636   0.672   1.560   1.924
 6897TIP3    H220637   0.691   1.494   1.789
 6898TIP3   OH220638   4.640   4.453   5.887
 6898TIP3    H120639   4.681   4.390   5.828
 6898TIP3    H220640   4.678   4.537   5.862
 6899TIP3   OH220641   0.710   5.975   1.813
 6899TIP3    H120642   0.660   5.921   1.874
 6899TIP3    H220643   0.746   6.045   1.867
 6900TIP3   OH220644   6.008   0.025   1.349
 6900TIP3    H120645   6.092   0.014   1.394
 6900TIP3    H220646   6.002   0.119   1.331
 6901TIP3   OH220647   2.350   5.143   3.917
 6901TIP3    H120648   2.392   5.223   3.949
 6901TIP3    H220649   2.292   5.173   3.846
 6902TIP3   OH220650   1.426   1.391   3.679
 6902TIP3    H120651   1.401   1.313   3.630
 6902TIP3    H220652   1.400   1.373   3.769
 6903TIP3   OH220653   7.322   3.002   5.592
 6903TIP3    H120654   7.335   3.097   5.596
 6903TIP3    H220655   7.281   2.987   5.507
 6904TIP3   OH220656   0.805   2.629   6.502
 6904TIP3    H120657   0.774   2.615   6.591
 6904TIP3    H220658   0.850   2.713   6.505
 6905TIP3   OH220659   2.317   7.083   1.704
 6905TIP3    H120660   2.319   6.988   1.690
 6905TIP3    H220661   2.324   7.093   1.799
 6906TIP3   OH220662   0.929   2.132   1.639
 6906TIP3    H120663   0.912   2.044   1.605
 6906TIP3    H220664   0.844   2.161   1.672
 6907TIP3   OH220665   2.045   7.205   3.820
 6907TIP3    H120666   1.966   7.226   3.870
 6907TIP3    H220667   2.047   7.110   3.816
 6908TIP3   OH220668   0.362   5.419   3.939
 6908TIP3    H120669   0.446   5.386   3.970
 6908TIP3    H220670   0.384   5.490   3.879
 6909TIP3   OH220671   5.162   0.455   6.460
 6909TIP3    H120672   5.254   0.432   6.451
 6909TIP3    H220673   5.149   0.526   6.396
 6910TIP3   OH220674   5.025   1.247   5.609
 6910TIP3    H120675   5.013   1.215   5.520
 6910TIP3    H220676   5.111   1.213   5.635
 6911TIP3   OH220677   6.480   5.480   1.371
 6911TIP3    H120678   6.451   5.571   1.369
 6911TIP3    H220679   6.398   5.429   1.376
 6912TIP3   OH220680   4.408   7.422   2.266
 6912TIP3    H120681   4.324   7.394   2.229
 6912TIP3    H220682   4.472   7.404   2.198
 6913TIP3   OH220683   0.938   2.967   5.001
 6913TIP3    H120684   0.862   2.972   5.059
 6913TIP3    H220685   0.925   3.038   4.939
 6914TIP3   OH220686   2.381   1.115   6.205
 6914TIP3    H120687   2.351   1.189   6.259
 6914TIP3    H220688   2.351   1.137   6.117
 6915TIP3   OH220689   1.237   3.835   5.593
 6915TIP3    H120690   1.177   3.761   5.603
 6915TIP3    H220691   1.307   3.817   5.656
 6916TIP3   OH220692   6.230   7.209   1.200
 6916TIP3    H120693   6.192   7.121   1.207
 6916TIP3    H220694   6.320   7.194   1.173
 6917TIP3   OH220695   6.502   7.703   4.692
 6917TIP3    H120696   6.451   7.623   4.679
 6917TIP3    H220697   6.477   7.733   4.779
 6918TIP3   OH220698   4.736   1.706   3.505
 6918TIP3    H120699   4.804   1.640   3.518
 6918TIP3    H220700   4.777   1.789   3.527
 6919TIP3   OH220701   3.129   5.368   1.085
 6919TIP3    H120702   3.065   5.346   1.018
 6919TIP3    H220703   3.164   5.453   1.058
 6920TIP3   OH220704   0.776   6.004   5.157
 6920TIP3    H120705   0.753   5.913   5.174
 6920TIP3    H220706   0.830   6.001   5.078
 6921TIP3   OH220707   2.574   5.805   3.813
 6921TIP3    H120708   2.575   5.729   3.754
 6921TIP3    H220709   2.581   5.768   3.901
 6922TIP3   OH220710   3.374   5.259   2.382
 6922TIP3    H120711   3.344   5.237   2.293
 6922TIP3    H220712   3.326   5.339   2.404
 6923TIP3   OH220713   3.157   5.407   3.234
 6923TIP3    H120714   3.219   5.348   3.191
 6923TIP3    H220715   3.086   5.351   3.263
 6924TIP3   OH220716   0.794   3.074   5.993
 6924TIP3    H120717   0.766   3.140   6.057
 6924TIP3    H220718   0.755   3.101   5.911
 6925TIP3   OH220719   8.144   2.187   0.426
 6925TIP3    H120720   8.160   2.233   0.508
 6925TIP3    H220721   8.077   2.239   0.382
 6926TIP3   OH220722   6.547   5.029   5.101
 6926TIP3    H120723   6.585   5.107   5.060
 6926TIP3    H220724   6.528   4.971   5.028
 6927TIP3   OH220725   3.355   1.049   0.536
 6927TIP3    H120726   3.288   1.094   0.485
 6927TIP3    H220727   3.327   0.957   0.537
 6928TIP3   OH220728   3.584   2.351   5.252
 6928TIP3    H120729   3.664   2.350   5.304
 6928TIP3    H220730   3.613   2.376   5.165
 6929TIP3   OH220731   4.330   3.938   2.640
 6929TIP3    H120732   4.289   3.899   2.563
 6929TIP3    H220733   4.305   4.030   2.637
 6930TIP3   OH220734   5.444   6.318   2.684
 6930TIP3    H120735   5.476   6.255   2.750
 6930TIP3    H220736   5.522   6.343   2.635
 6931TIP3   OH220737   1.723   0.384   6.359
 6931TIP3    H120738   1.796   0.429   6.316
 6931TIP3    H220739   1.659   0.370   6.289
 6932TIP3   OH220740   7.043   0.237   0.519
 6932TIP3    H120741   7.105   0.249   0.590
 6932TIP3    H220742   7.001   0.322   0.509
 6933TIP3   OH220743   2.660   0.620   1.804
 6933TIP3    H120744   2.716   0.639   1.729
 6933TIP3    H220745   2.664   0.525   1.814
 6934TIP3   OH220746   7.602   3.488   1.844
 6934TIP3    H120747   7.607   3.480   1.749
 6934TIP3    H220748   7.673   3.547   1.867
 6935TIP3   OH220749   0.802   5.292   1.438
 6935TIP3    H120750   0.761   5.350   1.374
 6935TIP3    H220751   0.772   5.326   1.523
 6936TIP3   OH220752   0.280   4.943   3.239
 6936TIP3    H120753   0.289   4.925   3.145
 6936TIP3    H220754   0.343   5.013   3.256
 6937TIP3   OH220755   3.447   4.530   5.323
 6937TIP3    H120756   3.475   4.441   5.347
 6937TIP3    H220757   3.529   4.578   5.313
 6938TIP3   OH220758   3.410   4.882   4.581
 6938TIP3    H120759   3.436   4.878   4.673
 6938TIP3    H220760   3.448   4.963   4.548
 6939TIP3   OH220761   7.744   4.689   0.294
 6939TIP3    H120762   7.814   4.705   0.231
 6939TIP3    H220763   7.665   4.722   0.251
 6940TIP3   OH220764   8.036   6.779   5.224
 6940TIP3    H120765   8.104   6.831   5.265
 6940TIP3    H220766   8.014   6.712   5.289
 6941TIP3   OH220767   5.219   7.681   5.744
 6941TIP3    H120768   5.136   7.691   5.697
 6941TIP3    H220769   5.283   7.730   5.691
 6942TIP3   OH220770   1.663   2.505   6.097
 6942TIP3    H120771   1.736   2.496   6.159
 6942TIP3    H220772   1.586   2.516   6.152
 6943TIP3   OH220773   3.583   5.602   5.110
 6943TIP3    H120774   3.546   5.677   5.063
 6943TIP3    H220775   3.543   5.606   5.197
 6944TIP3   OH220776   0.257   3.452   3.526
 6944TIP3    H120777   0.199   3.469   3.600
 6944TIP3    H220778   0.202   3.406   3.462
 6945TIP3   OH220779   0.141   3.866   5.520
 6945TIP3    H120780   0.161   3.932   5.455
 6945TIP3    H220781   0.182   3.786   5.487
 6946TIP3   OH220782   4.930   5.461   5.137
 6946TIP3    H120783   4.920   5.480   5.230
 6946TIP3    H220784   4.958   5.543   5.098
 6947TIP3   OH220785   2.200   6.293   4.182
 6947TIP3    H120786   2.285   6.248   4.178
 6947TIP3    H220787   2.158   6.271   4.099
 6948TIP3   OH220788   7.863   3.507   6.392
 6948TIP3    H120789   7.852   3.496   6.298
 6948TIP3    H220790   7.955   3.489   6.408
 6949TIP3   OH220791   2.717   1.434   1.449
 6949TIP3    H120792   2.784   1.411   1.385
 6949TIP3    H220793   2.748   1.394   1.531
 6950TIP3   OH220794   2.612   2.989   6.112
 6950TIP3    H120795   2.610   3.005   6.206
 6950TIP3    H220796   2.694   2.941   6.098
 6951TIP3   OH220797   3.402   1.799   2.656
 6951TIP3    H120798   3.380   1.845   2.737
 6951TIP3    H220799   3.466   1.733   2.683
 6952TIP3   OH220800   8.091   5.176   2.697
 6952TIP3    H120801   8.149   5.221   2.759
 6952TIP3    H220802   8.101   5.083   2.718
 6953TIP3   OH220803   7.542   6.255   4.950
 6953TIP3    H120804   7.494   6.247   4.868
 6953TIP3    H220805   7.629   6.219   4.931
 6954TIP3   OH220806   3.399   5.836   2.192
 6954TIP3    H120807   3.431   5.827   2.103
 6954TIP3    H220808   3.435   5.918   2.223
 6955TIP3   OH220809   0.043   1.709   5.668
 6955TIP3    H120810   0.110   1.772   5.694
 6955TIP3    H220811  -0.005   1.692   5.749
 6956TIP3   OH220812   4.728   2.429   1.145
 6956TIP3    H120813   4.750   2.383   1.064
 6956TIP3    H220814   4.772   2.514   1.137
 6957TIP3   OH220815   7.431   4.818   0.755
 6957TIP3    H120816   7.398   4.867   0.831
 6957TIP3    H220817   7.451   4.886   0.690
 6958TIP3   OH220818   4.004   1.160   1.896
 6958TIP3    H120819   4.091   1.156   1.856
 6958TIP3    H220820   3.943   1.151   1.823
 6959TIP3   OH220821   3.783   3.583   5.668
 6959TIP3    H120822   3.844   3.652   5.642
 6959TIP3    H220823   3.787   3.583   5.763
 6960TIP3   OH220824   0.807   2.409   2.762
 6960TIP3    H120825   0.825   2.358   2.841
 6960TIP3    H220826   0.833   2.498   2.784
 6961TIP3   OH220827   2.921   4.790   5.616
 6961TIP3    H120828   2.857   4.747   5.560
 6961TIP3    H220829   2.917   4.882   5.591
 6962TIP3   OH220830   6.226   1.025   4.764
 6962TIP3    H120831   6.312   1.003   4.728
 6962TIP3    H220832   6.205   0.953   4.823
 6963TIP3   OH220833   4.227   3.618   2.170
 6963TIP3    H120834   4.227   3.601   2.264
 6963TIP3    H220835   4.189   3.705   2.160
 6964TIP3   OH220836   7.894   5.088   1.793
 6964TIP3    H120837   7.896   5.055   1.883
 6964TIP3    H220838   7.940   5.171   1.798
 6965TIP3   OH220839   1.280   6.357   3.546
 6965TIP3    H120840   1.274   6.334   3.454
 6965TIP3    H220841   1.291   6.452   3.547
 6966TIP3   OH220842   6.141   3.406   4.690
 6966TIP3    H120843   6.080   3.374   4.756
 6966TIP3    H220844   6.211   3.341   4.688
 6967TIP3   OH220845   1.476   4.797   4.158
 6967TIP3    H120846   1.398   4.839   4.194
 6967TIP3    H220847   1.501   4.733   4.225
 6968TIP3   OH220848   0.646   0.702   4.786
 6968TIP3    H120849   0.610   0.664   4.706
 6968TIP3    H220850   0.572   0.747   4.826
 6969TIP3   OH220851   1.476   1.095   1.139
 6969TIP3    H120852   1.505   1.186   1.130
 6969TIP3    H220853   1.556   1.045   1.148
 6970TIP3   OH220854   5.924   3.517   3.243
 6970TIP3    H120855   5.991   3.559   3.190
 6970TIP3    H220856   5.841   3.552   3.209
 6971TIP3   OH220857   7.733   3.670   4.924
 6971TIP3    H120858   7.794   3.603   4.953
 6971TIP3    H220859   7.773   3.706   4.845
 6972TIP3   OH220860   6.603   1.985   5.929
 6972TIP3    H120861   6.514   1.964   5.902
 6972TIP3    H220862   6.593   2.051   5.998
 6973TIP3   OH220863   1.970   1.498   1.215
 6973TIP3    H120864   1.923   1.430   1.264
 6973TIP3    H220865   2.062   1.472   1.220
 6974TIP3   OH220866   5.445   5.824   2.016
 6974TIP3    H120867   5.375   5.761   2.031
 6974TIP3    H220868   5.401   5.909   2.014
 6975TIP3   OH220869   0.261   0.601   1.303
 6975TIP3    H120870   0.275   0.527   1.243
 6975TIP3    H220871   0.339   0.604   1.357
 6976TIP3   OH220872   7.014   7.516   4.175
 6976TIP3    H120873   6.929   7.501   4.217
 6976TIP3    H220874   7.078   7.495   4.242
 6977TIP3   OH220875   7.879   1.568   6.064
 6977TIP3    H120876   7.896   1.475   6.081
 6977TIP3    H220877   7.931   1.615   6.129
 6978TIP3   OH220878   6.411   6.117   1.289
 6978TIP3    H120879   6.348   6.184   1.263
 6978TIP3    H220880   6.479   6.166   1.336
 6979TIP3   OH220881   6.454   0.091   1.863
 6979TIP3    H120882   6.406   0.074   1.782
 6979TIP3    H220883   6.389   0.078   1.932
 6980TIP3   OH220884   2.169   2.971   4.236
 6980TIP3    H120885   2.222   3.021   4.174
 6980TIP3    H220886   2.227   2.899   4.264
 6981TIP3   OH220887   4.512   0.525   6.338
 6981TIP3    H120888   4.480   0.581   6.409
 6981TIP3    H220889   4.518   0.438   6.378
 6982TIP3   OH220890   4.366   2.426   1.103
 6982TIP3    H120891   4.278   2.402   1.131
 6982TIP3    H220892   4.367   2.522   1.106
 6983TIP3   OH220893   0.630   2.075   0.143
 6983TIP3    H120894   0.699   2.019   0.178
 6983TIP3    H220895   0.594   2.120   0.219
 6984TIP3   OH220896   6.638   2.896   4.291
 6984TIP3    H120897   6.645   2.927   4.382
 6984TIP3    H220898   6.706   2.945   4.244
 6985TIP3   OH220899   2.665   7.616   5.804
 6985TIP3    H120900   2.741   7.653   5.758
 6985TIP3    H220901   2.630   7.689   5.855
 6986TIP3   OH220902   7.502   2.472   6.002
 6986TIP3    H120903   7.462   2.491   5.917
 6986TIP3    H220904   7.591   2.443   5.981
 6987TIP3   OH220905   3.661   3.636   4.730
 6987TIP3    H120906   3.616   3.665   4.650
 6987TIP3    H220907   3.648   3.708   4.792
 6988TIP3   OH220908   3.776   1.214   3.010
 6988TIP3    H120909   3.790   1.226   2.916
 6988TIP3    H220910   3.782   1.302   3.047
 6989TIP3   OH220911   3.307   6.093   0.245
 6989TIP3    H120912   3.268   6.008   0.265
 6989TIP3    H220913   3.355   6.117   0.325
 6990TIP3   OH220914   7.243   3.841   2.821
 6990TIP3    H120915   7.265   3.933   2.808
 6990TIP3    H220916   7.328   3.797   2.829
 6991TIP3   OH220917   4.259   5.941   4.310
 6991TIP3    H120918   4.285   5.893   4.231
 6991TIP3    H220919   4.178   5.987   4.285
 6992TIP3   OH220920   0.267   3.322   6.378
 6992TIP3    H120921   0.207   3.299   6.450
 6992TIP3    H220922   0.223   3.395   6.334
 6993TIP3   OH220923   1.959   2.103   3.017
 6993TIP3    H120924   1.995   2.048   2.947
 6993TIP3    H220925   1.973   2.193   2.988
 6994TIP3   OH220926   3.877   6.134   3.007
 6994TIP3    H120927   3.951   6.196   3.005
 6994TIP3    H220928   3.911   6.059   3.056
 6995TIP3   OH220929   4.702   0.014   3.429
 6995TIP3    H120930   4.664  -0.067   3.396
 6995TIP3    H220931   4.644   0.041   3.500
 6996TIP3   OH220932   5.691   7.103   6.575
 6996TIP3    H120933   5.676   7.062   6.489
 6996TIP3    H220934   5.723   7.191   6.554
 6997TIP3   OH220935   0.765   5.163   3.775
 6997TIP3    H120936   0.860   5.159   3.763
 6997TIP3    H220937   0.740   5.074   3.797
 6998TIP3   OH220938   4.257   2.381   2.991
 6998TIP3    H120939   4.220   2.402   2.905
 6998TIP3    H220940   4.347   2.355   2.972
 6999TIP3   OH220941   7.250   7.773   1.984
 6999TIP3    H120942   7.228   7.793   2.074
 6999TIP3    H220943   7.231   7.679   1.975
 7000TIP3   OH220944   1.087   3.443  -0.054
 7000TIP3    H120945   1.055   3.527  -0.087
 7000TIP3    H220946   1.010   3.401  -0.015
 7001TIP3   OH220947   3.625   3.311   2.074
 7001TIP3    H120948   3.535   3.345   2.075
 7001TIP3    H220949   3.640   3.280   2.163
 7002TIP3   OH220950   1.181   2.074   5.254
 7002TIP3    H120951   1.139   2.087   5.339
 7002TIP3    H220952   1.110   2.078   5.190
 7003TIP3   OH220953   4.158   4.694   1.008
 7003TIP3    H120954   4.207   4.674   1.088
 7003TIP3    H220955   4.138   4.787   1.016
 7004TIP3   OH220956   3.008   7.139   0.632
 7004TIP3    H120957   2.927   7.183   0.605
 7004TIP3    H220958   3.078   7.188   0.588
 7005TIP3   OH220959   7.271   6.089   3.705
 7005TIP3    H120960   7.224   6.158   3.658
 7005TIP3    H220961   7.350   6.130   3.737
 7006TIP3   OH220962   4.793   1.951   6.281
 7006TIP3    H120963   4.723   2.014   6.268
 7006TIP3    H220964   4.812   1.955   6.375
 7007TIP3   OH220965   4.488   1.218   2.217
 7007TIP3    H120966   4.469   1.210   2.311
 7007TIP3    H220967   4.465   1.308   2.195
 7008TIP3   OH220968   5.429   5.137   2.001
 7008TIP3    H120969   5.472   5.080   1.936
 7008TIP3    H220970   5.351   5.089   2.027
 7009TIP3   OH220971   0.706   6.658   3.532
 7009TIP3    H120972   0.685   6.623   3.618
 7009TIP3    H220973   0.681   6.589   3.471
 7010TIP3   OH220974   7.096   6.537   6.577
 7010TIP3    H120975   7.132   6.459   6.620
 7010TIP3    H220976   7.039   6.576   6.643
 7011TIP3   OH220977   5.287   7.537   4.062
 7011TIP3    H120978   5.278   7.445   4.088
 7011TIP3    H220979   5.201   7.575   4.079
 7012TIP3   OH220980   2.233   4.114   3.544
 7012TIP3    H120981   2.310   4.133   3.490
 7012TIP3    H220982   2.173   4.186   3.526
 7013TIP3   OH220983   2.673   0.988   0.352
 7013TIP3    H120984   2.660   1.037   0.433
 7013TIP3    H220985   2.764   1.004   0.328
 7014TIP3   OH220986   2.546   2.609   6.173
 7014TIP3    H120987   2.633   2.630   6.138
 7014TIP3    H220988   2.485   2.645   6.109
 7015TIP3   OH220989   3.951   0.303   3.164
 7015TIP3    H120990   3.904   0.312   3.247
 7015TIP3    H220991   4.043   0.302   3.189
 7016TIP3   OH220992   0.831   0.236   2.031
 7016TIP3    H120993   0.855   0.243   1.939
 7016TIP3    H220994   0.770   0.308   2.046
 7017TIP3   OH220995   0.936   0.023   0.607
 7017TIP3    H120996   0.873   0.052   0.540
 7017TIP3    H220997   0.913   0.074   0.685
 7018TIP3   OH220998   7.778   1.751   2.991
 7018TIP3    H120999   7.828   1.813   2.938
 7018TIP3    H221000   7.688   1.784   2.988
 7019TIP3   OH221001   5.547   5.323   4.149
 7019TIP3    H121002   5.486   5.260   4.111
 7019TIP3    H221003   5.633   5.281   4.141
 7020TIP3   OH221004   0.936   4.522   3.026
 7020TIP3    H121005   1.001   4.548   3.092
 7020TIP3    H221006   0.905   4.436   3.054
 7021TIP3   OH221007   5.552   2.520   3.217
 7021TIP3    H121008   5.637   2.544   3.254
 7021TIP3    H221009   5.542   2.577   3.141
 7022TIP3   OH221010   1.974   4.591   3.583
 7022TIP3    H121011   1.937   4.539   3.512
 7022TIP3    H221012   1.902   4.646   3.614
 7023TIP3   OH221013   4.036   1.953   6.443
 7023TIP3    H121014   3.941   1.959   6.430
 7023TIP3    H221015   4.071   2.032   6.402
 7024TIP3   OH221016   1.249   0.712   4.004
 7024TIP3    H121017   1.309   0.690   3.932
 7024TIP3    H221018   1.164   0.679   3.975
 7025TIP3   OH221019   0.829   5.456   4.028
 7025TIP3    H121020   0.876   5.383   4.068
 7025TIP3    H221021   0.809   5.515   4.101
 7026TIP3   OH221022   2.947   1.449   2.118
 7026TIP3    H121023   2.935   1.500   2.038
 7026TIP3    H221024   3.033   1.409   2.109
 7027TIP3   OH221025   0.025   5.771   1.175
 7027TIP3    H121026   0.091   5.837   1.151
 7027TIP3    H221027  -0.024   5.757   1.094
 7028TIP3   OH221028   4.090   0.693   1.819
 7028TIP3    H121029   4.163   0.745   1.854
 7028TIP3    H221030   4.022   0.699   1.886
 7029TIP3   OH221031   3.315   5.699   5.949
 7029TIP3    H121032   3.294   5.637   6.019
 7029TIP3    H221033   3.411   5.696   5.942
 7030TIP3   OH221034   1.751   1.244   0.997
 7030TIP3    H121035   1.708   1.247   0.912
 7030TIP3    H221036   1.698   1.301   1.053
 7031TIP3   OH221037   5.078   4.777   2.715
 7031TIP3    H121038   4.996   4.810   2.678
 7031TIP3    H221039   5.126   4.855   2.741
 7032TIP3   OH221040   7.634   4.141   6.469
 7032TIP3    H121041   7.608   4.226   6.504
 7032TIP3    H221042   7.706   4.113   6.526
 7033TIP3   OH221043   0.847   3.300   5.069
 7033TIP3    H121044   0.819   3.237   5.002
 7033TIP3    H221045   0.937   3.275   5.089
 7034TIP3   OH221046   3.232   6.117   3.537
 7034TIP3    H121047   3.238   6.213   3.538
 7034TIP3    H221048   3.321   6.088   3.517
 7035TIP3   OH221049   2.867   0.791   3.573
 7035TIP3    H121050   2.961   0.786   3.592
 7035TIP3    H221051   2.826   0.739   3.643
 7036TIP3   OH221052   3.646   0.126   2.130
 7036TIP3    H121053   3.671   0.040   2.099
 7036TIP3    H221054   3.681   0.187   2.065
 7037TIP3   OH221055   8.086   4.753   4.718
 7037TIP3    H121056   8.133   4.791   4.791
 7037TIP3    H221057   8.040   4.827   4.677
 7038TIP3   OH221058   5.442   1.128   2.839
 7038TIP3    H121059   5.352   1.095   2.837
 7038TIP3    H221060   5.490   1.071   2.778
 7039TIP3   OH221061   5.624   5.801   5.944
 7039TIP3    H121062   5.710   5.841   5.941
 7039TIP3    H221063   5.573   5.857   6.002
 7040TIP3   OH221064   3.759   3.623   2.419
 7040TIP3    H121065   3.700   3.551   2.396
 7040TIP3    H221066   3.724   3.658   2.501
 7041TIP3   OH221067   6.970   0.128   1.623
 7041TIP3    H121068   6.906   0.096   1.559
 7041TIP3    H221069   7.049   0.143   1.573
 7042TIP3   OH221070   5.625   1.866   0.946
 7042TIP3    H121071   5.652   1.810   1.019
 7042TIP3    H221072   5.707   1.895   0.906
 7043TIP3   OH221073   1.166   5.560   3.286
 7043TIP3    H121074   1.178   5.470   3.258
 7043TIP3    H221075   1.078   5.562   3.323
 7044TIP3   OH221076   3.136   6.997   1.695
 7044TIP3    H121077   3.081   6.925   1.664
 7044TIP3    H221078   3.133   7.062   1.624
 7045TIP3   OH221079   5.899   4.744   0.489
 7045TIP3    H121080   5.865   4.831   0.466
 7045TIP3    H221081   5.871   4.730   0.580
 7046TIP3   OH221082   4.005   0.388   2.918
 7046TIP3    H121083   3.921   0.433   2.910
 7046TIP3    H221084   3.995   0.331   2.994
 7047TIP3   OH221085   5.602   0.117   1.333
 7047TIP3    H121086   5.668   0.085   1.395
 7047TIP3    H221087   5.629   0.080   1.248
 7048TIP3   OH221088   1.596   0.746   4.674
 7048TIP3    H121089   1.515   0.696   4.664
 7048TIP3    H221090   1.572   0.837   4.658
 7049TIP3   OH221091   7.032   0.988   0.261
 7049TIP3    H121092   7.060   1.049   0.329
 7049TIP3    H221093   7.101   0.992   0.195
 7050TIP3   OH221094   5.033   6.981   4.520
 7050TIP3    H121095   5.113   6.950   4.563
 7050TIP3    H221096   5.063   7.047   4.458
 7051TIP3   OH221097   6.950   1.066   1.768
 7051TIP3    H121098   6.876   1.067   1.829
 7051TIP3    H221099   7.009   1.000   1.804
 7052TIP3   OH221100   7.496   1.876   5.158
 7052TIP3    H121101   7.409   1.901   5.191
 7052TIP3    H221102   7.535   1.826   5.230
 7053TIP3   OH221103   4.366   0.708   2.763
 7053TIP3    H121104   4.446   0.749   2.796
 7053TIP3    H221105   4.313   0.782   2.732
 7054TIP3   OH221106   7.749   7.419   0.085
 7054TIP3    H121107   7.733   7.326   0.103
 7054TIP3    H221108   7.766   7.423  -0.009
 7055TIP3   OH221109   5.194   1.173   1.579
 7055TIP3    H121110   5.224   1.138   1.495
 7055TIP3    H221111   5.201   1.268   1.569
 7056TIP3   OH221112   1.723   0.511   4.875
 7056TIP3    H121113   1.660   0.538   4.941
 7056TIP3    H221114   1.679   0.441   4.827
 7057TIP3   OH221115   8.160   1.592   1.917
 7057TIP3    H121116   8.113   1.570   1.837
 7057TIP3    H221117   8.248   1.557   1.904
 7058TIP3   OH221118   1.904   7.494   3.801
 7058TIP3    H121119   1.889   7.402   3.823
 7058TIP3    H221120   1.834   7.541   3.846
 7059TIP3   OH221121   6.793   5.232   1.923
 7059TIP3    H121122   6.733   5.298   1.959
 7059TIP3    H221123   6.820   5.269   1.839
 7060TIP3   OH221124   3.257   5.397   3.818
 7060TIP3    H121125   3.307   5.356   3.748
 7060TIP3    H221126   3.168   5.363   3.807
 7061TIP3   OH221127   7.227   0.863   1.098
 7061TIP3    H121128   7.172   0.787   1.119
 7061TIP3    H221129   7.291   0.830   1.036
 7062TIP3   OH221130   5.069   4.059   6.101
 7062TIP3    H121131   5.148   4.107   6.126
 7062TIP3    H221132   5.078   4.044   6.007
 7063TIP3   OH221133   0.229   6.363   5.454
 7063TIP3    H121134   0.269   6.451   5.453
 7063TIP3    H221135   0.172   6.363   5.530
 7064TIP3   OH221136   3.698   7.431   4.653
 7064TIP3    H121137   3.633   7.502   4.650
 7064TIP3    H221138   3.769   7.466   4.707
 7065TIP3   OH221139   1.981   6.258   3.675
 7065TIP3    H121140   2.027   6.256   3.590
 7065TIP3    H221141   2.039   6.210   3.734
 7066TIP3   OH221142   3.076   1.918   6.482
 7066TIP3    H121143   3.033   1.839   6.516
 7066TIP3    H221144   3.021   1.947   6.410
 7067TIP3   OH221145   6.077   6.277   0.580
 7067TIP3    H121146   6.150   6.237   0.533
 7067TIP3    H221147   6.009   6.210   0.580
 7068TIP3   OH221148   7.712   0.830   2.298
 7068TIP3    H121149   7.707   0.749   2.248
 7068TIP3    H221150   7.787   0.876   2.261
 7069TIP3   OH221151   3.645   1.607   3.525
 7069TIP3    H121152   3.575   1.562   3.572
 7069TIP3    H221153   3.722   1.553   3.541
 7070TIP3   OH221154   2.124   5.481   2.169
 7070TIP3    H121155   2.176   5.413   2.125
 7070TIP3    H221156   2.136   5.559   2.115
 7071TIP3   OH221157   6.343   4.534   3.529
 7071TIP3    H121158   6.257   4.521   3.570
 7071TIP3    H221159   6.378   4.446   3.520
 7072TIP3   OH221160   1.142   6.752   0.871
 7072TIP3    H121161   1.182   6.664   0.872
 7072TIP3    H221162   1.214   6.811   0.893
 7073TIP3   OH221163   7.511   5.192   0.264
 7073TIP3    H121164   7.439   5.186   0.326
 7073TIP3    H221165   7.503   5.114   0.209
 7074TIP3   OH221166   2.233   3.272   6.799
 7074TIP3    H121167   2.208   3.233   6.715
 7074TIP3    H221168   2.208   3.364   6.792
 7075TIP3   OH221169   1.059   4.143   2.716
 7075TIP3    H121170   0.975   4.189   2.713
 7075TIP3    H221171   1.122   4.209   2.744
 7076TIP3   OH221172   1.657   6.216   2.961
 7076TIP3    H121173   1.678   6.309   2.952
 7076TIP3    H221174   1.602   6.211   3.040
 7077TIP3   OH221175   3.552   4.919   2.308
 7077TIP3    H121176   3.490   4.928   2.235
 7077TIP3    H221177   3.496   4.911   2.385
 7078TIP3   OH221178   1.032   5.936   3.282
 7078TIP3    H121179   1.107   5.956   3.227
 7078TIP3    H221180   1.036   5.841   3.294
 7079TIP3   OH221181   5.784   1.204   1.808
 7079TIP3    H121182   5.872   1.182   1.839
 7079TIP3    H221183   5.728   1.189   1.885
 7080TIP3   OH221184   8.165   4.060   0.407
 7080TIP3    H121185   8.206   4.132   0.455
 7080TIP3    H221186   8.124   4.102   0.331
 7081TIP3   OH221187   4.206   1.867   0.878
 7081TIP3    H121188   4.209   1.961   0.891
 7081TIP3    H221189   4.249   1.853   0.793
 7082TIP3   OH221190   3.240   4.490   0.726
 7082TIP3    H121191   3.202   4.402   0.727
 7082TIP3    H221192   3.312   4.485   0.664
 7083TIP3   OH221193   4.053   4.466   2.709
 7083TIP3    H121194   4.012   4.545   2.674
 7083TIP3    H221195   4.105   4.498   2.783
 7084TIP3   OH221196   7.998   0.304   5.480
 7084TIP3    H121197   8.067   0.365   5.455
 7084TIP3    H221198   8.043   0.222   5.499
 7085TIP3   OH221199   4.518   1.460   6.208
 7085TIP3    H121200   4.547   1.482   6.120
 7085TIP3    H221201   4.487   1.543   6.244
 7086TIP3   OH221202   0.960   2.430   0.171
 7086TIP3    H121203   1.014   2.489   0.225
 7086TIP3    H221204   1.020   2.398   0.103
 7087TIP3   OH221205   7.608   0.716   5.003
 7087TIP3    H121206   7.676   0.657   4.968
 7087TIP3    H221207   7.645   0.803   4.994
 7088TIP3   OH221208   6.721   4.818   0.961
 7088TIP3    H121209   6.649   4.830   1.023
 7088TIP3    H221210   6.705   4.731   0.924
 7089TIP3   OH221211   7.602   5.256   0.014
 7089TIP3    H121212   7.521   5.239  -0.034
 7089TIP3    H221213   7.574   5.263   0.105
 7090TIP3   OH221214   0.807   3.144   4.849
 7090TIP3    H121215   0.745   3.079   4.814
 7090TIP3    H221216   0.881   3.140   4.789
 7091TIP3   OH221217   2.598   3.252   1.619
 7091TIP3    H121218   2.536   3.222   1.685
 7091TIP3    H221219   2.673   3.193   1.628
 7092TIP3   OH221220   8.091   5.451   0.243
 7092TIP3    H121221   8.093   5.365   0.200
 7092TIP3    H221222   8.075   5.431   0.335
 7093TIP3   OH221223   2.691   4.362   5.670
 7093TIP3    H121224   2.730   4.276   5.687
 7093TIP3    H221225   2.654   4.354   5.582
 7094TIP3   OH221226   0.195   3.539   6.206
 7094TIP3    H121227   0.241   3.550   6.123
 7094TIP3    H221228   0.130   3.608   6.208
 7095TIP3   OH221229   3.497   4.222   5.469
 7095TIP3    H121230   3.467   4.285   5.534
 7095TIP3    H221231   3.592   4.226   5.473
 7096TIP3   OH221232   6.225   0.828   1.900
 7096TIP3    H121233   6.217   0.755   1.962
 7096TIP3    H221234   6.223   0.786   1.814
 7097TIP3   OH221235   2.032   2.129   0.551
 7097TIP3    H121236   1.947   2.124   0.507
 7097TIP3    H221237   2.011   2.158   0.640
 7098TIP3   OH221238   0.862   4.559   5.679
 7098TIP3    H121239   0.839   4.573   5.771
 7098TIP3    H221240   0.881   4.647   5.646
 7099TIP3   OH221241   1.158   4.653   4.012
 7099TIP3    H121242   1.122   4.606   3.937
 7099TIP3    H221243   1.230   4.704   3.976
 7100TIP3   OH221244   8.297   3.154   3.634
 7100TIP3    H121245   8.233   3.142   3.705
 7100TIP3    H221246   8.244   3.169   3.556
 7101TIP3   OH221247   2.256   4.675   1.839
 7101TIP3    H121248   2.260   4.688   1.744
 7101TIP3    H221249   2.231   4.583   1.850
 7102TIP3   OH221250   4.117   2.925   5.615
 7102TIP3    H121251   4.179   2.862   5.576
 7102TIP3    H221252   4.031   2.891   5.592
 7103TIP3   OH221253   6.619   1.574   5.083
 7103TIP3    H121254   6.573   1.658   5.093
 7103TIP3    H221255   6.551   1.508   5.097
 7104TIP3   OH221256   0.348   0.815   0.368
 7104TIP3    H121257   0.325   0.735   0.321
 7104TIP3    H221258   0.399   0.785   0.444
 7105TIP3   OH221259   2.928   0.087   4.341
 7105TIP3    H121260   2.993   0.088   4.270
 7105TIP3    H221261   2.849   0.050   4.301
 7106TIP3   OH221262   3.720   1.111   1.348
 7106TIP3    H121263   3.794   1.085   1.293
 7106TIP3    H221264   3.747   1.195   1.386
 7107TIP3   OH221265   4.482   1.849   4.637
 7107TIP3    H121266   4.560   1.818   4.684
 7107TIP3    H221267   4.461   1.778   4.577
 7108TIP3   OH221268   8.059   0.890   2.637
 7108TIP3    H121269   8.025   0.969   2.594
 7108TIP3    H221270   8.091   0.921   2.722
 7109TIP3   OH221271   0.905   3.442   1.625
 7109TIP3    H121272   0.941   3.513   1.677
 7109TIP3    H221273   0.956   3.365   1.649
 7110TIP3   OH221274   5.274   1.736   5.713
 7110TIP3    H121275   5.196   1.698   5.671
 7110TIP3    H221276   5.245   1.755   5.802
 7111TIP3   OH221277   2.027   3.196   4.320
 7111TIP3    H121278   2.085   3.120   4.323
 7111TIP3    H221279   2.026   3.228   4.410
 7112TIP3   OH221280   8.057   5.684   4.212
 7112TIP3    H121281   8.145   5.659   4.185
 7112TIP3    H221282   8.029   5.748   4.146
 7113TIP3   OH221283   0.913   2.264   3.285
 7113TIP3    H121284   0.970   2.204   3.334
 7113TIP3    H221285   0.830   2.262   3.332
 7114TIP3   OH221286   7.601   6.310   2.625
 7114TIP3    H121287   7.658   6.382   2.597
 7114TIP3    H221288   7.640   6.278   2.706
 7115TIP3   OH221289   1.683   0.981   5.139
 7115TIP3    H121290   1.666   0.936   5.056
 7115TIP3    H221291   1.773   1.012   5.132
 7116TIP3   OH221292   6.720   1.027   4.247
 7116TIP3    H121293   6.716   1.036   4.152
 7116TIP3    H221294   6.793   0.966   4.262
 7117TIP3   OH221295   2.836   5.839   2.476
 7117TIP3    H121296   2.772   5.826   2.406
 7117TIP3    H221297   2.809   5.779   2.545
 7118TIP3   OH221298   0.580   7.531   0.695
 7118TIP3    H121299   0.621   7.447   0.718
 7118TIP3    H221300   0.511   7.508   0.633
 7119TIP3   OH221301   1.408   0.097   0.436
 7119TIP3    H121302   1.395   0.028   0.371
 7119TIP3    H221303   1.443   0.170   0.386
 7120TIP3   OH221304  -0.070   5.848   5.303
 7120TIP3    H121305  -0.083   5.913   5.371
 7120TIP3    H221306   0.001   5.882   5.249
 7121TIP3   OH221307   6.328   5.342   5.660
 7121TIP3    H121308   6.319   5.294   5.743
 7121TIP3    H221309   6.349   5.274   5.596
 7122TIP3   OH221310   3.978   3.737   2.268
 7122TIP3    H121311   3.942   3.823   2.243
 7122TIP3    H221312   3.906   3.693   2.311
 7123TIP3   OH221313   1.078   0.712   0.722
 7123TIP3    H121314   1.041   0.797   0.698
 7123TIP3    H221315   1.108   0.724   0.812
 7124TIP3   OH221316   0.636   5.077   1.029
 7124TIP3    H121317   0.706   5.088   0.965
 7124TIP3    H221318   0.652   4.991   1.068
 7125TIP3   OH221319   1.121   5.883   1.553
 7125TIP3    H121320   1.110   5.925   1.638
 7125TIP3    H221321   1.035   5.844   1.534
 7126TIP3   OH221322   3.374   5.586   2.722
 7126TIP3    H121323   3.342   5.538   2.798
 7126TIP3    H221324   3.299   5.586   2.661
 7127TIP3   OH221325   4.290   2.546   3.969
 7127TIP3    H121326   4.264   2.633   3.940
 7127TIP3    H221327   4.287   2.551   4.065
 7128TIP3   OH221328   1.570   6.440   3.563
 7128TIP3    H121329   1.521   6.504   3.614
 7128TIP3    H221330   1.578   6.480   3.477
 7129TIP3   OH221331   2.942   3.047   1.927
 7129TIP3    H121332   2.991   2.974   1.889
 7129TIP3    H221333   2.952   3.037   2.022
 7130TIP3   OH221334   2.146   5.159   3.483
 7130TIP3    H121335   2.159   5.094   3.413
 7130TIP3    H221336   2.098   5.230   3.440
 7131TIP3   OH221337   2.785   1.268   1.028
 7131TIP3    H121338   2.828   1.222   0.956
 7131TIP3    H221339   2.833   1.351   1.036
 7132TIP3   OH221340   4.746   0.946   1.002
 7132TIP3    H121341   4.709   1.004   1.068
 7132TIP3    H221342   4.673   0.922   0.946
 7133TIP3   OH221343   3.513   4.217   2.804
 7133TIP3    H121344   3.605   4.236   2.823
 7133TIP3    H221345   3.502   4.242   2.712
 7134TIP3   OH221346   5.648   1.422   4.190
 7134TIP3    H121347   5.680   1.402   4.278
 7134TIP3    H221348   5.705   1.493   4.160
 7135TIP3   OH221349   6.030   0.376   1.563
 7135TIP3    H121350   5.985   0.417   1.637
 7135TIP3    H221351   6.112   0.343   1.600
 7136TIP3   OH221352   4.904   3.206   0.662
 7136TIP3    H121353   4.925   3.257   0.584
 7136TIP3    H221354   4.989   3.190   0.704
 7137TIP3   OH221355   0.466   3.199   0.162
 7137TIP3    H121356   0.462   3.138   0.089
 7137TIP3    H221357   0.539   3.257   0.141
 7138TIP3   OH221358   6.923   4.353   5.075
 7138TIP3    H121359   6.836   4.366   5.037
 7138TIP3    H221360   6.983   4.393   5.012
 7139TIP3   OH221361   7.277   1.931   5.293
 7139TIP3    H121362   7.187   1.915   5.265
 7139TIP3    H221363   7.274   2.016   5.336
 7140TIP3   OH221364   1.711   4.625   6.520
 7140TIP3    H121365   1.763   4.544   6.517
 7140TIP3    H221366   1.645   4.613   6.452
 7141TIP3   OH221367   6.814   4.350   3.114
 7141TIP3    H121368   6.876   4.336   3.185
 7141TIP3    H221369   6.733   4.307   3.143
 7142TIP3   OH221370   0.349   2.695   4.126
 7142TIP3    H121371   0.335   2.754   4.052
 7142TIP3    H221372   0.283   2.627   4.115
 7143TIP3   OH221373   7.211   2.316   5.893
 7143TIP3    H121374   7.251   2.398   5.864
 7143TIP3    H221375   7.214   2.260   5.815
 7144TIP3   OH221376   5.355   4.348   1.642
 7144TIP3    H121377   5.411   4.408   1.593
 7144TIP3    H221378   5.266   4.375   1.621
 7145TIP3   OH221379   4.211   3.538   1.714
 7145TIP3    H121380   4.132   3.588   1.697
 7145TIP3    H221381   4.196   3.454   1.672
 7146TIP3   OH221382   2.013   3.600   3.524
 7146TIP3    H121383   1.931   3.559   3.551
 7146TIP3    H221384   1.987   3.670   3.464
 7147TIP3   OH221385   0.199   5.318   3.379
 7147TIP3    H121386   0.161   5.240   3.419
 7147TIP3    H221387   0.129   5.355   3.326
 7148TIP3   OH221388   2.523   5.045   0.125
 7148TIP3    H121389   2.441   5.077   0.164
 7148TIP3    H221390   2.575   5.125   0.112
 7149TIP3   OH221391   4.248   0.948   6.696
 7149TIP3    H121392   4.231   1.042   6.690
 7149TIP3    H221393   4.201   0.920   6.775
 7150TIP3   OH221394   2.829   1.636   4.488
 7150TIP3    H121395   2.814   1.542   4.487
 7150TIP3    H221396   2.922   1.645   4.510
 7151TIP3   OH221397   7.945   4.063   6.202
 7151TIP3    H121398   7.913   3.973   6.214
 7151TIP3    H221399   7.919   4.085   6.112
 7152TIP3   OH221400   7.105   2.551   5.091
 7152TIP3    H121401   7.022   2.595   5.071
 7152TIP3    H221402   7.169   2.622   5.095
 7153TIP3   OH221403   6.634   6.660   5.861
 7153TIP3    H121404   6.538   6.659   5.864
 7153TIP3    H221405   6.661   6.641   5.950
 7154TIP3   OH221406   7.294   1.913   1.945
 7154TIP3    H121407   7.252   1.948   1.867
 7154TIP3    H221408   7.265   1.822   1.949
 7155TIP3   OH221409   5.452   0.159   4.537
 7155TIP3    H121410   5.463   0.249   4.504
 7155TIP3    H221411   5.476   0.103   4.463
 7156TIP3   OH221412   3.906   0.142   1.963
 7156TIP3    H121413   3.942   0.135   2.051
 7156TIP3    H221414   3.894   0.236   1.949
 7157TIP3   OH221415   8.070   6.462   4.926
 7157TIP3    H121416   7.993   6.420   4.888
 7157TIP3    H221417   8.134   6.464   4.854
 7158TIP3   OH221418   0.081   0.424   5.103
 7158TIP3    H121419   0.122   0.400   5.186
 7158TIP3    H221420   0.084   0.520   5.102
 7159TIP3   OH221421   2.906   3.786   0.157
 7159TIP3    H121422   2.945   3.859   0.205
 7159TIP3    H221423   2.828   3.763   0.208
 7160TIP3   OH221424   6.978   6.329   2.077
 7160TIP3    H121425   7.073   6.327   2.063
 7160TIP3    H221426   6.951   6.238   2.070
 7161TIP3   OH221427   6.427   1.180   3.284
 7161TIP3    H121428   6.387   1.265   3.262
 7161TIP3    H221429   6.353   1.120   3.288
 7162TIP3   OH221430   5.463   5.647   2.583
 7162TIP3    H121431   5.388   5.673   2.638
 7162TIP3    H221432   5.429   5.576   2.529
 7163TIP3   OH221433   7.978   2.791   5.406
 7163TIP3    H121434   7.890   2.773   5.372
 7163TIP3    H221435   7.963   2.846   5.483
 7164TIP3   OH221436   0.948   7.374   3.328
 7164TIP3    H121437   0.944   7.395   3.235
 7164TIP3    H221438   0.877   7.312   3.343
 7165TIP3   OH221439   4.633   6.710   6.654
 7165TIP3    H121440   4.591   6.711   6.567
 7165TIP3    H221441   4.649   6.618   6.672
 7166TIP3   OH221442   6.905   3.813   2.390
 7166TIP3    H121443   6.842   3.809   2.463
 7166TIP3    H221444   6.959   3.890   2.410
 7167TIP3   OH221445   5.591   0.989   2.641
 7167TIP3    H121446   5.605   1.043   2.563
 7167TIP3    H221447   5.673   0.941   2.652
 7168TIP3   OH221448   5.335   3.558   2.147
 7168TIP3    H121449   5.286   3.501   2.088
 7168TIP3    H221450   5.418   3.512   2.161
 7169TIP3   OH221451   1.631   7.744   4.764
 7169TIP3    H121452   1.652   7.724   4.673
 7169TIP3    H221453   1.707   7.713   4.813
 7170TIP3   OH221454   6.072   2.560   4.327
 7170TIP3    H121455   6.095   2.539   4.417
 7170TIP3    H221456   5.982   2.529   4.317
 7171TIP3   OH221457   0.336   5.731   1.932
 7171TIP3    H121458   0.305   5.808   1.981
 7171TIP3    H221459   0.327   5.756   1.840
 7172TIP3   OH221460   1.286   1.180   5.885
 7172TIP3    H121461   1.304   1.167   5.792
 7172TIP3    H221462   1.314   1.270   5.903
 7173TIP3   OH221463   2.402   5.163   6.615
 7173TIP3    H121464   2.392   5.163   6.711
 7173TIP3    H221465   2.492   5.134   6.601
 7174TIP3   OH221466   6.759   3.519   4.145
 7174TIP3    H121467   6.783   3.551   4.058
 7174TIP3    H221468   6.843   3.493   4.184
 7175TIP3   OH221469   7.991   7.427   3.904
 7175TIP3    H121470   7.925   7.493   3.925
 7175TIP3    H221471   8.074   7.473   3.910
 7176TIP3   OH221472   5.756   3.454   1.582
 7176TIP3    H121473   5.743   3.481   1.491
 7176TIP3    H221474   5.830   3.393   1.579
 7177TIP3   OH221475   7.884   6.541   3.880
 7177TIP3    H121476   7.910   6.457   3.918
 7177TIP3    H221477   7.912   6.606   3.944
 7178TIP3   OH221478   2.336   3.832   5.422
 7178TIP3    H121479   2.287   3.749   5.418
 7178TIP3    H221480   2.364   3.839   5.513
 7179TIP3   OH221481   0.665   4.794   0.972
 7179TIP3    H121482   0.629   4.753   0.893
 7179TIP3    H221483   0.760   4.784   0.963
 7180TIP3   OH221484   4.828   1.761   0.581
 7180TIP3    H121485   4.758   1.827   0.582
 7180TIP3    H221486   4.828   1.723   0.669
 7181TIP3   OH221487   7.844   6.218   1.344
 7181TIP3    H121488   7.926   6.234   1.297
 7181TIP3    H221489   7.811   6.136   1.307
 7182TIP3   OH221490   7.634   7.753   2.019
 7182TIP3    H121491   7.577   7.771   2.094
 7182TIP3    H221492   7.576   7.712   1.955
 7183TIP3   OH221493   4.508   0.213   5.566
 7183TIP3    H121494   4.447   0.179   5.501
 7183TIP3    H221495   4.497   0.308   5.563
 7184TIP3   OH221496   4.292   6.407   3.093
 7184TIP3    H121497   4.358   6.426   3.160
 7184TIP3    H221498   4.311   6.317   3.065
 7185TIP3   OH221499   3.380   1.985   3.219
 7185TIP3    H121500   3.381   2.060   3.159
 7185TIP3    H221501   3.473   1.967   3.236
 7186TIP3   OH221502   0.366   7.478   3.592
 7186TIP3    H121503   0.367   7.559   3.642
 7186TIP3    H221504   0.346   7.505   3.502
 7187TIP3   OH221505   5.266   3.063   0.091
 7187TIP3    H121506   5.266   3.158   0.094
 7187TIP3    H221507   5.292   3.036   0.179
 7188TIP3   OH221508   6.364   1.667   0.021
 7188TIP3    H121509   6.363   1.667  -0.075
 7188TIP3    H221510   6.323   1.584   0.045
 7189TIP3   OH221511   1.310   5.313   2.768
 7189TIP3    H121512   1.272   5.227   2.748
 7189TIP3    H221513   1.286   5.368   2.693
 7190TIP3   OH221514   2.751   1.690   0.854
 7190TIP3    H121515   2.675   1.662   0.905
 7190TIP3    H221516   2.723   1.685   0.763
 7191TIP3   OH221517   4.476   1.350   0.938
 7191TIP3    H121518   4.542   1.418   0.940
 7191TIP3    H221519   4.408   1.380   0.999
 7192TIP3   OH221520   7.322   7.259   6.301
 7192TIP3    H121521   7.244   7.302   6.266
 7192TIP3    H221522   7.395   7.311   6.267
 7193TIP3   OH221523   1.692   5.275   1.597
 7193TIP3    H121524   1.742   5.212   1.544
 7193TIP3    H221525   1.717   5.255   1.687
 7194TIP3   OH221526   4.037   5.922   3.953
 7194TIP3    H121527   4.083   5.873   3.885
 7194TIP3    H221528   4.071   6.011   3.946
 7195TIP3   OH221529   2.225   1.033   1.903
 7195TIP3    H121530   2.227   1.106   1.965
 7195TIP3    H221531   2.308   1.039   1.855
 7196TIP3   OH221532   0.407   1.810   3.647
 7196TIP3    H121533   0.336   1.823   3.710
 7196TIP3    H221534   0.459   1.738   3.683
 7197TIP3   OH221535   7.347   1.629   5.394
 7197TIP3    H121536   7.261   1.664   5.370
 7197TIP3    H221537   7.345   1.538   5.363
 7198TIP3   OH221538   4.685   5.465   1.011
 7198TIP3    H121539   4.727   5.444   1.094
 7198TIP3    H221540   4.724   5.549   0.985
 7199TIP3   OH221541   7.755   5.393   4.190
 7199TIP3    H121542   7.701   5.333   4.242
 7199TIP3    H221543   7.830   5.340   4.162
 7200TIP3   OH221544   7.629   7.246   6.173
 7200TIP3    H121545   7.621   7.196   6.092
 7200TIP3    H221546   7.719   7.279   6.171
 7201TIP3   OH221547   6.161   5.356   2.832
 7201TIP3    H121548   6.256   5.345   2.838
 7201TIP3    H221549   6.130   5.277   2.788
 7202TIP3   OH221550   5.153   0.127   1.977
 7202TIP3    H121551   5.197   0.065   2.035
 7202TIP3    H221552   5.214   0.201   1.972
 7203TIP3   OH221553   5.953   1.366   4.405
 7203TIP3    H121554   5.983   1.293   4.459
 7203TIP3    H221555   5.980   1.344   4.316
 7204TIP3   OH221556   1.997   6.671   0.584
 7204TIP3    H121557   1.952   6.756   0.582
 7204TIP3    H221558   1.949   6.619   0.648
 7205TIP3   OH221559   2.636   7.851   1.056
 7205TIP3    H121560   2.581   7.895   1.121
 7205TIP3    H221561   2.619   7.758   1.070
 7206TIP3   OH221562   6.153   2.836   4.390
 7206TIP3    H121563   6.072   2.825   4.438
 7206TIP3    H221564   6.192   2.749   4.388
 7207TIP3   OH221565   2.927   0.678   5.366
 7207TIP3    H121566   3.001   0.690   5.425
 7207TIP3    H221567   2.855   0.724   5.410
 7208TIP3   OH221568   0.978   6.348   0.096
 7208TIP3    H121569   0.942   6.414   0.037
 7208TIP3    H221570   1.071   6.345   0.073
 7209TIP3   OH221571   5.333   5.762   4.403
 7209TIP3    H121572   5.299   5.785   4.489
 7209TIP3    H221573   5.397   5.693   4.420
 7210TIP3   OH221574   5.705   2.956   1.989
 7210TIP3    H121575   5.626   2.918   1.950
 7210TIP3    H221576   5.729   3.027   1.929
 7211TIP3   OH221577   4.206   3.528   6.575
 7211TIP3    H121578   4.296   3.546   6.547
 7211TIP3    H221579   4.193   3.435   6.555
 7212TIP3   OH221580   3.046   2.288   6.763
 7212TIP3    H121581   2.986   2.297   6.689
 7212TIP3    H221582   3.089   2.203   6.750
 7213TIP3   OH221583   6.006   6.027   5.071
 7213TIP3    H121584   5.924   6.058   5.107
 7213TIP3    H221585   6.028   5.950   5.123
 7214TIP3   OH221586   0.938   5.791   2.091
 7214TIP3    H121587   0.849   5.768   2.061
 7214TIP3    H221588   0.924   5.853   2.162
 7215TIP3   OH221589   6.066   3.658   3.007
 7215TIP3    H121590   6.139   3.634   2.949
 7215TIP3    H221591   6.007   3.707   2.951
 7216TIP3   OH221592   5.438   0.202   2.346
 7216TIP3    H121593   5.484   0.191   2.429
 7216TIP3    H221594   5.462   0.290   2.317
 7217TIP3   OH221595   1.771   2.869   6.577
 7217TIP3    H121596   1.826   2.820   6.515
 7217TIP3    H221597   1.752   2.807   6.647
 7218TIP3   OH221598   8.244   3.261   4.228
 7218TIP3    H121599   8.204   3.259   4.315
 7218TIP3    H221600   8.280   3.173   4.216
 7219TIP3   OH221601   6.014   0.359   6.722
 7219TIP3    H121602   5.968   0.278   6.698
 7219TIP3    H221603   6.059   0.386   6.642
 7220TIP3   OH221604   4.375   5.012   0.387
 7220TIP3    H121605   4.369   4.919   0.411
 7220TIP3    H221606   4.303   5.025   0.325
 7221TIP3   OH221607   2.279   6.409   3.609
 7221TIP3    H121608   2.220   6.452   3.671
 7221TIP3    H221609   2.302   6.327   3.652
 7222TIP3   OH221610   2.709   5.431   6.395
 7222TIP3    H121611   2.678   5.478   6.317
 7222TIP3    H221612   2.796   5.467   6.411
 7223TIP3   OH221613   5.306   1.831   6.450
 7223TIP3    H121614   5.332   1.799   6.363
 7223TIP3    H221615   5.212   1.816   6.454
 7224TIP3   OH221616   2.184   0.903   4.960
 7224TIP3    H121617   2.262   0.956   4.970
 7224TIP3    H221618   2.140   0.906   5.045
 7225TIP3   OH221619   2.303   6.876   0.815
 7225TIP3    H121620   2.225   6.827   0.841
 7225TIP3    H221621   2.275   6.967   0.814
 7226TIP3   OH221622   3.070   5.203   6.264
 7226TIP3    H121623   3.049   5.163   6.180
 7226TIP3    H221624   3.091   5.129   6.321
 7227TIP3   OH221625   8.206   1.321   1.759
 7227TIP3    H121626   8.223   1.337   1.666
 7227TIP3    H221627   8.113   1.299   1.763
 7228TIP3   OH221628   3.039   3.038   5.733
 7228TIP3    H121629   3.016   2.946   5.716
 7228TIP3    H221630   2.963   3.088   5.703
 7229TIP3   OH221631   5.415   1.443   0.917
 7229TIP3    H121632   5.416   1.519   0.975
 7229TIP3    H221633   5.502   1.443   0.876
 7230TIP3   OH221634   3.667   5.722   6.518
 7230TIP3    H121635   3.710   5.639   6.497
 7230TIP3    H221636   3.662   5.722   6.614
 7231TIP3   OH221637   7.880   5.616   2.538
 7231TIP3    H121638   7.902   5.527   2.565
 7231TIP3    H221639   7.952   5.669   2.574
 7232TIP3   OH221640   5.716   7.786   5.347
 7232TIP3    H121641   5.744   7.788   5.439
 7232TIP3    H221642   5.690   7.877   5.328
 7233TIP3   OH221643   3.204   6.360   3.134
 7233TIP3    H121644   3.180   6.278   3.177
 7233TIP3    H221645   3.300   6.362   3.138
 7234TIP3   OH221646   5.182   6.448   4.150
 7234TIP3    H121647   5.213   6.539   4.141
 7234TIP3    H221648   5.254   6.395   4.116
 7235TIP3   OH221649   0.493   5.066   2.153
 7235TIP3    H121650   0.459   5.140   2.204
 7235TIP3    H221651   0.481   5.092   2.062
 7236TIP3   OH221652   1.774   3.091   2.874
 7236TIP3    H121653   1.709   3.105   2.806
 7236TIP3    H221654   1.787   2.996   2.874
 7237TIP3   OH221655   2.796   2.951   3.319
 7237TIP3    H121656   2.815   3.003   3.397
 7237TIP3    H221657   2.725   2.892   3.347
 7238TIP3   OH221658   0.468   7.226   4.985
 7238TIP3    H121659   0.553   7.181   4.986
 7238TIP3    H221660   0.437   7.215   4.895
 7239TIP3   OH221661   0.042   5.404   4.556
 7239TIP3    H121662   0.133   5.375   4.553
 7239TIP3    H221663   0.039   5.466   4.629
 7240TIP3   OH221664   1.114   1.781   5.197
 7240TIP3    H121665   1.022   1.807   5.190
 7240TIP3    H221666   1.146   1.827   5.275
 7241TIP3   OH221667   7.339   2.248   6.464
 7241TIP3    H121668   7.396   2.290   6.399
 7241TIP3    H221669   7.253   2.286   6.447
 7242TIP3   OH221670   5.259   3.698   1.776
 7242TIP3    H121671   5.354   3.685   1.774
 7242TIP3    H221672   5.228   3.668   1.691
 7243TIP3   OH221673   4.201   4.103   3.911
 7243TIP3    H121674   4.208   4.028   3.969
 7243TIP3    H221675   4.275   4.158   3.934
 7244TIP3   OH221676   3.976   4.382   1.157
 7244TIP3    H121677   3.892   4.361   1.115
 7244TIP3    H221678   3.962   4.469   1.195
 7245TIP3   OH221679   8.129   6.261   4.615
 7245TIP3    H121680   8.146   6.191   4.552
 7245TIP3    H221681   8.129   6.341   4.562
 7246TIP3   OH221682   2.018   3.363   0.525
 7246TIP3    H121683   2.084   3.308   0.483
 7246TIP3    H221684   1.935   3.332   0.490
 7247TIP3   OH221685   2.595   4.268   2.629
 7247TIP3    H121686   2.575   4.188   2.580
 7247TIP3    H221687   2.691   4.272   2.629
 7248TIP3   OH221688   0.377   3.487   3.926
 7248TIP3    H121689   0.313   3.446   3.984
 7248TIP3    H221690   0.325   3.526   3.856
 7249TIP3   OH221691   6.217   1.273   6.495
 7249TIP3    H121692   6.150   1.289   6.561
 7249TIP3    H221693   6.202   1.341   6.429
 7250TIP3   OH221694   3.455   0.662   6.294
 7250TIP3    H121695   3.492   0.722   6.229
 7250TIP3    H221696   3.530   0.608   6.321
 7251TIP3   OH221697   7.155   4.492   1.636
 7251TIP3    H121698   7.121   4.424   1.695
 7251TIP3    H221699   7.165   4.569   1.692
 7252TIP3   OH221700   2.264   1.321   2.028
 7252TIP3    H121701   2.203   1.344   1.958
 7252TIP3    H221702   2.214   1.333   2.108
 7253TIP3   OH221703   2.728   2.745   1.324
 7253TIP3    H121704   2.761   2.804   1.256
 7253TIP3    H221705   2.634   2.739   1.308
 7254TIP3   OH221706   6.641   7.240   2.096
 7254TIP3    H121707   6.596   7.156   2.108
 7254TIP3    H221708   6.706   7.242   2.166
 7255TIP3   OH221709   2.476   6.558   5.093
 7255TIP3    H121710   2.422   6.568   5.015
 7255TIP3    H221711   2.565   6.547   5.060
 7256TIP3   OH221712   6.136   3.252   6.102
 7256TIP3    H121713   6.094   3.312   6.040
 7256TIP3    H221714   6.163   3.309   6.175
 7257TIP3   OH221715   2.471   4.579   0.372
 7257TIP3    H121716   2.423   4.593   0.291
 7257TIP3    H221717   2.404   4.564   0.438
 7258TIP3   OH221718   6.746   5.124   4.204
 7258TIP3    H121719   6.807   5.063   4.246
 7258TIP3    H221720   6.778   5.211   4.229
 7259TIP3   OH221721   3.267   3.626   3.221
 7259TIP3    H121722   3.184   3.671   3.232
 7259TIP3    H221723   3.302   3.660   3.139
 7260TIP3   OH221724   4.005   5.729   4.173
 7260TIP3    H121725   4.041   5.719   4.261
 7260TIP3    H221726   4.025   5.820   4.149
 7261TIP3   OH221727   8.098   6.886   4.241
 7261TIP3    H121728   8.131   6.975   4.229
 7261TIP3    H221729   8.100   6.872   4.335
 7262TIP3   OH221730   6.509   6.105   5.806
 7262TIP3    H121731   6.489   6.047   5.880
 7262TIP3    H221732   6.479   6.191   5.834
 7263TIP3   OH221733   3.306   5.519   0.728
 7263TIP3    H121734   3.265   5.584   0.671
 7263TIP3    H221735   3.284   5.548   0.817
 7264TIP3   OH221736   8.030   5.726   2.975
 7264TIP3    H121737   8.104   5.695   2.922
 7264TIP3    H221738   7.958   5.735   2.912
 7265TIP3   OH221739   3.382   4.107   0.479
 7265TIP3    H121740   3.330   4.136   0.405
 7265TIP3    H221741   3.338   4.143   0.556
 7266TIP3   OH221742   7.421   5.641   2.225
 7266TIP3    H121743   7.501   5.636   2.279
 7266TIP3    H221744   7.395   5.550   2.212
 7267TIP3   OH221745   3.690   4.693   3.750
 7267TIP3    H121746   3.669   4.600   3.750
 7267TIP3    H221747   3.620   4.734   3.700
 7268TIP3   OH221748   7.056   5.121   1.390
 7268TIP3    H121749   7.008   5.198   1.360
 7268TIP3    H221750   7.142   5.155   1.417
 7269TIP3   OH221751   1.527   7.230   6.790
 7269TIP3    H121752   1.481   7.314   6.797
 7269TIP3    H221753   1.530   7.212   6.696
 7270TIP3   OH221754   5.426   0.529   4.622
 7270TIP3    H121755   5.396   0.597   4.683
 7270TIP3    H221756   5.359   0.461   4.628
 7271TIP3   OH221757   4.614   4.345   1.761
 7271TIP3    H121758   4.567   4.395   1.828
 7271TIP3    H221759   4.594   4.254   1.780
 7272TIP3   OH221760   2.129   2.608   4.681
 7272TIP3    H121761   2.155   2.551   4.609
 7272TIP3    H221762   2.090   2.549   4.745
 7273TIP3   OH221763   1.442   6.643   5.225
 7273TIP3    H121764   1.407   6.731   5.212
 7273TIP3    H221765   1.376   6.585   5.187
 7274TIP3   OH221766   2.422   0.594   2.376
 7274TIP3    H121767   2.362   0.568   2.306
 7274TIP3    H221768   2.448   0.683   2.354
 7275TIP3   OH221769   0.903   1.444   1.510
 7275TIP3    H121770   0.954   1.365   1.490
 7275TIP3    H221771   0.935   1.510   1.448
 7276TIP3   OH221772   3.764   6.729   3.863
 7276TIP3    H121773   3.696   6.662   3.871
 7276TIP3    H221774   3.717   6.812   3.877
 7277TIP3   OH221775   0.019   1.054   2.081
 7277TIP3    H121776   0.063   1.117   2.139
 7277TIP3    H221777   0.062   0.971   2.100
 7278TIP3   OH221778   2.576   1.120   2.309
 7278TIP3    H121779   2.638   1.193   2.301
 7278TIP3    H221780   2.625   1.044   2.279
 7279TIP3   OH221781   1.289   5.727   2.844
 7279TIP3    H121782   1.381   5.734   2.820
 7279TIP3    H221783   1.279   5.639   2.879
 7280TIP3   OH221784   7.023   5.731   2.313
 7280TIP3    H121785   7.079   5.737   2.390
 7280TIP3    H221786   6.945   5.685   2.344
 7281TIP3   OH221787   4.161   1.574   2.609
 7281TIP3    H121788   4.250   1.549   2.587
 7281TIP3    H221789   4.166   1.667   2.630
 7282TIP3   OH221790   3.290   0.782   0.653
 7282TIP3    H121791   3.349   0.717   0.616
 7282TIP3    H221792   3.223   0.796   0.586
 7283TIP3   OH221793   6.064   1.927   4.508
 7283TIP3    H121794   5.977   1.889   4.495
 7283TIP3    H221795   6.066   1.952   4.600
 7284TIP3   OH221796   1.496   0.904   3.017
 7284TIP3    H121797   1.565   0.958   2.980
 7284TIP3    H221798   1.426   0.966   3.039
 7285TIP3   OH221799   0.711   2.516   0.186
 7285TIP3    H121800   0.804   2.501   0.172
 7285TIP3    H221801   0.696   2.605   0.155
 7286TIP3   OH221802   0.868   1.918   2.525
 7286TIP3    H121803   0.810   1.959   2.461
 7286TIP3    H221804   0.841   1.826   2.528
 7287TIP3   OH221805   5.963   5.170   5.139
 7287TIP3    H121806   6.028   5.139   5.202
 7287TIP3    H221807   5.944   5.093   5.085
 7288TIP3   OH221808   4.903   5.896   0.933
 7288TIP3    H121809   4.992   5.931   0.930
 7288TIP3    H221810   4.863   5.926   0.851
 7289TIP3   OH221811   0.609   4.972   6.143
 7289TIP3    H121812   0.626   5.027   6.067
 7289TIP3    H221813   0.644   5.021   6.217
 7290TIP3   OH221814   3.832   5.675   6.203
 7290TIP3    H121815   3.749   5.698   6.160
 7290TIP3    H221816   3.808   5.617   6.274
 7291TIP3   OH221817   0.491   4.843   2.672
 7291TIP3    H121818   0.562   4.786   2.640
 7291TIP3    H221819   0.411   4.802   2.639
 7292TIP3   OH221820   3.838   4.914   2.414
 7292TIP3    H121821   3.822   4.822   2.435
 7292TIP3    H221822   3.759   4.943   2.368
 7293TIP3   OH221823   8.294   3.628   5.978
 7293TIP3    H121824   8.251   3.543   5.971
 7293TIP3    H221825   8.320   3.649   5.889
 7294TIP3   OH221826   0.146   5.170   1.304
 7294TIP3    H121827   0.095   5.150   1.225
 7294TIP3    H221828   0.225   5.213   1.270
 7295TIP3   OH221829   0.194   6.625   0.423
 7295TIP3    H121830   0.212   6.630   0.329
 7295TIP3    H221831   0.187   6.531   0.441
 7296TIP3   OH221832   3.633   3.774   5.231
 7296TIP3    H121833   3.636   3.784   5.136
 7296TIP3    H221834   3.573   3.843   5.261
 7297TIP3   OH221835   7.485   2.900   5.293
 7297TIP3    H121836   7.556   2.963   5.293
 7297TIP3    H221837   7.436   2.919   5.213
 7298TIP3   OH221838   0.342   3.449   1.434
 7298TIP3    H121839   0.296   3.527   1.402
 7298TIP3    H221840   0.287   3.376   1.406
 7299TIP3   OH221841   3.661   2.113   0.900
 7299TIP3    H121842   3.744   2.065   0.892
 7299TIP3    H221843   3.601   2.049   0.940
 7300TIP3   OH221844   4.093   1.260   6.611
 7300TIP3    H121845   4.050   1.237   6.529
 7300TIP3    H221846   4.153   1.331   6.586
 7301TIP3   OH221847   0.945   6.288   1.148
 7301TIP3    H121848   0.896   6.336   1.081
 7301TIP3    H221849   0.879   6.265   1.214
 7302TIP3   OH221850   3.110   4.150   2.694
 7302TIP3    H121851   3.120   4.153   2.789
 7302TIP3    H221852   3.059   4.071   2.677
 7303TIP3   OH221853   0.517   4.477   5.905
 7303TIP3    H121854   0.575   4.552   5.918
 7303TIP3    H221855   0.442   4.496   5.961
 7304TIP3   OH221856   3.020   6.315   0.305
 7304TIP3    H121857   3.024   6.220   0.297
 7304TIP3    H221858   3.111   6.343   0.305
 7305TIP3   OH221859   1.521   5.554   3.832
 7305TIP3    H121860   1.442   5.546   3.778
 7305TIP3    H221861   1.531   5.467   3.872
 7306TIP3   OH221862   7.659   7.780   0.517
 7306TIP3    H121863   7.601   7.831   0.460
 7306TIP3    H221864   7.691   7.709   0.461
 7307TIP3   OH221865   4.264   3.467   2.966
 7307TIP3    H121866   4.178   3.450   3.005
 7307TIP3    H221867   4.262   3.561   2.945
 7308TIP3   OH221868   6.494   4.590   2.563
 7308TIP3    H121869   6.518   4.630   2.647
 7308TIP3    H221870   6.501   4.496   2.579
 7309TIP3   OH221871   4.838   3.961   2.384
 7309TIP3    H121872   4.802   3.932   2.300
 7309TIP3    H221873   4.913   3.904   2.399
 7310TIP3   OH221874   1.636   0.072   4.257
 7310TIP3    H121875   1.588   0.046   4.178
 7310TIP3    H221876   1.712   0.014   4.259
 7311TIP3   OH221877   5.421   3.674   3.414
 7311TIP3    H121878   5.383   3.617   3.347
 7311TIP3    H221879   5.464   3.744   3.364
 7312TIP3   OH221880   5.295   5.178   5.726
 7312TIP3    H121881   5.351   5.250   5.755
 7312TIP3    H221882   5.268   5.134   5.806
 7313TIP3   OH221883   1.350   3.806   6.145
 7313TIP3    H121884   1.378   3.873   6.082
 7313TIP3    H221885   1.394   3.726   6.115
 7314TIP3   OH221886   1.821   7.589   4.422
 7314TIP3    H121887   1.847   7.653   4.488
 7314TIP3    H221888   1.726   7.581   4.433
 7315TIP3   OH221889   0.146   6.588   4.935
 7315TIP3    H121890   0.175   6.497   4.926
 7315TIP3    H221891   0.092   6.604   4.858
 7316TIP3   OH221892   1.009   4.383   5.509
 7316TIP3    H121893   0.929   4.374   5.457
 7316TIP3    H221894   0.989   4.341   5.592
 7317TIP3   OH221895   4.898   6.220   3.432
 7317TIP3    H121896   4.980   6.177   3.406
 7317TIP3    H221897   4.865   6.259   3.350
 7318TIP3   OH221898   6.147   7.381   4.780
 7318TIP3    H121899   6.080   7.395   4.712
 7318TIP3    H221900   6.137   7.289   4.803
 7319TIP3   OH221901   6.188   7.185   4.402
 7319TIP3    H121902   6.155   7.273   4.385
 7319TIP3    H221903   6.146   7.131   4.335
 7320TIP3   OH221904   1.332   6.562   3.288
 7320TIP3    H121905   1.381   6.621   3.231
 7320TIP3    H221906   1.341   6.601   3.375
 7321TIP3   OH221907   6.094   0.716   6.639
 7321TIP3    H121908   6.174   0.765   6.657
 7321TIP3    H221909   6.024   0.772   6.675
 7322TIP3   OH221910   4.982   0.627   4.479
 7322TIP3    H121911   5.010   0.625   4.571
 7322TIP3    H221912   4.903   0.681   4.480
 7323TIP3   OH221913   3.212   0.187   5.937
 7323TIP3    H121914   3.121   0.166   5.957
 7323TIP3    H221915   3.207   0.260   5.875
 7324TIP3   OH221916   3.169   1.609   0.806
 7324TIP3    H121917   3.225   1.580   0.734
 7324TIP3    H221918   3.222   1.596   0.884
 7325TIP3   OH221919   0.943   1.440   3.040
 7325TIP3    H121920   0.939   1.522   3.090
 7325TIP3    H221921   0.997   1.460   2.964
 7326TIP3   OH221922   2.404   7.573   6.252
 7326TIP3    H121923   2.495   7.601   6.261
 7326TIP3    H221924   2.379   7.545   6.340
 7327TIP3   OH221925   5.938   2.254   5.402
 7327TIP3    H121926   6.011   2.196   5.422
 7327TIP3    H221927   5.953   2.280   5.311
 7328TIP3   OH221928   0.540   7.696   2.432
 7328TIP3    H121929   0.461   7.686   2.484
 7328TIP3    H221930   0.567   7.787   2.445
 7329TIP3   OH221931   3.056   5.016   2.775
 7329TIP3    H121932   2.964   5.025   2.748
 7329TIP3    H221933   3.091   5.105   2.772
 7330TIP3   OH221934   2.851   1.873   5.956
 7330TIP3    H121935   2.911   1.892   5.884
 7330TIP3    H221936   2.770   1.845   5.913
 7331TIP3   OH221937   7.287   7.100   2.450
 7331TIP3    H121938   7.271   7.139   2.535
 7331TIP3    H221939   7.320   7.012   2.470
 7332TIP3   OH221940   0.319   1.192   3.242
 7332TIP3    H121941   0.244   1.151   3.285
 7332TIP3    H221942   0.282   1.266   3.194
 7333TIP3   OH221943   8.193   5.417   5.432
 7333TIP3    H121944   8.157   5.497   5.469
 7333TIP3    H221945   8.288   5.426   5.443
 7334TIP3   OH221946   4.596   3.203   0.669
 7334TIP3    H121947   4.630   3.116   0.648
 7334TIP3    H221948   4.670   3.247   0.711
 7335TIP3   OH221949   0.377   4.472   0.093
 7335TIP3    H121950   0.433   4.413   0.043
 7335TIP3    H221951   0.315   4.413   0.137
 7336TIP3   OH221952   5.519   3.016   2.942
 7336TIP3    H121953   5.596   2.967   2.969
 7336TIP3    H221954   5.477   2.960   2.876
 7337TIP3   OH221955   5.225   6.383   1.336
 7337TIP3    H121956   5.233   6.461   1.281
 7337TIP3    H221957   5.314   6.349   1.343
 7338TIP3   OH221958   0.565   0.720   6.678
 7338TIP3    H121959   0.582   0.792   6.739
 7338TIP3    H221960   0.500   0.666   6.722
 7339TIP3   OH221961   2.580   7.809   2.795
 7339TIP3    H121962   2.512   7.872   2.770
 7339TIP3    H221963   2.571   7.737   2.733
 7340TIP3   OH221964   3.317   7.154   1.220
 7340TIP3    H121965   3.408   7.130   1.238
 7340TIP3    H221966   3.271   7.137   1.302
 7341TIP3   OH221967   7.206   0.675   5.122
 7341TIP3    H121968   7.196   0.654   5.215
 7341TIP3    H221969   7.252   0.758   5.120
 7342TIP3   OH221970   7.818   7.228   4.089
 7342TIP3    H121971   7.853   7.307   4.049
 7342TIP3    H221972   7.786   7.176   4.015
 7343TIP3   OH221973   0.823   7.668   5.561
 7343TIP3    H121974   0.733   7.684   5.588
 7343TIP3    H221975   0.825   7.694   5.468
 7344TIP3   OH221976   5.911   4.448   5.932
 7344TIP3    H121977   5.927   4.431   5.840
 7344TIP3    H221978   5.833   4.396   5.953
 7345TIP3   OH221979   0.363   3.955   5.341
 7345TIP3    H121980   0.366   4.016   5.268
 7345TIP3    H221981   0.447   3.909   5.338
 7346TIP3   OH221982   5.316   0.281   3.444
 7346TIP3    H121983   5.325   0.188   3.467
 7346TIP3    H221984   5.286   0.322   3.525
 7347TIP3   OH221985   1.261   2.837   3.177
 7347TIP3    H121986   1.258   2.794   3.263
 7347TIP3    H221987   1.325   2.908   3.189
 7348TIP3   OH221988   3.363   5.982   3.898
 7348TIP3    H121989   3.321   6.068   3.889
 7348TIP3    H221990   3.326   5.930   3.827
 7349TIP3   OH221991   8.181   2.574   2.056
 7349TIP3    H121992   8.137   2.643   2.106
 7349TIP3    H221993   8.129   2.495   2.073
 7350TIP3   OH221994   0.183   1.399   3.848
 7350TIP3    H121995   0.133   1.331   3.802
 7350TIP3    H221996   0.179   1.374   3.940
 7351TIP3   OH221997   4.246   0.230   4.127
 7351TIP3    H121998   4.329   0.192   4.154
 7351TIP3    H221999   4.185   0.209   4.198
 7352TIP3   OH222000   7.885   0.697   2.569
 7352TIP3    H122001   7.936   0.617   2.582
 7352TIP3    H222002   7.947   0.768   2.588
 7353TIP3   OH222003   5.184   2.710   4.634
 7353TIP3    H122004   5.224   2.695   4.549
 7353TIP3    H222005   5.093   2.733   4.614
 7354TIP3   OH222006   7.397   6.565   2.099
 7354TIP3    H122007   7.408   6.482   2.144
 7354TIP3    H222008   7.479   6.579   2.052
 7355TIP3   OH222009   0.112   4.429   2.505
 7355TIP3    H122010   0.125   4.523   2.518
 7355TIP3    H222011   0.063   4.422   2.423
 7356TIP3   OH222012   0.942   1.159   4.362
 7356TIP3    H122013   0.954   1.188   4.453
 7356TIP3    H222014   1.009   1.091   4.350
 7357TIP3   OH222015   4.369   6.342   4.129
 7357TIP3    H122016   4.339   6.369   4.216
 7357TIP3    H222017   4.365   6.421   4.076
 7358TIP3   OH222018   1.828   6.825   2.797
 7358TIP3    H122019   1.819   6.742   2.752
 7358TIP3    H222020   1.918   6.853   2.780
 7359TIP3   OH222021   5.895   3.552   5.196
 7359TIP3    H122022   5.821   3.612   5.184
 7359TIP3    H222023   5.928   3.571   5.284
 7360TIP3   OH222024   8.058   7.576   4.763
 7360TIP3    H122025   8.036   7.531   4.682
 7360TIP3    H222026   8.153   7.590   4.759
 7361TIP3   OH222027   0.047   4.055   2.681
 7361TIP3    H122028   0.008   4.056   2.594
 7361TIP3    H222029  -0.025   4.030   2.740
 7362TIP3   OH222030   3.817   0.758   3.052
 7362TIP3    H122031   3.827   0.853   3.057
 7362TIP3    H222032   3.895   0.724   3.094
 7363TIP3   OH222033   2.074   6.278   4.422
 7363TIP3    H122034   2.120   6.292   4.339
 7363TIP3    H222035   2.024   6.198   4.408
 7364TIP3   OH222036   5.518   2.930   0.877
 7364TIP3    H122037   5.510   2.897   0.967
 7364TIP3    H222038   5.477   2.862   0.823
 7365TIP3   OH222039   7.547   2.872   3.121
 7365TIP3    H122040   7.559   2.888   3.028
 7365TIP3    H222041   7.589   2.788   3.138
 7366TIP3   OH222042   1.164   1.308   0.915
 7366TIP3    H122043   1.184   1.238   0.977
 7366TIP3    H222044   1.084   1.278   0.871
 7367TIP3   OH222045   3.461   2.966   0.477
 7367TIP3    H122046   3.473   3.056   0.448
 7367TIP3    H222047   3.547   2.940   0.511
 7368TIP3   OH222048   1.487   5.789   2.292
 7368TIP3    H122049   1.531   5.764   2.373
 7368TIP3    H222050   1.555   5.831   2.239
 7369TIP3   OH222051   4.404   1.683   1.688
 7369TIP3    H122052   4.487   1.725   1.711
 7369TIP3    H222053   4.343   1.712   1.756
 7370TIP3   OH222054   5.443   2.488   1.396
 7370TIP3    H122055   5.488   2.479   1.480
 7370TIP3    H222056   5.363   2.537   1.416
 7371TIP3   OH222057   3.809   1.521   2.837
 7371TIP3    H122058   3.743   1.587   2.815
 7371TIP3    H222059   3.773   1.439   2.803
 7372TIP3   OH222060   2.574   2.323   0.621
 7372TIP3    H122061   2.623   2.257   0.573
 7372TIP3    H222062   2.530   2.275   0.691
 7373TIP3   OH222063   5.372   1.457   4.194
 7373TIP3    H122064   5.463   1.441   4.169
 7373TIP3    H222065   5.348   1.537   4.147
 7374TIP3   OH222066   2.699   0.268   5.254
 7374TIP3    H122067   2.690   0.179   5.287
 7374TIP3    H222068   2.610   0.294   5.231
 7375TIP3   OH222069   0.261   6.276   0.445
 7375TIP3    H122070   0.192   6.263   0.380
 7375TIP3    H222071   0.340   6.239   0.404
 7376TIP3   OH222072   3.710   4.610   5.241
 7376TIP3    H122073   3.737   4.685   5.294
 7376TIP3    H222074   3.716   4.641   5.151
 7377TIP3   OH222075   0.782   1.626   6.817
 7377TIP3    H122076   0.713   1.566   6.788
 7377TIP3    H222077   0.781   1.696   6.751
 7378TIP3   OH222078   5.246   0.478   1.744
 7378TIP3    H122079   5.277   0.546   1.685
 7378TIP3    H222080   5.225   0.404   1.686
 7379TIP3   OH222081   3.249   4.745   6.655
 7379TIP3    H122082   3.164   4.705   6.675
 7379TIP3    H222083   3.256   4.740   6.560
 7380TIP3   OH222084   4.223   4.702   4.261
 7380TIP3    H122085   4.258   4.622   4.221
 7380TIP3    H222086   4.131   4.681   4.279
 7381TIP3   OH222087   3.080   7.077   1.027
 7381TIP3    H122088   3.134   7.038   1.096
 7381TIP3    H222089   3.143   7.106   0.962
 7382TIP3   OH222090   6.965   2.671   0.873
 7382TIP3    H122091   7.038   2.633   0.921
 7382TIP3    H222092   7.001   2.688   0.786
 7383TIP3   OH222093   1.687   1.195   0.733
 7383TIP3    H122094   1.594   1.213   0.720
 7383TIP3    H222095   1.726   1.201   0.646
 7384TIP3   OH222096   6.442   7.253   0.437
 7384TIP3    H122097   6.527   7.210   0.448
 7384TIP3    H222098   6.414   7.228   0.349
 7385TIP3   OH222099   0.446   1.676   1.571
 7385TIP3    H122100   0.453   1.760   1.526
 7385TIP3    H222101   0.395   1.621   1.512
 7386TIP3   OH222102   5.977   7.110   5.608
 7386TIP3    H122103   5.951   7.126   5.698
 7386TIP3    H222104   5.963   7.016   5.595
 7387TIP3   OH222105   7.274   6.087   2.381
 7387TIP3    H122106   7.281   6.016   2.317
 7387TIP3    H222107   7.350   6.075   2.438
 7388TIP3   OH222108   0.836   3.335   2.249
 7388TIP3    H122109   0.788   3.413   2.275
 7388TIP3    H222110   0.928   3.361   2.250
 7389TIP3   OH222111   7.464   4.002   6.768
 7389TIP3    H122112   7.394   3.973   6.709
 7389TIP3    H222113   7.423   4.070   6.822
 7390TIP3   OH222114   2.677   3.693   4.446
 7390TIP3    H122115   2.667   3.760   4.513
 7390TIP3    H222116   2.694   3.613   4.496
 7391TIP3   OH222117   0.757   4.348   0.496
 7391TIP3    H122118   0.773   4.255   0.511
 7391TIP3    H222119   0.677   4.350   0.442
 7392TIP3   OH222120   6.106   7.409   2.108
 7392TIP3    H122121   6.018   7.397   2.071
 7392TIP3    H222122   6.112   7.343   2.177
 7393TIP3   OH222123   2.222   6.556   3.055
 7393TIP3    H122124   2.290   6.498   3.021
 7393TIP3    H222125   2.221   6.538   3.149
 7394TIP3   OH222126   3.568   1.909   6.299
 7394TIP3    H122127   3.600   1.823   6.272
 7394TIP3    H222128   3.480   1.892   6.333
 7395TIP3   OH222129   5.934   3.639   3.501
 7395TIP3    H122130   6.004   3.589   3.543
 7395TIP3    H222131   5.924   3.598   3.415
 7396TIP3   OH222132   1.721   5.739   3.862
 7396TIP3    H122133   1.764   5.716   3.945
 7396TIP3    H222134   1.664   5.665   3.843
 7397TIP3   OH222135   4.123   1.370   4.274
 7397TIP3    H122136   4.028   1.358   4.275
 7397TIP3    H222137   4.136   1.464   4.265
 7398TIP3   OH222138   8.141   3.185   5.656
 7398TIP3    H122139   8.062   3.184   5.600
 7398TIP3    H222140   8.156   3.093   5.677
 7399TIP3   OH222141   4.081   0.091   3.328
 7399TIP3    H122142   4.043   0.066   3.244
 7399TIP3    H222143   4.132   0.015   3.356
 7400TIP3   OH222144   6.379   3.809   2.983
 7400TIP3    H122145   6.341   3.795   3.069
 7400TIP3    H222146   6.341   3.741   2.927
 7401TIP3   OH222147   0.742   0.554   6.559
 7401TIP3    H122148   0.805   0.539   6.630
 7401TIP3    H222149   0.680   0.616   6.596
 7402TIP3   OH222150   5.286   3.463   4.075
 7402TIP3    H122151   5.229   3.434   4.147
 7402TIP3    H222152   5.336   3.385   4.051
 7403TIP3   OH222153   6.730   1.286   0.746
 7403TIP3    H122154   6.817   1.323   0.730
 7403TIP3    H222155   6.727   1.208   0.691
 7404TIP3   OH222156   7.568   3.950   0.772
 7404TIP3    H122157   7.632   3.971   0.841
 7404TIP3    H222158   7.620   3.947   0.692
 7405TIP3   OH222159   5.095   4.548   6.389
 7405TIP3    H122160   5.010   4.594   6.393
 7405TIP3    H222161   5.157   4.611   6.426
 7406TIP3   OH222162  -0.005   5.209   2.069
 7406TIP3    H122163  -0.001   5.269   2.143
 7406TIP3    H222164   0.076   5.225   2.020
 7407TIP3   OH222165   7.958   7.259   3.368
 7407TIP3    H122166   7.984   7.345   3.402
 7407TIP3    H222167   8.036   7.205   3.376
 7408TIP3   OH222168   2.995   6.020   5.495
 7408TIP3    H122169   2.962   5.969   5.569
 7408TIP3    H222170   2.999   6.110   5.528
 7409TIP3   OH222171   0.620   2.833   6.153
 7409TIP3    H122172   0.580   2.791   6.077
 7409TIP3    H222173   0.680   2.897   6.116
 7410TIP3   OH222174   7.556   3.081   1.680
 7410TIP3    H122175   7.470   3.112   1.651
 7410TIP3    H222176   7.574   3.134   1.758
 7411TIP3   OH222177   8.139   0.057   1.201
 7411TIP3    H122178   8.113   0.134   1.151
 7411TIP3    H222179   8.172  -0.005   1.135
 7412TIP3   OH222180   1.396   3.201   4.443
 7412TIP3    H122181   1.446   3.270   4.487
 7412TIP3    H222182   1.372   3.141   4.513
 7413TIP3   OH222183   5.356   7.809   1.727
 7413TIP3    H122184   5.416   7.872   1.688
 7413TIP3    H222185   5.397   7.786   1.811
 7414TIP3   OH222186   1.812   1.826   2.175
 7414TIP3    H122187   1.746   1.759   2.158
 7414TIP3    H222188   1.762   1.903   2.203
 7415TIP3   OH222189   1.391   2.073   1.737
 7415TIP3    H122190   1.450   2.048   1.665
 7415TIP3    H222191   1.367   1.991   1.778
 7416TIP3   OH222192   2.122   5.222   1.909
 7416TIP3    H122193   2.156   5.182   1.829
 7416TIP3    H222194   2.194   5.215   1.972
 7417TIP3   OH222195   5.012   1.419   4.347
 7417TIP3    H122196   5.079   1.427   4.415
 7417TIP3    H222197   4.952   1.353   4.380
 7418TIP3   OH222198   6.099   0.723   3.892
 7418TIP3    H122199   6.036   0.654   3.914
 7418TIP3    H222200   6.101   0.779   3.970
 7419TIP3   OH222201   3.162   4.244   4.292
 7419TIP3    H122202   3.081   4.216   4.248
 7419TIP3    H222203   3.172   4.336   4.267
 7420TIP3   OH222204   7.905   1.191   1.442
 7420TIP3    H122205   7.924   1.153   1.528
 7420TIP3    H222206   7.863   1.275   1.460
 7421TIP3   OH222207   2.248   6.988   2.764
 7421TIP3    H122208   2.153   7.003   2.771
 7421TIP3    H222209   2.267   6.923   2.832
 7422TIP3   OH222210   6.494   5.955   2.436
 7422TIP3    H122211   6.468   5.902   2.512
 7422TIP3    H222212   6.590   5.961   2.443
 7423TIP3   OH222213   4.273   0.355   1.530
 7423TIP3    H122214   4.232   0.272   1.554
 7423TIP3    H222215   4.251   0.415   1.601
 7424TIP3   OH222216   3.557   4.169   0.037
 7424TIP3    H122217   3.544   4.125   0.121
 7424TIP3    H222218   3.531   4.103  -0.029
 7425TIP3   OH222219   6.288   1.336   1.431
 7425TIP3    H122220   6.245   1.404   1.380
 7425TIP3    H222221   6.247   1.254   1.402
 7426TIP3   OH222222   0.211   7.408   2.088
 7426TIP3    H122223   0.227   7.502   2.075
 7426TIP3    H222224   0.151   7.385   2.016
 7427TIP3   OH222225   4.481   6.306   0.866
 7427TIP3    H122226   4.418   6.268   0.928
 7427TIP3    H222227   4.541   6.235   0.845
 7428TIP3   OH222228   0.614   3.795   3.428
 7428TIP3    H122229   0.616   3.719   3.371
 7428TIP3    H222230   0.568   3.862   3.378
 7429TIP3   OH222231   3.328   1.817   6.407
 7429TIP3    H122232   3.322   1.727   6.436
 7429TIP3    H222233   3.240   1.853   6.420
 7430TIP3   OH222234   5.500   0.456   3.152
 7430TIP3    H122235   5.485   0.368   3.187
 7430TIP3    H222236   5.589   0.453   3.116
 7431TIP3   OH222237   6.592   7.155   1.583
 7431TIP3    H122238   6.595   7.198   1.668
 7431TIP3    H222239   6.613   7.064   1.602
 7432TIP3   OH222240   6.379   1.491   6.589
 7432TIP3    H122241   6.331   1.411   6.610
 7432TIP3    H222242   6.384   1.538   6.672
 7433TIP3   OH222243   2.653   2.497   3.536
 7433TIP3    H122244   2.628   2.444   3.612
 7433TIP3    H222245   2.653   2.587   3.569
 7434TIP3   OH222246   7.039   5.623   5.405
 7434TIP3    H122247   6.991   5.648   5.483
 7434TIP3    H222248   7.093   5.548   5.432
 7435TIP3   OH222249   3.768   6.982   6.062
 7435TIP3    H122250   3.825   6.949   6.132
 7435TIP3    H222251   3.694   7.021   6.108
 7436TIP3   OH222252   5.960   4.556   1.709
 7436TIP3    H122253   6.044   4.560   1.664
 7436TIP3    H222254   5.983   4.553   1.802
 7437TIP3   OH222255   5.346   7.436   6.411
 7437TIP3    H122256   5.319   7.459   6.322
 7437TIP3    H222257   5.425   7.487   6.427
 7438TIP3   OH222258   6.640   5.347   0.442
 7438TIP3    H122259   6.605   5.263   0.412
 7438TIP3    H222260   6.653   5.336   0.536
 7439TIP3   OH222261   2.448   7.143   3.303
 7439TIP3    H122262   2.394   7.147   3.224
 7439TIP3    H222263   2.521   7.086   3.280
 7440TIP3   OH222264   3.742   5.824   4.042
 7440TIP3    H122265   3.734   5.790   3.953
 7440TIP3    H222266   3.831   5.803   4.069
 7441TIP3   OH222267   2.163   2.899   2.694
 7441TIP3    H122268   2.244   2.886   2.744
 7441TIP3    H222269   2.132   2.985   2.720
 7442TIP3   OH222270   2.553   4.329   4.925
 7442TIP3    H122271   2.498   4.342   5.002
 7442TIP3    H222272   2.495   4.290   4.860
 7443TIP3   OH222273   7.853   6.013   4.299
 7443TIP3    H122274   7.928   6.041   4.351
 7443TIP3    H222275   7.777   6.045   4.348
 7444TIP3   OH222276   4.436   2.593   3.143
 7444TIP3    H122277   4.410   2.527   3.208
 7444TIP3    H222278   4.363   2.597   3.082
 7445TIP3   OH222279   2.698   5.862   2.114
 7445TIP3    H122280   2.718   5.881   2.022
 7445TIP3    H222281   2.696   5.947   2.157
 7446TIP3   OH222282   2.185   7.429   1.632
 7446TIP3    H122283   2.094   7.399   1.626
 7446TIP3    H222284   2.237   7.348   1.631
 7447TIP3   OH222285   8.187   6.506   6.320
 7447TIP3    H122286   8.257   6.565   6.291
 7447TIP3    H222287   8.132   6.559   6.377
 7448TIP3   OH222288   2.299   0.764   1.428
 7448TIP3    H122289   2.229   0.738   1.487
 7448TIP3    H222290   2.380   0.742   1.475
 7449TIP3   OH222291   5.973   3.813   6.550
 7449TIP3    H122292   6.067   3.823   6.565
 7449TIP3    H222293   5.940   3.903   6.547
 7450TIP3   OH222294   4.629   1.636   4.723
 7450TIP3    H122295   4.568   1.638   4.797
 7450TIP3    H222296   4.687   1.562   4.742
 7451TIP3   OH222297   2.239   5.734   0.348
 7451TIP3    H122298   2.171   5.670   0.326
 7451TIP3    H222299   2.233   5.743   0.443
 7452TIP3   OH222300   8.172   1.331   2.104
 7452TIP3    H122301   8.174   1.236   2.106
 7452TIP3    H222302   8.251   1.356   2.056
 7453TIP3   OH222303   7.799   2.176   0.154
 7453TIP3    H122304   7.862   2.117   0.112
 7453TIP3    H222305   7.823   2.263   0.121
 7454TIP3   OH222306   6.259   3.239   2.517
 7454TIP3    H122307   6.192   3.290   2.561
 7454TIP3    H222308   6.262   3.274   2.428
 7455TIP3   OH222309   7.416   1.103   2.851
 7455TIP3    H122310   7.461   1.121   2.933
 7455TIP3    H222311   7.486   1.103   2.785
 7456TIP3   OH222312   4.877   6.614   5.423
 7456TIP3    H122313   4.829   6.594   5.503
 7456TIP3    H222314   4.838   6.695   5.391
 7457TIP3   OH222315   6.543   3.461   3.976
 7457TIP3    H122316   6.612   3.472   4.041
 7457TIP3    H222317   6.480   3.531   3.996
 7458TIP3   OH222318   4.292   2.858   0.638
 7458TIP3    H122319   4.289   2.765   0.662
 7458TIP3    H222320   4.201   2.882   0.622
 7459TIP3   OH222321   1.278   1.051   1.883
 7459TIP3    H122322   1.241   1.000   1.955
 7459TIP3    H222323   1.283   0.988   1.811
 7460TIP3   OH222324   4.603   0.094   4.878
 7460TIP3    H122325   4.556   0.112   4.960
 7460TIP3    H222326   4.595   0.176   4.828
 7461TIP3   OH222327   3.019   1.032   2.211
 7461TIP3    H122328   3.064   1.095   2.268
 7461TIP3    H222329   3.090   0.989   2.163
 7462TIP3   OH222330   1.244   1.707   1.502
 7462TIP3    H122331   1.280   1.640   1.560
 7462TIP3    H222332   1.199   1.658   1.434
 7463TIP3   OH222333   3.904   0.710   1.110
 7463TIP3    H122334   3.862   0.770   1.049
 7463TIP3    H222335   3.980   0.677   1.062
 7464TIP3   OH222336   0.052   6.258   1.096
 7464TIP3    H122337   0.088   6.333   1.143
 7464TIP3    H222338   0.080   6.269   1.006
 7465TIP3   OH222339   1.306   4.679   3.422
 7465TIP3    H122340   1.326   4.651   3.512
 7465TIP3    H222341   1.240   4.747   3.433
 7466TIP3   OH222342   4.177   5.912   6.537
 7466TIP3    H122343   4.175   5.905   6.441
 7466TIP3    H222344   4.098   5.867   6.566
 7467TIP3   OH222345   8.068   5.778   5.099
 7467TIP3    H122346   8.059   5.683   5.099
 7467TIP3    H222347   8.114   5.798   5.180
 7468TIP3   OH222348   5.311   7.597   1.418
 7468TIP3    H122349   5.233   7.636   1.459
 7468TIP3    H222350   5.383   7.620   1.477
 7469TIP3   OH222351   3.631   2.200   0.654
 7469TIP3    H122352   3.643   2.171   0.744
 7469TIP3    H222353   3.716   2.184   0.613
 7470TIP3   OH222354   5.205   4.927   1.793
 7470TIP3    H122355   5.263   4.963   1.727
 7470TIP3    H222356   5.250   4.850   1.826
 7471TIP3   OH222357   2.434   1.526   3.692
 7471TIP3    H122358   2.441   1.603   3.748
 7471TIP3    H222359   2.359   1.477   3.727
 7472TIP3   OH222360   2.051   1.917   6.105
 7472TIP3    H122361   2.074   1.943   6.194
 7472TIP3    H222362   2.035   1.999   6.059
 7473TIP3   OH222363   1.722   4.203   5.749
 7473TIP3    H122364   1.672   4.162   5.678
 7473TIP3    H222365   1.808   4.161   5.744
 7474TIP3   OH222366   3.247   2.779   5.777
 7474TIP3    H122367   3.157   2.767   5.745
 7474TIP3    H222368   3.280   2.690   5.788
 7475TIP3   OH222369   8.043   7.118   5.048
 7475TIP3    H122370   8.055   7.146   4.958
 7475TIP3    H222371   8.130   7.124   5.088
 7476TIP3   OH222372   0.696   4.276   5.886
 7476TIP3    H122373   0.702   4.309   5.796
 7476TIP3    H222374   0.634   4.335   5.928
 7477TIP3   OH222375   6.853   1.561   4.350
 7477TIP3    H122376   6.860   1.529   4.441
 7477TIP3    H222377   6.808   1.490   4.304
 7478TIP3   OH222378   5.717   4.978   6.231
 7478TIP3    H122379   5.745   4.900   6.184
 7478TIP3    H222380   5.739   5.051   6.173
 7479TIP3   OH222381   0.378   2.388   6.369
 7479TIP3    H122382   0.449   2.448   6.389
 7479TIP3    H222383   0.298   2.438   6.387
 7480TIP3   OH222384   2.765   3.701   3.715
 7480TIP3    H122385   2.780   3.679   3.807
 7480TIP3    H222386   2.681   3.661   3.694
 7481TIP3   OH222387   8.243   2.850   5.384
 7481TIP3    H122388   8.150   2.827   5.389
 7481TIP3    H222389   8.251   2.901   5.304
 7482TIP3   OH222390   2.137   6.616   3.413
 7482TIP3    H122391   2.054   6.617   3.366
 7482TIP3    H222392   2.113   6.618   3.505
 7483TIP3   OH222393   6.046   3.127   1.175
 7483TIP3    H122394   6.071   3.201   1.229
 7483TIP3    H222395   5.952   3.136   1.162
 7484TIP3   OH222396   2.456   7.079   2.126
 7484TIP3    H122397   2.436   7.166   2.161
 7484TIP3    H222398   2.521   7.095   2.058
 7485TIP3   OH222399   7.643   6.575   1.865
 7485TIP3    H122400   7.664   6.494   1.912
 7485TIP3    H222401   7.719   6.631   1.880
 7486TIP3   OH222402   5.771   2.623   0.978
 7486TIP3    H122403   5.760   2.687   0.908
 7486TIP3    H222404   5.704   2.556   0.960
 7487TIP3   OH222405   5.322   6.571   3.691
 7487TIP3    H122406   5.305   6.647   3.635
 7487TIP3    H222407   5.310   6.495   3.634
 7488TIP3   OH222408   6.565   2.709   0.223
 7488TIP3    H122409   6.529   2.795   0.203
 7488TIP3    H222410   6.640   2.726   0.278
 7489TIP3   OH222411   2.795   6.970   5.819
 7489TIP3    H122412   2.875   7.003   5.861
 7489TIP3    H222413   2.725   6.993   5.880
 7490TIP3   OH222414   0.811   3.032   5.695
 7490TIP3    H122415   0.725   3.062   5.722
 7490TIP3    H222416   0.803   3.015   5.601
 7491TIP3   OH222417   2.800   2.145   0.644
 7491TIP3    H122418   2.872   2.104   0.597
 7491TIP3    H222419   2.792   2.095   0.726
 7492TIP3   OH222420   6.601   5.107   2.766
 7492TIP3    H122421   6.684   5.130   2.807
 7492TIP3    H222422   6.549   5.188   2.769
 7493TIP3   OH222423   0.215   4.193   3.665
 7493TIP3    H122424   0.123   4.183   3.688
 7493TIP3    H222425   0.244   4.270   3.714
 7494TIP3   OH222426   5.180   6.243   6.634
 7494TIP3    H122427   5.272   6.269   6.629
 7494TIP3    H222428   5.183   6.147   6.638
 7495TIP3   OH222429   7.325   5.722   1.937
 7495TIP3    H122430   7.239   5.686   1.916
 7495TIP3    H222431   7.355   5.673   2.013
 7496TIP3   OH222432   2.624   7.489   4.055
 7496TIP3    H122433   2.534   7.496   4.086
 7496TIP3    H222434   2.617   7.448   3.969
 7497TIP3   OH222435   5.540   3.745   1.662
 7497TIP3    H122436   5.557   3.839   1.667
 7497TIP3    H222437   5.607   3.706   1.718
 7498TIP3   OH222438   3.505   4.389   0.208
 7498TIP3    H122439   3.542   4.338   0.136
 7498TIP3    H222440   3.412   4.365   0.209
 7499TIP3   OH222441   4.979   1.114   6.604
 7499TIP3    H122442   4.896   1.111   6.556
 7499TIP3    H222443   4.979   1.035   6.657
 7500TIP3   OH222444   5.146   1.036   3.148
 7500TIP3    H122445   5.099   0.959   3.118
 7500TIP3    H222446   5.123   1.104   3.085
 7501TIP3   OH222447   4.313   0.772   1.957
 7501TIP3    H122448   4.373   0.700   1.980
 7501TIP3    H222449   4.337   0.843   2.017
 7502TIP3   OH222450   6.441   5.966   5.562
 7502TIP3    H122451   6.426   5.882   5.604
 7502TIP3    H222452   6.462   6.026   5.633
 7503TIP3   OH222453   4.493   2.106   0.779
 7503TIP3    H122454   4.503   2.157   0.860
 7503TIP3    H222455   4.481   2.172   0.711
 7504TIP3   OH222456   1.844   3.050   6.769
 7504TIP3    H122457   1.834   2.996   6.690
 7504TIP3    H222458   1.796   3.001   6.836
 7505TIP3   OH222459   1.674   0.600   1.838
 7505TIP3    H122460   1.728   0.623   1.762
 7505TIP3    H222461   1.722   0.635   1.913
 7506TIP3   OH222462   4.276   5.889   3.762
 7506TIP3    H122463   4.212   5.868   3.694
 7506TIP3    H222464   4.320   5.806   3.780
 7507TIP3   OH222465   5.236   2.979   4.113
 7507TIP3    H122466   5.323   3.016   4.127
 7507TIP3    H222467   5.178   3.055   4.105
 7508TIP3   OH222468   2.189   4.560   3.015
 7508TIP3    H122469   2.225   4.644   2.985
 7508TIP3    H222470   2.146   4.524   2.937
 7509TIP3   OH222471   7.829   3.348   3.569
 7509TIP3    H122472   7.866   3.347   3.657
 7509TIP3    H222473   7.894   3.394   3.516
 7510TIP3   OH222474   7.902   6.690   2.742
 7510TIP3    H122475   7.992   6.693   2.775
 7510TIP3    H222476   7.859   6.766   2.783
 7511TIP3   OH222477   6.924   6.392   2.532
 7511TIP3    H122478   6.833   6.362   2.529
 7511TIP3    H222479   6.924   6.473   2.481
 7512TIP3   OH222480   0.317   1.233   3.567
 7512TIP3    H122481   0.351   1.167   3.628
 7512TIP3    H222482   0.277   1.182   3.496
 7513TIP3   OH222483   4.848   1.842   0.065
 7513TIP3    H122484   4.883   1.758   0.092
 7513TIP3    H222485   4.796   1.823  -0.013
 7514TIP3   OH222486   1.954   1.760   1.308
 7514TIP3    H122487   1.968   1.681   1.257
 7514TIP3    H222488   1.862   1.781   1.297
 7515TIP3   OH222489   6.495   1.052   6.237
 7515TIP3    H122490   6.574   1.102   6.255
 7515TIP3    H222491   6.465   1.022   6.323
 7516TIP3   OH222492   6.505   7.541   3.547
 7516TIP3    H122493   6.593   7.571   3.523
 7516TIP3    H222494   6.455   7.622   3.561
 7517TIP3   OH222495   7.079   2.821   6.662
 7517TIP3    H122496   7.118   2.845   6.746
 7517TIP3    H222497   7.110   2.733   6.645
 7518TIP3   OH222498   7.775   2.833   5.063
 7518TIP3    H122499   7.777   2.928   5.073
 7518TIP3    H222500   7.844   2.801   5.121
 7519TIP3   OH222501   2.037   1.924   3.664
 7519TIP3    H122502   1.947   1.953   3.676
 7519TIP3    H222503   2.054   1.936   3.571
 7520TIP3   OH222504   0.795   3.526   6.748
 7520TIP3    H122505   0.782   3.611   6.705
 7520TIP3    H222506   0.710   3.504   6.785
 7521TIP3   OH222507   4.736   7.427   2.269
 7521TIP3    H122508   4.690   7.461   2.346
 7521TIP3    H222509   4.667   7.391   2.214
 7522TIP3   OH222510   3.595   4.450   3.687
 7522TIP3    H122511   3.500   4.451   3.695
 7522TIP3    H222512   3.612   4.403   3.606
 7523TIP3   OH222513   2.067   4.181   1.531
 7523TIP3    H122514   2.142   4.220   1.486
 7523TIP3    H222515   2.104   4.110   1.583
 7524TIP3   OH222516   6.546   7.229   4.735
 7524TIP3    H122517   6.488   7.182   4.676
 7524TIP3    H222518   6.616   7.166   4.755
 7525TIP3   OH222519   3.940   3.446   2.623
 7525TIP3    H122520   3.947   3.356   2.592
 7525TIP3    H222521   3.892   3.492   2.554
 7526TIP3   OH222522   3.523   7.259   1.800
 7526TIP3    H122523   3.500   7.205   1.725
 7526TIP3    H222524   3.459   7.236   1.867
 7527TIP3   OH222525   0.167   0.173   3.345
 7527TIP3    H122526   0.247   0.181   3.397
 7527TIP3    H222527   0.196   0.186   3.255
 7528TIP3   OH222528   0.358   3.987   2.173
 7528TIP3    H122529   0.434   4.035   2.205
 7528TIP3    H222530   0.301   3.978   2.249
 7529TIP3   OH222531   0.814   0.039   2.194
 7529TIP3    H122532   0.825   0.106   2.126
 7529TIP3    H222533   0.723   0.011   2.186
 7530TIP3   OH222534   8.295   3.840   1.985
 7530TIP3    H122535   8.277   3.863   2.076
 7530TIP3    H222536   8.248   3.758   1.971
 7531TIP3   OH222537   5.176   3.619   1.528
 7531TIP3    H122538   5.095   3.634   1.480
 7531TIP3    H222539   5.235   3.579   1.463
 7532TIP3   OH222540   7.870   5.297   0.058
 7532TIP3    H122541   7.914   5.301  -0.027
 7532TIP3    H222542   7.781   5.270   0.037
 7533TIP3   OH222543   1.352   0.937   3.262
 7533TIP3    H122544   1.396   0.861   3.223
 7533TIP3    H222545   1.279   0.899   3.312
 7534TIP3   OH222546   5.840   7.820   6.280
 7534TIP3    H122547   5.878   7.805   6.366
 7534TIP3    H222548   5.769   7.756   6.273
 7535TIP3   OH222549   7.003   7.317   5.150
 7535TIP3    H122550   7.010   7.295   5.243
 7535TIP3    H222551   6.914   7.290   5.126
 7536TIP3   OH222552   7.020   3.592   4.990
 7536TIP3    H122553   7.104   3.566   5.027
 7536TIP3    H222554   7.032   3.684   4.965
 7537TIP3   OH222555   6.526   2.183   6.718
 7537TIP3    H122556   6.510   2.243   6.645
 7537TIP3    H222557   6.498   2.232   6.795
 7538TIP3   OH222558   3.921   1.961   2.410
 7538TIP3    H122559   3.895   1.888   2.468
 7538TIP3    H222560   3.882   1.939   2.326
 7539TIP3   OH222561   0.940   0.268   1.798
 7539TIP3    H122562   0.955   0.358   1.770
 7539TIP3    H222563   0.984   0.215   1.732
 7540TIP3   OH222564   5.927   1.182   1.508
 7540TIP3    H122565   5.971   1.192   1.592
 7540TIP3    H222566   5.836   1.163   1.530
 7541TIP3   OH222567   1.531   4.755   3.049
 7541TIP3    H122568   1.549   4.668   3.015
 7541TIP3    H222569   1.435   4.761   3.050
 7542TIP3   OH222570   5.650   7.141   0.488
 7542TIP3    H122571   5.559   7.114   0.504
 7542TIP3    H222572   5.702   7.074   0.532
 7543TIP3   OH222573   6.444   0.736   4.687
 7543TIP3    H122574   6.353   0.726   4.714
 7543TIP3    H222575   6.456   0.831   4.679
 7544TIP3   OH222576   1.056   3.640   2.852
 7544TIP3    H122577   0.969   3.625   2.815
 7544TIP3    H222578   1.098   3.700   2.791
 7545TIP3   OH222579   7.476   5.960   0.065
 7545TIP3    H122580   7.558   5.969   0.113
 7545TIP3    H222581   7.408   5.982   0.128
 7546TIP3   OH222582   6.011   5.510   2.652
 7546TIP3    H122583   5.917   5.496   2.640
 7546TIP3    H222584   6.031   5.471   2.737
 7547TIP3   OH222585   2.535   7.690   0.561
 7547TIP3    H122586   2.627   7.667   0.546
 7547TIP3    H222587   2.520   7.669   0.653
 7548TIP3   OH222588   1.017   7.642   0.824
 7548TIP3    H122589   1.094   7.611   0.872
 7548TIP3    H222590   0.966   7.691   0.889
 7549TIP3   OH222591   5.987   4.723   5.946
 7549TIP3    H122592   5.898   4.758   5.943
 7549TIP3    H222593   5.975   4.628   5.954
 7550TIP3   OH222594   2.068   4.918   0.504
 7550TIP3    H122595   2.002   4.849   0.500
 7550TIP3    H222596   2.144   4.877   0.544
 7551TIP3   OH222597   3.017   3.437   6.496
 7551TIP3    H122598   3.035   3.531   6.506
 7551TIP3    H222599   3.094   3.403   6.451
 7552TIP3   OH222600   1.603   3.159   4.810
 7552TIP3    H122601   1.529   3.145   4.752
 7552TIP3    H222602   1.598   3.252   4.834
 7553TIP3   OH222603   3.060   6.172   4.557
 7553TIP3    H122604   3.040   6.194   4.466
 7553TIP3    H222605   3.090   6.081   4.553
 7554TIP3   OH222606   3.131   7.789   1.829
 7554TIP3    H122607   3.127   7.696   1.809
 7554TIP3    H222608   3.042   7.811   1.856
 7555TIP3   OH222609   2.855   7.155   4.706
 7555TIP3    H122610   2.936   7.108   4.726
 7555TIP3    H222611   2.811   7.100   4.641
 7556TIP3   OH222612   5.211   7.460   5.892
 7556TIP3    H122613   5.160   7.390   5.853
 7556TIP3    H222614   5.203   7.533   5.831
 7557TIP3   OH222615   6.648   6.109   3.975
 7557TIP3    H122616   6.644   6.204   3.965
 7557TIP3    H222617   6.691   6.096   4.060
 7558TIP3   OH222618   2.352   7.301   3.526
 7558TIP3    H122619   2.408   7.303   3.604
 7558TIP3    H222620   2.399   7.243   3.466
 7559TIP3   OH222621   1.542   2.284   2.405
 7559TIP3    H122622   1.523   2.233   2.484
 7559TIP3    H222623   1.521   2.374   2.429
 7560TIP3   OH222624   1.495   1.782   5.559
 7560TIP3    H122625   1.535   1.806   5.643
 7560TIP3    H222626   1.497   1.863   5.508
 7561TIP3   OH222627   1.442   6.685   1.746
 7561TIP3    H122628   1.444   6.621   1.674
 7561TIP3    H222629   1.535   6.699   1.767
 7562TIP3   OH222630   7.182   3.099   3.568
 7562TIP3    H122631   7.135   3.035   3.514
 7562TIP3    H222632   7.223   3.045   3.637
 7563TIP3   OH222633   6.093   0.579   6.007
 7563TIP3    H122634   6.066   0.528   6.083
 7563TIP3    H222635   6.123   0.513   5.944
 7564TIP3   OH222636   1.499   6.101   1.893
 7564TIP3    H122637   1.448   6.042   1.948
 7564TIP3    H222638   1.509   6.180   1.945
 7565TIP3   OH222639   6.303   6.810   5.295
 7565TIP3    H122640   6.224   6.864   5.303
 7565TIP3    H222641   6.270   6.722   5.278
 7566TIP3   OH222642   4.259   3.659   1.427
 7566TIP3    H122643   4.319   3.592   1.460
 7566TIP3    H222644   4.295   3.684   1.342
 7567TIP3   OH222645   3.044   5.017   6.063
 7567TIP3    H122646   3.001   5.030   5.978
 7567TIP3    H222647   3.096   4.938   6.052
 7568TIP3   OH222648   6.214   6.174   2.058
 7568TIP3    H122649   6.241   6.224   2.136
 7568TIP3    H222650   6.292   6.125   2.033
 7569TIP3   OH222651   4.405   0.536   3.881
 7569TIP3    H122652   4.420   0.618   3.833
 7569TIP3    H222653   4.392   0.562   3.972
 7570TIP3   OH222654   1.578   2.349   0.060
 7570TIP3    H122655   1.578   2.364  -0.034
 7570TIP3    H222656   1.551   2.258   0.070
 7571TIP3   OH222657   7.687   1.031   2.792
 7571TIP3    H122658   7.692   0.974   2.868
 7571TIP3    H222659   7.675   0.971   2.718
 7572TIP3   OH222660   2.592   0.159   4.193
 7572TIP3    H122661   2.518   0.166   4.252
 7572TIP3    H222662   2.575   0.080   4.142
 7573TIP3   OH222663   0.287   3.061   3.682
 7573TIP3    H122664   0.207   3.079   3.634
 7573TIP3    H222665   0.319   2.979   3.645
 7574TIP3   OH222666   4.670   6.604   4.194
 7574TIP3    H122667   4.677   6.553   4.275
 7574TIP3    H222668   4.754   6.592   4.150
 7575TIP3   OH222669   3.521   1.036   4.651
 7575TIP3    H122670   3.433   1.059   4.621
 7575TIP3    H222671   3.508   1.001   4.739
 7576TIP3   OH222672   1.606   0.698   1.543
 7576TIP3    H122673   1.653   0.715   1.462
 7576TIP3    H222674   1.561   0.614   1.528
 7577TIP3   OH222675   3.936   4.206   6.450
 7577TIP3    H122676   3.852   4.193   6.495
 7577TIP3    H222677   3.941   4.132   6.389
 7578TIP3   OH222678   0.741   5.474   2.049
 7578TIP3    H122679   0.807   5.439   2.109
 7578TIP3    H222680   0.783   5.471   1.963
 7579TIP3   OH222681   8.337   7.772   3.070
 7579TIP3    H122682   8.416   7.801   3.114
 7579TIP3    H222683   8.278   7.847   3.075
 7580TIP3   OH222684   8.021   2.357   6.326
 7580TIP3    H122685   8.078   2.406   6.385
 7580TIP3    H222686   7.980   2.291   6.381
 7581TIP3   OH222687   2.877   4.909   3.094
 7581TIP3    H122688   2.826   4.845   3.044
 7581TIP3    H222689   2.874   4.877   3.184
 7582TIP3   OH222690   3.441   1.895   0.949
 7582TIP3    H122691   3.365   1.936   0.991
 7582TIP3    H222692   3.459   1.817   1.003
 7583TIP3   OH222693   4.289   0.372   3.099
 7583TIP3    H122694   4.270   0.438   3.032
 7583TIP3    H222695   4.374   0.335   3.072
 7584TIP3   OH222696   6.267   6.801   3.833
 7584TIP3    H122697   6.203   6.773   3.767
 7584TIP3    H222698   6.265   6.897   3.828
 7585TIP3   OH222699   2.801   1.509   2.594
 7585TIP3    H122700   2.788   1.604   2.602
 7585TIP3    H222701   2.863   1.500   2.521
 7586TIP3   OH222702   7.789   5.857   6.560
 7586TIP3    H122703   7.836   5.862   6.477
 7586TIP3    H222704   7.703   5.821   6.537
 7587TIP3   OH222705   1.164   6.400   2.567
 7587TIP3    H122706   1.082   6.377   2.610
 7587TIP3    H222707   1.231   6.386   2.634
 7588TIP3   OH222708   3.515   2.309   5.833
 7588TIP3    H122709   3.604   2.330   5.861
 7588TIP3    H222710   3.517   2.215   5.813
 7589TIP3   OH222711   7.306   3.225   1.195
 7589TIP3    H122712   7.254   3.151   1.226
 7589TIP3    H222713   7.387   3.186   1.164
 7590TIP3   OH222714   5.241   1.748   3.840
 7590TIP3    H122715   5.174   1.771   3.776
 7590TIP3    H222716   5.306   1.697   3.790
 7591TIP3   OH222717   0.743   6.175   0.600
 7591TIP3    H122718   0.823   6.156   0.648
 7591TIP3    H222719   0.767   6.246   0.540
 7592TIP3   OH222720   0.454   3.567   2.757
 7592TIP3    H122721   0.397   3.635   2.722
 7592TIP3    H222722   0.397   3.517   2.816
 7593TIP3   OH222723   7.344   3.962   5.648
 7593TIP3    H122724   7.379   3.874   5.637
 7593TIP3    H222725   7.407   4.006   5.705
 7594TIP3   OH222726   0.555   2.925   6.683
 7594TIP3    H122727   0.466   2.960   6.689
 7594TIP3    H222728   0.612   3.000   6.700
 7595TIP3   OH222729   5.014   0.324   2.311
 7595TIP3    H122730   4.944   0.336   2.246
 7595TIP3    H222731   5.069   0.402   2.302
 7596TIP3   OH222732   4.815   1.065   1.295
 7596TIP3    H122733   4.832   1.131   1.362
 7596TIP3    H222734   4.735   1.094   1.251
 7597TIP3   OH222735   4.115   7.063   1.053
 7597TIP3    H122736   4.145   7.048   1.143
 7597TIP3    H222737   4.041   7.003   1.043
 7598TIP3   OH222738   7.998   1.767   4.340
 7598TIP3    H122739   8.008   1.730   4.428
 7598TIP3    H222740   8.070   1.728   4.290
 7599TIP3   OH222741   0.727   7.466   5.344
 7599TIP3    H122742   0.753   7.463   5.251
 7599TIP3    H222743   0.803   7.434   5.391
 7600TIP3   OH222744   6.039   7.003   5.249
 7600TIP3    H122745   6.063   7.088   5.213
 7600TIP3    H222746   5.967   6.973   5.193
 7601TIP3   OH222747   1.677   2.850   2.631
 7601TIP3    H122748   1.762   2.822   2.597
 7601TIP3    H222749   1.681   2.946   2.628
 7602TIP3   OH222750   5.805   6.543   1.708
 7602TIP3    H122751   5.795   6.578   1.797
 7602TIP3    H222752   5.836   6.617   1.656
 7603TIP3   OH222753   7.854   2.147   3.030
 7603TIP3    H122754   7.871   2.230   2.985
 7603TIP3    H222755   7.917   2.086   2.992
 7604TIP3   OH222756   0.651   2.186   3.384
 7604TIP3    H122757   0.598   2.144   3.316
 7604TIP3    H222758   0.637   2.132   3.461
 7605TIP3   OH222759   2.401   2.021   3.996
 7605TIP3    H122760   2.424   2.113   4.013
 7605TIP3    H222761   2.370   2.021   3.906
 7606TIP3   OH222762   4.809   0.164   4.393
 7606TIP3    H122763   4.838   0.083   4.351
 7606TIP3    H222764   4.889   0.205   4.425
 7607TIP3   OH222765   5.398   5.895   2.818
 7607TIP3    H122766   5.484   5.919   2.784
 7607TIP3    H222767   5.409   5.894   2.913
 7608TIP3   OH222768   1.021   4.240   4.138
 7608TIP3    H122769   1.058   4.166   4.186
 7608TIP3    H222770   1.063   4.317   4.176
 7609TIP3   OH222771   3.167   0.164   5.092
 7609TIP3    H122772   3.100   0.095   5.085
 7609TIP3    H222773   3.239   0.122   5.139
 7610TIP3   OH222774   5.235   4.996   2.103
 7610TIP3    H122775   5.190   5.072   2.141
 7610TIP3    H222776   5.240   4.933   2.175
 7611TIP3   OH222777   5.684   5.008   1.582
 7611TIP3    H122778   5.749   5.019   1.513
 7611TIP3    H222779   5.600   5.028   1.541
 7612TIP3   OH222780   0.184   6.763   5.865
 7612TIP3    H122781   0.136   6.725   5.791
 7612TIP3    H222782   0.276   6.759   5.839
 7613TIP3   OH222783   1.118   1.358   5.158
 7613TIP3    H122784   1.120   1.363   5.254
 7613TIP3    H222785   1.180   1.426   5.130
 7614TIP3   OH222786   5.633   1.129   3.795
 7614TIP3    H122787   5.721   1.090   3.800
 7614TIP3    H222788   5.616   1.160   3.884
 7615TIP3   OH222789   7.258   1.234   3.166
 7615TIP3    H122790   7.163   1.247   3.163
 7615TIP3    H222791   7.268   1.138   3.166
 7616TIP3   OH222792   0.029   3.172   6.063
 7616TIP3    H122793   0.013   3.080   6.042
 7616TIP3    H222794   0.124   3.179   6.067
 7617TIP3   OH222795   7.827   0.184   0.881
 7617TIP3    H122796   7.898   0.188   0.817
 7617TIP3    H222797   7.860   0.234   0.956
 7618TIP3   OH222798   1.922   7.553   5.901
 7618TIP3    H122799   2.015   7.568   5.919
 7618TIP3    H222800   1.882   7.639   5.909
 7619TIP3   OH222801   8.139   0.639   6.632
 7619TIP3    H122802   8.197   0.680   6.568
 7619TIP3    H222803   8.131   0.705   6.702
 7620TIP3   OH222804   3.227   0.161   1.739
 7620TIP3    H122805   3.189   0.106   1.670
 7620TIP3    H222806   3.321   0.147   1.731
 7621TIP3   OH222807   6.270   7.751   3.963
 7621TIP3    H122808   6.219   7.729   4.040
 7621TIP3    H222809   6.310   7.668   3.935
 7622TIP3   OH222810   4.328   5.672   3.552
 7622TIP3    H122811   4.329   5.637   3.641
 7622TIP3    H222812   4.236   5.694   3.536
 7623TIP3   OH222813   7.012   2.169   4.342
 7623TIP3    H122814   7.064   2.228   4.288
 7623TIP3    H222815   7.011   2.210   4.429
 7624TIP3   OH222816   7.334   5.370   2.880
 7624TIP3    H122817   7.419   5.389   2.840
 7624TIP3    H222818   7.299   5.456   2.904
 7625TIP3   OH222819   7.706   1.117   5.927
 7625TIP3    H122820   7.758   1.038   5.912
 7625TIP3    H222821   7.619   1.085   5.948
 7626TIP3   OH222822   5.411   3.457   3.808
 7626TIP3    H122823   5.411   3.547   3.773
 7626TIP3    H222824   5.483   3.456   3.870
 7627TIP3   OH222825   3.825   1.202   4.697
 7627TIP3    H122826   3.781   1.168   4.775
 7627TIP3    H222827   3.836   1.295   4.715
 7628TIP3   OH222828   2.350   1.017   2.765
 7628TIP3    H122829   2.354   1.012   2.670
 7628TIP3    H222830   2.437   1.047   2.792
 7629TIP3   OH222831   6.348   7.047   3.771
 7629TIP3    H122832   6.308   7.113   3.715
 7629TIP3    H222833   6.431   7.026   3.727
 7630TIP3   OH222834   1.440   6.807   6.221
 7630TIP3    H122835   1.410   6.796   6.131
 7630TIP3    H222836   1.519   6.861   6.214
 7631TIP3   OH222837   6.162   5.644   0.336
 7631TIP3    H122838   6.068   5.637   0.325
 7631TIP3    H222839   6.199   5.581   0.275
 7632TIP3   OH222840   7.797   0.468   1.876
 7632TIP3    H122841   7.861   0.531   1.910
 7632TIP3    H222842   7.820   0.386   1.919
 7633TIP3   OH222843   3.588   5.309   1.033
 7633TIP3    H122844   3.516   5.251   1.008
 7633TIP3    H222845   3.666   5.265   1.000
 7634TIP3   OH222846   1.812   7.535   0.911
 7634TIP3    H122847   1.849   7.487   0.985
 7634TIP3    H222848   1.823   7.627   0.934
 7635TIP3   OH222849   3.441   1.290   2.227
 7635TIP3    H122850   3.379   1.303   2.156
 7635TIP3    H222851   3.431   1.197   2.251
 7636TIP3   OH222852   4.528   5.974   4.360
 7636TIP3    H122853   4.435   5.953   4.369
 7636TIP3    H222854   4.533   6.030   4.283
 7637TIP3   OH222855   5.734   7.580   3.632
 7637TIP3    H122856   5.773   7.629   3.560
 7637TIP3    H222857   5.783   7.608   3.710
 7638TIP3   OH222858   0.532   0.727   6.283
 7638TIP3    H122859   0.439   0.719   6.304
 7638TIP3    H222860   0.571   0.646   6.313
 7639TIP3   OH222861   4.439   2.937   1.490
 7639TIP3    H122862   4.370   2.874   1.507
 7639TIP3    H222863   4.519   2.885   1.482
 7640TIP3   OH222864   0.721   4.657   6.428
 7640TIP3    H122865   0.639   4.659   6.379
 7640TIP3    H222866   0.695   4.655   6.520
 7641TIP3   OH222867   2.683   5.215   3.403
 7641TIP3    H122868   2.710   5.152   3.336
 7641TIP3    H222869   2.596   5.185   3.430
 7642TIP3   OH222870   4.927   1.404   1.172
 7642TIP3    H122871   4.933   1.492   1.209
 7642TIP3    H222872   4.837   1.395   1.144
 7643TIP3   OH222873   6.273   1.068   3.662
 7643TIP3    H122874   6.365   1.041   3.664
 7643TIP3    H222875   6.227   0.992   3.626
 7644TIP3   OH222876   1.090   2.626   3.062
 7644TIP3    H122877   1.135   2.680   3.126
 7644TIP3    H222878   1.158   2.602   2.999
 7645TIP3   OH222879   0.251   5.102   3.670
 7645TIP3    H122880   0.323   5.071   3.725
 7645TIP3    H222881   0.244   5.036   3.601
 7646TIP3   OH222882   2.765   4.573   2.540
 7646TIP3    H122883   2.681   4.612   2.562
 7646TIP3    H222884   2.778   4.505   2.606
 7647TIP3   OH222885   6.931   4.949   1.991
 7647TIP3    H122886   7.017   4.984   2.012
 7647TIP3    H222887   6.937   4.856   2.011
 7648TIP3   OH222888   8.062   5.087   6.410
 7648TIP3    H122889   8.026   5.174   6.427
 7648TIP3    H222890   8.015   5.056   6.333
 7649TIP3   OH222891   3.135   2.396   2.027
 7649TIP3    H122892   3.171   2.379   1.939
 7649TIP3    H222893   3.139   2.491   2.036
 7650TIP3   OH222894   2.958   6.847   1.237
 7650TIP3    H122895   3.027   6.801   1.189
 7650TIP3    H222896   2.878   6.798   1.219
 7651TIP3   OH222897   1.374   7.451   6.781
 7651TIP3    H122898   1.358   7.443   6.875
 7651TIP3    H222899   1.299   7.409   6.739
 7652TIP3   OH222900   1.408   7.342   6.053
 7652TIP3    H122901   1.383   7.261   6.009
 7652TIP3    H222902   1.444   7.314   6.137
 7653TIP3   OH222903   6.672   7.458   0.742
 7653TIP3    H122904   6.664   7.498   0.655
 7653TIP3    H222905   6.722   7.521   0.793
 7654TIP3   OH222906   4.481   3.619   2.533
 7654TIP3    H122907   4.434   3.688   2.487
 7654TIP3    H222908   4.413   3.556   2.557
 7655TIP3   OH222909   2.075   4.924   3.766
 7655TIP3    H122910   1.997   4.926   3.710
 7655TIP3    H222911   2.137   4.869   3.718
 7656TIP3   OH222912   2.140   6.674   5.591
 7656TIP3    H122913   2.127   6.763   5.558
 7656TIP3    H222914   2.098   6.674   5.677
 7657TIP3   OH222915   2.303   4.728   0.019
 7657TIP3    H122916   2.269   4.641   0.042
 7657TIP3    H222917   2.317   4.771   0.103
 7658TIP3   OH222918   1.291   0.662   2.593
 7658TIP3    H122919   1.347   0.734   2.566
 7658TIP3    H222920   1.331   0.584   2.554
 7659TIP3   OH222921   4.888   3.485   2.207
 7659TIP3    H122922   4.796   3.506   2.193
 7659TIP3    H222923   4.933   3.528   2.134
 7660TIP3   OH222924   6.358   6.306   3.812
 7660TIP3    H122925   6.395   6.303   3.900
 7660TIP3    H222926   6.298   6.380   3.813
 7661TIP3   OH222927   7.146   1.826   3.264
 7661TIP3    H122928   7.133   1.908   3.217
 7661TIP3    H222929   7.089   1.832   3.340
 7662TIP3   OH222930   7.857   2.561   3.773
 7662TIP3    H122931   7.869   2.490   3.710
 7662TIP3    H222932   7.810   2.520   3.846
 7663TIP3   OH222933   6.530   6.328   2.827
 7663TIP3    H122934   6.523   6.423   2.837
 7663TIP3    H222935   6.609   6.305   2.877
 7664TIP3   OH222936   7.756   1.530   4.260
 7664TIP3    H122937   7.797   1.556   4.178
 7664TIP3    H222938   7.681   1.478   4.234
 7665TIP3   OH222939   5.335   7.219   1.750
 7665TIP3    H122940   5.290   7.248   1.829
 7665TIP3    H222941   5.324   7.124   1.751
 7666TIP3   OH222942   5.717   2.832   2.745
 7666TIP3    H122943   5.628   2.849   2.713
 7666TIP3    H222944   5.710   2.840   2.840
 7667TIP3   OH222945   5.846   2.798   2.384
 7667TIP3    H122946   5.895   2.826   2.461
 7667TIP3    H222947   5.909   2.751   2.330
 7668TIP3   OH222948   7.394   7.565   1.373
 7668TIP3    H122949   7.470   7.611   1.409
 7668TIP3    H222950   7.377   7.494   1.435
 7669TIP3   OH222951   1.518   5.560   5.817
 7669TIP3    H122952   1.569   5.634   5.850
 7669TIP3    H222953   1.568   5.483   5.843
 7670TIP3   OH222954   1.722   1.920   1.795
 7670TIP3    H122955   1.653   1.916   1.728
 7670TIP3    H222956   1.754   1.830   1.802
 7671TIP3   OH222957   7.975   6.953   3.080
 7671TIP3    H122958   7.926   7.006   3.017
 7671TIP3    H222959   8.067   6.979   3.066
 7672TIP3   OH222960   1.870   0.210   1.105
 7672TIP3    H122961   1.857   0.254   1.189
 7672TIP3    H222962   1.820   0.262   1.042
 7673TIP3   OH222963   3.017   1.444   0.350
 7673TIP3    H122964   3.109   1.452   0.329
 7673TIP3    H222965   2.990   1.532   0.377
 7674TIP3   OH222966   5.386   4.149   3.252
 7674TIP3    H122967   5.295   4.122   3.239
 7674TIP3    H222968   5.437   4.069   3.235
 7675TIP3   OH222969   2.250   5.379   4.613
 7675TIP3    H122970   2.339   5.385   4.649
 7675TIP3    H222971   2.193   5.403   4.686
 7676TIP3   OH222972   6.853   7.718   5.875
 7676TIP3    H122973   6.910   7.656   5.921
 7676TIP3    H222974   6.772   7.718   5.926
 7677TIP3   OH222975   0.489   0.102   1.784
 7677TIP3    H122976   0.443   0.091   1.867
 7677TIP3    H222977   0.550   0.175   1.800
 7678TIP3   OH222978   3.955   0.993   4.895
 7678TIP3    H122979   3.995   0.920   4.850
 7678TIP3    H222980   3.995   1.071   4.856
 7679TIP3   OH222981   8.035   1.968   4.137
 7679TIP3    H122982   8.003   1.902   4.199
 7679TIP3    H222983   8.130   1.959   4.140
 7680TIP3   OH222984   3.662   7.737   1.645
 7680TIP3    H122985   3.738   7.704   1.598
 7680TIP3    H222986   3.629   7.661   1.693
 7681TIP3   OH222987   2.088   3.496   3.911
 7681TIP3    H122988   2.157   3.439   3.876
 7681TIP3    H222989   2.032   3.437   3.961
 7682TIP3   OH222990   5.210   0.418   1.248
 7682TIP3    H122991   5.282   0.422   1.311
 7682TIP3    H222992   5.177   0.508   1.244
 7683TIP3   OH222993   0.488   7.751   0.842
 7683TIP3    H122994   0.569   7.780   0.883
 7683TIP3    H222995   0.516   7.690   0.773
 7684TIP3   OH222996   0.676   6.465   1.996
 7684TIP3    H122997   0.607   6.529   1.979
 7684TIP3    H222998   0.749   6.516   2.029
 7685TIP3   OH222999   0.183   6.824   2.912
 7685TIP3    H123000   0.136   6.743   2.897
 7685TIP3    H223001   0.263   6.817   2.859
 7686TIP3   OH223002   2.769   7.636   2.881
 7686TIP3    H123003   2.698   7.700   2.873
 7686TIP3    H223004   2.813   7.661   2.963
 7687TIP3   OH223005   1.278   0.242   3.960
 7687TIP3    H123006   1.253   0.271   4.048
 7687TIP3    H223007   1.372   0.264   3.954
 7688TIP3   OH223008   0.131   6.877   3.914
 7688TIP3    H123009   0.097   6.845   3.998
 7688TIP3    H223010   0.183   6.954   3.938
 7689TIP3   OH223011   3.778   0.316   4.599
 7689TIP3    H123012   3.704   0.364   4.638
 7689TIP3    H223013   3.849   0.329   4.661
 7690TIP3   OH223014   7.849   0.094   0.140
 7690TIP3    H123015   7.783   0.136   0.195
 7690TIP3    H223016   7.898   0.037   0.199
 7691TIP3   OH223017   5.614   1.817   6.191
 7691TIP3    H123018   5.537   1.767   6.164
 7691TIP3    H223019   5.617   1.891   6.129
 7692TIP3   OH223020   6.467   7.222   3.109
 7692TIP3    H123021   6.442   7.261   3.192
 7692TIP3    H223022   6.562   7.211   3.114
 7693TIP3   OH223023   1.959   2.450   0.318
 7693TIP3    H123024   1.887   2.488   0.269
 7693TIP3    H223025   2.038   2.491   0.281
 7694TIP3   OH223026   4.935   7.126   4.731
 7694TIP3    H123027   4.938   7.032   4.711
 7694TIP3    H223028   5.026   7.152   4.741
 7695TIP3   OH223029   4.611   2.733   5.530
 7695TIP3    H123030   4.590   2.769   5.444
 7695TIP3    H223031   4.699   2.696   5.519
 7696TIP3   OH223032   7.198   2.484   0.833
 7696TIP3    H123033   7.120   2.459   0.784
 7696TIP3    H223034   7.228   2.566   0.792
 7697TIP3   OH223035   2.191   2.574   6.264
 7697TIP3    H123036   2.205   2.480   6.265
 7697TIP3    H223037   2.254   2.609   6.328
 7698TIP3   OH223038   6.857   3.490   3.883
 7698TIP3    H123039   6.941   3.488   3.838
 7698TIP3    H223040   6.794   3.455   3.820
 7699TIP3   OH223041   6.957   1.824   0.316
 7699TIP3    H123042   6.911   1.748   0.280
 7699TIP3    H223043   6.966   1.805   0.409
 7700TIP3   OH223044   3.736   0.563   4.454
 7700TIP3    H123045   3.716   0.470   4.459
 7700TIP3    H223046   3.770   0.585   4.541
 7701TIP3   OH223047   0.402   3.664   1.194
 7701TIP3    H123048   0.311   3.649   1.221
 7701TIP3    H223049   0.398   3.665   1.098
 7702TIP3   OH223050   1.873   3.394   6.063
 7702TIP3    H123051   1.862   3.301   6.085
 7702TIP3    H223052   1.809   3.410   5.994
 7703TIP3   OH223053   6.901   6.327   5.714
 7703TIP3    H123054   6.973   6.264   5.718
 7703TIP3    H223055   6.942   6.412   5.724
 7704TIP3   OH223056   1.102   5.694   1.057
 7704TIP3    H123057   1.161   5.715   1.129
 7704TIP3    H223058   1.158   5.692   0.980
 7705TIP3   OH223059   2.988   5.323   3.787
 7705TIP3    H123060   2.960   5.239   3.822
 7705TIP3    H223061   2.912   5.354   3.737
 7706TIP3   OH223062   4.671   3.955   1.621
 7706TIP3    H123063   4.579   3.959   1.593
 7706TIP3    H223064   4.671   3.896   1.696
 7707TIP3   OH223065   4.672   4.428   2.509
 7707TIP3    H123066   4.747   4.477   2.476
 7707TIP3    H223067   4.670   4.348   2.456
 7708TIP3   OH223068   1.635   0.442   4.095
 7708TIP3    H123069   1.573   0.431   4.167
 7708TIP3    H223070   1.712   0.482   4.134
 7709TIP3   OH223071   0.932   0.813   2.206
 7709TIP3    H123072   1.010   0.788   2.256
 7709TIP3    H223073   0.864   0.826   2.271
 7710TIP3   OH223074   0.649   3.201   2.606
 7710TIP3    H123075   0.678   3.293   2.604
 7710TIP3    H223076   0.718   3.153   2.561
 7711TIP3   OH223077   6.866   3.527   5.762
 7711TIP3    H123078   6.916   3.491   5.835
 7711TIP3    H223079   6.913   3.607   5.738
 7712TIP3   OH223080   2.057   2.930   4.859
 7712TIP3    H123081   2.018   2.905   4.943
 7712TIP3    H223082   2.146   2.958   4.880
 7713TIP3   OH223083   7.190   1.847   1.042
 7713TIP3    H123084   7.148   1.761   1.041
 7713TIP3    H223085   7.124   1.906   1.005
 7714TIP3   OH223086   2.451   3.360   3.584
 7714TIP3    H123087   2.364   3.398   3.597
 7714TIP3    H223088   2.466   3.366   3.489
 7715TIP3   OH223089   2.817   3.753   4.218
 7715TIP3    H123090   2.776   3.713   4.295
 7715TIP3    H223091   2.819   3.846   4.237
 7716TIP3   OH223092   8.266   7.419   4.986
 7716TIP3    H123093   8.192   7.408   5.046
 7716TIP3    H223094   8.282   7.514   4.986
 7717TIP3   OH223095   5.542   1.284   3.383
 7717TIP3    H123096   5.497   1.222   3.326
 7717TIP3    H223097   5.505   1.268   3.470
 7718TIP3   OH223098   6.880   1.769   0.823
 7718TIP3    H123099   6.899   1.859   0.850
 7718TIP3    H223100   6.862   1.722   0.904
 7719TIP3   OH223101   0.886   4.249   3.064
 7719TIP3    H123102   0.981   4.245   3.062
 7719TIP3    H223103   0.859   4.166   3.104
 7720TIP3   OH223104   1.684   3.220   3.742
 7720TIP3    H123105   1.642   3.297   3.781
 7720TIP3    H223106   1.778   3.235   3.754
 7721TIP3   OH223107   7.801   5.891   0.185
 7721TIP3    H123108   7.815   5.820   0.247
 7721TIP3    H223109   7.806   5.850   0.099
 7722TIP3   OH223110   6.747   0.094   6.576
 7722TIP3    H123111   6.826   0.073   6.626
 7722TIP3    H223112   6.721   0.181   6.607
 7723TIP3   OH223113   3.252   2.099   5.315
 7723TIP3    H123114   3.307   2.021   5.307
 7723TIP3    H223115   3.162   2.067   5.303
 7724TIP3   OH223116   2.887   2.871   0.071
 7724TIP3    H123117   2.861   2.947   0.124
 7724TIP3    H223118   2.805   2.822   0.059
 7725TIP3   OH223119   3.592   7.167   6.167
 7725TIP3    H123120   3.508   7.152   6.212
 7725TIP3    H223121   3.590   7.260   6.144
 7726TIP3   OH223122   6.930   0.601   6.169
 7726TIP3    H123123   6.880   0.612   6.250
 7726TIP3    H223124   6.962   0.511   6.173
 7727TIP3   OH223125   1.939   4.039   4.480
 7727TIP3    H123126   1.914   3.971   4.543
 7727TIP3    H223127   1.976   3.990   4.406
 7728TIP3   OH223128   2.418   5.074   1.707
 7728TIP3    H123129   2.325   5.072   1.682
 7728TIP3    H223130   2.436   5.167   1.722
 7729TIP3   OH223131   6.375   5.405   5.068
 7729TIP3    H123132   6.447   5.357   5.027
 7729TIP3    H223133   6.362   5.360   5.152
 7730TIP3   OH223134   0.838   5.678   5.466
 7730TIP3    H123135   0.827   5.592   5.505
 7730TIP3    H223136   0.813   5.739   5.535
 7731TIP3   OH223137   0.585   6.753   5.589
 7731TIP3    H123138   0.559   6.672   5.632
 7731TIP3    H223139   0.612   6.810   5.660
 7732TIP3   OH223140   3.316   3.697   2.589
 7732TIP3    H123141   3.355   3.784   2.593
 7732TIP3    H223142   3.390   3.639   2.572
 7733TIP3   OH223143   5.158   6.008   0.916
 7733TIP3    H123144   5.187   5.998   0.825
 7733TIP3    H223145   5.147   6.102   0.927
 7734TIP3   OH223146   7.089   3.502   0.372
 7734TIP3    H123147   7.127   3.539   0.292
 7734TIP3    H223148   7.001   3.541   0.377
 7735TIP3   OH223149   4.148   4.060   0.044
 7735TIP3    H123150   4.141   3.997   0.116
 7735TIP3    H223151   4.129   4.009  -0.034
 7736TIP3   OH223152   2.768   5.474   3.211
 7736TIP3    H123153   2.824   5.450   3.284
 7736TIP3    H223154   2.764   5.396   3.156
 7737TIP3   OH223155   6.633   1.286   4.861
 7737TIP3    H123156   6.623   1.376   4.830
 7737TIP3    H223157   6.728   1.273   4.863
 7738TIP3   OH223158   2.374   0.833   2.245
 7738TIP3    H123159   2.431   0.864   2.174
 7738TIP3    H223160   2.291   0.813   2.202
 7739TIP3   OH223161   4.287   3.427   1.973
 7739TIP3    H123162   4.222   3.448   1.906
 7739TIP3    H223163   4.278   3.497   2.038
 7740TIP3   OH223164   5.832   6.560   4.010
 7740TIP3    H123165   5.888   6.524   3.940
 7740TIP3    H223166   5.770   6.616   3.964
 7741TIP3   OH223167   6.630   1.821   1.278
 7741TIP3    H123168   6.578   1.889   1.320
 7741TIP3    H223169   6.685   1.785   1.348
 7742TIP3   OH223170   8.069   0.979   2.221
 7742TIP3    H123171   8.152   0.998   2.176
 7742TIP3    H223172   8.064   0.883   2.222
 7743TIP3   OH223173   7.774   4.901   3.769
 7743TIP3    H123174   7.693   4.851   3.761
 7743TIP3    H223175   7.746   4.989   3.791
 7744TIP3   OH223176   5.906   5.097   2.033
 7744TIP3    H123177   5.824   5.142   2.050
 7744TIP3    H223178   5.958   5.111   2.112
 7745TIP3   OH223179   7.718   2.739   5.367
 7745TIP3    H123180   7.678   2.659   5.400
 7745TIP3    H223181   7.645   2.793   5.336
 7746TIP3   OH223182   0.251   7.163   6.259
 7746TIP3    H123183   0.306   7.138   6.184
 7746TIP3    H223184   0.162   7.138   6.234
 7747TIP3   OH223185   4.000   1.491   0.270
 7747TIP3    H123186   4.027   1.409   0.229
 7747TIP3    H223187   3.907   1.479   0.288
 7748TIP3   OH223188   6.703   2.307   6.120
 7748TIP3    H123189   6.625   2.279   6.071
 7748TIP3    H223190   6.707   2.401   6.106
 7749TIP3   OH223191   2.842   2.348   2.035
 7749TIP3    H123192   2.936   2.333   2.046
 7749TIP3    H223193   2.821   2.416   2.099
 7750TIP3   OH223194   8.173   2.355   3.662
 7750TIP3    H123195   8.122   2.373   3.582
 7750TIP3    H223196   8.107   2.339   3.729
 7751TIP3   OH223197   1.961   5.950   6.622
 7751TIP3    H123198   1.990   5.883   6.684
 7751TIP3    H223199   1.959   6.031   6.674
 7752TIP3   OH223200   1.795   5.183   3.577
 7752TIP3    H123201   1.757   5.125   3.512
 7752TIP3    H223202   1.883   5.149   3.592
 7753TIP3   OH223203   3.066   0.384   0.548
 7753TIP3    H123204   3.133   0.318   0.562
 7753TIP3    H223205   3.115   0.465   0.535
 7754TIP3   OH223206   5.700   0.600  -0.007
 7754TIP3    H123207   5.624   0.594   0.051
 7754TIP3    H223208   5.677   0.666  -0.071
 7755TIP3   OH223209   0.946   7.489   0.620
 7755TIP3    H123210   1.001   7.471   0.696
 7755TIP3    H223211   0.921   7.581   0.629
 7756TIP3   OH223212   0.769   4.021   5.129
 7756TIP3    H123213   0.798   3.946   5.180
 7756TIP3    H223214   0.736   3.983   5.047
 7757TIP3   OH223215   1.385   6.794   4.966
 7757TIP3    H123216   1.331   6.859   5.010
 7757TIP3    H223217   1.328   6.718   4.955
 7758TIP3   OH223218   5.910   3.678   5.977
 7758TIP3    H123219   5.990   3.699   6.025
 7758TIP3    H223220   5.840   3.700   6.038
 7759TIP3   OH223221   4.183   5.835   2.282
 7759TIP3    H123222   4.261   5.864   2.234
 7759TIP3    H223223   4.164   5.748   2.246
 7760TIP3   OH223224   8.129   3.112   2.926
 7760TIP3    H123225   8.199   3.154   2.876
 7760TIP3    H223226   8.055   3.172   2.917
 7761TIP3   OH223227   1.227   4.397   5.291
 7761TIP3    H123228   1.181   4.463   5.239
 7761TIP3    H223229   1.192   4.407   5.380
 7762TIP3   OH223230   6.790   3.968   5.626
 7762TIP3    H123231   6.876   4.010   5.622
 7762TIP3    H223232   6.758   3.989   5.714
 7763TIP3   OH223233   3.836   1.786   5.174
 7763TIP3    H123234   3.878   1.701   5.187
 7763TIP3    H223235   3.900   1.850   5.206
 7764TIP3   OH223236   1.100   6.879   0.089
 7764TIP3    H123237   1.113   6.972   0.111
 7764TIP3    H223238   1.138   6.831   0.163
 7765TIP3   OH223239   1.413   5.648   0.236
 7765TIP3    H123240   1.374   5.566   0.203
 7765TIP3    H223241   1.351   5.679   0.302
 7766TIP3   OH223242   0.565   2.572   4.221
 7766TIP3    H123243   0.608   2.654   4.247
 7766TIP3    H223244   0.476   2.598   4.197
 7767TIP3   OH223245   1.391   7.782   4.551
 7767TIP3    H123246   1.416   7.840   4.622
 7767TIP3    H223247   1.334   7.716   4.592
 7768TIP3   OH223248   3.110   6.884   3.365
 7768TIP3    H123249   3.160   6.817   3.318
 7768TIP3    H223250   3.176   6.936   3.411
 7769TIP3   OH223251   1.990   7.154   2.275
 7769TIP3    H123252   1.999   7.249   2.288
 7769TIP3    H223253   1.931   7.145   2.200
 7770TIP3   OH223254   7.894   3.321   6.637
 7770TIP3    H123255   7.885   3.370   6.556
 7770TIP3    H223256   7.879   3.230   6.612
 7771TIP3   OH223257   5.386   3.948   1.262
 7771TIP3    H123258   5.370   4.003   1.339
 7771TIP3    H223259   5.457   3.991   1.216
 7772TIP3   OH223260   3.524   6.705   1.623
 7772TIP3    H123261   3.479   6.756   1.690
 7772TIP3    H223262   3.456   6.650   1.585
 7773TIP3   OH223263   4.069   2.403   6.113
 7773TIP3    H123264   4.053   2.487   6.156
 7773TIP3    H223265   4.004   2.344   6.152
 7774TIP3   OH223266   6.100   2.959   6.054
 7774TIP3    H123267   6.028   2.956   5.991
 7774TIP3    H223268   6.112   3.052   6.071
 7775TIP3   OH223269   6.732   7.675   3.430
 7775TIP3    H123270   6.679   7.693   3.353
 7775TIP3    H223271   6.750   7.762   3.467
 7776TIP3   OH223272   7.260   4.631   2.723
 7776TIP3    H123273   7.233   4.709   2.675
 7776TIP3    H223274   7.278   4.566   2.655
 7777TIP3   OH223275   2.241   3.266   1.016
 7777TIP3    H123276   2.200   3.284   1.101
 7777TIP3    H223277   2.175   3.291   0.952
 7778TIP3   OH223278   2.363   5.721   5.647
 7778TIP3    H123279   2.323   5.648   5.599
 7778TIP3    H223280   2.289   5.780   5.666
 7779TIP3   OH223281   5.906   2.165   0.353
 7779TIP3    H123282   5.975   2.128   0.408
 7779TIP3    H223283   5.867   2.089   0.310
 7780TIP3   OH223284   4.859   4.992   1.221
 7780TIP3    H123285   4.771   5.014   1.250
 7780TIP3    H223286   4.873   4.902   1.253
 7781TIP3   OH223287   0.737   5.936   1.545
 7781TIP3    H123288   0.689   5.925   1.627
 7781TIP3    H223289   0.760   6.029   1.543
 7782TIP3   OH223290   5.152   7.032   0.678
 7782TIP3    H123291   5.219   6.990   0.732
 7782TIP3    H223292   5.168   7.126   0.689
 7783TIP3   OH223293   7.139   3.707   2.291
 7783TIP3    H123294   7.059   3.728   2.340
 7783TIP3    H223295   7.150   3.780   2.230
 7784TIP3   OH223296   0.185   0.771   4.399
 7784TIP3    H123297   0.222   0.797   4.483
 7784TIP3    H223298   0.135   0.847   4.370
 7785TIP3   OH223299   4.200   4.390   1.720
 7785TIP3    H123300   4.150   4.467   1.690
 7785TIP3    H223301   4.263   4.426   1.783
 7786TIP3   OH223302   7.441   0.170   5.893
 7786TIP3    H123303   7.473   0.130   5.813
 7786TIP3    H223304   7.346   0.178   5.879
 7787TIP3   OH223305   5.426   5.591   5.350
 7787TIP3    H123306   5.345   5.571   5.304
 7787TIP3    H223307   5.478   5.511   5.346
 7788TIP3   OH223308   4.832   0.093   0.685
 7788TIP3    H123309   4.911   0.069   0.637
 7788TIP3    H223310   4.861   0.157   0.750
 7789TIP3   OH223311   3.551   3.381   4.635
 7789TIP3    H123312   3.563   3.469   4.597
 7789TIP3    H223313   3.637   3.357   4.667
 7790TIP3   OH223314   1.613   2.634   2.981
 7790TIP3    H123315   1.560   2.710   2.956
 7790TIP3    H223316   1.602   2.572   2.909
 7791TIP3   OH223317   3.762   2.207   2.361
 7791TIP3    H123318   3.831   2.238   2.302
 7791TIP3    H223319   3.712   2.145   2.308
 7792TIP3   OH223320   7.365   3.412   5.903
 7792TIP3    H123321   7.286   3.383   5.949
 7792TIP3    H223322   7.424   3.442   5.972
 7793TIP3   OH223323   0.130   3.040   5.265
 7793TIP3    H123324   0.175   3.118   5.298
 7793TIP3    H223325   0.173   2.967   5.309
 7794TIP3   OH223326   5.093  -0.025   0.977
 7794TIP3    H123327   5.101   0.068   0.955
 7794TIP3    H223328   5.029  -0.059   0.914
 7795TIP3   OH223329   1.951   6.348   5.844
 7795TIP3    H123330   2.020   6.315   5.900
 7795TIP3    H223331   1.918   6.271   5.798
 7796TIP3   OH223332   7.973   4.986   4.249
 7796TIP3    H123333   8.003   4.978   4.340
 7796TIP3    H223334   8.049   5.022   4.203
 7797TIP3   OH223335   6.200   6.119   0.827
 7797TIP3    H123336   6.154   6.166   0.758
 7797TIP3    H223337   6.175   6.028   0.815
 7798TIP3   OH223338   6.661   4.433   1.338
 7798TIP3    H123339   6.598   4.505   1.339
 7798TIP3    H223340   6.616   4.363   1.291
 7799TIP3   OH223341   7.836   2.995   4.312
 7799TIP3    H123342   7.760   2.942   4.288
 7799TIP3    H223343   7.864   2.960   4.397
 7800TIP3   OH223344   5.769   3.190   6.098
 7800TIP3    H123345   5.857   3.216   6.071
 7800TIP3    H223346   5.768   3.204   6.193
 7801TIP3   OH223347   6.429   0.884   2.389
 7801TIP3    H123348   6.476   0.881   2.472
 7801TIP3    H223349   6.475   0.951   2.338
 7802TIP3   OH223350   3.308   0.466   5.767
 7802TIP3    H123351   3.376   0.533   5.760
 7802TIP3    H223352   3.226   0.516   5.774
 7803TIP3   OH223353   3.969   6.603   2.558
 7803TIP3    H123354   4.002   6.552   2.484
 7803TIP3    H223355   3.876   6.612   2.541
 7804TIP3   OH223356   1.037   7.230   6.135
 7804TIP3    H123357   1.038   7.303   6.197
 7804TIP3    H223358   1.090   7.163   6.177
 7805TIP3   OH223359   6.921   4.566   2.580
 7805TIP3    H123360   6.946   4.593   2.668
 7805TIP3    H223361   6.927   4.647   2.528
 7806TIP3   OH223362   0.465   0.241   3.061
 7806TIP3    H123363   0.488   0.154   3.093
 7806TIP3    H223364   0.546   0.276   3.024
 7807TIP3   OH223365   8.000   2.560   4.905
 7807TIP3    H123366   7.958   2.478   4.931
 7807TIP3    H223367   8.042   2.540   4.821
 7808TIP3   OH223368   3.592   0.707   3.860
 7808TIP3    H123369   3.622   0.616   3.857
 7808TIP3    H223370   3.621   0.745   3.778
 7809TIP3   OH223371   2.405   6.389   6.300
 7809TIP3    H123372   2.368   6.345   6.377
 7809TIP3    H223373   2.499   6.390   6.316
 7810TIP3   OH223374   7.582   7.718   4.602
 7810TIP3    H123375   7.570   7.708   4.696
 7810TIP3    H223376   7.509   7.773   4.574
 7811TIP3   OH223377   6.601   5.332   4.941
 7811TIP3    H123378   6.544   5.360   4.869
 7811TIP3    H223379   6.643   5.413   4.971
 7812TIP3   OH223380   6.399   2.808   4.593
 7812TIP3    H123381   6.462   2.868   4.554
 7812TIP3    H223382   6.383   2.743   4.525
 7813TIP3   OH223383   5.553   5.046   4.837
 7813TIP3    H123384   5.471   5.032   4.886
 7813TIP3    H223385   5.617   4.991   4.883
 7814TIP3   OH223386   3.037   4.376   0.942
 7814TIP3    H123387   2.956   4.365   0.993
 7814TIP3    H223388   3.009   4.417   0.861
 7815TIP3   OH223389   5.756   3.798   6.164
 7815TIP3    H123390   5.671   3.756   6.153
 7815TIP3    H223391   5.735   3.889   6.187
 7816TIP3   OH223392   3.080   6.161   2.097
 7816TIP3    H123393   3.080   6.106   2.175
 7816TIP3    H223394   3.110   6.103   2.027
 7817TIP3   OH223395   4.824   0.963   3.110
 7817TIP3    H123396   4.842   1.036   3.169
 7817TIP3    H223397   4.728   0.957   3.108
 7818TIP3   OH223398   8.111   0.320   0.892
 7818TIP3    H123399   8.173   0.393   0.895
 7818TIP3    H223400   8.086   0.306   0.983
 7819TIP3   OH223401   7.621   0.105   6.395
 7819TIP3    H123402   7.593   0.101   6.304
 7819TIP3    H223403   7.668   0.023   6.409
 7820TIP3   OH223404   2.710   5.327   3.993
 7820TIP3    H123405   2.770   5.394   3.960
 7820TIP3    H223406   2.740   5.246   3.953
 7821TIP3   OH223407   8.195   0.684   2.984
 7821TIP3    H123408   8.150   0.606   3.017
 7821TIP3    H223409   8.222   0.731   3.063
 7822TIP3   OH223410   4.294   4.697   0.543
 7822TIP3    H123411   4.263   4.606   0.536
 7822TIP3    H223412   4.388   4.690   0.560
 7823TIP3   OH223413   1.784   2.712   1.278
 7823TIP3    H123414   1.827   2.792   1.249
 7823TIP3    H223415   1.694   2.721   1.248
 7824TIP3   OH223416   6.051   3.607   2.474
 7824TIP3    H123417   6.041   3.512   2.477
 7824TIP3    H223418   6.134   3.625   2.517
 7825TIP3   OH223419   7.124   5.198   2.893
 7825TIP3    H123420   7.135   5.127   2.957
 7825TIP3    H223421   7.209   5.241   2.891
 7826TIP3   OH223422   0.705   5.739   3.219
 7826TIP3    H123423   0.686   5.699   3.134
 7826TIP3    H223424   0.677   5.830   3.209
 7827TIP3   OH223425   6.538   6.886   2.847
 7827TIP3    H123426   6.472   6.912   2.782
 7827TIP3    H223427   6.487   6.849   2.919
 7828TIP3   OH223428   7.445   5.914   2.924
 7828TIP3    H123429   7.513   5.981   2.929
 7828TIP3    H223430   7.366   5.961   2.899
 7829TIP3   OH223431   5.303   5.582   5.993
 7829TIP3    H123432   5.258   5.635   6.059
 7829TIP3    H223433   5.325   5.645   5.924
 7830TIP3   OH223434   5.759   4.718   4.128
 7830TIP3    H123435   5.799   4.706   4.213
 7830TIP3    H223436   5.827   4.760   4.075
 7831TIP3   OH223437   4.271   6.105   0.543
 7831TIP3    H123438   4.199   6.046   0.566
 7831TIP3    H223439   4.296   6.078   0.454
 7832TIP3   OH223440   8.214   6.498   5.480
 7832TIP3    H123441   8.127   6.531   5.460
 7832TIP3    H223442   8.245   6.459   5.398
 7833TIP3   OH223443   6.091   5.856   6.382
 7833TIP3    H123444   6.075   5.782   6.322
 7833TIP3    H223445   6.053   5.931   6.337
 7834TIP3   OH223446   7.840   2.322   4.869
 7834TIP3    H123447   7.849   2.349   4.778
 7834TIP3    H223448   7.756   2.276   4.873
 7835TIP3   OH223449   6.647   6.296   0.364
 7835TIP3    H123450   6.564   6.321   0.404
 7835TIP3    H223451   6.625   6.222   0.307
 7836TIP3   OH223452   3.581   7.638   3.374
 7836TIP3    H123453   3.652   7.636   3.310
 7836TIP3    H223454   3.567   7.546   3.396
 7837TIP3   OH223455   4.942   2.827   4.630
 7837TIP3    H123456   4.999   2.862   4.699
 7837TIP3    H223457   4.855   2.858   4.653
 7838TIP3   OH223458   2.381   4.090   1.144
 7838TIP3    H123459   2.293   4.105   1.179
 7838TIP3    H223460   2.439   4.135   1.205
 7839TIP3   OH223461   6.240   7.447   5.807
 7839TIP3    H123462   6.206   7.375   5.753
 7839TIP3    H223463   6.284   7.505   5.745
 7840TIP3   OH223464   2.080   4.651   6.136
 7840TIP3    H123465   2.097   4.740   6.165
 7840TIP3    H223466   2.104   4.650   6.043
 7841TIP3   OH223467   5.164   5.818   4.618
 7841TIP3    H123468   5.193   5.890   4.673
 7841TIP3    H223469   5.110   5.858   4.551
 7842TIP3   OH223470   3.217   6.808   1.913
 7842TIP3    H123471   3.169   6.887   1.890
 7842TIP3    H223472   3.307   6.825   1.887
 7843TIP3   OH223473   7.769   3.632   3.340
 7843TIP3    H123474   7.801   3.642   3.430
 7843TIP3    H223475   7.795   3.713   3.296
 7844TIP3   OH223476   5.921   5.974   6.140
 7844TIP3    H123477   5.958   6.054   6.104
 7844TIP3    H223478   5.851   6.003   6.198
 7845TIP3   OH223479   5.412   1.119   1.228
 7845TIP3    H123480   5.393   1.038   1.275
 7845TIP3    H223481   5.389   1.100   1.137
 7846TIP3   OH223482   2.838   7.110   6.393
 7846TIP3    H123483   2.785   7.185   6.366
 7846TIP3    H223484   2.928   7.137   6.376
 7847TIP3   OH223485   3.524   1.949   4.320
 7847TIP3    H123486   3.464   1.952   4.395
 7847TIP3    H223487   3.466   1.955   4.244
 7848TIP3   OH223488   4.312   6.218   1.073
 7848TIP3    H123489   4.242   6.161   1.106
 7848TIP3    H223490   4.292   6.304   1.109
 7849TIP3   OH223491   1.449   1.865   2.331
 7849TIP3    H123492   1.370   1.913   2.355
 7849TIP3    H223493   1.463   1.803   2.402
 7850TIP3   OH223494   7.066   1.497   1.555
 7850TIP3    H123495   7.065   1.405   1.530
 7850TIP3    H223496   7.052   1.545   1.473
 7851TIP3   OH223497   1.360   6.082   0.943
 7851TIP3    H123498   1.282   6.026   0.943
 7851TIP3    H223499   1.326   6.170   0.964
 7852TIP3   OH223500   1.341   6.912   2.063
 7852TIP3    H123501   1.247   6.904   2.078
 7852TIP3    H223502   1.376   6.946   2.145
 7853TIP3   OH223503   7.299   4.604   6.234
 7853TIP3    H123504   7.394   4.614   6.227
 7853TIP3    H223505   7.272   4.569   6.149
 7854TIP3   OH223506   4.265   0.356   0.541
 7854TIP3    H123507   4.311   0.301   0.477
 7854TIP3    H223508   4.216   0.418   0.488
 7855TIP3   OH223509   5.119   6.846   6.085
 7855TIP3    H123510   5.205   6.810   6.062
 7855TIP3    H223511   5.071   6.771   6.122
 7856TIP3   OH223512   1.461   2.830   2.849
 7856TIP3    H123513   1.390   2.808   2.789
 7856TIP3    H223514   1.530   2.865   2.793
 7857TIP3   OH223515   7.676   7.163   6.710
 7857TIP3    H123516   7.664   7.222   6.636
 7857TIP3    H223517   7.630   7.083   6.684
 7858TIP3   OH223518   2.388   3.867   0.527
 7858TIP3    H123519   2.334   3.819   0.464
 7858TIP3    H223520   2.468   3.816   0.534
 7859TIP3   OH223521   7.371   2.936   3.331
 7859TIP3    H123522   7.452   2.970   3.293
 7859TIP3    H223523   7.382   2.841   3.331
 7860TIP3   OH223524   7.951   2.110   5.695
 7860TIP3    H123525   7.969   2.043   5.630
 7860TIP3    H223526   8.003   2.185   5.667
 7861TIP3   OH223527   0.097   2.930   2.102
 7861TIP3    H123528   0.128   2.840   2.089
 7861TIP3    H223529   0.125   2.977   2.023
 7862TIP3   OH223530  -0.014   6.175   6.648
 7862TIP3    H123531  -0.089   6.135   6.604
 7862TIP3    H223532   0.018   6.109   6.708
 7863TIP3   OH223533   3.146   6.653   0.435
 7863TIP3    H123534   3.199   6.579   0.463
 7863TIP3    H223535   3.064   6.614   0.405
 7864TIP3   OH223536   1.753   0.253   3.693
 7864TIP3    H123537   1.829   0.310   3.708
 7864TIP3    H223538   1.788   0.182   3.639
 7865TIP3   OH223539   0.540   1.029   1.884
 7865TIP3    H123540   0.462   1.006   1.935
 7865TIP3    H223541   0.609   0.971   1.919
 7866TIP3   OH223542   0.958   2.540   3.302
 7866TIP3    H123543   0.968   2.539   3.207
 7866TIP3    H223544   0.947   2.448   3.327
 7867TIP3   OH223545   2.141   6.874   0.395
 7867TIP3    H123546   2.114   6.943   0.455
 7867TIP3    H223547   2.062   6.856   0.344
 7868TIP3   OH223548   2.153   3.522   2.420
 7868TIP3    H123549   2.134   3.494   2.509
 7868TIP3    H223550   2.220   3.590   2.429
 7869TIP3   OH223551   0.316   7.532   5.964
 7869TIP3    H123552   0.250   7.469   5.935
 7869TIP3    H223553   0.376   7.539   5.890
 7870TIP3   OH223554   0.934   0.347   5.147
 7870TIP3    H123555   0.977   0.415   5.199
 7870TIP3    H223556   0.877   0.395   5.088
 7871TIP3   OH223557   1.148   2.962   4.004
 7871TIP3    H123558   1.166   2.870   3.987
 7871TIP3    H223559   1.218   2.990   4.063
 7872TIP3   OH223560   3.736   0.377   2.598
 7872TIP3    H123561   3.733   0.445   2.665
 7872TIP3    H223562   3.804   0.316   2.629
 7873TIP3   OH223563   4.675   7.370   5.436
 7873TIP3    H123564   4.673   7.376   5.532
 7873TIP3    H223565   4.659   7.277   5.418
 7874TIP3   OH223566   6.037   6.606   6.676
 7874TIP3    H123567   6.048   6.517   6.644
 7874TIP3    H223568   6.000   6.596   6.764
 7875TIP3   OH223569   3.862   5.771   5.784
 7875TIP3    H123570   3.905   5.686   5.797
 7875TIP3    H223571   3.806   5.757   5.708
 7876TIP3   OH223572   3.334   0.678   3.958
 7876TIP3    H123573   3.421   0.684   3.917
 7876TIP3    H223574   3.302   0.769   3.959
 7877TIP3   OH223575   2.743   2.336   5.694
 7877TIP3    H123576   2.734   2.252   5.739
 7877TIP3    H223577   2.774   2.314   5.607
 7878TIP3   OH223578   0.595   0.350   2.188
 7878TIP3    H123579   0.551   0.290   2.127
 7878TIP3    H223580   0.535   0.354   2.263
 7879TIP3   OH223581   4.374   6.194   2.010
 7879TIP3    H123582   4.413   6.156   1.931
 7879TIP3    H223583   4.439   6.256   2.042
 7880TIP3   OH223584   1.538   5.767   4.433
 7880TIP3    H123585   1.571   5.684   4.465
 7880TIP3    H223586   1.614   5.809   4.392
 7881TIP3   OH223587   5.131   4.496   5.638
 7881TIP3    H123588   5.159   4.408   5.613
 7881TIP3    H223589   5.053   4.512   5.585
 7882TIP3   OH223590   5.046   6.431   1.756
 7882TIP3    H123591   4.952   6.444   1.740
 7882TIP3    H223592   5.089   6.480   1.687
 7883TIP3   OH223593   3.592   4.941   0.862
 7883TIP3    H123594   3.530   4.994   0.913
 7883TIP3    H223595   3.640   5.005   0.809
 7884TIP3   OH223596   1.785   4.903   5.382
 7884TIP3    H123597   1.811   4.853   5.304
 7884TIP3    H223598   1.746   4.839   5.441
 7885TIP3   OH223599   1.430   6.249   4.068
 7885TIP3    H123600   1.435   6.254   3.973
 7885TIP3    H223601   1.338   6.265   4.089
 7886TIP3   OH223602   1.906   6.681   2.397
 7886TIP3    H123603   1.965   6.607   2.408
 7886TIP3    H223604   1.915   6.706   2.305
 7887TIP3   OH223605   0.977   1.803   5.939
 7887TIP3    H123606   0.917   1.737   5.975
 7887TIP3    H223607   0.920   1.862   5.890
 7888TIP3   OH223608   7.219   0.218   2.296
 7888TIP3    H123609   7.124   0.220   2.305
 7888TIP3    H223610   7.235   0.241   2.204
 7889TIP3   OH223611   0.158   1.828   3.115
 7889TIP3    H123612   0.090   1.883   3.153
 7889TIP3    H223613   0.111   1.769   3.056
 7890TIP3   OH223614   4.368   6.085   2.506
 7890TIP3    H123615   4.341   6.065   2.596
 7890TIP3    H223616   4.423   6.163   2.514
 7891TIP3   OH223617   0.938   3.215   0.220
 7891TIP3    H123618   0.963   3.291   0.273
 7891TIP3    H223619   0.897   3.253   0.142
 7892TIP3   OH223620   2.960   6.324   2.500
 7892TIP3    H123621   2.924   6.236   2.516
 7892TIP3    H223622   2.973   6.327   2.405
 7893TIP3   OH223623   3.094   5.777   2.482
 7893TIP3    H123624   3.013   5.825   2.464
 7893TIP3    H223625   3.131   5.821   2.558
 7894TIP3   OH223626   4.964   6.000   5.032
 7894TIP3    H123627   4.876   5.994   4.995
 7894TIP3    H223628   4.990   6.091   5.018
 7895TIP3   OH223629   3.237   2.722   5.485
 7895TIP3    H123630   3.249   2.777   5.562
 7895TIP3    H223631   3.305   2.656   5.492
 7896TIP3   OH223632   2.598   0.684   4.033
 7896TIP3    H123633   2.684   0.668   4.072
 7896TIP3    H223634   2.549   0.605   4.051
 7897TIP3   OH223635   8.300   4.727   1.066
 7897TIP3    H123636   8.246   4.781   1.009
 7897TIP3    H223637   8.239   4.690   1.129
 7898TIP3   OH223638   2.692   1.412   6.376
 7898TIP3    H123639   2.691   1.446   6.465
 7898TIP3    H223640   2.736   1.328   6.383
 7899TIP3   OH223641   1.973   1.830   5.283
 7899TIP3    H123642   2.036   1.769   5.322
 7899TIP3    H223643   1.929   1.869   5.358
 7900TIP3   OH223644   7.269   5.277   1.442
 7900TIP3    H123645   7.357   5.276   1.479
 7900TIP3    H223646   7.273   5.342   1.372
 7901TIP3   OH223647   1.638   1.203   2.332
 7901TIP3    H123648   1.543   1.212   2.318
 7901TIP3    H223649   1.648   1.121   2.380
 7902TIP3   OH223650   6.384   2.424   0.574
 7902TIP3    H123651   6.423   2.444   0.489
 7902TIP3    H223652   6.444   2.462   0.638
 7903TIP3   OH223653   3.636   6.801   4.324
 7903TIP3    H123654   3.586   6.828   4.401
 7903TIP3    H223655   3.676   6.882   4.291
 7904TIP3   OH223656   5.745   6.837   1.422
 7904TIP3    H123657   5.685   6.847   1.347
 7904TIP3    H223658   5.693   6.865   1.498
 7905TIP3   OH223659   6.518   6.496   1.800
 7905TIP3    H123660   6.489   6.408   1.778
 7905TIP3    H223661   6.614   6.492   1.794
 7906TIP3   OH223662   2.961   0.137   5.989
 7906TIP3    H123663   2.944   0.080   6.064
 7906TIP3    H223664   2.882   0.132   5.936
 7907TIP3   OH223665   6.725   5.896   1.458
 7907TIP3    H123666   6.775   5.888   1.540
 7907TIP3    H223667   6.634   5.888   1.486
 7908TIP3   OH223668   7.855   0.367   3.822
 7908TIP3    H123669   7.841   0.324   3.737
 7908TIP3    H223670   7.907   0.304   3.872
 7909TIP3   OH223671   3.836   5.204   3.388
 7909TIP3    H123672   3.886   5.131   3.352
 7909TIP3    H223673   3.826   5.183   3.480
 7910TIP3   OH223674   4.195   6.874   1.555
 7910TIP3    H123675   4.131   6.941   1.578
 7910TIP3    H223676   4.199   6.817   1.632
 7911TIP3   OH223677   6.869   7.273   5.942
 7911TIP3    H123678   6.830   7.188   5.921
 7911TIP3    H223679   6.836   7.294   6.029
 7912TIP3   OH223680   7.188   1.302   6.634
 7912TIP3    H123681   7.094   1.291   6.623
 7912TIP3    H223682   7.213   1.367   6.568
 7913TIP3   OH223683   0.203   4.330   0.286
 7913TIP3    H123684   0.134   4.363   0.344
 7913TIP3    H223685   0.263   4.284   0.344
 7914TIP3   OH223686   4.363   6.739   5.066
 7914TIP3    H123687   4.381   6.718   4.975
 7914TIP3    H223688   4.330   6.829   5.064
 7915TIP3   OH223689   3.642   1.046   5.649
 7915TIP3    H123690   3.717   1.103   5.635
 7915TIP3    H223691   3.567   1.105   5.655
 7916TIP3   OH223692   6.102   5.493   1.599
 7916TIP3    H123693   6.017   5.536   1.609
 7916TIP3    H223694   6.142   5.538   1.524
 7917TIP3   OH223695   7.592   4.407   0.303
 7917TIP3    H123696   7.634   4.492   0.318
 7917TIP3    H223697   7.512   4.411   0.355
 7918TIP3   OH223698   2.568   2.090   5.406
 7918TIP3    H123699   2.590   2.178   5.375
 7918TIP3    H223700   2.551   2.040   5.327
 7919TIP3   OH223701   2.336   7.695   4.709
 7919TIP3    H123702   2.426   7.662   4.712
 7919TIP3    H223703   2.330   7.755   4.783
 7920TIP3   OH223704   3.105   0.425   1.400
 7920TIP3    H123705   3.035   0.475   1.358
 7920TIP3    H223706   3.184   0.449   1.352
 7921TIP3   OH223707   5.217   6.936   0.281
 7921TIP3    H123708   5.232   6.861   0.338
 7921TIP3    H223709   5.127   6.963   0.299
 7922TIP3   OH223710   4.790   3.938   2.887
 7922TIP3    H123711   4.717   3.945   2.825
 7922TIP3    H223712   4.867   3.967   2.838
 7923TIP3   OH223713   5.457   0.102   3.117
 7923TIP3    H123714   5.461   0.034   3.185
 7923TIP3    H223715   5.547   0.132   3.107
 7924TIP3   OH223716   5.715   3.555   0.900
 7924TIP3    H123717   5.786   3.616   0.918
 7924TIP3    H223718   5.644   3.581   0.959
 7925TIP3   OH223719   1.007   2.869   0.424
 7925TIP3    H123720   0.924   2.831   0.393
 7925TIP3    H223721   1.000   2.864   0.519
 7926TIP3   OH223722   5.520   5.361   3.149
 7926TIP3    H123723   5.445   5.419   3.162
 7926TIP3    H223724   5.482   5.273   3.141
 7927TIP3   OH223725   3.954   4.009   2.257
 7927TIP3    H123726   4.039   3.994   2.216
 7927TIP3    H223727   3.943   4.104   2.255
 7928TIP3   OH223728   6.581   4.759   3.075
 7928TIP3    H123729   6.580   4.707   3.156
 7928TIP3    H223730   6.545   4.844   3.101
 7929TIP3   OH223731   2.753   6.840   4.110
 7929TIP3    H123732   2.815   6.771   4.086
 7929TIP3    H223733   2.683   6.833   4.045
 7930TIP3   OH223734   3.193   1.779   3.155
 7930TIP3    H123735   3.253   1.842   3.195
 7930TIP3    H223736   3.131   1.833   3.106
 7931TIP3   OH223737   6.169   7.528   6.612
 7931TIP3    H123738   6.121   7.485   6.683
 7931TIP3    H223739   6.102   7.552   6.549
 7932TIP3   OH223740   2.086   1.426   0.277
 7932TIP3    H123741   2.100   1.349   0.222
 7932TIP3    H223742   2.094   1.393   0.367
 7933TIP3   OH223743   5.770   5.102   0.073
 7933TIP3    H123744   5.708   5.060   0.133
 7933TIP3    H223745   5.764   5.051  -0.008
 7934TIP3   OH223746   6.631   5.839   1.884
 7934TIP3    H123747   6.707   5.873   1.836
 7934TIP3    H223748   6.661   5.836   1.975
 7935TIP3   OH223749   4.741   5.619   6.382
 7935TIP3    H123750   4.799   5.593   6.310
 7935TIP3    H223751   4.767   5.562   6.455
 7936TIP3   OH223752   7.835   0.032   0.453
 7936TIP3    H123753   7.756  -0.019   0.434
 7936TIP3    H223754   7.854   0.013   0.545
 7937TIP3   OH223755   5.910   2.434   0.398
 7937TIP3    H123756   5.907   2.341   0.373
 7937TIP3    H223757   5.999   2.461   0.378
 7938TIP3   OH223758   6.664   4.263   2.349
 7938TIP3    H123759   6.572   4.291   2.347
 7938TIP3    H223760   6.676   4.225   2.437
 7939TIP3   OH223761   1.006   4.472   1.686
 7939TIP3    H123762   1.057   4.527   1.627
 7939TIP3    H223763   0.993   4.391   1.638
 7940TIP3   OH223764   7.262   1.082   6.272
 7940TIP3    H123765   7.348   1.109   6.305
 7940TIP3    H223766   7.209   1.162   6.275
 7941TIP3   OH223767   7.303   3.319   0.135
 7941TIP3    H123768   7.373   3.326   0.070
 7941TIP3    H223769   7.222   3.322   0.084
 7942TIP3   OH223770   6.295   7.662   0.283
 7942TIP3    H123771   6.312   7.604   0.357
 7942TIP3    H223772   6.220   7.715   0.311
 7943TIP3   OH223773   0.208   5.939   2.039
 7943TIP3    H123774   0.185   6.032   2.043
 7943TIP3    H223775   0.156   5.899   2.109
 7944TIP3   OH223776   2.801   2.885   4.496
 7944TIP3    H123777   2.845   2.945   4.556
 7944TIP3    H223778   2.716   2.925   4.480
 7945TIP3   OH223779   4.014   6.273   0.957
 7945TIP3    H123780   3.935   6.287   1.009
 7945TIP3    H223781   4.044   6.186   0.981
 7946TIP3   OH223782   4.264   7.559   4.327
 7946TIP3    H123783   4.332   7.592   4.386
 7946TIP3    H223784   4.236   7.636   4.278
 7947TIP3   OH223785   6.107   6.799   6.488
 7947TIP3    H123786   6.067   6.769   6.407
 7947TIP3    H223787   6.066   6.747   6.556
 7948TIP3   OH223788   6.873   0.303   5.485
 7948TIP3    H123789   6.831   0.328   5.403
 7948TIP3    H223790   6.852   0.374   5.545
 7949TIP3   OH223791   2.259   6.656   2.328
 7949TIP3    H123792   2.336   6.684   2.377
 7949TIP3    H223793   2.216   6.737   2.303
 7950TIP3   OH223794   0.695   4.115   2.741
 7950TIP3    H123795   0.645   4.183   2.785
 7950TIP3    H223796   0.735   4.064   2.812
 7951TIP3   OH223797   6.388   5.862   0.252
 7951TIP3    H123798   6.459   5.799   0.263
 7951TIP3    H223799   6.325   5.819   0.195
 7952TIP3   OH223800   4.931   0.862   2.249
 7952TIP3    H123801   5.025   0.865   2.265
 7952TIP3    H223802   4.893   0.906   2.325
 7953TIP3   OH223803   6.833   7.566   5.025
 7953TIP3    H123804   6.792   7.479   5.029
 7953TIP3    H223805   6.916   7.554   5.070
 7954TIP3   OH223806   2.954   1.852   1.333
 7954TIP3    H123807   2.993   1.796   1.266
 7954TIP3    H223808   2.889   1.797   1.377
 7955TIP3   OH223809   3.658   6.184   4.839
 7955TIP3    H123810   3.573   6.163   4.878
 7955TIP3    H223811   3.701   6.239   4.905
 7956TIP3   OH223812   5.827   3.527   2.825
 7956TIP3    H123813   5.885   3.453   2.841
 7956TIP3    H223814   5.765   3.496   2.759
 7957TIP3   OH223815   5.530   6.987   0.270
 7957TIP3    H123816   5.615   6.999   0.227
 7957TIP3    H223817   5.523   7.059   0.333
 7958TIP3   OH223818   2.202   7.642   5.919
 7958TIP3    H123819   2.186   7.691   6.000
 7958TIP3    H223820   2.191   7.706   5.849
 7959TIP3   OH223821   6.154   2.777   4.844
 7959TIP3    H123822   6.198   2.862   4.839
 7959TIP3    H223823   6.223   2.713   4.826
 7960TIP3   OH223824   2.691   1.976   2.451
 7960TIP3    H123825   2.693   2.023   2.368
 7960TIP3    H223826   2.597   1.965   2.470
 7961TIP3   OH223827   0.526   3.676   5.461
 7961TIP3    H123828   0.554   3.754   5.508
 7961TIP3    H223829   0.509   3.706   5.372
 7962TIP3   OH223830   6.778   6.659   2.942
 7962TIP3    H123831   6.785   6.568   2.971
 7962TIP3    H223832   6.746   6.706   3.019
 7963TIP3   OH223833   2.067   2.300   2.009
 7963TIP3    H123834   2.040   2.243   1.936
 7963TIP3    H223835   2.026   2.384   1.989
 7964TIP3   OH223836   8.129   6.941   6.409
 7964TIP3    H123837   8.073   6.987   6.472
 7964TIP3    H223838   8.178   6.878   6.461
 7965TIP3   OH223839   1.113   1.205   0.192
 7965TIP3    H123840   1.197   1.250   0.187
 7965TIP3    H223841   1.092   1.203   0.285
 7966TIP3   OH223842   6.487   4.619   1.403
 7966TIP3    H123843   6.491   4.710   1.373
 7966TIP3    H223844   6.400   4.588   1.376
 7967TIP3   OH223845   1.334   5.027   0.372
 7967TIP3    H123846   1.303   4.968   0.303
 7967TIP3    H223847   1.338   4.973   0.450
 7968TIP3   OH223848   2.625   0.962   0.947
 7968TIP3    H123849   2.562   0.892   0.931
 7968TIP3    H223850   2.579   1.023   1.005
 7969TIP3   OH223851   5.002   4.284   3.013
 7969TIP3    H123852   4.924   4.264   3.065
 7969TIP3    H223853   5.058   4.207   3.024
 7970TIP3   OH223854   6.775   1.082   5.026
 7970TIP3    H123855   6.683   1.056   5.031
 7970TIP3    H223856   6.813   1.025   4.960
 7971TIP3   OH223857   7.380   5.190   6.191
 7971TIP3    H123858   7.420   5.182   6.278
 7971TIP3    H223859   7.451   5.175   6.130
 7972TIP3   OH223860   4.593   1.154   1.131
 7972TIP3    H123861   4.499   1.139   1.145
 7972TIP3    H223862   4.596   1.227   1.068
 7973TIP3   OH223863   2.855   1.163   2.029
 7973TIP3    H123864   2.896   1.100   2.088
 7973TIP3    H223865   2.871   1.248   2.071
 7974TIP3   OH223866   0.208   3.891   4.567
 7974TIP3    H123867   0.238   3.893   4.659
 7974TIP3    H223868   0.120   3.927   4.570
 7975TIP3   OH223869   4.806   6.255   0.920
 7975TIP3    H123870   4.878   6.240   0.858
 7975TIP3    H223871   4.789   6.349   0.914
 7976TIP3   OH223872   7.736   0.410   1.411
 7976TIP3    H123873   7.798   0.463   1.462
 7976TIP3    H223874   7.743   0.444   1.322
 7977TIP3   OH223875   7.630   6.839   3.668
 7977TIP3    H123876   7.631   6.748   3.696
 7977TIP3    H223877   7.722   6.861   3.655
 7978TIP3   OH223878   2.381   3.529   6.510
 7978TIP3    H123879   2.473   3.509   6.526
 7978TIP3    H223880   2.348   3.454   6.460
 7979TIP3   OH223881   5.257   3.002   3.619
 7979TIP3    H123882   5.176   2.952   3.631
 7979TIP3    H223883   5.237   3.089   3.652
 7980TIP3   OH223884   6.561   3.067   3.308
 7980TIP3    H123885   6.648   3.090   3.340
 7980TIP3    H223886   6.577   3.016   3.229
 7981TIP3   OH223887   5.704   4.879   5.553
 7981TIP3    H123888   5.647   4.893   5.477
 7981TIP3    H223889   5.765   4.810   5.526
 7982TIP3   OH223890   6.605   2.214   2.892
 7982TIP3    H123891   6.676   2.226   2.955
 7982TIP3    H223892   6.535   2.273   2.922
 7983TIP3   OH223893   6.861   5.287   1.257
 7983TIP3    H123894   6.829   5.376   1.268
 7983TIP3    H223895   6.793   5.243   1.206
 7984TIP3   OH223896   4.455   5.991   3.054
 7984TIP3    H123897   4.522   5.945   3.004
 7984TIP3    H223898   4.505   6.037   3.122
 7985TIP3   OH223899   2.868   7.310   2.044
 7985TIP3    H123900   2.890   7.296   2.137
 7985TIP3    H223901   2.923   7.247   1.997
 7986TIP3   OH223902   0.262   3.614   5.526
 7986TIP3    H123903   0.355   3.623   5.505
 7986TIP3    H223904   0.241   3.523   5.508
 7987TIP3   OH223905   7.103   5.206   6.239
 7987TIP3    H123906   7.107   5.152   6.318
 7987TIP3    H223907   7.187   5.251   6.237
 7988TIP3   OH223908   5.247   3.044   5.956
 7988TIP3    H123909   5.330   3.027   5.912
 7988TIP3    H223910   5.182   2.998   5.903
 7989TIP3   OH223911   0.614   5.460   5.865
 7989TIP3    H123912   0.651   5.514   5.935
 7989TIP3    H223913   0.654   5.374   5.878
 7990TIP3   OH223914   3.246   2.542   3.376
 7990TIP3    H123915   3.327   2.584   3.346
 7990TIP3    H223916   3.189   2.615   3.400
 7991TIP3   OH223917  -0.001   3.837   1.714
 7991TIP3    H123918   0.010   3.810   1.805
 7991TIP3    H223919   0.068   3.901   1.700
 7992TIP3   OH223920   2.808   1.966   5.082
 7992TIP3    H123921   2.790   1.894   5.022
 7992TIP3    H223922   2.723   1.985   5.123
 7993TIP3   OH223923   5.470   1.939   4.448
 7993TIP3    H123924   5.559   1.935   4.413
 7993TIP3    H223925   5.416   1.965   4.373
 7994TIP3   OH223926   2.248   6.500   5.256
 7994TIP3    H123927   2.219   6.416   5.220
 7994TIP3    H223928   2.340   6.506   5.232
 7995TIP3   OH223929   6.966   2.450   4.154
 7995TIP3    H123930   6.968   2.522   4.218
 7995TIP3    H223931   7.057   2.423   4.146
 7996TIP3   OH223932   3.311   5.371   0.348
 7996TIP3    H123933   3.328   5.457   0.311
 7996TIP3    H223934   3.384   5.317   0.318
 7997TIP3   OH223935   1.312   2.456   4.054
 7997TIP3    H123936   1.299   2.392   3.984
 7997TIP3    H223937   1.261   2.421   4.128
 7998TIP3   OH223938   3.506   1.437   4.726
 7998TIP3    H123939   3.487   1.423   4.819
 7998TIP3    H223940   3.556   1.519   4.724
 7999TIP3   OH223941   5.492   1.772   0.706
 7999TIP3    H123942   5.562   1.733   0.652
 7999TIP3    H223943   5.536   1.795   0.788
 8000TIP3   OH223944   1.354   2.315   0.795
 8000TIP3    H123945   1.344   2.359   0.711
 8000TIP3    H223946   1.274   2.263   0.805
 8001TIP3   OH223947   3.049   2.235   0.977
 8001TIP3    H123948   3.039   2.176   0.902
 8001TIP3    H223949   2.972   2.292   0.972
 8002TIP3   OH223950   1.700   7.097   5.670
 8002TIP3    H123951   1.776   7.145   5.637
 8002TIP3    H223952   1.626   7.154   5.651
 8003TIP3   OH223953   5.904   4.156   4.526
 8003TIP3    H123954   5.991   4.177   4.492
 8003TIP3    H223955   5.864   4.241   4.545
 8004TIP3   OH223956   6.031   1.876   3.798
 8004TIP3    H123957   5.943   1.904   3.822
 8004TIP3    H223958   6.053   1.809   3.863
 8005TIP3   OH223959   8.302   0.756   2.544
 8005TIP3    H123960   8.221   0.779   2.590
 8005TIP3    H223961   8.370   0.806   2.590
 8006TIP3   OH223962   6.750   6.332   6.558
 8006TIP3    H123963   6.663   6.349   6.593
 8006TIP3    H223964   6.809   6.346   6.633
 8007TIP3   OH223965   3.840   0.528   3.633
 8007TIP3    H123966   3.892   0.567   3.704
 8007TIP3    H223967   3.853   0.434   3.643
 8008TIP3   OH223968   1.347   6.231   4.498
 8008TIP3    H123969   1.363   6.137   4.506
 8008TIP3    H223970   1.412   6.261   4.435
 8009TIP3   OH223971   4.086   1.711   0.401
 8009TIP3    H123972   4.096   1.771   0.327
 8009TIP3    H223973   4.067   1.626   0.362
 8010TIP3   OH223974   7.482   0.636   5.236
 8010TIP3    H123975   7.543   0.663   5.304
 8010TIP3    H223976   7.522   0.666   5.154
 8011TIP3   OH223977   6.581   0.391   0.725
 8011TIP3    H123978   6.487   0.385   0.739
 8011TIP3    H223979   6.590   0.443   0.645
 8012TIP3   OH223980   3.820   4.043   4.918
 8012TIP3    H123981   3.835   4.069   4.827
 8012TIP3    H223982   3.847   4.119   4.969
 8013TIP3   OH223983   1.707   6.300   1.252
 8013TIP3    H123984   1.654   6.315   1.331
 8013TIP3    H223985   1.662   6.350   1.183
 8014TIP3   OH223986   5.530   5.037   3.998
 8014TIP3    H123987   5.622   5.055   4.018
 8014TIP3    H223988   5.489   5.024   4.084
 8015TIP3   OH223989   0.107   5.509   2.926
 8015TIP3    H123990   0.095   5.569   2.999
 8015TIP3    H223991   0.172   5.551   2.870
 8016TIP3   OH223992   1.362   2.709   1.580
 8016TIP3    H123993   1.304   2.710   1.504
 8016TIP3    H223994   1.449   2.688   1.544
 8017TIP3   OH223995   4.150   2.218   6.450
 8017TIP3    H123996   4.214   2.289   6.455
 8017TIP3    H223997   4.174   2.169   6.372
 8018TIP3   OH223998   2.348   3.195   4.482
 8018TIP3    H123999   2.255   3.210   4.503
 8018TIP3    H224000   2.391   3.276   4.507
 8019TIP3   OH224001   2.687   4.707   5.457
 8019TIP3    H124002   2.597   4.730   5.437
 8019TIP3    H224003   2.740   4.764   5.402
 8020TIP3   OH224004   3.450   0.242   0.452
 8020TIP3    H124005   3.543   0.256   0.432
 8020TIP3    H224006   3.448   0.228   0.546
 8021TIP3   OH224007   4.524   0.871   2.950
 8021TIP3    H124008   4.485   0.893   3.034
 8021TIP3    H224009   4.582   0.797   2.969
 8022TIP3   OH224010   5.190   2.031   4.851
 8022TIP3    H124011   5.167   1.969   4.921
 8022TIP3    H224012   5.192   1.978   4.772
 8023TIP3   OH224013   6.594   6.274   4.834
 8023TIP3    H124014   6.590   6.352   4.779
 8023TIP3    H224015   6.616   6.307   4.921
 8024TIP3   OH224016   0.670   3.656   1.318
 8024TIP3    H124017   0.586   3.644   1.274
 8024TIP3    H224018   0.652   3.641   1.410
 8025TIP3   OH224019   0.117   7.380   5.841
 8025TIP3    H124020   0.099   7.301   5.891
 8025TIP3    H224021   0.031   7.410   5.811
 8026TIP3   OH224022   1.706   5.175   5.332
 8026TIP3    H124023   1.769   5.212   5.269
 8026TIP3    H224024   1.738   5.086   5.347
 8027TIP3   OH224025   0.976   5.277   4.161
 8027TIP3    H124026   0.912   5.232   4.216
 8027TIP3    H224027   1.059   5.264   4.207
 8028TIP3   OH224028   8.056   2.833   2.512
 8028TIP3    H124029   8.090   2.917   2.542
 8028TIP3    H224030   8.127   2.771   2.529
 8029TIP3   OH224031   1.607   1.109   1.695
 8029TIP3    H124032   1.545   1.037   1.689
 8029TIP3    H224033   1.667   1.095   1.621
 8030TIP3   OH224034   6.010   0.638   0.757
 8030TIP3    H124035   6.021   0.553   0.713
 8030TIP3    H224036   6.089   0.686   0.736
 8031TIP3   OH224037   5.683   2.869   6.642
 8031TIP3    H124038   5.764   2.919   6.654
 8031TIP3    H224039   5.634   2.918   6.575
 8032TIP3   OH224040   8.061   4.050   1.879
 8032TIP3    H124041   7.984   4.078   1.830
 8032TIP3    H224042   8.111   3.996   1.818
 8033TIP3   OH224043   4.185   5.624   1.718
 8033TIP3    H124044   4.240   5.688   1.762
 8033TIP3    H224045   4.172   5.659   1.630
 8034TIP3   OH224046   7.462   1.084   4.185
 8034TIP3    H124047   7.367   1.070   4.186
 8034TIP3    H224048   7.500   0.996   4.186
 8035TIP3   OH224049   5.471   5.666   0.291
 8035TIP3    H124050   5.516   5.588   0.323
 8035TIP3    H224051   5.534   5.737   0.304
 8036TIP3   OH224052   4.770   2.182   4.074
 8036TIP3    H124053   4.696   2.130   4.044
 8036TIP3    H224054   4.793   2.144   4.160
 8037TIP3   OH224055   6.089   5.881   0.719
 8037TIP3    H124056   6.159   5.816   0.712
 8037TIP3    H224057   6.013   5.831   0.750
 8038TIP3   OH224058   0.400   6.309   2.652
 8038TIP3    H124059   0.448   6.300   2.734
 8038TIP3    H224060   0.350   6.390   2.663
 8039TIP3   OH224061   1.510   2.475   2.730
 8039TIP3    H124062   1.562   2.486   2.651
 8039TIP3    H224063   1.504   2.380   2.741
 8040TIP3   OH224064   0.482   2.906   2.356
 8040TIP3    H124065   0.446   2.842   2.294
 8040TIP3    H224066   0.558   2.943   2.310
 8041TIP3   OH224067   0.389   2.075   4.969
 8041TIP3    H124068   0.448   2.023   5.024
 8041TIP3    H224069   0.313   2.092   5.024
 8042TIP3   OH224070   0.372   2.098   3.862
 8042TIP3    H124071   0.429   2.040   3.913
 8042TIP3    H224072   0.284   2.067   3.880
 8043TIP3   OH224073   8.010   5.597   6.207
 8043TIP3    H124074   8.044   5.621   6.121
 8043TIP3    H224075   7.989   5.680   6.249
 8044TIP3   OH224076   0.387   4.117   0.295
 8044TIP3    H124077   0.411   4.076   0.378
 8044TIP3    H224078   0.298   4.086   0.279
 8045TIP3   OH224079   3.188   1.405   1.042
 8045TIP3    H124080   3.196   1.353   1.122
 8045TIP3    H224081   3.107   1.372   1.001
 8046TIP3   OH224082   7.109   1.024   5.046
 8046TIP3    H124083   7.155   1.105   5.023
 8046TIP3    H224084   7.016   1.048   5.044
 8047TIP3   OH224085   3.827   5.299   3.987
 8047TIP3    H124086   3.829   5.332   4.077
 8047TIP3    H224087   3.858   5.209   3.995
 8048TIP3   OH224088   4.917   6.351   3.178
 8048TIP3    H124089   4.970   6.430   3.186
 8048TIP3    H224090   4.925   6.325   3.086
 8049TIP3   OH224091   7.377   3.847   0.595
 8049TIP3    H124092   7.359   3.753   0.605
 8049TIP3    H224093   7.429   3.870   0.672
 8050TIP3   OH224094   8.047   4.456   3.007
 8050TIP3    H124095   8.051   4.539   3.054
 8050TIP3    H224096   8.065   4.479   2.916
 8051TIP3   OH224097   5.428   1.128   0.026
 8051TIP3    H124098   5.520   1.149   0.017
 8051TIP3    H224099   5.426   1.053   0.087
 8052TIP3   OH224100   0.038   3.557   2.704
 8052TIP3    H124101  -0.006   3.625   2.754
 8052TIP3    H224102   0.088   3.507   2.768
 8053TIP3   OH224103   6.953   4.657   2.009
 8053TIP3    H124104   7.047   4.639   2.014
 8053TIP3    H224105   6.924   4.608   1.932
 8054TIP3   OH224106   2.232   6.337   0.816
 8054TIP3    H124107   2.181   6.413   0.789
 8054TIP3    H224108   2.233   6.280   0.739
 8055TIP3   OH224109   5.730   5.287   2.966
 8055TIP3    H124110   5.708   5.226   2.896
 8055TIP3    H224111   5.646   5.325   2.992
 8056TIP3   OH224112   3.717   1.042   1.995
 8056TIP3    H124113   3.651   1.013   2.058
 8056TIP3    H224114   3.731   0.966   1.938
 8057TIP3   OH224115   1.962   0.383   4.960
 8057TIP3    H124116   1.880   0.433   4.956
 8057TIP3    H224117   2.025   0.437   4.912
 8058TIP3   OH224118   7.565   4.564   6.202
 8058TIP3    H124119   7.571   4.470   6.221
 8058TIP3    H224120   7.603   4.573   6.115
 8059TIP3   OH224121   6.374   6.563   5.855
 8059TIP3    H124122   6.396   6.480   5.898
 8059TIP3    H224123   6.313   6.606   5.915
 8060TIP3   OH224124   5.704   2.824   3.776
 8060TIP3    H124125   5.618   2.863   3.792
 8060TIP3    H224126   5.759   2.856   3.848
 8061TIP3   OH224127   7.120   3.226   4.639
 8061TIP3    H124128   7.034   3.262   4.617
 8061TIP3    H224129   7.182   3.275   4.586
 8062TIP3   OH224130   0.062   7.066   0.802
 8062TIP3    H124131   0.086   7.093   0.713
 8062TIP3    H224132   0.032   7.146   0.844
 8063TIP3   OH224133   3.114   7.598   4.962
 8063TIP3    H124134   3.125   7.551   4.879
 8063TIP3    H224135   3.143   7.687   4.944
 8064TIP3   OH224136   5.356   2.313   5.950
 8064TIP3    H124137   5.267   2.302   5.985
 8064TIP3    H224138   5.378   2.227   5.913
 8065TIP3   OH224139   0.245   5.826   6.478
 8065TIP3    H124140   0.200   5.746   6.504
 8065TIP3    H224141   0.233   5.887   6.551
 8066TIP3   OH224142   7.071   4.348   1.950
 8066TIP3    H124143   7.121   4.426   1.974
 8066TIP3    H224144   7.079   4.291   2.027
 8067TIP3   OH224145   2.122   2.826   1.247
 8067TIP3    H124146   2.103   2.906   1.295
 8067TIP3    H224147   2.137   2.760   1.314
 8068TIP3   OH224148   7.313   4.188   4.455
 8068TIP3    H124149   7.326   4.096   4.478
 8068TIP3    H224150   7.236   4.214   4.505
 8069TIP3   OH224151   3.362   7.467   2.727
 8069TIP3    H124152   3.316   7.387   2.753
 8069TIP3    H224153   3.374   7.457   2.632
 8070TIP3   OH224154   1.151   2.536   0.734
 8070TIP3    H124155   1.085   2.593   0.774
 8070TIP3    H224156   1.232   2.556   0.782
 8071TIP3   OH224157   3.933   6.240   0.691
 8071TIP3    H124158   3.952   6.151   0.721
 8071TIP3    H224159   4.013   6.289   0.710
 8072TIP3   OH224160   1.109   1.868   1.059
 8072TIP3    H124161   1.025   1.867   1.014
 8072TIP3    H224162   1.090   1.897   1.148
 8073TIP3   OH224163   3.268   4.414   4.088
 8073TIP3    H124164   3.335   4.376   4.030
 8073TIP3    H224165   3.185   4.379   4.055
 8074TIP3   OH224166   7.889   2.257   2.425
 8074TIP3    H124167   7.903   2.255   2.519
 8074TIP3    H224168   7.977   2.257   2.387
 8075TIP3   OH224169   6.838   2.998   2.158
 8075TIP3    H124170   6.922   3.008   2.114
 8075TIP3    H224171   6.846   3.052   2.237
 8076TIP3   OH224172   6.511   0.143   0.552
 8076TIP3    H124173   6.578   0.135   0.484
 8076TIP3    H224174   6.546   0.209   0.612
 8077TIP3   OH224175   1.588   0.072   0.935
 8077TIP3    H124176   1.667   0.036   0.895
 8077TIP3    H224177   1.529   0.088   0.862
 8078TIP3   OH224178   5.892   6.280   4.822
 8078TIP3    H124179   5.840   6.216   4.773
 8078TIP3    H224180   5.982   6.247   4.815
 8079TIP3   OH224181   3.513   1.831   0.697
 8079TIP3    H124182   3.477   1.846   0.784
 8079TIP3    H224183   3.569   1.754   0.706
 8080TIP3   OH224184   2.152   3.596   1.358
 8080TIP3    H124185   2.206   3.664   1.318
 8080TIP3    H224186   2.068   3.638   1.375
 8081TIP3   OH224187   5.956   7.063   1.190
 8081TIP3    H124188   5.975   6.969   1.186
 8081TIP3    H224189   5.950   7.090   1.098
 8082TIP3   OH224190   2.512   3.680   2.325
 8082TIP3    H124191   2.454   3.714   2.257
 8082TIP3    H224192   2.478   3.720   2.406
 8083TIP3   OH224193   0.048   4.143   6.197
 8083TIP3    H124194  -0.036   4.145   6.243
 8083TIP3    H224195   0.112   4.172   6.262
 8084TIP3   OH224196   3.877   5.271   1.508
 8084TIP3    H124197   3.885   5.366   1.522
 8084TIP3    H224198   3.834   5.263   1.423
 8085TIP3   OH224199   0.097   0.248   4.533
 8085TIP3    H124200   0.016   0.209   4.566
 8085TIP3    H224201   0.165   0.212   4.589
 8086TIP3   OH224202   2.966   0.071   3.889
 8086TIP3    H124203   2.997   0.161   3.905
 8086TIP3    H224204   2.933   0.041   3.973
 8087TIP3   OH224205   3.847   1.403   5.851
 8087TIP3    H124206   3.787   1.370   5.918
 8087TIP3    H224207   3.842   1.340   5.780
 8088TIP3   OH224208   8.011   2.945   1.121
 8088TIP3    H124209   8.004   2.982   1.209
 8088TIP3    H224210   8.013   2.850   1.135
 8089TIP3   OH224211   0.738   6.056   0.228
 8089TIP3    H124212   0.727   6.097   0.314
 8089TIP3    H224213   0.732   5.962   0.246
 8090TIP3   OH224214   4.433   7.775   4.457
 8090TIP3    H124215   4.486   7.737   4.527
 8090TIP3    H224216   4.449   7.869   4.462
 8091TIP3   OH224217   7.657   5.829   6.138
 8091TIP3    H124218   7.679   5.783   6.219
 8091TIP3    H224219   7.735   5.824   6.085
 8092TIP3   OH224220   3.263   2.549   5.130
 8092TIP3    H124221   3.310   2.631   5.146
 8092TIP3    H224222   3.275   2.498   5.210
 8093TIP3   OH224223   2.071   7.671   1.076
 8093TIP3    H124224   2.111   7.744   1.123
 8093TIP3    H224225   1.987   7.705   1.045
 8094TIP3   OH224226   0.813   3.453   3.975
 8094TIP3    H124227   0.852   3.535   3.946
 8094TIP3    H224228   0.754   3.428   3.904
 8095TIP3   OH224229   5.094   4.169   0.687
 8095TIP3    H124230   5.146   4.089   0.684
 8095TIP3    H224231   5.033   4.155   0.759
 8096TIP3   OH224232   4.145   1.430   0.542
 8096TIP3    H124233   4.151   1.472   0.456
 8096TIP3    H224234   4.051   1.425   0.559
 8097TIP3   OH224235   8.057   2.553   6.631
 8097TIP3    H124236   7.985   2.601   6.589
 8097TIP3    H224237   8.106   2.620   6.678
 8098TIP3   OH224238   0.718   1.641   6.317
 8098TIP3    H124239   0.677   1.709   6.264
 8098TIP3    H224240   0.649   1.578   6.333
 8099TIP3   OH224241   5.862   0.357   2.060
 8099TIP3    H124242   5.859   0.378   1.967
 8099TIP3    H224243   5.946   0.314   2.073
 8100TIP3   OH224244   3.240   3.688   5.845
 8100TIP3    H124245   3.187   3.751   5.796
 8100TIP3    H224246   3.287   3.639   5.777
 8101TIP3   OH224247   6.469   3.075   5.778
 8101TIP3    H124248   6.536   3.037   5.721
 8101TIP3    H224249   6.397   3.096   5.719
 8102TIP3   OH224250   8.095   4.031   2.829
 8102TIP3    H124251   8.026   3.964   2.835
 8102TIP3    H224252   8.048   4.113   2.816
 8103TIP3   OH224253   6.678   0.597   1.744
 8103TIP3    H124254   6.735   0.650   1.688
 8103TIP3    H224255   6.626   0.660   1.792
 8104TIP3   OH224256   7.009   6.243   3.914
 8104TIP3    H124257   7.027   6.149   3.911
 8104TIP3    H224258   7.088   6.281   3.952
 8105TIP3   OH224259   2.928   5.004   4.862
 8105TIP3    H124260   2.964   4.928   4.907
 8105TIP3    H224261   3.004   5.057   4.839
 8106TIP3   OH224262   1.971   6.635   5.812
 8106TIP3    H124263   1.979   6.647   5.907
 8106TIP3    H224264   1.980   6.541   5.799
 8107TIP3   OH224265   2.792   1.721   4.922
 8107TIP3    H124266   2.728   1.745   4.855
 8107TIP3    H224267   2.861   1.676   4.874
 8108TIP3   OH224268   7.386   6.800   3.915
 8108TIP3    H124269   7.339   6.798   3.999
 8108TIP3    H224270   7.384   6.892   3.888
 8109TIP3   OH224271   5.209   6.085   2.438
 8109TIP3    H124272   5.262   6.136   2.378
 8109TIP3    H224273   5.119   6.115   2.422
 8110TIP3   OH224274   5.470   0.145   2.082
 8110TIP3    H124275   5.467   0.171   2.174
 8110TIP3    H224276   5.419   0.212   2.036
 8111TIP3   OH224277   7.758   0.282   6.595
 8111TIP3    H124278   7.712   0.216   6.544
 8111TIP3    H224279   7.797   0.233   6.668
 8112TIP3   OH224280   6.913   0.441   0.293
 8112TIP3    H124281   6.829   0.485   0.276
 8112TIP3    H224282   6.930   0.456   0.386
 8113TIP3   OH224283   6.721   3.008   1.070
 8113TIP3    H124284   6.747   2.918   1.089
 8113TIP3    H224285   6.714   3.011   0.975
 8114TIP3   OH224286   5.531   6.114   0.846
 8114TIP3    H124287   5.528   6.198   0.800
 8114TIP3    H224288   5.476   6.128   0.924
 8115TIP3   OH224289   0.992   7.528   4.726
 8115TIP3    H124290   1.082   7.535   4.693
 8115TIP3    H224291   0.997   7.556   4.817
 8116TIP3   OH224292   6.145   0.187   0.420
 8116TIP3    H124293   6.191   0.104   0.410
 8116TIP3    H224294   6.054   0.161   0.439
 8117TIP3   OH224295   5.359   3.663   1.313
 8117TIP3    H124296   5.341   3.756   1.310
 8117TIP3    H224297   5.405   3.650   1.396
 8118TIP3   OH224298   2.175   0.402   2.707
 8118TIP3    H124299   2.144   0.440   2.790
 8118TIP3    H224300   2.241   0.339   2.733
 8119TIP3   OH224301   7.538   3.261   4.356
 8119TIP3    H124302   7.623   3.216   4.361
 8119TIP3    H224303   7.546   3.319   4.281
 8120TIP3   OH224304   0.279   7.519   2.947
 8120TIP3    H124305   0.287   7.593   2.888
 8120TIP3    H224306   0.185   7.512   2.965
 8121TIP3   OH224307   2.737   1.427   1.896
 8121TIP3    H124308   2.709   1.384   1.815
 8121TIP3    H224309   2.662   1.420   1.954
 8122TIP3   OH224310   4.729   5.589   2.908
 8122TIP3    H124311   4.688   5.617   2.990
 8122TIP3    H224312   4.782   5.513   2.932
 8123TIP3   OH224313   0.551   5.581   4.160
 8123TIP3    H124314   0.485   5.604   4.225
 8123TIP3    H224315   0.635   5.602   4.202
 8124TIP3   OH224316   4.944   1.198   6.143
 8124TIP3    H124317   4.893   1.248   6.206
 8124TIP3    H224318   4.886   1.188   6.067
 8125TIP3   OH224319   0.243   2.128   4.715
 8125TIP3    H124320   0.154   2.149   4.743
 8125TIP3    H224321   0.281   2.084   4.791
 8126TIP3   OH224322   3.148   6.532   3.687
 8126TIP3    H124323   3.134   6.627   3.689
 8126TIP3    H224324   3.085   6.497   3.750
 8127TIP3   OH224325   5.921   2.664   1.675
 8127TIP3    H124326   5.867   2.608   1.732
 8127TIP3    H224327   5.997   2.610   1.654
 8128TIP3   OH224328   2.466   4.042   2.494
 8128TIP3    H124329   2.445   3.972   2.555
 8128TIP3    H224330   2.531   4.004   2.435
 8129TIP3   OH224331   5.553   1.076   6.708
 8129TIP3    H124332   5.539   0.991   6.751
 8129TIP3    H224333   5.465   1.108   6.689
 8130TIP3   OH224334   6.832   2.995   0.792
 8130TIP3    H124335   6.810   2.979   0.700
 8130TIP3    H224336   6.915   3.042   0.789
 8131TIP3   OH224337   6.811   0.883   4.477
 8131TIP3    H124338   6.763   0.853   4.555
 8131TIP3    H224339   6.832   0.803   4.430
 8132TIP3   OH224340   8.008   4.498   4.475
 8132TIP3    H124341   8.049   4.544   4.549
 8132TIP3    H224342   7.990   4.567   4.411
 8133TIP3   OH224343   3.076   6.583   2.309
 8133TIP3    H124344   3.122   6.656   2.269
 8133TIP3    H224345   3.143   6.517   2.323
 8134TIP3   OH224346   0.850   2.029   4.558
 8134TIP3    H124347   0.886   2.110   4.593
 8134TIP3    H224348   0.760   2.027   4.589
 8135TIP3   OH224349   0.375   4.884   4.105
 8135TIP3    H124350   0.296   4.874   4.158
 8135TIP3    H224351   0.400   4.795   4.082
 8136TIP3   OH224352   2.954   3.656   0.815
 8136TIP3    H124353   2.975   3.713   0.889
 8136TIP3    H224354   2.860   3.636   0.826
 8137TIP3   OH224355   5.725   6.522   0.608
 8137TIP3    H124356   5.708   6.431   0.584
 8137TIP3    H224357   5.691   6.573   0.534
 8138TIP3   OH224358   7.006   2.765   2.274
 8138TIP3    H124359   6.923   2.717   2.280
 8138TIP3    H224360   6.987   2.850   2.314
 8139TIP3   OH224361   1.319   1.017   4.919
 8139TIP3    H124362   1.363   1.028   5.003
 8139TIP3    H224363   1.366   1.076   4.860
 8140TIP3   OH224364   2.678   4.940   2.083
 8140TIP3    H124365   2.611   4.924   2.016
 8140TIP3    H224366   2.734   4.862   2.080
 8141TIP3   OH224367   2.068   5.498   1.784
 8141TIP3    H124368   2.103   5.424   1.833
 8141TIP3    H224369   2.101   5.575   1.830
 8142TIP3   OH224370   4.873   4.171   3.463
 8142TIP3    H124371   4.940   4.170   3.395
 8142TIP3    H224372   4.867   4.080   3.491
 8143TIP3   OH224373   8.129   7.649   1.396
 8143TIP3    H124374   8.172   7.602   1.467
 8143TIP3    H224375   8.143   7.595   1.319
 8144TIP3   OH224376   0.472   1.604   1.135
 8144TIP3    H124377   0.508   1.518   1.114
 8144TIP3    H224378   0.401   1.616   1.072
 8145TIP3   OH224379   3.609   4.035   0.311
 8145TIP3    H124380   3.542   4.043   0.378
 8145TIP3    H224381   3.682   4.089   0.342
 8146TIP3   OH224382   1.630   6.331   4.597
 8146TIP3    H124383   1.570   6.299   4.665
 8146TIP3    H224384   1.590   6.303   4.515
 8147TIP3   OH224385   5.274   0.796   6.653
 8147TIP3    H124386   5.351   0.755   6.613
 8147TIP3    H224387   5.252   0.868   6.593
 8148TIP3   OH224388   4.183   1.959   2.244
 8148TIP3    H124389   4.268   2.001   2.230
 8148TIP3    H224390   4.143   2.011   2.314
 8149TIP3   OH224391   0.499   1.778   5.829
 8149TIP3    H124392   0.495   1.800   5.736
 8149TIP3    H224393   0.412   1.799   5.863
 8150TIP3   OH224394   2.731   5.716   5.525
 8150TIP3    H124395   2.692   5.707   5.438
 8150TIP3    H224396   2.679   5.785   5.567
 8151TIP3   OH224397   2.035   2.394   4.850
 8151TIP3    H124398   2.108   2.352   4.805
 8151TIP3    H224399   2.069   2.415   4.936
 8152TIP3   OH224400   4.832   4.845   4.721
 8152TIP3    H124401   4.883   4.856   4.802
 8152TIP3    H224402   4.860   4.918   4.665
 8153TIP3   OH224403   2.558   6.964   4.283
 8153TIP3    H124404   2.630   6.947   4.222
 8153TIP3    H224405   2.535   6.877   4.316
 8154TIP3   OH224406   7.402   7.240   2.081
 8154TIP3    H124407   7.458   7.304   2.125
 8154TIP3    H224408   7.463   7.174   2.048
 8155TIP3   OH224409   1.897   0.661   3.109
 8155TIP3    H124410   1.872   0.629   3.023
 8155TIP3    H224411   1.921   0.753   3.094
 8156TIP3   OH224412   5.656   1.342   0.732
 8156TIP3    H124413   5.665   1.262   0.784
 8156TIP3    H224414   5.732   1.396   0.757
 8157TIP3   OH224415   6.293   7.102   1.760
 8157TIP3    H124416   6.301   7.010   1.735
 8157TIP3    H224417   6.235   7.139   1.693
 8158TIP3   OH224418   5.911   3.434   0.291
 8158TIP3    H124419   5.821   3.466   0.296
 8158TIP3    H224420   5.965   3.513   0.285
 8159TIP3   OH224421   0.959   6.669   5.526
 8159TIP3    H124422   0.955   6.749   5.473
 8159TIP3    H224423   1.039   6.625   5.496
 8160TIP3   OH224424   0.321   7.093   3.592
 8160TIP3    H124425   0.329   7.105   3.686
 8160TIP3    H224426   0.411   7.100   3.559
 8161TIP3   OH224427   1.452   3.575   0.030
 8161TIP3    H124428   1.503   3.503  -0.007
 8161TIP3    H224429   1.391   3.533   0.091
 8162TIP3   OH224430   6.373   3.716   4.821
 8162TIP3    H124431   6.427   3.658   4.768
 8162TIP3    H224432   6.286   3.678   4.818
 8163TIP3   OH224433   8.114   3.369   1.176
 8163TIP3    H124434   8.043   3.370   1.113
 8163TIP3    H224435   8.076   3.403   1.257
 8164TIP3   OH224436   6.764   6.386   3.953
 8164TIP3    H124437   6.845   6.351   3.917
 8164TIP3    H224438   6.711   6.408   3.875
 8165TIP3   OH224439   6.809   0.315   5.217
 8165TIP3    H124440   6.716   0.334   5.199
 8165TIP3    H224441   6.824   0.229   5.179
 8166TIP3   OH224442   1.907   7.445   5.358
 8166TIP3    H124443   1.879   7.437   5.267
 8166TIP3    H224444   1.924   7.538   5.370
 8167TIP3   OH224445   8.017   6.782   2.461
 8167TIP3    H124446   8.030   6.724   2.536
 8167TIP3    H224447   7.932   6.824   2.477
 8168TIP3   OH224448   7.316   5.842   4.238
 8168TIP3    H124449   7.369   5.805   4.167
 8168TIP3    H224450   7.280   5.766   4.283
 8169TIP3   OH224451   3.366   1.890   2.031
 8169TIP3    H124452   3.373   1.917   1.940
 8169TIP3    H224453   3.387   1.797   2.031
 8170TIP3   OH224454   6.146   5.882   5.479
 8170TIP3    H124455   6.073   5.820   5.486
 8170TIP3    H224456   6.215   5.833   5.434
 8171TIP3   OH224457   3.664   2.829   1.179
 8171TIP3    H124458   3.632   2.913   1.145
 8171TIP3    H224459   3.733   2.803   1.118
 8172TIP3   OH224460   6.321   5.179   1.195
 8172TIP3    H124461   6.274   5.185   1.278
 8172TIP3    H224462   6.261   5.130   1.138
 8173TIP3   OH224463   4.859   1.939   1.860
 8173TIP3    H124464   4.876   2.034   1.863
 8173TIP3    H224465   4.826   1.919   1.947
 8174TIP3   OH224466   1.846   1.256   4.947
 8174TIP3    H124467   1.860   1.194   5.018
 8174TIP3    H224468   1.815   1.335   4.990
 8175TIP3   OH224469   5.183   1.340   0.750
 8175TIP3    H124470   5.141   1.270   0.801
 8175TIP3    H224471   5.262   1.300   0.714
 8176TIP3   OH224472   3.067   3.089   2.358
 8176TIP3    H124473   3.126   3.014   2.355
 8176TIP3    H224474   2.980   3.051   2.371
 8177TIP3   OH224475   5.406   0.946   3.811
 8177TIP3    H124476   5.379   1.034   3.834
 8177TIP3    H224477   5.500   0.944   3.828
 8178TIP3   OH224478   1.647   0.929   0.852
 8178TIP3    H124479   1.679   0.944   0.941
 8178TIP3    H224480   1.702   0.986   0.797
 8179TIP3   OH224481   3.363   0.497   0.711
 8179TIP3    H124482   3.416   0.427   0.749
 8179TIP3    H224483   3.285   0.501   0.767
 8180TIP3   OH224484   0.315   2.177   0.920
 8180TIP3    H124485   0.341   2.115   0.989
 8180TIP3    H224486   0.317   2.125   0.840
 8181TIP3   OH224487   1.202   6.219   5.098
 8181TIP3    H124488   1.127   6.276   5.075
 8181TIP3    H224489   1.262   6.229   5.024
 8182TIP3   OH224490   1.197   1.538   3.985
 8182TIP3    H124491   1.131   1.588   4.034
 8182TIP3    H224492   1.196   1.451   4.027
 8183TIP3   OH224493   3.314   1.406   5.805
 8183TIP3    H124494   3.328   1.500   5.817
 8183TIP3    H224495   3.300   1.373   5.894
 8184TIP3   OH224496   3.451   1.392   4.985
 8184TIP3    H124497   3.398   1.426   5.058
 8184TIP3    H224498   3.528   1.354   5.028
 8185TIP3   OH224499   7.267   1.798   2.832
 8185TIP3    H124500   7.193   1.768   2.886
 8185TIP3    H224501   7.228   1.858   2.770
 8186TIP3   OH224502   3.301   4.305   0.987
 8186TIP3    H124503   3.233   4.359   0.946
 8186TIP3    H224504   3.275   4.299   1.079
 8187TIP3   OH224505   6.549   6.501   6.583
 8187TIP3    H124506   6.494   6.561   6.533
 8187TIP3    H224507   6.578   6.552   6.658
 8188TIP3   OH224508   3.166   0.783   1.443
 8188TIP3    H124509   3.087   0.823   1.407
 8188TIP3    H224510   3.189   0.714   1.380
 8189TIP3   OH224511   7.485   1.783   5.581
 8189TIP3    H124512   7.530   1.810   5.500
 8189TIP3    H224513   7.417   1.724   5.551
 8190TIP3   OH224514   7.524   6.960   1.720
 8190TIP3    H124515   7.472   6.880   1.728
 8190TIP3    H224516   7.476   7.013   1.656
 8191TIP3   OH224517   2.671   6.364   2.697
 8191TIP3    H124518   2.578   6.354   2.720
 8191TIP3    H224519   2.718   6.309   2.760
 8192TIP3   OH224520   4.177   6.197   3.967
 8192TIP3    H124521   4.243   6.157   3.911
 8192TIP3    H224522   4.227   6.247   4.031
 8193TIP3   OH224523   4.083   1.486   3.762
 8193TIP3    H124524   4.134   1.538   3.824
 8193TIP3    H224525   4.148   1.435   3.714
 8194TIP3   OH224526   3.742   5.623   0.269
 8194TIP3    H124527   3.738   5.532   0.298
 8194TIP3    H224528   3.727   5.620   0.175
 8195TIP3   OH224529   2.027   2.162   1.344
 8195TIP3    H124530   2.044   2.111   1.265
 8195TIP3    H224531   1.999   2.248   1.311
 8196TIP3   OH224532   4.546   1.463   2.894
 8196TIP3    H124533   4.577   1.534   2.950
 8196TIP3    H224534   4.533   1.503   2.808
 8197TIP3   OH224535   2.565   4.491   3.389
 8197TIP3    H124536   2.473   4.470   3.373
 8197TIP3    H224537   2.568   4.516   3.482
 8198TIP3   OH224538   7.467   7.648   1.827
 8198TIP3    H124539   7.448   7.684   1.740
 8198TIP3    H224540   7.392   7.593   1.848
 8199TIP3   OH224541   7.369   3.146   4.005
 8199TIP3    H124542   7.339   3.234   3.982
 8199TIP3    H224543   7.464   3.152   4.003
 8200TIP3   OH224544   0.280   1.625   4.562
 8200TIP3    H124545   0.361   1.650   4.518
 8200TIP3    H224546   0.310   1.581   4.642
 8201TIP3   OH224547   6.377   7.141   0.195
 8201TIP3    H124548   6.404   7.208   0.133
 8201TIP3    H224549   6.415   7.060   0.161
 8202TIP3   OH224550   1.181   0.246   4.861
 8202TIP3    H124551   1.207   0.241   4.769
 8202TIP3    H224552   1.142   0.333   4.870
 8203TIP3   OH224553   3.571   1.663   2.832
 8203TIP3    H124554   3.581   1.755   2.858
 8203TIP3    H224555   3.481   1.641   2.855
 8204TIP3   OH224556   4.167   0.462   3.994
 8204TIP3    H124557   4.233   0.450   3.926
 8204TIP3    H224558   4.171   0.382   4.046
 8205TIP3   OH224559   4.572   4.062   6.208
 8205TIP3    H124560   4.600   3.974   6.182
 8205TIP3    H224561   4.647   4.118   6.187
 8206TIP3   OH224562   7.340   4.673   2.314
 8206TIP3    H124563   7.375   4.586   2.337
 8206TIP3    H224564   7.417   4.729   2.308
 8207TIP3   OH224565   1.626   5.963   4.051
 8207TIP3    H124566   1.535   5.962   4.021
 8207TIP3    H224567   1.678   5.960   3.971
 8208TIP3   OH224568   7.168   5.490   2.381
 8208TIP3    H124569   7.157   5.574   2.425
 8208TIP3    H224570   7.128   5.426   2.440
 8209TIP3   OH224571   1.595   4.289   4.141
 8209TIP3    H124572   1.512   4.300   4.188
 8209TIP3    H224573   1.613   4.376   4.105
 8210TIP3   OH224574   0.905   1.774   4.647
 8210TIP3    H124575   0.835   1.833   4.619
 8210TIP3    H224576   0.877   1.743   4.733
 8211TIP3   OH224577   5.101   4.294   1.536
 8211TIP3    H124578   5.019   4.264   1.576
 8211TIP3    H224579   5.100   4.255   1.448
 8212TIP3   OH224580   1.283   6.919   5.413
 8212TIP3    H124581   1.351   6.925   5.346
 8212TIP3    H224582   1.311   6.983   5.480
 8213TIP3   OH224583   0.710   6.496   1.323
 8213TIP3    H124584   0.745   6.524   1.409
 8213TIP3    H224585   0.773   6.531   1.260
 8214TIP3   OH224586   6.238   0.980   3.268
 8214TIP3    H124587   6.183   1.005   3.194
 8214TIP3    H224588   6.299   0.916   3.233
 8215TIP3   OH224589   0.340   2.546   3.775
 8215TIP3    H124590   0.256   2.592   3.779
 8215TIP3    H224591   0.403   2.614   3.749
 8216TIP3   OH224592   5.229   6.044   5.818
 8216TIP3    H124593   5.181   6.050   5.900
 8216TIP3    H224594   5.255   6.134   5.799
 8217TIP3   OH224595   3.494   2.663   2.389
 8217TIP3    H124596   3.574   2.611   2.399
 8217TIP3    H224597   3.423   2.602   2.408
 8218TIP3   OH224598   2.182   5.408   0.757
 8218TIP3    H124599   2.189   5.394   0.852
 8218TIP3    H224600   2.101   5.362   0.733
 8219TIP3   OH224601   1.075   4.197   6.321
 8219TIP3    H124602   1.015   4.174   6.392
 8219TIP3    H224603   1.074   4.121   6.263
 8220TIP3   OH224604   3.145   0.750   4.207
 8220TIP3    H124605   3.052   0.743   4.184
 8220TIP3    H224606   3.169   0.661   4.235
 8221TIP3   OH224607   1.237   3.343   5.379
 8221TIP3    H124608   1.149   3.348   5.415
 8221TIP3    H224609   1.283   3.419   5.416
 8222TIP3   OH224610   0.834   3.404   0.053
 8222TIP3    H124611   0.813   3.432   0.142
 8222TIP3    H224612   0.753   3.419   0.003
 8223TIP3   OH224613   2.222   6.316   2.574
 8223TIP3    H124614   2.251   6.251   2.510
 8223TIP3    H224615   2.170   6.378   2.523
 8224TIP3   OH224616   5.110   2.956   6.700
 8224TIP3    H124617   5.176   2.935   6.634
 8224TIP3    H224618   5.030   2.914   6.668
 8225TIP3   OH224619   5.584   6.607   3.845
 8225TIP3    H124620   5.501   6.602   3.798
 8225TIP3    H224621   5.559   6.618   3.937
 8226TIP3   OH224622   4.582   5.750   0.894
 8226TIP3    H124623   4.600   5.844   0.895
 8226TIP3    H224624   4.545   5.732   0.980
 8227TIP3   OH224625   5.851   1.039   0.539
 8227TIP3    H124626   5.768   1.064   0.579
 8227TIP3    H224627   5.917   1.076   0.598
 8228TIP3   OH224628   1.129   5.936   2.801
 8228TIP3    H124629   1.174   6.017   2.778
 8228TIP3    H224630   1.198   5.870   2.805
 8229TIP3   OH224631   7.445   6.879   2.532
 8229TIP3    H124632   7.506   6.891   2.605
 8229TIP3    H224633   7.488   6.815   2.476
 8230TIP3   OH224634   0.242   6.792   6.729
 8230TIP3    H124635   0.320   6.794   6.674
 8230TIP3    H224636   0.217   6.884   6.739
 8231TIP3   OH224637   3.678   1.655   1.738
 8231TIP3    H124638   3.730   1.735   1.738
 8231TIP3    H224639   3.738   1.587   1.767
 8232TIP3   OH224640   1.623   6.813   6.684
 8232TIP3    H124641   1.550   6.853   6.637
 8232TIP3    H224642   1.701   6.852   6.646
 8233TIP3   OH224643   4.547   6.796   5.698
 8233TIP3    H124644   4.475   6.794   5.761
 8233TIP3    H224645   4.612   6.855   5.737
 8234TIP3   OH224646   7.321   6.280   2.622
 8234TIP3    H124647   7.296   6.339   2.552
 8234TIP3    H224648   7.417   6.281   2.622
 8235TIP3   OH224649   0.331   1.013   2.046
 8235TIP3    H124650   0.279   0.936   2.024
 8235TIP3    H224651   0.344   1.007   2.141
 8236TIP3   OH224652   2.533   0.561   1.170
 8236TIP3    H124653   2.565   0.640   1.126
 8236TIP3    H224654   2.515   0.500   1.099
 8237TIP3   OH224655   7.749   3.417   0.348
 8237TIP3    H124656   7.841   3.391   0.345
 8237TIP3    H224657   7.702   3.336   0.330
 8238TIP3   OH224658   6.486   2.176   4.776
 8238TIP3    H124659   6.433   2.230   4.835
 8238TIP3    H224660   6.433   2.098   4.762
 8239TIP3   OH224661   6.464   0.627   6.038
 8239TIP3    H124662   6.423   0.705   6.001
 8239TIP3    H224663   6.507   0.657   6.118
 8240TIP3   OH224664   5.813   4.127   1.756
 8240TIP3    H124665   5.727   4.087   1.769
 8240TIP3    H224666   5.806   4.173   1.673
 8241TIP3   OH224667   1.166   1.852   1.717
 8241TIP3    H124668   1.181   1.798   1.640
 8241TIP3    H224669   1.077   1.829   1.745
 8242TIP3   OH224670   6.945   1.174   5.897
 8242TIP3    H124671   6.989   1.239   5.842
 8242TIP3    H224672   6.858   1.211   5.912
 8243TIP3   OH224673   5.974   1.463   2.369
 8243TIP3    H124674   5.946   1.407   2.296
 8243TIP3    H224675   6.000   1.402   2.438
 8244TIP3   OH224676   4.826   5.979   0.672
 8244TIP3    H124677   4.752   5.984   0.611
 8244TIP3    H224678   4.900   5.954   0.618
 8245TIP3   OH224679   6.320   0.396   6.615
 8245TIP3    H124680   6.255   0.364   6.553
 8245TIP3    H224681   6.399   0.408   6.562
 8246TIP3   OH224682   1.692   6.243   1.564
 8246TIP3    H124683   1.707   6.151   1.543
 8246TIP3    H224684   1.772   6.271   1.609
 8247TIP3   OH224685   0.107   6.094   4.648
 8247TIP3    H124686   0.117   6.149   4.570
 8247TIP3    H224687   0.197   6.072   4.672
 8248TIP3   OH224688   2.264   3.537   5.236
 8248TIP3    H124689   2.237   3.446   5.245
 8248TIP3    H224690   2.286   3.547   5.143
 8249TIP3   OH224691   6.648   7.019   4.419
 8249TIP3    H124692   6.710   7.026   4.492
 8249TIP3    H224693   6.563   7.039   4.458
 8250TIP3   OH224694   2.921   0.011   0.903
 8250TIP3    H124695   2.980   0.084   0.922
 8250TIP3    H224696   2.834   0.051   0.902
 8251TIP3   OH224697   5.882   0.399   5.779
 8251TIP3    H124698   5.970   0.370   5.802
 8251TIP3    H224699   5.894   0.469   5.716
 8252TIP3   OH224700   1.721   0.227   4.457
 8252TIP3    H124701   1.647   0.254   4.512
 8252TIP3    H224702   1.680   0.184   4.382
 8253TIP3   OH224703   0.571   7.738   5.924
 8253TIP3    H124704   0.519   7.791   5.985
 8253TIP3    H224705   0.662   7.765   5.940
 8254TIP3   OH224706   2.494   3.126   3.369
 8254TIP3    H124707   2.587   3.134   3.349
 8254TIP3    H224708   2.451   3.186   3.308
 8255TIP3   OH224709   7.598   5.535   5.379
 8255TIP3    H124710   7.545   5.598   5.330
 8255TIP3    H224711   7.552   5.524   5.462
 8256TIP3   OH224712   1.464   0.662   0.577
 8256TIP3    H124713   1.443   0.754   0.596
 8256TIP3    H224714   1.536   0.641   0.637
 8257TIP3   OH224715   4.817   3.056   4.138
 8257TIP3    H124716   4.880   3.013   4.197
 8257TIP3    H224717   4.823   3.005   4.057
 8258TIP3   OH224718   3.449   5.065   5.546
 8258TIP3    H124719   3.419   4.976   5.531
 8258TIP3    H224720   3.520   5.056   5.610
 8259TIP3   OH224721   5.603   6.099   2.772
 8259TIP3    H124722   5.595   6.143   2.856
 8259TIP3    H224723   5.686   6.051   2.778
 8260TIP3   OH224724   1.978   2.949   5.122
 8260TIP3    H124725   2.012   2.983   5.205
 8260TIP3    H224726   1.904   3.006   5.102
 8261TIP3   OH224727   3.602   5.343   1.766
 8261TIP3    H124728   3.655   5.379   1.837
 8261TIP3    H224729   3.603   5.411   1.698
 8262TIP3   OH224730   2.772   3.002   4.920
 8262TIP3    H124731   2.823   3.002   4.839
 8262TIP3    H224732   2.685   3.031   4.893
 8263TIP3   OH224733   0.069   1.641   1.491
 8263TIP3    H124734   0.144   1.587   1.467
 8263TIP3    H224735  -0.006   1.582   1.485
 8264TIP3   OH224736   5.859   6.133   3.220
 8264TIP3    H124737   5.930   6.107   3.279
 8264TIP3    H224738   5.809   6.198   3.270
 8265TIP3   OH224739   1.448   3.767   2.001
 8265TIP3    H124740   1.541   3.775   1.981
 8265TIP3    H224741   1.407   3.844   1.960
 8266TIP3   OH224742   7.601   4.449   3.900
 8266TIP3    H124743   7.532   4.396   3.862
 8266TIP3    H224744   7.600   4.427   3.993
 8267TIP3   OH224745   8.251   1.356   6.093
 8267TIP3    H124746   8.226   1.373   6.003
 8267TIP3    H224747   8.208   1.274   6.116
 8268TIP3   OH224748   6.852   6.164   1.612
 8268TIP3    H124749   6.922   6.158   1.547
 8268TIP3    H224750   6.839   6.258   1.624
 8269TIP3   OH224751   6.606   0.489   6.412
 8269TIP3    H124752   6.699   0.509   6.418
 8269TIP3    H224753   6.565   0.572   6.387
 8270TIP3   OH224754   0.577   5.846   4.362
 8270TIP3    H124755   0.649   5.864   4.423
 8270TIP3    H224756   0.607   5.879   4.278
 8271TIP3   OH224757   4.463   0.140   3.284
 8271TIP3    H124758   4.388   0.155   3.226
 8271TIP3    H224759   4.425   0.139   3.372
 8272TIP3   OH224760   1.473   0.598   6.511
 8272TIP3    H124761   1.436   0.686   6.522
 8272TIP3    H224762   1.565   0.607   6.535
 8273TIP3   OH224763   3.222   0.267   5.536
 8273TIP3    H124764   3.232   0.362   5.526
 8273TIP3    H224765   3.149   0.245   5.478
 8274TIP3   OH224766   2.066   1.232   0.469
 8274TIP3    H124767   2.093   1.186   0.549
 8274TIP3    H224768   2.123   1.196   0.401
 8275TIP3   OH224769   4.395   2.911   1.962
 8275TIP3    H124770   4.394   3.006   1.968
 8275TIP3    H224771   4.424   2.882   2.048
 8276TIP3   OH224772   7.022   2.633   0.330
 8276TIP3    H124773   6.938   2.635   0.286
 8276TIP3    H224774   7.075   2.699   0.285
 8277TIP3   OH224775   5.246   1.615   0.627
 8277TIP3    H124776   5.243   1.533   0.675
 8277TIP3    H224777   5.335   1.647   0.639
 8278TIP3   OH224778   2.627   3.204   3.063
 8278TIP3    H124779   2.641   3.149   2.986
 8278TIP3    H224780   2.713   3.239   3.084
 8279TIP3   OH224781   7.140   1.753   5.635
 8279TIP3    H124782   7.123   1.789   5.722
 8279TIP3    H224783   7.215   1.803   5.603
 8280TIP3   OH224784   8.142   4.763   5.966
 8280TIP3    H124785   8.147   4.731   6.056
 8280TIP3    H224786   8.161   4.857   5.974
 8281TIP3   OH224787   0.813   7.265   6.417
 8281TIP3    H124788   0.731   7.288   6.372
 8281TIP3    H224789   0.802   7.298   6.506
 8282TIP3   OH224790   4.942   2.502   3.740
 8282TIP3    H124791   5.000   2.471   3.670
 8282TIP3    H224792   4.904   2.423   3.776
 8283TIP3   OH224793   2.679   3.899   1.458
 8283TIP3    H124794   2.756   3.948   1.488
 8283TIP3    H224795   2.604   3.954   1.481
 8284TIP3   OH224796   1.299   0.269   1.127
 8284TIP3    H124797   1.229   0.229   1.178
 8284TIP3    H224798   1.273   0.255   1.036
 8285TIP3   OH224799   4.301   0.634   4.640
 8285TIP3    H124800   4.305   0.575   4.566
 8285TIP3    H224801   4.393   0.654   4.660
 8286TIP3   OH224802   0.950   1.054   2.853
 8286TIP3    H124803   0.966   1.029   2.944
 8286TIP3    H224804   0.897   1.133   2.858
 8287TIP3   OH224805   2.486   6.352   0.882
 8287TIP3    H124806   2.390   6.346   0.877
 8287TIP3    H224807   2.513   6.367   0.791
 8288TIP3   OH224808   3.088   0.657   6.012
 8288TIP3    H124809   3.022   0.588   6.005
 8288TIP3    H224810   3.144   0.631   6.084
 8289TIP3   OH224811   4.576   2.108   6.290
 8289TIP3    H124812   4.590   2.095   6.383
 8289TIP3    H224813   4.639   2.176   6.266
 8290TIP3   OH224814   3.611   3.274   3.073
 8290TIP3    H124815   3.699   3.240   3.054
 8290TIP3    H224816   3.565   3.199   3.112
 8291TIP3   OH224817   0.702   1.295   4.546
 8291TIP3    H124818   0.618   1.321   4.509
 8291TIP3    H224819   0.761   1.368   4.526
 8292TIP3   OH224820   0.709   7.205   3.003
 8292TIP3    H124821   0.733   7.277   2.945
 8292TIP3    H224822   0.691   7.132   2.944
 8293TIP3   OH224823   1.686   4.580   0.474
 8293TIP3    H124824   1.637   4.536   0.544
 8293TIP3    H224825   1.621   4.636   0.431
 8294TIP3   OH224826   1.653   0.176   5.502
 8294TIP3    H124827   1.747   0.193   5.493
 8294TIP3    H224828   1.637   0.099   5.449
 8295TIP3   OH224829   5.956   3.353   4.217
 8295TIP3    H124830   5.883   3.411   4.240
 8295TIP3    H224831   5.966   3.295   4.292
 8296TIP3   OH224832   7.859   2.390   3.248
 8296TIP3    H124833   7.816   2.311   3.217
 8296TIP3    H224834   7.953   2.372   3.239
 8297TIP3   OH224835   7.338   4.028   6.091
 8297TIP3    H124836   7.422   3.986   6.111
 8297TIP3    H224837   7.298   4.042   6.177
 8298TIP3   OH224838   1.963   4.275   6.184
 8298TIP3    H124839   2.055   4.283   6.158
 8298TIP3    H224840   1.964   4.286   6.279
 8299TIP3   OH224841   5.016   0.007   0.230
 8299TIP3    H124842   5.102  -0.031   0.248
 8299TIP3    H224843   4.977  -0.052   0.166
 8300TIP3   OH224844   0.795   7.717   0.663
 8300TIP3    H124845   0.814   7.742   0.753
 8300TIP3    H224846   0.727   7.649   0.670
 8301TIP3   OH224847   4.519   3.710   4.857
 8301TIP3    H124848   4.467   3.655   4.799
 8301TIP3    H224849   4.461   3.732   4.929
 8302TIP3   OH224850   2.987   4.617   6.053
 8302TIP3    H124851   3.012   4.532   6.018
 8302TIP3    H224852   2.928   4.654   5.987
 8303TIP3   OH224853   7.715   6.573   5.534
 8303TIP3    H124854   7.694   6.509   5.466
 8303TIP3    H224855   7.683   6.534   5.615
 8304TIP3   OH224856   3.716   7.483   2.107
 8304TIP3    H124857   3.743   7.570   2.077
 8304TIP3    H224858   3.732   7.426   2.031
 8305TIP3   OH224859   7.775   6.633   5.079
 8305TIP3    H124860   7.690   6.607   5.117
 8305TIP3    H224861   7.834   6.561   5.099
 8306TIP3   OH224862   6.771   0.175   6.268
 8306TIP3    H124863   6.822   0.254   6.254
 8306TIP3    H224864   6.819   0.126   6.334
 8307TIP3   OH224865   6.303   1.904   5.877
 8307TIP3    H124866   6.271   1.829   5.928
 8307TIP3    H224867   6.249   1.977   5.905
 8308TIP3   OH224868   2.619   3.943   6.165
 8308TIP3    H124869   2.550   4.007   6.151
 8308TIP3    H224870   2.697   3.984   6.128
 8309TIP3   OH224871   6.236   1.235   2.904
 8309TIP3    H124872   6.288   1.314   2.888
 8309TIP3    H224873   6.203   1.210   2.817
 8310TIP3   OH224874   8.132   2.068   6.730
 8310TIP3    H124875   8.186   2.025   6.664
 8310TIP3    H224876   8.050   2.088   6.685
 8311TIP3   OH224877   7.327   5.421   4.386
 8311TIP3    H124878   7.365   5.468   4.312
 8311TIP3    H224879   7.340   5.329   4.365
 8312TIP3   OH224880   1.904   1.057   2.421
 8312TIP3    H124881   1.957   1.057   2.501
 8312TIP3    H224882   1.827   1.005   2.444
 8313TIP3   OH224883   2.376   3.751   6.129
 8313TIP3    H124884   2.353   3.834   6.088
 8313TIP3    H224885   2.458   3.726   6.086
 8314TIP3   OH224886   0.602   3.380   3.828
 8314TIP3    H124887   0.527   3.406   3.881
 8314TIP3    H224888   0.587   3.420   3.742
 8315TIP3   OH224889   7.520   2.104   5.965
 8315TIP3    H124890   7.521   2.070   5.875
 8315TIP3    H224891   7.595   2.163   5.969
 8316TIP3   OH224892   6.162   3.754   5.016
 8316TIP3    H124893   6.252   3.783   5.033
 8316TIP3    H224894   6.135   3.710   5.097
 8317TIP3   OH224895   1.477   7.280   0.794
 8317TIP3    H124896   1.404   7.229   0.830
 8317TIP3    H224897   1.452   7.297   0.703
 8318TIP3   OH224898   0.917   4.121   5.949
 8318TIP3    H124899   0.913   4.049   5.886
 8318TIP3    H224900   0.846   4.180   5.923
 8319TIP3   OH224901   7.403   3.786   0.101
 8319TIP3    H124902   7.440   3.840   0.170
 8319TIP3    H224903   7.469   3.787   0.032
 8320TIP3   OH224904   1.561   7.595   4.422
 8320TIP3    H124905   1.502   7.526   4.453
 8320TIP3    H224906   1.514   7.676   4.438
 8321TIP3   OH224907   3.248   4.967   5.223
 8321TIP3    H124908   3.272   5.051   5.261
 8321TIP3    H224909   3.231   4.985   5.131
 8322TIP3   OH224910   2.182   5.693   6.183
 8322TIP3    H124911   2.276   5.694   6.202
 8322TIP3    H224912   2.153   5.782   6.202
 8323TIP3   OH224913   2.953   6.419   2.910
 8323TIP3    H124914   2.898   6.373   2.847
 8323TIP3    H224915   3.005   6.351   2.951
 8324TIP3   OH224916   6.800   1.892   6.426
 8324TIP3    H124917   6.885   1.847   6.425
 8324TIP3    H224918   6.820   1.982   6.404
 8325TIP3   OH224919   3.102   0.545   3.826
 8325TIP3    H124920   3.099   0.573   3.735
 8325TIP3    H224921   3.130   0.623   3.874
 8326TIP3   OH224922   8.014   5.529   3.887
 8326TIP3    H124923   8.051   5.444   3.865
 8326TIP3    H224924   7.992   5.568   3.803
 8327TIP3   OH224925   7.114   2.447   1.567
 8327TIP3    H124926   7.165   2.403   1.635
 8327TIP3    H224927   7.180   2.492   1.513
 8328TIP3   OH224928   1.984   7.157   0.825
 8328TIP3    H124929   2.071   7.120   0.817
 8328TIP3    H224930   1.991   7.244   0.786
 8329TIP3   OH224931   5.707   1.129   0.038
 8329TIP3    H124932   5.694   1.119   0.132
 8329TIP3    H224933   5.801   1.143   0.027
 8330TIP3   OH224934   5.533   1.352   1.390
 8330TIP3    H124935   5.487   1.429   1.356
 8330TIP3    H224936   5.499   1.279   1.338
 8331TIP3   OH224937   6.965   0.498   1.305
 8331TIP3    H124938   6.911   0.419   1.310
 8331TIP3    H224939   7.054   0.468   1.325
 8332TIP3   OH224940   0.174   2.431   0.407
 8332TIP3    H124941   0.199   2.452   0.497
 8332TIP3    H224942   0.233   2.360   0.381
 8333TIP3   OH224943   0.970   4.898   4.940
 8333TIP3    H124944   0.983   4.872   4.848
 8333TIP3    H224945   1.029   4.841   4.989
 8334TIP3   OH224946   7.937   0.685   1.954
 8334TIP3    H124947   7.867   0.743   1.924
 8334TIP3    H224948   7.935   0.693   2.049
 8335TIP3   OH224949   6.479   6.496   1.504
 8335TIP3    H124950   6.386   6.496   1.527
 8335TIP3    H224951   6.511   6.581   1.534
 8336TIP3   OH224952   8.274   2.685   1.811
 8336TIP3    H124953   8.216   2.761   1.807
 8336TIP3    H224954   8.243   2.636   1.887
 8337TIP3   OH224955   6.066   3.635   6.206
 8337TIP3    H124956   5.998   3.641   6.272
 8337TIP3    H224957   6.107   3.550   6.222
 8338TIP3   OH224958   2.009   4.313   1.018
 8338TIP3    H124959   1.981   4.346   0.933
 8338TIP3    H224960   2.095   4.352   1.033
 8339TIP3   OH224961   2.066   4.972   0.015
 8339TIP3    H124962   1.991   4.972  -0.044
 8339TIP3    H224963   2.045   4.904   0.080
 8340TIP3   OH224964   0.122   4.778   1.611
 8340TIP3    H124965   0.143   4.745   1.698
 8340TIP3    H224966   0.067   4.854   1.627
 8341TIP3   OH224967   8.260   5.301   0.422
 8341TIP3    H124968   8.307   5.384   0.416
 8341TIP3    H224969   8.246   5.275   0.331
 8342TIP3   OH224970   1.032   7.686   4.986
 8342TIP3    H124971   1.118   7.696   5.029
 8342TIP3    H224972   0.995   7.775   4.987
 8343TIP3   OH224973   6.443   7.664   1.308
 8343TIP3    H124974   6.387   7.588   1.322
 8343TIP3    H224975   6.524   7.628   1.272
 8344TIP3   OH224976   1.284   6.821   0.628
 8344TIP3    H124977   1.270   6.748   0.690
 8344TIP3    H224978   1.292   6.778   0.543
 8345TIP3   OH224979   4.194   7.776   6.730
 8345TIP3    H124980   4.219   7.694   6.773
 8345TIP3    H224981   4.249   7.843   6.772
 8346TIP3   OH224982   3.756   4.841   4.126
 8346TIP3    H124983   3.828   4.780   4.110
 8346TIP3    H224984   3.677   4.787   4.122
 8347TIP3   OH224985   4.806   6.457   5.903
 8347TIP3    H124986   4.745   6.426   5.836
 8347TIP3    H224987   4.882   6.400   5.895
 8348TIP3   OH224988   7.807   5.167   0.280
 8348TIP3    H124989   7.848   5.217   0.209
 8348TIP3    H224990   7.717   5.198   0.283
 8349TIP3   OH224991   4.356   1.709   4.421
 8349TIP3    H124992   4.335   1.664   4.339
 8349TIP3    H224993   4.287   1.683   4.481
 8350TIP3   OH224994   6.904   4.515   1.471
 8350TIP3    H124995   6.935   4.459   1.541
 8350TIP3    H224996   6.835   4.465   1.427
 8351TIP3   OH224997   6.504   3.822   1.548
 8351TIP3    H124998   6.562   3.750   1.523
 8351TIP3    H224999   6.526   3.839   1.640
 8352TIP3   OH225000   5.558   5.677   2.262
 8352TIP3    H125001   5.599   5.700   2.178
 8352TIP3    H225002   5.497   5.749   2.279
 8353TIP3   OH225003   4.835   7.345   3.917
 8353TIP3    H125004   4.799   7.294   3.845
 8353TIP3    H225005   4.781   7.424   3.920
 8354TIP3   OH225006   3.792   6.113   1.846
 8354TIP3    H125007   3.882   6.082   1.858
 8354TIP3    H225008   3.787   6.135   1.753
 8355TIP3   OH225009   7.211   1.006   5.816
 8355TIP3    H125010   7.174   0.922   5.790
 8355TIP3    H225011   7.258   1.036   5.738
 8356TIP3   OH225012   3.913   1.550   1.831
 8356TIP3    H125013   3.952   1.497   1.900
 8356TIP3    H225014   3.921   1.496   1.752
 8357TIP3   OH225015   6.204   3.148   2.886
 8357TIP3    H125016   6.143   3.075   2.895
 8357TIP3    H225017   6.287   3.106   2.860
 8358TIP3   OH225018   2.221   6.473   1.809
 8358TIP3    H125019   2.201   6.529   1.885
 8358TIP3    H225020   2.269   6.400   1.846
 8359TIP3   OH225021   6.860   0.321   0.759
 8359TIP3    H125022   6.766   0.336   0.768
 8359TIP3    H225023   6.871   0.227   0.772
 8360TIP3   OH225024   0.575   2.327   0.334
 8360TIP3    H125025   0.557   2.376   0.415
 8360TIP3    H225026   0.594   2.394   0.269
 8361TIP3   OH225027   4.695   6.301   2.126
 8361TIP3    H125028   4.675   6.236   2.194
 8361TIP3    H225029   4.617   6.355   2.121
 8362TIP3   OH225030   3.437   5.149   6.194
 8362TIP3    H125031   3.485   5.085   6.246
 8362TIP3    H225032   3.416   5.104   6.113
 8363TIP3   OH225033   5.287   2.372   4.394
 8363TIP3    H125034   5.344   2.356   4.319
 8363TIP3    H225035   5.200   2.345   4.364
 8364TIP3   OH225036   7.279   5.866   2.255
 8364TIP3    H125037   7.200   5.814   2.245
 8364TIP3    H225038   7.351   5.803   2.250
 8365TIP3   OH225039   3.611   1.790   5.003
 8365TIP3    H125040   3.622   1.872   4.956
 8365TIP3    H225041   3.676   1.793   5.073
 8366TIP3   OH225042   2.257   0.635   2.590
 8366TIP3    H125043   2.319   0.615   2.521
 8366TIP3    H225044   2.214   0.552   2.609
 8367TIP3   OH225045   2.324   0.200   6.058
 8367TIP3    H125046   2.269   0.185   6.135
 8367TIP3    H225047   2.413   0.180   6.087
 8368TIP3   OH225048   4.390   2.843   6.514
 8368TIP3    H125049   4.320   2.805   6.567
 8368TIP3    H225050   4.462   2.780   6.521
 8369TIP3   OH225051   2.005   7.108   1.846
 8369TIP3    H125052   1.929   7.098   1.904
 8369TIP3    H225053   2.068   7.159   1.899
 8370TIP3   OH225054   8.099   7.580   0.131
 8370TIP3    H125055   8.134   7.537   0.053
 8370TIP3    H225056   8.119   7.672   0.119
 8371TIP3   OH225057   1.580   4.393   6.352
 8371TIP3    H125058   1.655   4.364   6.403
 8371TIP3    H225059   1.534   4.312   6.328
 8372TIP3   OH225060   1.402   3.003   5.982
 8372TIP3    H125061   1.444   3.045   6.057
 8372TIP3    H225062   1.474   2.964   5.933
 8373TIP3   OH225063   4.270   5.534   4.537
 8373TIP3    H125064   4.345   5.543   4.595
 8373TIP3    H225065   4.307   5.535   4.449
 8374TIP3   OH225066   7.481   1.919   6.424
 8374TIP3    H125067   7.459   1.826   6.425
 8374TIP3    H225068   7.396   1.964   6.420
 8375TIP3   OH225069   4.960   6.666   6.220
 8375TIP3    H125070   4.879   6.684   6.172
 8375TIP3    H225071   4.931   6.652   6.310
 8376TIP3   OH225072   6.010   2.124   0.991
 8376TIP3    H125073   6.016   2.177   0.912
 8376TIP3    H225074   6.056   2.176   1.057
 8377TIP3   OH225075   4.051   2.144   1.710
 8377TIP3    H125076   3.986   2.096   1.762
 8377TIP3    H225077   4.028   2.236   1.722
 8378TIP3   OH225078   2.492   7.154   2.836
 8378TIP3    H125079   2.478   7.203   2.917
 8378TIP3    H225080   2.416   7.095   2.830
 8379TIP3   OH225081   4.673   3.394   2.507
 8379TIP3    H125082   4.734   3.367   2.576
 8379TIP3    H225083   4.636   3.477   2.538
 8380TIP3   OH225084   2.964   7.317   5.631
 8380TIP3    H125085   2.954   7.223   5.617
 8380TIP3    H225086   2.943   7.356   5.547
 8381TIP3   OH225087   4.588   1.477   4.302
 8381TIP3    H125088   4.511   1.425   4.325
 8381TIP3    H225089   4.640   1.419   4.247
 8382TIP3   OH225090   1.408   2.974   4.687
 8382TIP3    H125091   1.355   3.003   4.761
 8382TIP3    H225092   1.395   2.880   4.683
 8383TIP3   OH225093   2.115   7.410   4.898
 8383TIP3    H125094   2.157   7.417   4.984
 8383TIP3    H225095   2.145   7.487   4.851
 8384TIP3   OH225096   0.180   7.770   3.434
 8384TIP3    H125097   0.199   7.814   3.351
 8384TIP3    H225098   0.264   7.738   3.465
 8385TIP3   OH225099   0.589   0.317   4.557
 8385TIP3    H125100   0.646   0.389   4.529
 8385TIP3    H225101   0.645   0.263   4.613
 8386TIP3   OH225102   6.125   3.104   0.771
 8386TIP3    H125103   6.058   3.091   0.704
 8386TIP3    H225104   6.160   3.191   0.752
 8387TIP3   OH225105   7.502   5.507   6.307
 8387TIP3    H125106   7.424   5.467   6.346
 8387TIP3    H225107   7.485   5.505   6.212
 8388TIP3   OH225108   6.518   2.942   0.525
 8388TIP3    H125109   6.448   2.878   0.543
 8388TIP3    H225110   6.474   3.011   0.475
 8389TIP3   OH225111   6.800   4.508   1.779
 8389TIP3    H125112   6.723   4.518   1.835
 8389TIP3    H225113   6.776   4.439   1.717
 8390TIP3   OH225114   0.656   7.195   4.053
 8390TIP3    H125115   0.693   7.269   4.006
 8390TIP3    H225116   0.581   7.231   4.100
 8391TIP3   OH225117   7.196   5.723   6.365
 8391TIP3    H125118   7.168   5.648   6.312
 8391TIP3    H225119   7.169   5.700   6.454
 8392TIP3   OH225120   8.153   3.350   0.153
 8392TIP3    H125121   8.101   3.324   0.229
 8392TIP3    H225122   8.193   3.268   0.123
 8393TIP3   OH225123   6.444   5.108   5.560
 8393TIP3    H125124   6.420   5.061   5.480
 8393TIP3    H225125   6.540   5.102   5.563
 8394TIP3   OH225126   3.926   1.070   4.253
 8394TIP3    H125127   3.998   1.007   4.248
 8394TIP3    H225128   3.847   1.016   4.256
 8395TIP3   OH225129   5.870   0.289   5.034
 8395TIP3    H125130   5.797   0.349   5.017
 8395TIP3    H225131   5.946   0.346   5.044
 8396TIP3   OH225132   5.557   7.040   4.058
 8396TIP3    H125133   5.608   7.031   4.139
 8396TIP3    H225134   5.489   6.974   4.065
 8397TIP3   OH225135   0.852   4.789   1.789
 8397TIP3    H125136   0.942   4.794   1.820
 8397TIP3    H225137   0.799   4.801   1.868
 8398TIP3   OH225138   2.618   2.926   0.372
 8398TIP3    H125139   2.594   2.836   0.347
 8398TIP3    H225140   2.666   2.917   0.454
 8399TIP3   OH225141   2.338   2.915   3.455
 8399TIP3    H125142   2.397   2.987   3.434
 8399TIP3    H225143   2.270   2.919   3.387
 8400TIP3   OH225144   2.143   3.632   5.466
 8400TIP3    H125145   2.185   3.586   5.394
 8400TIP3    H225146   2.118   3.563   5.528
 8401TIP3   OH225147   4.051   4.297   5.919
 8401TIP3    H125148   4.072   4.322   5.829
 8401TIP3    H225149   4.080   4.206   5.926
 8402TIP3   OH225150   7.891   4.198   3.341
 8402TIP3    H125151   7.837   4.254   3.284
 8402TIP3    H225152   7.857   4.216   3.429
 8403TIP3   OH225153   8.162   7.381   5.755
 8403TIP3    H125154   8.131   7.355   5.668
 8403TIP3    H225155   8.102   7.338   5.816
 8404TIP3   OH225156   5.820   2.403   2.959
 8404TIP3    H125157   5.774   2.353   3.026
 8404TIP3    H225158   5.751   2.448   2.910
 8405TIP3   OH225159   5.153   1.555   1.482
 8405TIP3    H125160   5.063   1.567   1.511
 8405TIP3    H225161   5.152   1.471   1.435
 8406TIP3   OH225162   5.641   7.703   2.583
 8406TIP3    H125163   5.734   7.697   2.560
 8406TIP3    H225164   5.596   7.713   2.500
 8407TIP3   OH225165   5.833   0.683   4.513
 8407TIP3    H125166   5.739   0.691   4.526
 8407TIP3    H225167   5.845   0.689   4.418
 8408TIP3   OH225168   2.805   4.278   6.173
 8408TIP3    H125169   2.878   4.309   6.121
 8408TIP3    H225170   2.841   4.205   6.224
 8409TIP3   OH225171   1.233   0.771   1.307
 8409TIP3    H125172   1.282   0.703   1.262
 8409TIP3    H225173   1.296   0.843   1.318
 8410TIP3   OH225174   5.725   5.177   0.448
 8410TIP3    H125175   5.696   5.183   0.539
 8410TIP3    H225176   5.820   5.167   0.454
 8411TIP3   OH225177   3.554   6.252   0.067
 8411TIP3    H125178   3.481   6.217   0.117
 8411TIP3    H225179   3.518   6.270  -0.020
 8412TIP3   OH225180   1.595   7.467   3.620
 8412TIP3    H125181   1.558   7.397   3.675
 8412TIP3    H225182   1.587   7.546   3.673
 8413TIP3   OH225183   4.176   2.936   4.499
 8413TIP3    H125184   4.165   2.843   4.521
 8413TIP3    H225185   4.160   2.983   4.581
 8414TIP3   OH225186   3.748   4.467   2.261
 8414TIP3    H125187   3.698   4.529   2.207
 8414TIP3    H225188   3.759   4.513   2.345
 8415TIP3   OH225189   3.892   3.462   3.800
 8415TIP3    H125190   3.936   3.482   3.717
 8415TIP3    H225191   3.951   3.496   3.867
 8416TIP3   OH225192   7.512   3.760   1.651
 8416TIP3    H125193   7.482   3.692   1.591
 8416TIP3    H225194   7.603   3.774   1.627
 8417TIP3   OH225195   1.292   0.185   2.482
 8417TIP3    H125196   1.289   0.146   2.394
 8417TIP3    H225197   1.200   0.190   2.509
 8418TIP3   OH225198   5.410   0.946   5.773
 8418TIP3    H125199   5.485   0.978   5.823
 8418TIP3    H225200   5.395   0.857   5.805
 8419TIP3   OH225201   5.001   3.273   3.208
 8419TIP3    H125202   5.055   3.276   3.287
 8419TIP3    H225203   4.928   3.333   3.227
 8420TIP3   OH225204   0.658   2.342   4.070
 8420TIP3    H125205   0.609   2.420   4.095
 8420TIP3    H225206   0.630   2.323   3.981
 8421TIP3   OH225207   1.026   2.355   1.466
 8421TIP3    H125208   1.095   2.309   1.514
 8421TIP3    H225209   0.947   2.305   1.485
 8422TIP3   OH225210   3.610   4.515   3.096
 8422TIP3    H125211   3.686   4.499   3.039
 8422TIP3    H225212   3.643   4.576   3.162
 8423TIP3   OH225213   1.805   7.088   2.035
 8423TIP3    H125214   1.741   7.155   2.011
 8423TIP3    H225215   1.758   7.031   2.095
 8424TIP3   OH225216   3.785   1.996   5.846
 8424TIP3    H125217   3.701   2.014   5.804
 8424TIP3    H225218   3.768   1.919   5.900
 8425TIP3   OH225219   6.795   0.073   4.490
 8425TIP3    H125220   6.840   0.118   4.561
 8425TIP3    H225221   6.709   0.114   4.486
 8426TIP3   OH225222   7.931   5.055   1.102
 8426TIP3    H125223   7.966   5.013   1.181
 8426TIP3    H225224   8.008   5.098   1.062
 8427TIP3   OH225225   4.876   0.682   3.499
 8427TIP3    H125226   4.912   0.760   3.542
 8427TIP3    H225227   4.951   0.641   3.456
 8428TIP3   OH225228   4.193   2.773   6.674
 8428TIP3    H125229   4.232   2.732   6.751
 8428TIP3    H225230   4.101   2.746   6.676
 8429TIP3   OH225231   7.916   1.385   1.987
 8429TIP3    H125232   7.879   1.440   2.056
 8429TIP3    H225233   7.992   1.344   2.028
 8430TIP3   OH225234   2.049   6.819   0.903
 8430TIP3    H125235   1.962   6.807   0.867
 8430TIP3    H225236   2.058   6.751   0.970
 8431TIP3   OH225237   1.039   2.901   0.714
 8431TIP3    H125238   1.087   2.888   0.796
 8431TIP3    H225239   0.972   2.833   0.714
 8432TIP3   OH225240   1.088   1.513   6.701
 8432TIP3    H125241   1.015   1.457   6.675
 8432TIP3    H225242   1.119   1.552   6.619
 8433TIP3   OH225243   7.415   0.294   6.487
 8433TIP3    H125244   7.501   0.270   6.452
 8433TIP3    H225245   7.377   0.211   6.517
 8434TIP3   OH225246   6.829   0.121   4.808
 8434TIP3    H125247   6.862   0.210   4.816
 8434TIP3    H225248   6.896   0.073   4.759
 8435TIP3   OH225249   3.927   3.200   2.544
 8435TIP3    H125250   3.837   3.227   2.561
 8435TIP3    H225251   3.929   3.181   2.450
 8436TIP3   OH225252   1.828   0.465   3.436
 8436TIP3    H125253   1.878   0.441   3.514
 8436TIP3    H225254   1.771   0.389   3.421
 8437TIP3   OH225255   0.733   5.420   2.451
 8437TIP3    H125256   0.660   5.361   2.468
 8437TIP3    H225257   0.767   5.393   2.365
 8438TIP3   OH225258   1.507   4.961   1.648
 8438TIP3    H125259   1.479   4.910   1.571
 8438TIP3    H225260   1.452   5.039   1.645
 8439TIP3   OH225261   7.331   1.373   1.663
 8439TIP3    H125262   7.241   1.357   1.634
 8439TIP3    H225263   7.380   1.382   1.582
 8440TIP3   OH225264   6.681   6.963   1.947
 8440TIP3    H125265   6.734   6.905   2.003
 8440TIP3    H225266   6.610   6.993   2.004
 8441TIP3   OH225267   5.573   5.011   0.241
 8441TIP3    H125268   5.567   5.043   0.331
 8441TIP3    H225269   5.562   4.916   0.247
 8442TIP3   OH225270   5.360   1.840   3.423
 8442TIP3    H125271   5.442   1.807   3.457
 8442TIP3    H225272   5.315   1.877   3.499
 8443TIP3   OH225273   3.541   2.818   5.642
 8443TIP3    H125274   3.598   2.742   5.633
 8443TIP3    H225275   3.499   2.807   5.727
 8444TIP3   OH225276   3.067   0.560   4.732
 8444TIP3    H125277   3.129   0.595   4.667
 8444TIP3    H225278   3.123   0.519   4.798
 8445TIP3   OH225279   3.993   3.277   1.978
 8445TIP3    H125280   4.010   3.257   1.886
 8445TIP3    H225281   4.005   3.372   1.984
 8446TIP3   OH225282   3.250   7.355   1.011
 8446TIP3    H125283   3.237   7.296   1.085
 8446TIP3    H225284   3.344   7.351   0.992
 8447TIP3   OH225285   3.052   4.985   3.747
 8447TIP3    H125286   3.099   4.996   3.830
 8447TIP3    H225287   3.059   4.891   3.728
 8448TIP3   OH225288   4.910   2.892   2.881
 8448TIP3    H125289   4.876   2.924   2.964
 8448TIP3    H225290   4.875   2.953   2.816
 8449TIP3   OH225291   1.050   0.583   5.274
 8449TIP3    H125292   1.044   0.550   5.363
 8449TIP3    H225293   1.081   0.673   5.285
 8450TIP3   OH225294   2.021   3.720   6.628
 8450TIP3    H125295   2.111   3.751   6.633
 8450TIP3    H225296   1.988   3.755   6.546
 8451TIP3   OH225297   6.848   5.545   2.469
 8451TIP3    H125298   6.790   5.614   2.501
 8451TIP3    H225299   6.833   5.472   2.529
 8452TIP3   OH225300   0.236   5.687   4.866
 8452TIP3    H125301   0.174   5.743   4.819
 8452TIP3    H225302   0.306   5.746   4.893
 8453TIP3   OH225303   7.431   7.039   5.632
 8453TIP3    H125304   7.438   7.134   5.639
 8453TIP3    H225305   7.371   7.025   5.558
 8454TIP3   OH225306   7.970   3.358   5.309
 8454TIP3    H125307   7.883   3.394   5.327
 8454TIP3    H225308   8.031   3.424   5.342
 8455TIP3   OH225309   1.196   1.930   1.320
 8455TIP3    H125310   1.199   1.871   1.395
 8455TIP3    H225311   1.286   1.932   1.288
 8456TIP3   OH225312   7.097   4.820   5.039
 8456TIP3    H125313   7.158   4.827   4.966
 8456TIP3    H225314   7.102   4.905   5.083
 8457TIP3   OH225315   2.958   7.062   1.969
 8457TIP3    H125316   2.884   7.011   2.002
 8457TIP3    H225317   2.941   7.070   1.875
 8458TIP3   OH225318   7.520   3.866   0.336
 8458TIP3    H125319   7.577   3.916   0.394
 8458TIP3    H225320   7.449   3.836   0.392
 8459TIP3   OH225321   4.606   2.557   5.921
 8459TIP3    H125322   4.629   2.647   5.945
 8459TIP3    H225323   4.606   2.509   6.004
 8460TIP3   OH225324   6.373   3.162   6.293
 8460TIP3    H125325   6.425   3.186   6.370
 8460TIP3    H225326   6.400   3.072   6.273
 8461TIP3   OH225327   7.344   4.130   2.881
 8461TIP3    H125328   7.400   4.208   2.878
 8461TIP3    H225329   7.298   4.131   2.797
 8462TIP3   OH225330   7.690   3.147   6.261
 8462TIP3    H125331   7.669   3.212   6.329
 8462TIP3    H225332   7.739   3.196   6.196
 8463TIP3   OH225333   3.644   6.794   2.951
 8463TIP3    H125334   3.736   6.802   2.976
 8463TIP3    H225335   3.645   6.743   2.871
 8464TIP3   OH225336   5.732   3.292   0.810
 8464TIP3    H125337   5.784   3.307   0.731
 8464TIP3    H225338   5.712   3.380   0.843
 8465TIP3   OH225339   4.659   2.818   6.051
 8465TIP3    H125340   4.616   2.896   6.085
 8465TIP3    H225341   4.654   2.826   5.956
 8466TIP3   OH225342   3.017   2.684   4.835
 8466TIP3    H125343   3.101   2.667   4.793
 8466TIP3    H225344   3.019   2.778   4.855
 8467TIP3   OH225345   2.411   3.490   1.164
 8467TIP3    H125346   2.366   3.410   1.136
 8467TIP3    H225347   2.422   3.479   1.259
 8468TIP3   OH225348   2.297   1.937   2.016
 8468TIP3    H125349   2.372   1.977   1.973
 8468TIP3    H225350   2.316   1.946   2.110
 8469TIP3   OH225351   3.705   5.366   4.678
 8469TIP3    H125352   3.788   5.404   4.649
 8469TIP3    H225353   3.723   5.334   4.767
 8470TIP3   OH225354   8.222   6.924   5.395
 8470TIP3    H125355   8.272   6.971   5.462
 8470TIP3    H225356   8.138   6.906   5.437
 8471TIP3   OH225357   5.914   5.622   3.325
 8471TIP3    H125358   5.924   5.578   3.410
 8471TIP3    H225359   5.822   5.608   3.301
 8472TIP3   OH225360   6.505   4.869   5.368
 8472TIP3    H125361   6.588   4.825   5.349
 8472TIP3    H225362   6.494   4.931   5.296
 8473TIP3   OH225363   6.637   5.610   1.721
 8473TIP3    H125364   6.655   5.670   1.794
 8473TIP3    H225365   6.543   5.615   1.709
 8474TIP3   OH225366   5.401   2.115   6.750
 8474TIP3    H125367   5.377   2.200   6.713
 8474TIP3    H225368   5.456   2.074   6.684
 8475TIP3   OH225369   6.945   0.454   2.801
 8475TIP3    H125370   6.926   0.467   2.708
 8475TIP3    H225371   6.920   0.537   2.842
 8476TIP3   OH225372   2.672   4.999   2.512
 8476TIP3    H125373   2.601   5.017   2.450
 8476TIP3    H225374   2.722   4.929   2.472
 8477TIP3   OH225375   4.397   4.747   6.108
 8477TIP3    H125376   4.440   4.792   6.035
 8477TIP3    H225377   4.442   4.780   6.186
 8478TIP3   OH225378   5.920   5.584   0.216
 8478TIP3    H125379   5.896   5.503   0.172
 8478TIP3    H225380   5.892   5.653   0.157
 8479TIP3   OH225381   3.380   6.906   3.923
 8479TIP3    H125382   3.419   6.966   3.987
 8479TIP3    H225383   3.294   6.885   3.961
 8480TIP3   OH225384   0.837   2.902   3.644
 8480TIP3    H125385   0.802   2.949   3.568
 8480TIP3    H225386   0.924   2.873   3.615
 8481TIP3   OH225387   4.994   0.917   5.108
 8481TIP3    H125388   5.036   0.880   5.186
 8481TIP3    H225389   4.951   0.843   5.066
 8482TIP3   OH225390   3.790   6.077   1.570
 8482TIP3    H125391   3.704   6.081   1.527
 8482TIP3    H225392   3.845   6.136   1.519
 8483TIP3   OH225393   0.045   3.624   4.057
 8483TIP3    H125394   0.056   3.712   4.092
 8483TIP3    H225395   0.084   3.626   3.970
 8484TIP3   OH225396   5.535   3.560   5.093
 8484TIP3    H125397   5.477   3.485   5.107
 8484TIP3    H225398   5.475   3.634   5.081
 8485TIP3   OH225399   5.163   3.949   1.651
 8485TIP3    H125400   5.194   3.868   1.693
 8485TIP3    H225401   5.091   3.920   1.595
 8486TIP3   OH225402   1.858   6.136   2.173
 8486TIP3    H125403   1.854   6.060   2.114
 8486TIP3    H225404   1.780   6.127   2.228
 8487TIP3   OH225405   6.652   6.583   2.437
 8487TIP3    H125406   6.722   6.617   2.494
 8487TIP3    H225407   6.687   6.592   2.348
 8488TIP3   OH225408   0.766   0.493   5.012
 8488TIP3    H125409   0.723   0.562   4.962
 8488TIP3    H225410   0.694   0.447   5.055
 8489TIP3   OH225411   4.425   7.132   4.148
 8489TIP3    H125412   4.472   7.214   4.133
 8489TIP3    H225413   4.366   7.151   4.221
 8490TIP3   OH225414   2.951   5.351   0.838
 8490TIP3    H125415   2.911   5.302   0.767
 8490TIP3    H225416   2.899   5.430   0.846
 8491TIP3   OH225417   2.052   2.699   5.747
 8491TIP3    H125418   2.005   2.755   5.809
 8491TIP3    H225419   1.984   2.663   5.691
 8492TIP3   OH225420   2.266   6.069   2.414
 8492TIP3    H125421   2.207   5.996   2.430
 8492TIP3    H225422   2.230   6.111   2.336
 8493TIP3   OH225423   0.620   4.081   2.251
 8493TIP3    H125424   0.680   4.008   2.266
 8493TIP3    H225425   0.655   4.126   2.174
 8494TIP3   OH225426   4.264   5.241   4.434
 8494TIP3    H125427   4.283   5.148   4.420
 8494TIP3    H225428   4.349   5.279   4.456
 8495TIP3   OH225429   1.026   4.054   6.660
 8495TIP3    H125430   1.061   3.978   6.613
 8495TIP3    H225431   0.952   4.084   6.607
 8496TIP3   OH225432   4.065   6.452   2.292
 8496TIP3    H125433   4.028   6.450   2.204
 8496TIP3    H225434   4.158   6.433   2.279
 8497TIP3   OH225435   6.823   4.826   2.806
 8497TIP3    H125436   6.781   4.817   2.721
 8497TIP3    H225437   6.860   4.739   2.824
 8498TIP3   OH225438   0.447   3.786   2.021
 8498TIP3    H125439   0.430   3.833   2.103
 8498TIP3    H225440   0.519   3.833   1.980
 8499TIP3   OH225441   3.013   3.167   0.439
 8499TIP3    H125442   3.053   3.237   0.491
 8499TIP3    H225443   3.083   3.137   0.381
 8500TIP3   OH225444   1.508   3.213   0.911
 8500TIP3    H125445   1.563   3.140   0.938
 8500TIP3    H225446   1.571   3.282   0.888
 8501TIP3   OH225447   3.783   7.617   2.407
 8501TIP3    H125448   3.832   7.534   2.411
 8501TIP3    H225449   3.766   7.639   2.499
 8502TIP3   OH225450   1.278   3.361   6.065
 8502TIP3    H125451   1.325   3.311   6.132
 8502TIP3    H225452   1.201   3.308   6.046
 8503TIP3   OH225453   4.978   7.738   4.383
 8503TIP3    H125454   4.890   7.775   4.386
 8503TIP3    H225455   5.016   7.759   4.468
 8504TIP3   OH225456   2.526   5.907   6.449
 8504TIP3    H125457   2.551   5.922   6.358
 8504TIP3    H225458   2.601   5.937   6.500
 8505TIP3   OH225459   5.378   6.294   4.881
 8505TIP3    H125460   5.364   6.295   4.976
 8505TIP3    H225461   5.472   6.276   4.872
 8506TIP3   OH225462   4.349   0.976   2.126
 8506TIP3    H125463   4.291   0.957   2.200
 8506TIP3    H225464   4.399   1.053   2.155
 8507TIP3   OH225465   5.068   2.204   3.249
 8507TIP3    H125466   5.162   2.190   3.250
 8507TIP3    H225467   5.031   2.115   3.249
 8508TIP3   OH225468   3.474   0.767   3.354
 8508TIP3    H125469   3.489   0.691   3.298
 8508TIP3    H225470   3.459   0.839   3.294
 8509TIP3   OH225471   3.619   0.196   4.841
 8509TIP3    H125472   3.636   0.121   4.784
 8509TIP3    H225473   3.527   0.217   4.825
 8510TIP3   OH225474   6.417   6.130   0.268
 8510TIP3    H125475   6.411   6.168   0.180
 8510TIP3    H225476   6.422   6.035   0.252
 8511TIP3   OH225477   3.469   4.219   3.956
 8511TIP3    H125478   3.492   4.206   3.864
 8511TIP3    H225479   3.390   4.166   3.968
 8512TIP3   OH225480   5.183   4.180   4.515
 8512TIP3    H125481   5.147   4.101   4.556
 8512TIP3    H225482   5.106   4.226   4.480
 8513TIP3   OH225483   1.568   1.339   2.668
 8513TIP3    H125484   1.509   1.338   2.743
 8513TIP3    H225485   1.542   1.417   2.619
 8514TIP3   OH225486   4.155   1.157   4.780
 8514TIP3    H125487   4.122   1.122   4.697
 8514TIP3    H225488   4.232   1.209   4.756
 8515TIP3   OH225489   3.736   7.071   5.220
 8515TIP3    H125490   3.662   7.098   5.165
 8515TIP3    H225491   3.810   7.121   5.186
 8516TIP3   OH225492   4.481   0.658   5.890
 8516TIP3    H125493   4.513   0.688   5.806
 8516TIP3    H225494   4.400   0.611   5.870
 8517TIP3   OH225495   4.345   1.022   6.232
 8517TIP3    H125496   4.361   0.972   6.312
 8517TIP3    H225497   4.393   0.974   6.164
 8518TIP3   OH225498   0.944   6.462   5.949
 8518TIP3    H125499   0.925   6.487   6.039
 8518TIP3    H225500   0.911   6.534   5.896
 8519TIP3   OH225501   3.637   5.733   5.982
 8519TIP3    H125502   3.693   5.809   5.998
 8519TIP3    H225503   3.680   5.686   5.911
 8520TIP3   OH225504   1.971   2.564  -0.018
 8520TIP3    H125505   2.050   2.513  -0.002
 8520TIP3    H225506   1.901   2.499  -0.022
 8521TIP3   OH225507   4.696   7.005   6.070
 8521TIP3    H125508   4.722   7.036   6.156
 8521TIP3    H225509   4.621   7.061   6.046
 8522TIP3   OH225510   2.470   7.072   5.711
 8522TIP3    H125511   2.463   6.980   5.685
 8522TIP3    H225512   2.549   7.103   5.666
 8523TIP3   OH225513   3.605   1.123   4.114
 8523TIP3    H125514   3.517   1.142   4.082
 8523TIP3    H225515   3.599   1.132   4.209
 8524TIP3   OH225516   1.016   4.910   4.060
 8524TIP3    H125517   1.038   4.816   4.055
 8524TIP3    H225518   0.920   4.912   4.058
 8525TIP3   OH225519   4.457   2.136   2.735
 8525TIP3    H125520   4.488   2.201   2.798
 8525TIP3    H225521   4.459   2.053   2.783
 8526TIP3   OH225522   0.634   1.453   0.731
 8526TIP3    H125523   0.588   1.374   0.700
 8526TIP3    H225524   0.614   1.519   0.664
 8527TIP3   OH225525   4.216   4.140   6.450
 8527TIP3    H125526   4.300   4.178   6.424
 8527TIP3    H225527   4.152   4.210   6.439
 8528TIP3   OH225528   1.269   2.423   2.034
 8528TIP3    H125529   1.327   2.352   2.006
 8528TIP3    H225530   1.328   2.488   2.072
 8529TIP3   OH225531   5.467   2.064   4.817
 8529TIP3    H125532   5.466   2.103   4.730
 8529TIP3    H225533   5.374   2.050   4.838
 8530TIP3   OH225534   0.047   6.690   5.639
 8530TIP3    H125535   0.089   6.741   5.570
 8530TIP3    H225536   0.009   6.614   5.594
 8531TIP3   OH225537   1.221   4.643   0.653
 8531TIP3    H125538   1.209   4.590   0.574
 8531TIP3    H225539   1.138   4.690   0.663
 8532TIP3   OH225540   5.003   3.221   3.998
 8532TIP3    H125541   4.915   3.185   4.001
 8532TIP3    H225542   4.995   3.308   4.036
 8533TIP3   OH225543   3.496   4.333   6.106
 8533TIP3    H125544   3.529   4.263   6.050
 8533TIP3    H225545   3.548   4.326   6.186
 8534TIP3   OH225546   1.991   1.516   5.127
 8534TIP3    H125547   1.900   1.495   5.149
 8534TIP3    H225548   2.017   1.581   5.192
 8535TIP3   OH225549   2.008   3.882   1.609
 8535TIP3    H125550   1.944   3.951   1.626
 8535TIP3    H225551   1.962   3.820   1.553
 8536TIP3   OH225552   0.188   3.774   0.732
 8536TIP3    H125553   0.258   3.754   0.670
 8536TIP3    H225554   0.209   3.862   0.763
 8537TIP3   OH225555   5.379   4.048   5.163
 8537TIP3    H125556   5.433   4.110   5.212
 8537TIP3    H225557   5.432   4.027   5.086
 8538TIP3   OH225558   3.798   1.543   5.000
 8538TIP3    H125559   3.781   1.460   5.044
 8538TIP3    H225560   3.753   1.608   5.054
 8539TIP3   OH225561   4.885   2.654   4.248
 8539TIP3    H125562   4.806   2.601   4.243
 8539TIP3    H225563   4.903   2.680   4.158
 8540TIP3   OH225564   4.056   6.430   3.334
 8540TIP3    H125565   4.122   6.461   3.271
 8540TIP3    H225566   4.060   6.493   3.406
 8541TIP3   OH225567   3.262   3.306   3.855
 8541TIP3    H125568   3.302   3.322   3.770
 8541TIP3    H225569   3.282   3.215   3.875
 8542TIP3   OH225570   4.735   1.500   1.016
 8542TIP3    H125571   4.748   1.535   0.928
 8542TIP3    H225572   4.708   1.575   1.068
 8543TIP3   OH225573   4.373   4.365   3.315
 8543TIP3    H125574   4.352   4.272   3.306
 8543TIP3    H225575   4.317   4.395   3.387
 8544TIP3   OH225576   6.146   3.732   1.869
 8544TIP3    H125577   6.066   3.782   1.882
 8544TIP3    H225578   6.209   3.797   1.838
 8545TIP3   OH225579   2.971   0.014   1.527
 8545TIP3    H125580   3.021  -0.043   1.468
 8545TIP3    H225581   2.890   0.031   1.479
 8546TIP3   OH225582   7.881   5.867   4.074
 8546TIP3    H125583   7.874   5.930   4.146
 8546TIP3    H225584   7.810   5.806   4.088
 8547TIP3   OH225585   6.805   3.068   3.463
 8547TIP3    H125586   6.794   2.978   3.495
 8547TIP3    H225587   6.801   3.122   3.543
 8548TIP3   OH225588   1.466   1.269   4.973
 8548TIP3    H125589   1.472   1.347   4.917
 8548TIP3    H225590   1.414   1.297   5.048
 8549TIP3   OH225591   6.032   2.113   2.889
 8549TIP3    H125592   6.035   2.155   2.975
 8549TIP3    H225593   5.939   2.097   2.874
 8550TIP3   OH225594   1.411   4.950   0.860
 8550TIP3    H125595   1.441   4.881   0.918
 8550TIP3    H225596   1.458   5.028   0.890
 8551TIP3   OH225597   5.889   5.008   1.409
 8551TIP3    H125598   5.861   5.049   1.327
 8551TIP3    H225599   5.884   4.914   1.391
 8552TIP3   OH225600   6.808   2.771   3.337
 8552TIP3    H125601   6.740   2.783   3.270
 8552TIP3    H225602   6.761   2.736   3.413
 8553TIP3   OH225603   0.912   6.005   3.543
 8553TIP3    H125604   0.941   5.960   3.463
 8553TIP3    H225605   0.928   6.097   3.525
 8554TIP3   OH225606   4.617   2.478   2.255
 8554TIP3    H125607   4.559   2.540   2.299
 8554TIP3    H225608   4.702   2.493   2.297
 8555TIP3   OH225609   4.780   1.389   1.689
 8555TIP3    H125610   4.817   1.476   1.675
 8555TIP3    H225611   4.853   1.329   1.677
 8556TIP3   OH225612   5.203   0.738   4.143
 8556TIP3    H125613   5.112   0.711   4.139
 8556TIP3    H225614   5.244   0.677   4.204
 8557TIP3   OH225615   2.943   3.409   2.760
 8557TIP3    H125616   2.929   3.323   2.719
 8557TIP3    H225617   3.038   3.418   2.764
 8558TIP3   OH225618   2.387   2.705   4.742
 8558TIP3    H125619   2.407   2.680   4.652
 8558TIP3    H225620   2.296   2.678   4.755
 8559TIP3   OH225621   2.861   5.622   0.009
 8559TIP3    H125622   2.780   5.640   0.056
 8559TIP3    H225623   2.874   5.699  -0.046
 8560TIP3   OH225624   1.419   7.319   3.758
 8560TIP3    H125625   1.378   7.362   3.833
 8560TIP3    H225626   1.351   7.260   3.724
 8561TIP3   OH225627   3.223   6.574   1.772
 8561TIP3    H125628   3.217   6.619   1.856
 8561TIP3    H225629   3.134   6.575   1.737
 8562TIP3   OH225630   2.883   3.943   2.585
 8562TIP3    H125631   2.880   3.865   2.639
 8562TIP3    H225632   2.801   3.942   2.536
 8563TIP3   OH225633   8.305   5.010   2.999
 8563TIP3    H125634   8.215   5.039   2.982
 8563TIP3    H225635   8.295   4.924   3.039
 8564TIP3   OH225636   0.155   0.487   3.133
 8564TIP3    H125637   0.165   0.483   3.229
 8564TIP3    H225638   0.176   0.577   3.110
 8565TIP3   OH225639   1.700   1.070   4.092
 8565TIP3    H125640   1.637   1.115   4.148
 8565TIP3    H225641   1.727   0.993   4.143
 8566TIP3   OH225642   3.368   5.904   4.747
 8566TIP3    H125643   3.400   5.981   4.700
 8566TIP3    H225644   3.288   5.878   4.700
 8567TIP3   OH225645   0.894   3.236   4.337
 8567TIP3    H125646   0.839   3.264   4.264
 8567TIP3    H225647   0.833   3.216   4.408
 8568TIP3   OH225648   0.705   2.202   6.403
 8568TIP3    H125649   0.640   2.177   6.337
 8568TIP3    H225650   0.754   2.273   6.363
 8569TIP3   OH225651   1.753   2.098   0.475
 8569TIP3    H125652   1.705   2.177   0.451
 8569TIP3    H225653   1.736   2.086   0.568
 8570TIP3   OH225654   5.284   6.968   3.185
 8570TIP3    H125655   5.229   7.010   3.252
 8570TIP3    H225656   5.371   6.967   3.224
 8571TIP3   OH225657   3.741   3.254   0.812
 8571TIP3    H125658   3.828   3.235   0.845
 8571TIP3    H225659   3.748   3.246   0.717
 8572TIP3   OH225660   2.200   6.191   3.198
 8572TIP3    H125661   2.237   6.103   3.201
 8572TIP3    H225662   2.111   6.179   3.166
 8573TIP3   OH225663   7.428   2.313   0.645
 8573TIP3    H125664   7.481   2.386   0.677
 8573TIP3    H225665   7.342   2.352   0.628
 8574TIP3   OH225666   0.683   4.817   0.252
 8574TIP3    H125667   0.622   4.743   0.250
 8574TIP3    H225668   0.677   4.855   0.164
 8575TIP3   OH225669   5.075   7.339   0.673
 8575TIP3    H125670   5.085   7.340   0.768
 8575TIP3    H225671   4.999   7.394   0.656
 8576TIP3   OH225672   6.083   0.515   3.152
 8576TIP3    H125673   6.176   0.516   3.173
 8576TIP3    H225674   6.058   0.607   3.150
 8577TIP3   OH225675   1.500   5.898   3.744
 8577TIP3    H125676   1.554   5.952   3.687
 8577TIP3    H225677   1.554   5.821   3.763
 8578TIP3   OH225678   6.874   5.156   6.127
 8578TIP3    H125679   6.965   5.180   6.146
 8578TIP3    H225680   6.879   5.064   6.101
 8579TIP3   OH225681   0.622   7.050   6.601
 8579TIP3    H125682   0.563   7.110   6.553
 8579TIP3    H225683   0.615   6.967   6.554
 8580TIP3   OH225684   4.474   2.212   4.515
 8580TIP3    H125685   4.395   2.168   4.547
 8580TIP3    H225686   4.480   2.187   4.423
 8581TIP3   OH225687   3.432   7.282   3.883
 8581TIP3    H125688   3.342   7.276   3.850
 8581TIP3    H225689   3.432   7.231   3.964
 8582TIP3   OH225690   2.468   6.722   1.927
 8582TIP3    H125691   2.408   6.661   1.969
 8582TIP3    H225692   2.530   6.667   1.879
 8583TIP3   OH225693   1.367   3.541   5.542
 8583TIP3    H125694   1.462   3.533   5.546
 8583TIP3    H225695   1.347   3.622   5.589
 8584TIP3   OH225696   7.785   0.921   3.037
 8584TIP3    H125697   7.773   0.829   3.014
 8584TIP3    H225698   7.744   0.930   3.123
 8585TIP3   OH225699   6.139   3.182   4.886
 8585TIP3    H125700   6.068   3.141   4.836
 8585TIP3    H225701   6.219   3.151   4.844
 8586TIP3   OH225702   7.574   4.208   1.779
 8586TIP3    H125703   7.514   4.150   1.731
 8586TIP3    H225704   7.640   4.149   1.815
 8587TIP3   OH225705   3.413   4.307   5.735
 8587TIP3    H125706   3.333   4.358   5.747
 8587TIP3    H225707   3.401   4.230   5.791
 8588TIP3   OH225708   1.711   4.717   3.595
 8588TIP3    H125709   1.659   4.640   3.572
 8588TIP3    H225710   1.674   4.747   3.678
 8589TIP3   OH225711   1.407   6.171   1.371
 8589TIP3    H125712   1.405   6.161   1.466
 8589TIP3    H225713   1.327   6.219   1.351
 8590TIP3   OH225714   7.607   6.773   3.367
 8590TIP3    H125715   7.699   6.762   3.341
 8590TIP3    H225716   7.612   6.799   3.459
 8591TIP3   OH225717   0.120   3.372   4.023
 8591TIP3    H125718   0.064   3.444   4.053
 8591TIP3    H225719   0.147   3.328   4.104
 8592TIP3   OH225720   1.902   3.229   1.419
 8592TIP3    H125721   1.909   3.298   1.484
 8592TIP3    H225722   1.818   3.188   1.436
 8593TIP3   OH225723   2.081   4.223   5.565
 8593TIP3    H125724   2.041   4.306   5.593
 8593TIP3    H225725   2.047   4.158   5.626
 8594TIP3   OH225726   8.113   5.754   2.674
 8594TIP3    H125727   8.186   5.700   2.645
 8594TIP3    H225728   8.132   5.841   2.638
 8595TIP3   OH225729   5.917   1.767   2.568
 8595TIP3    H125730   5.951   1.754   2.479
 8595TIP3    H225731   5.826   1.795   2.555
 8596TIP3   OH225732   4.885   4.408   6.230
 8596TIP3    H125733   4.858   4.326   6.188
 8596TIP3    H225734   4.834   4.411   6.311
 8597TIP3   OH225735   6.393   5.978   1.778
 8597TIP3    H125736   6.455   5.916   1.817
 8597TIP3    H225737   6.308   5.936   1.788
 8598TIP3   OH225738   3.128   4.342   3.574
 8598TIP3    H125739   3.178   4.413   3.617
 8598TIP3    H225740   3.180   4.320   3.497
 8599TIP3   OH225741   8.203   1.223   5.258
 8599TIP3    H125742   8.138   1.292   5.258
 8599TIP3    H225743   8.196   1.183   5.171
 8600TIP3   OH225744   7.045   2.519   5.924
 8600TIP3    H125745   7.063   2.578   5.997
 8600TIP3    H225746   7.064   2.432   5.958
 8601TIP3   OH225747   1.789   4.601   2.586
 8601TIP3    H125748   1.798   4.690   2.620
 8601TIP3    H225749   1.707   4.569   2.623
 8602TIP3   OH225750   1.163   6.449   1.957
 8602TIP3    H125751   1.162   6.423   1.865
 8602TIP3    H225752   1.242   6.502   1.967
 8603TIP3   OH225753   7.796   2.428   4.003
 8603TIP3    H125754   7.768   2.487   4.072
 8603TIP3    H225755   7.757   2.344   4.026
 8604TIP3   OH225756   2.712   2.746   2.944
 8604TIP3    H125757   2.617   2.736   2.950
 8604TIP3    H225758   2.745   2.656   2.940
 8605TIP3   OH225759   3.496   0.282   5.892
 8605TIP3    H125760   3.423   0.343   5.888
 8605TIP3    H225761   3.472   0.211   5.832
 8606TIP3   OH225762   2.806   1.633   3.728
 8606TIP3    H125763   2.727   1.680   3.756
 8606TIP3    H225764   2.870   1.702   3.709
 8607TIP3   OH225765   3.419   3.580   0.361
 8607TIP3    H125766   3.402   3.492   0.329
 8607TIP3    H225767   3.451   3.627   0.284
 8608TIP3   OH225768   5.658   6.653   0.374
 8608TIP3    H125769   5.576   6.611   0.347
 8608TIP3    H225770   5.713   6.651   0.296
 8609TIP3   OH225771   3.182   0.642   3.293
 8609TIP3    H125772   3.270   0.678   3.292
 8609TIP3    H225773   3.125   0.717   3.275
 8610TIP3   OH225774   2.005   4.010   0.907
 8610TIP3    H125775   2.059   4.088   0.922
 8610TIP3    H225776   2.044   3.969   0.829
 8611TIP3   OH225777   4.489   1.205   4.791
 8611TIP3    H125778   4.431   1.282   4.789
 8611TIP3    H225779   4.507   1.192   4.884
 8612TIP3   OH225780   1.318   3.605   5.224
 8612TIP3    H125781   1.230   3.595   5.187
 8612TIP3    H225782   1.304   3.652   5.306
 8613TIP3   OH225783   7.697   0.578   4.337
 8613TIP3    H125784   7.746   0.497   4.346
 8613TIP3    H225785   7.762   0.642   4.308
 8614TIP3   OH225786   4.387   5.912   2.145
 8614TIP3    H125787   4.421   5.996   2.115
 8614TIP3    H225788   4.459   5.851   2.132
 8615TIP3   OH225789   2.483   0.792   4.823
 8615TIP3    H125790   2.570   0.823   4.850
 8615TIP3    H225791   2.432   0.872   4.811
 8616TIP3   OH225792   6.060   1.303   2.593
 8616TIP3    H125793   5.998   1.233   2.614
 8616TIP3    H225794   6.021   1.382   2.631
 8617TIP3   OH225795   2.834   3.033   4.038
 8617TIP3    H125796   2.761   3.025   3.977
 8617TIP3    H225797   2.908   2.992   3.993
 8618TIP3   OH225798   0.329   7.323   0.942
 8618TIP3    H125799   0.282   7.247   0.976
 8618TIP3    H225800   0.328   7.311   0.847
 8619TIP3   OH225801   6.960   6.961   3.961
 8619TIP3    H125802   6.881   6.914   3.986
 8619TIP3    H225803   7.009   6.971   4.043
 8620TIP3   OH225804   3.463   0.686   1.380
 8620TIP3    H125805   3.431   0.776   1.384
 8620TIP3    H225806   3.555   0.693   1.357
 8621TIP3   OH225807   5.104   3.263   4.657
 8621TIP3    H125808   5.136   3.331   4.716
 8621TIP3    H225809   5.163   3.189   4.672
 8622TIP3   OH225810   1.332   7.079   5.629
 8622TIP3    H125811   1.299   7.074   5.719
 8622TIP3    H225812   1.379   7.162   5.625
 8623TIP3   OH225813   1.858   7.485   4.175
 8623TIP3    H125814   1.839   7.549   4.243
 8623TIP3    H225815   1.821   7.523   4.095
 8624TIP3   OH225816   3.895   2.279   6.357
 8624TIP3    H125817   3.842   2.346   6.400
 8624TIP3    H225818   3.979   2.281   6.404
 8625TIP3   OH225819   2.873   3.213   6.468
 8625TIP3    H125820   2.922   3.294   6.486
 8625TIP3    H225821   2.787   3.227   6.507
 8626TIP3   OH225822   3.789   1.918   1.730
 8626TIP3    H125823   3.781   1.899   1.636
 8626TIP3    H225824   3.719   1.982   1.747
 8627TIP3   OH225825   3.751   3.043   2.776
 8627TIP3    H125826   3.673   3.098   2.783
 8627TIP3    H225827   3.752   2.991   2.857
 8628TIP3   OH225828   6.587   2.584   5.592
 8628TIP3    H125829   6.613   2.673   5.614
 8628TIP3    H225830   6.661   2.529   5.619
 8629TIP3   OH225831   2.124   2.194   3.981
 8629TIP3    H125832   2.119   2.271   3.925
 8629TIP3    H225833   2.180   2.133   3.933
 8630TIP3   OH225834   6.483   7.154   5.331
 8630TIP3    H125835   6.528   7.104   5.399
 8630TIP3    H225836   6.447   7.087   5.273
 8631TIP3   OH225837   8.249   1.396   5.792
 8631TIP3    H125838   8.282   1.375   5.704
 8631TIP3    H225839   8.154   1.408   5.779
 8632TIP3   OH225840   2.123   2.345   1.534
 8632TIP3    H125841   2.218   2.331   1.538
 8632TIP3    H225842   2.089   2.263   1.498
 8633TIP3   OH225843   1.650   5.261   2.044
 8633TIP3    H125844   1.728   5.263   1.988
 8633TIP3    H225845   1.589   5.321   2.001
 8634TIP3   OH225846   2.626   4.978   6.167
 8634TIP3    H125847   2.660   4.950   6.082
 8634TIP3    H225848   2.689   4.944   6.231
 8635TIP3   OH225849   5.225   5.867   2.621
 8635TIP3    H125850   5.218   5.941   2.560
 8635TIP3    H225851   5.282   5.898   2.691
 8636TIP3   OH225852   7.374   4.420   2.523
 8636TIP3    H125853   7.321   4.413   2.444
 8636TIP3    H225854   7.358   4.338   2.571
 8637TIP3   OH225855   4.658   3.645   4.391
 8637TIP3    H125856   4.683   3.586   4.320
 8637TIP3    H225857   4.630   3.725   4.348
 8638TIP3   OH225858   3.900   4.118   3.141
 8638TIP3    H125859   3.906   4.030   3.104
 8638TIP3    H225860   3.867   4.104   3.230
 8639TIP3   OH225861   2.084   1.231   4.111
 8639TIP3    H125862   2.036   1.210   4.031
 8639TIP3    H225863   2.162   1.176   4.106
 8640TIP3   OH225864   4.619   6.506   6.103
 8640TIP3    H125865   4.584   6.593   6.080
 8640TIP3    H225866   4.699   6.498   6.052
 8641TIP3   OH225867   2.437   5.864   4.180
 8641TIP3    H125868   2.356   5.885   4.134
 8641TIP3    H225869   2.506   5.900   4.124
 8642TIP3   OH225870   8.056   2.696   3.878
 8642TIP3    H125871   8.124   2.630   3.861
 8642TIP3    H225872   7.974   2.651   3.860
 8643TIP3   OH225873   1.392   0.439   2.488
 8643TIP3    H125874   1.445   0.448   2.410
 8643TIP3    H225875   1.334   0.365   2.470
 8644TIP3   OH225876   2.461   4.565   6.071
 8644TIP3    H125877   2.491   4.498   6.009
 8644TIP3    H225878   2.416   4.630   6.016
 8645TIP3   OH225879   4.975   5.155   0.289
 8645TIP3    H125880   5.064   5.143   0.254
 8645TIP3    H225881   4.979   5.120   0.378
 8646TIP3   OH225882   7.415   0.420   0.752
 8646TIP3    H125883   7.384   0.340   0.794
 8646TIP3    H225884   7.392   0.410   0.660
 8647TIP3   OH225885   6.147   0.477   4.045
 8647TIP3    H125886   6.073   0.455   4.103
 8647TIP3    H225887   6.182   0.559   4.081
 8648TIP3   OH225888   3.484   4.130   4.871
 8648TIP3    H125889   3.576   4.150   4.885
 8648TIP3    H225890   3.446   4.127   4.959
 8649TIP3   OH225891   7.344   1.350   5.423
 8649TIP3    H125892   7.386   1.275   5.465
 8649TIP3    H225893   7.263   1.314   5.386
 8650TIP3   OH225894   1.222   1.884   2.700
 8650TIP3    H125895   1.195   1.968   2.664
 8650TIP3    H225896   1.139   1.838   2.718
 8651TIP3   OH225897   5.735   7.593   3.042
 8651TIP3    H125898   5.724   7.506   3.081
 8651TIP3    H225899   5.804   7.634   3.094
 8652TIP3   OH225900   4.893   1.076   4.184
 8652TIP3    H125901   4.964   1.098   4.123
 8652TIP3    H225902   4.886   0.981   4.180
 8653TIP3   OH225903   1.035   3.783   6.555
 8653TIP3    H125904   0.939   3.786   6.559
 8653TIP3    H225905   1.055   3.787   6.461
 8654TIP3   OH225906   4.415   4.126   4.487
 8654TIP3    H125907   4.508   4.142   4.469
 8654TIP3    H225908   4.414   4.038   4.526
 8655TIP3   OH225909   1.601   5.918   4.878
 8655TIP3    H125910   1.551   5.886   4.953
 8655TIP3    H225911   1.685   5.945   4.915
 8656TIP3   OH225912   6.283   2.203   3.369
 8656TIP3    H125913   6.234   2.180   3.449
 8656TIP3    H225914   6.353   2.260   3.399
 8657TIP3   OH225915   7.018   3.783   2.682
 8657TIP3    H125916   7.088   3.802   2.744
 8657TIP3    H225917   6.946   3.748   2.735
 8658TIP3   OH225918   0.238   5.468   2.183
 8658TIP3    H125919   0.314   5.456   2.126
 8658TIP3    H225920   0.244   5.560   2.210
 8659TIP3   OH225921   2.182   1.982   4.582
 8659TIP3    H125922   2.135   2.041   4.524
 8659TIP3    H225923   2.127   1.903   4.588
 8660TIP3   OH225924   6.413   2.706   2.362
 8660TIP3    H125925   6.448   2.641   2.301
 8660TIP3    H225926   6.323   2.679   2.379
 8661TIP3   OH225927   8.332   4.299   3.016
 8661TIP3    H125928   8.321   4.394   3.019
 8661TIP3    H225929   8.269   4.266   3.080
 8662TIP3   OH225930   3.924   3.163   2.273
 8662TIP3    H125931   3.954   3.226   2.207
 8662TIP3    H225932   3.889   3.090   2.222
 8663TIP3   OH225933   2.564   5.942   4.850
 8663TIP3    H125934   2.603   5.970   4.767
 8663TIP3    H225935   2.473   5.919   4.827
 8664TIP3   OH225936   5.212   6.607   5.803
 8664TIP3    H125937   5.125   6.646   5.798
 8664TIP3    H225938   5.206   6.541   5.872
 8665TIP3   OH225939   0.850   0.963   4.173
 8665TIP3    H125940   0.783   1.025   4.141
 8665TIP3    H225941   0.895   1.011   4.242
 8666TIP3   OH225942   5.111   4.903   0.661
 8666TIP3    H125943   5.129   4.988   0.620
 8666TIP3    H225944   5.159   4.907   0.744
 8667TIP3   OH225945   2.495   6.422   4.052
 8667TIP3    H125946   2.554   6.360   4.009
 8667TIP3    H225947   2.464   6.479   3.981
 8668TIP3   OH225948   2.543   0.157   1.192
 8668TIP3    H125949   2.481   0.099   1.147
 8668TIP3    H225950   2.537   0.240   1.145
 8669TIP3   OH225951   1.409   1.444   5.859
 8669TIP3    H125952   1.486   1.393   5.881
 8669TIP3    H225953   1.402   1.437   5.764
 8670TIP3   OH225954   4.765   3.935   4.722
 8670TIP3    H125955   4.775   3.846   4.687
 8670TIP3    H225956   4.674   3.958   4.706
 8671TIP3   OH225957   3.412   5.314   3.139
 8671TIP3    H125958   3.452   5.256   3.074
 8671TIP3    H225959   3.449   5.286   3.223
 8672TIP3   OH225960   0.572   0.690   5.316
 8672TIP3    H125961   0.529   0.775   5.326
 8672TIP3    H225962   0.524   0.632   5.375
 8673TIP3   OH225963   4.234   0.022   1.056
 8673TIP3    H125964   4.301   0.088   1.043
 8673TIP3    H225965   4.192   0.045   1.139
 8674TIP3   OH225966   1.626   3.725   3.270
 8674TIP3    H125967   1.574   3.668   3.327
 8674TIP3    H225968   1.600   3.700   3.181
 8675TIP3   OH225969   8.033   1.752   6.237
 8675TIP3    H125970   8.126   1.733   6.235
 8675TIP3    H225971   8.014   1.777   6.327
 8676TIP3   OH225972   2.221   6.022   0.694
 8676TIP3    H125973   2.288   5.976   0.745
 8676TIP3    H225974   2.150   6.038   0.757
 8677TIP3   OH225975   3.497   6.870   3.677
 8677TIP3    H125976   3.522   6.961   3.659
 8677TIP3    H225977   3.449   6.875   3.760
 8678TIP3   OH225978   6.774   4.144   1.387
 8678TIP3    H125979   6.775   4.050   1.372
 8678TIP3    H225980   6.858   4.174   1.352
 8679TIP3   OH225981   2.741   3.486   3.407
 8679TIP3    H125982   2.688   3.556   3.369
 8679TIP3    H225983   2.738   3.503   3.501
 8680TIP3   OH225984   7.175   1.960   4.877
 8680TIP3    H125985   7.251   1.991   4.829
 8680TIP3    H225986   7.105   1.957   4.811
 8681TIP3   OH225987   0.328   6.832   3.163
 8681TIP3    H125988   0.413   6.788   3.158
 8681TIP3    H225989   0.270   6.778   3.109
 8682TIP3   OH225990   2.328   1.135   3.633
 8682TIP3    H125991   2.246   1.095   3.661
 8682TIP3    H225992   2.302   1.209   3.578
 8683TIP3   OH225993   1.836   3.716   2.527
 8683TIP3    H125994   1.861   3.670   2.607
 8683TIP3    H225995   1.802   3.801   2.558
 8684TIP3   OH225996   7.833   6.211   2.331
 8684TIP3    H125997   7.809   6.303   2.336
 8684TIP3    H225998   7.753   6.167   2.301
 8685TIP3   OH225999   0.290   5.192   6.473
 8685TIP3    H126000   0.304   5.272   6.422
 8685TIP3    H226001   0.195   5.182   6.475
 8686TIP3   OH226002   7.527   3.995   5.833
 8686TIP3    H126003   7.507   3.948   5.914
 8686TIP3    H226004   7.534   4.087   5.860
 8687TIP3   OH226005   5.031   5.289   4.642
 8687TIP3    H126006   4.963   5.340   4.598
 8687TIP3    H226007   5.018   5.308   4.735
 8688TIP3   OH226008   1.557   4.133   2.378
 8688TIP3    H126009   1.489   4.075   2.344
 8688TIP3    H226010   1.604   4.163   2.300
 8689TIP3   OH226011   6.329   6.460   5.542
 8689TIP3    H126012   6.414   6.503   5.535
 8689TIP3    H226013   6.319   6.442   5.636
 8690TIP3   OH226014   6.742   1.560   3.969
 8690TIP3    H126015   6.727   1.649   3.936
 8690TIP3    H226016   6.658   1.516   3.962
 8691TIP3   OH226017   5.218   6.736   4.290
 8691TIP3    H126018   5.129   6.737   4.326
 8691TIP3    H226019   5.275   6.741   4.366
 8692TIP3   OH226020   4.634   0.557   6.103
 8692TIP3    H126021   4.574   0.563   6.178
 8692TIP3    H226022   4.585   0.597   6.030
 8693TIP3   OH226023   7.938   6.184   6.302
 8693TIP3    H126024   7.901   6.265   6.336
 8693TIP3    H226025   7.918   6.186   6.209
 8694TIP3   OH226026   3.880   6.851   5.562
 8694TIP3    H126027   3.862   6.901   5.641
 8694TIP3    H226028   3.794   6.827   5.528
 8695TIP3   OH226029   1.581   3.130   2.659
 8695TIP3    H126030   1.499   3.127   2.709
 8695TIP3    H226031   1.553   3.144   2.569
 8696TIP3   OH226032   3.457   3.487   1.580
 8696TIP3    H126033   3.536   3.485   1.633
 8696TIP3    H226034   3.480   3.543   1.506
 8697TIP3   OH226035   3.086   3.461   3.472
 8697TIP3    H126036   3.163   3.484   3.524
 8697TIP3    H226037   3.020   3.433   3.536
 8698TIP3   OH226038   4.438   7.279   4.432
 8698TIP3    H126039   4.528   7.246   4.422
 8698TIP3    H226040   4.382   7.205   4.411
 8699TIP3   OH226041   4.334   3.174   1.889
 8699TIP3    H126042   4.322   3.268   1.901
 8699TIP3    H226043   4.268   3.149   1.825
 8700TIP3   OH226044   4.626   6.493   4.646
 8700TIP3    H126045   4.669   6.446   4.575
 8700TIP3    H226046   4.554   6.436   4.672
 8701TIP3   OH226047   1.706   3.785   5.555
 8701TIP3    H126048   1.669   3.699   5.538
 8701TIP3    H226049   1.754   3.775   5.638
 8702TIP3   OH226050   2.332   7.487   2.415
 8702TIP3    H126051   2.381   7.562   2.449
 8702TIP3    H226052   2.242   7.503   2.443
 8703TIP3   OH226053   1.011   5.110   5.286
 8703TIP3    H126054   0.988   5.183   5.228
 8703TIP3    H226055   1.086   5.143   5.336
 8704TIP3   OH226056   0.831   1.914   0.262
 8704TIP3    H126057   0.844   1.854   0.335
 8704TIP3    H226058   0.894   1.985   0.278
 8705TIP3   OH226059   6.908   1.499   2.074
 8705TIP3    H126060   6.979   1.514   2.136
 8705TIP3    H226061   6.952   1.474   1.992
 8706TIP3   OH226062   1.916   2.514   6.203
 8706TIP3    H126063   1.979   2.532   6.273
 8706TIP3    H226064   1.964   2.531   6.122
 8707TIP3   OH226065   2.343   6.227   1.969
 8707TIP3    H126066   2.433   6.258   1.981
 8707TIP3    H226067   2.352   6.151   1.911
 8708TIP3   OH226068   3.707   4.358   0.959
 8708TIP3    H126069   3.741   4.321   0.877
 8708TIP3    H226070   3.687   4.449   0.937
 8709TIP3   OH226071   0.797   0.774   2.432
 8709TIP3    H126072   0.728   0.813   2.486
 8709TIP3    H226073   0.781   0.680   2.437
 8710TIP3   OH226074   4.058   1.234   0.180
 8710TIP3    H126075   4.118   1.174   0.134
 8710TIP3    H226076   3.999   1.176   0.228
 8711TIP3   OH226077   6.875   5.163   2.463
 8711TIP3    H126078   6.835   5.076   2.456
 8711TIP3    H226079   6.890   5.174   2.557
 8712TIP3   OH226080   6.752   2.090   4.817
 8712TIP3    H126081   6.760   2.091   4.912
 8712TIP3    H226082   6.679   2.149   4.798
 8713TIP3   OH226083   4.451   5.628   2.613
 8713TIP3    H126084   4.364   5.625   2.653
 8713TIP3    H226085   4.487   5.712   2.641
 8714TIP3   OH226086   6.881   0.215   2.391
 8714TIP3    H126087   6.929   0.175   2.464
 8714TIP3    H226088   6.811   0.153   2.372
 8715TIP3   OH226089   3.738   6.012   3.792
 8715TIP3    H126090   3.681   5.938   3.812
 8715TIP3    H226091   3.813   6.001   3.851
 8716TIP3   OH226092   4.790   3.664   4.938
 8716TIP3    H126093   4.717   3.694   4.884
 8716TIP3    H226094   4.761   3.679   5.028
 8717TIP3   OH226095   6.949   4.747   0.165
 8717TIP3    H126096   7.033   4.708   0.191
 8717TIP3    H226097   6.928   4.807   0.236
 8718TIP3   OH226098   6.932   7.393   0.076
 8718TIP3    H126099   6.960   7.417  -0.012
 8718TIP3    H226100   6.939   7.474   0.127
 8719TIP3   OH226101   3.751   4.201   1.761
 8719TIP3    H126102   3.674   4.246   1.728
 8719TIP3    H226103   3.819   4.216   1.695
 8720TIP3   OH226104   4.506   6.313   0.118
 8720TIP3    H126105   4.584   6.312   0.063
 8720TIP3    H226106   4.436   6.282   0.061
 8721TIP3   OH226107   2.431   2.317   4.012
 8721TIP3    H126108   2.495   2.374   4.054
 8721TIP3    H226109   2.468   2.300   3.925
 8722TIP3   OH226110   4.969   4.812   1.877
 8722TIP3    H126111   5.045   4.867   1.862
 8722TIP3    H226112   4.954   4.768   1.794
 8723TIP3   OH226113   3.682   5.034   1.615
 8723TIP3    H126114   3.729   5.107   1.654
 8723TIP3    H226115   3.633   5.073   1.542
 8724TIP3   OH226116   5.092   7.369   4.603
 8724TIP3    H126117   5.146   7.337   4.675
 8724TIP3    H226118   5.021   7.305   4.596
 8725TIP3   OH226119   4.351   2.451   6.060
 8725TIP3    H126120   4.256   2.441   6.064
 8725TIP3    H226121   4.377   2.398   5.985
 8726TIP3   OH226122   4.367   1.300   4.322
 8726TIP3    H126123   4.277   1.329   4.309
 8726TIP3    H226124   4.378   1.228   4.259
 8727TIP3   OH226125   4.894   2.766   1.829
 8727TIP3    H126126   4.815   2.780   1.776
 8727TIP3    H226127   4.944   2.848   1.820
 8728TIP3   OH226128   5.810   6.752   5.219
 8728TIP3    H126129   5.800   6.741   5.124
 8728TIP3    H226130   5.903   6.733   5.235
 8729TIP3   OH226131   0.187   1.893   2.569
 8729TIP3    H126132   0.233   1.809   2.575
 8729TIP3    H226133   0.174   1.906   2.475
 8730TIP3   OH226134   2.213   4.693   5.620
 8730TIP3    H126135   2.249   4.749   5.552
 8730TIP3    H226136   2.153   4.634   5.574
 8731TIP3   OH226137   7.171   3.927   1.253
 8731TIP3    H126138   7.239   3.979   1.295
 8731TIP3    H226139   7.136   3.983   1.185
 8732TIP3   OH226140   0.206   5.233   3.047
 8732TIP3    H126141   0.140   5.172   3.014
 8732TIP3    H226142   0.155   5.301   3.092
 8733TIP3   OH226143   6.269   3.144   6.667
 8733TIP3    H126144   6.357   3.107   6.677
 8733TIP3    H226145   6.227   3.089   6.601
 8734TIP3   OH226146   6.796   5.440   6.198
 8734TIP3    H126147   6.733   5.443   6.270
 8734TIP3    H226148   6.800   5.347   6.172
 8735TIP3   OH226149   7.180   5.384   0.080
 8735TIP3    H126150   7.116   5.332   0.031
 8735TIP3    H226151   7.128   5.427   0.149
 8736TIP3   OH226152   7.359   3.532   2.897
 8736TIP3    H126153   7.400   3.578   2.824
 8736TIP3    H226154   7.426   3.471   2.927
 8737TIP3   OH226155   0.635   1.207   6.257
 8737TIP3    H126156   0.604   1.297   6.270
 8737TIP3    H226157   0.555   1.155   6.253
 8738TIP3   OH226158   1.198   1.415   4.783
 8738TIP3    H126159   1.243   1.333   4.764
 8738TIP3    H226160   1.268   1.480   4.788
 8739TIP3   OH226161   2.567   6.825   0.838
 8739TIP3    H126162   2.474   6.834   0.817
 8739TIP3    H226163   2.586   6.900   0.896
 8740TIP3   OH226164   7.945   1.749   0.571
 8740TIP3    H126165   7.914   1.682   0.632
 8740TIP3    H226166   7.904   1.830   0.601
 8741TIP3   OH226167   7.083   4.804   2.558
 8741TIP3    H126168   7.110   4.854   2.635
 8741TIP3    H226169   6.994   4.836   2.539
 8742TIP3   OH226170   4.960   3.098   5.909
 8742TIP3    H126171   4.916   3.171   5.952
 8742TIP3    H226172   4.973   3.033   5.978
 8743TIP3   OH226173   7.644   0.491   3.950
 8743TIP3    H126174   7.620   0.533   3.867
 8743TIP3    H226175   7.728   0.448   3.932
 8744TIP3   OH226176   4.542   5.624   2.332
 8744TIP3    H126177   4.581   5.539   2.310
 8744TIP3    H226178   4.479   5.604   2.401
 8745TIP3   OH226179   3.359   3.383   4.863
 8745TIP3    H126180   3.407   3.415   4.787
 8745TIP3    H226181   3.278   3.433   4.864
 8746TIP3   OH226182   0.502   5.416   4.755
 8746TIP3    H126183   0.574   5.425   4.817
 8746TIP3    H226184   0.463   5.504   4.751
 8747TIP3   OH226185   6.880   2.982   1.302
 8747TIP3    H126186   6.925   2.899   1.288
 8747TIP3    H226187   6.852   3.009   1.215
 8748TIP3   OH226188   5.184   4.314   3.987
 8748TIP3    H126189   5.111   4.333   4.046
 8748TIP3    H226190   5.260   4.357   4.029
 8749TIP3   OH226191   7.186   2.531   3.707
 8749TIP3    H126192   7.173   2.610   3.759
 8749TIP3    H226193   7.280   2.514   3.712
 8750TIP3   OH226194   3.507   4.396   4.326
 8750TIP3    H126195   3.493   4.358   4.239
 8750TIP3    H226196   3.489   4.324   4.387
 8751TIP3   OH226197   4.268   2.399   5.777
 8751TIP3    H126198   4.337   2.442   5.726
 8751TIP3    H226199   4.188   2.444   5.751
 8752TIP3   OH226200   7.828   2.002   2.333
 8752TIP3    H126201   7.869   1.959   2.408
 8752TIP3    H226202   7.838   2.096   2.349
 8753TIP3   OH226203   2.911   0.850   0.688
 8753TIP3    H126204   2.956   0.857   0.604
 8753TIP3    H226205   2.937   0.764   0.722
 8754TIP3   OH226206   5.520   5.084   4.551
 8754TIP3    H126207   5.582   5.043   4.612
 8754TIP3    H226208   5.544   5.177   4.550
 8755TIP3   OH226209   1.109   3.326   5.765
 8755TIP3    H126210   1.078   3.293   5.850
 8755TIP3    H226211   1.163   3.401   5.787
 8756TIP3   OH226212   2.731   3.691   6.487
 8756TIP3    H126213   2.682   3.686   6.569
 8756TIP3    H226214   2.702   3.615   6.437
 8757TIP3   OH226215   4.042   2.777   2.130
 8757TIP3    H126216   4.083   2.857   2.097
 8757TIP3    H226217   4.045   2.786   2.226
 8758TIP3   OH226218   6.472   1.982   2.971
 8758TIP3    H126219   6.406   1.953   2.909
 8758TIP3    H226220   6.506   2.064   2.935
 8759TIP3   OH226221   0.745   3.446   6.405
 8759TIP3    H126222   0.671   3.387   6.416
 8759TIP3    H226223   0.757   3.486   6.491
 8760TIP3   OH226224   0.169   1.926   5.147
 8760TIP3    H126225   0.136   2.006   5.107
 8760TIP3    H226226   0.111   1.857   5.113
 8761TIP3   OH226227   3.495   1.880   4.021
 8761TIP3    H126228   3.575   1.924   4.050
 8761TIP3    H226229   3.453   1.943   3.962
 8762TIP3   OH226230   5.336   1.275   4.661
 8762TIP3    H126231   5.342   1.308   4.572
 8762TIP3    H226232   5.352   1.352   4.716
 8763TIP3   OH226233   0.838   1.124   0.134
 8763TIP3    H126234   0.934   1.117   0.134
 8763TIP3    H226235   0.814   1.118   0.042
 8764TIP3   OH226236   6.661   0.214   0.136
 8764TIP3    H126237   6.619   0.176   0.059
 8764TIP3    H226238   6.730   0.152   0.159
 8765TIP3   OH226239   6.138   0.384   5.366
 8765TIP3    H126240   6.163   0.404   5.456
 8765TIP3    H226241   6.209   0.330   5.333
 8766TIP3   OH226242   2.515   0.173   4.834
 8766TIP3    H126243   2.511   0.157   4.928
 8766TIP3    H226244   2.451   0.112   4.796
 8767TIP3   OH226245   2.556   6.017   2.763
 8767TIP3    H126246   2.564   5.922   2.753
 8767TIP3    H226247   2.524   6.048   2.678
 8768TIP3   OH226248   3.023   7.639   3.690
 8768TIP3    H126249   2.932   7.614   3.674
 8768TIP3    H226250   3.055   7.574   3.752
 8769TIP3   OH226251   4.295   3.449   2.681
 8769TIP3    H126252   4.246   3.468   2.761
 8769TIP3    H226253   4.335   3.363   2.697
 8770TIP3   OH226254   4.767   4.187   3.123
 8770TIP3    H126255   4.709   4.121   3.160
 8770TIP3    H226256   4.709   4.253   3.086
 8771TIP3   OH226257   6.719   7.026   6.616
 8771TIP3    H126258   6.742   6.962   6.684
 8771TIP3    H226259   6.783   7.011   6.546
 8772TIP3   OH226260   3.050   1.357   1.778
 8772TIP3    H126261   2.993   1.434   1.775
 8772TIP3    H226262   3.127   1.387   1.826
 8773TIP3   OH226263   0.426   7.683   1.337
 8773TIP3    H126264   0.406   7.666   1.245
 8773TIP3    H226265   0.507   7.634   1.353
 8774TIP3   OH226266   3.386   3.551   5.663
 8774TIP3    H126267   3.481   3.566   5.670
 8774TIP3    H226268   3.365   3.568   5.572
 8775TIP3   OH226269   4.207   0.427   0.813
 8775TIP3    H126270   4.232   0.407   0.723
 8775TIP3    H226271   4.122   0.384   0.824
 8776TIP3   OH226272   6.549   2.511   2.711
 8776TIP3    H126273   6.468   2.474   2.744
 8776TIP3    H226274   6.557   2.477   2.621
 8777TIP3   OH226275   0.230   0.637   3.654
 8777TIP3    H126276   0.147   0.661   3.694
 8777TIP3    H226277   0.248   0.549   3.688
 8778TIP3   OH226278   8.130   1.089   1.867
 8778TIP3    H126279   8.192   1.047   1.927
 8778TIP3    H226280   8.178   1.163   1.831
 8779TIP3   OH226281   1.293   2.466   4.486
 8779TIP3    H126282   1.228   2.512   4.433
 8779TIP3    H226283   1.358   2.434   4.423
 8780TIP3   OH226284   7.085   1.570   3.613
 8780TIP3    H126285   7.039   1.638   3.564
 8780TIP3    H226286   7.164   1.613   3.646
 8781TIP3   OH226287   6.062   2.259   4.649
 8781TIP3    H126288   5.985   2.301   4.611
 8781TIP3    H226289   6.132   2.275   4.586
 8782TIP3   OH226290   0.698   5.613   6.065
 8782TIP3    H126291   0.634   5.638   6.132
 8782TIP3    H226292   0.758   5.554   6.110
 8783TIP3   OH226293   2.551   2.351   5.340
 8783TIP3    H126294   2.539   2.423   5.277
 8783TIP3    H226295   2.535   2.391   5.425
 8784TIP3   OH226296   7.873   1.290   6.064
 8784TIP3    H126297   7.810   1.222   6.039
 8784TIP3    H226298   7.950   1.241   6.092
 8785TIP3   OH226299   3.128   5.846   4.601
 8785TIP3    H126300   3.072   5.785   4.554
 8785TIP3    H226301   3.090   5.849   4.689
 8786TIP3   OH226302   6.810  -0.064   4.246
 8786TIP3    H126303   6.854   0.004   4.196
 8786TIP3    H226304   6.816  -0.035   4.337
 8787TIP3   OH226305   6.669   0.548   1.335
 8787TIP3    H126306   6.711   0.472   1.373
 8787TIP3    H226307   6.740   0.611   1.323
 8788TIP3   OH226308   5.363   6.719   6.716
 8788TIP3    H126309   5.378   6.811   6.694
 8788TIP3    H226310   5.268   6.712   6.725
 8789TIP3   OH226311   1.614   4.642   6.242
 8789TIP3    H126312   1.604   4.546   6.244
 8789TIP3    H226313   1.654   4.660   6.157
 8790TIP3   OH226314   7.795   3.633   4.227
 8790TIP3    H126315   7.857   3.700   4.256
 8790TIP3    H226316   7.816   3.556   4.279
 8791TIP3   OH226317   0.921   3.913   5.767
 8791TIP3    H126318   0.974   3.838   5.794
 8791TIP3    H226319   0.936   3.919   5.672
 8792TIP3   OH226320   1.798   2.386   0.823
 8792TIP3    H126321   1.825   2.419   0.737
 8792TIP3    H226322   1.830   2.451   0.885
 8793TIP3   OH226323   6.101   0.115   6.192
 8793TIP3    H126324   6.053   0.105   6.110
 8793TIP3    H226325   6.034   0.117   6.260
 8794TIP3   OH226326   2.832   6.065   1.071
 8794TIP3    H126327   2.853   5.999   1.137
 8794TIP3    H226328   2.778   6.130   1.117
 8795TIP3   OH226329   3.859   2.336   1.807
 8795TIP3    H126330   3.862   2.388   1.888
 8795TIP3    H226331   3.902   2.391   1.742
 8796TIP3   OH226332   7.702   2.082   3.269
 8796TIP3    H126333   7.682   1.989   3.260
 8796TIP3    H226334   7.685   2.119   3.182
 8797TIP3   OH226335   5.977   1.268   4.134
 8797TIP3    H126336   6.044   1.213   4.173
 8797TIP3    H226337   5.918   1.207   4.090
 8798TIP3   OH226338   6.040   1.832   1.995
 8798TIP3    H126339   5.951   1.825   1.959
 8798TIP3    H226340   6.097   1.817   1.920
 8799TIP3   OH226341   1.293   6.649   3.545
 8799TIP3    H126342   1.213   6.675   3.591
 8799TIP3    H226343   1.361   6.650   3.612
 8800TIP3   OH226344   6.021   1.693   3.253
 8800TIP3    H126345   6.009   1.619   3.312
 8800TIP3    H226346   6.056   1.763   3.308
 8801TIP3   OH226347   6.363   7.133   2.680
 8801TIP3    H126348   6.401   7.151   2.593
 8801TIP3    H226349   6.347   7.039   2.680
 8802TIP3   OH226350   5.651   6.012   4.679
 8802TIP3    H126351   5.600   5.934   4.702
 8802TIP3    H226352   5.637   6.072   4.753
 8803TIP3   OH226353   1.141   4.740   4.460
 8803TIP3    H126354   1.138   4.772   4.550
 8803TIP3    H226355   1.207   4.671   4.461
 8804TIP3   OH226356   4.897   0.279   2.599
 8804TIP3    H126357   4.977   0.240   2.632
 8804TIP3    H226358   4.916   0.301   2.508
 8805TIP3   OH226359   0.836   1.228   6.019
 8805TIP3    H126360   0.784   1.213   5.941
 8805TIP3    H226361   0.772   1.234   6.090
 8806TIP3   OH226362   7.567   1.906   6.155
 8806TIP3    H126363   7.547   1.988   6.110
 8806TIP3    H226364   7.552   1.926   6.248
 8807TIP3   OH226365   0.613   0.428   6.373
 8807TIP3    H126366   0.665   0.472   6.440
 8807TIP3    H226367   0.672   0.363   6.335
 8808TIP3   OH226368   7.842   1.227   4.464
 8808TIP3    H126369   7.824   1.321   4.473
 8808TIP3    H226370   7.802   1.203   4.380
 8809TIP3   OH226371   0.715   2.839   3.116
 8809TIP3    H126372   0.706   2.865   3.025
 8809TIP3    H226373   0.804   2.865   3.140
 8810TIP3   OH226374   2.083   5.367   5.581
 8810TIP3    H126375   2.097   5.389   5.673
 8810TIP3    H226376   2.046   5.447   5.543
 8811TIP3   OH226377   4.990   2.484   4.849
 8811TIP3    H126378   4.983   2.495   4.754
 8811TIP3    H226379   5.042   2.405   4.861
 8812TIP3   OH226380   6.692   7.422   1.574
 8812TIP3    H126381   6.734   7.342   1.543
 8812TIP3    H226382   6.647   7.397   1.655
 8813TIP3   OH226383   1.014   1.757   0.727
 8813TIP3    H126384   0.959   1.707   0.787
 8813TIP3    H226385   1.014   1.846   0.762
 8814TIP3   OH226386   6.464   5.487   2.351
 8814TIP3    H126387   6.546   5.511   2.308
 8814TIP3    H226388   6.407   5.563   2.336
 8815TIP3   OH226389   6.972   6.729   4.338
 8815TIP3    H126390   7.003   6.675   4.265
 8815TIP3    H226391   6.877   6.721   4.335
 8816TIP3   OH226392   6.751   0.962   2.913
 8816TIP3    H126393   6.841   0.944   2.940
 8816TIP3    H226394   6.740   1.056   2.927
 8817TIP3   OH226395   5.629   0.436   4.982
 8817TIP3    H126396   5.572   0.496   5.030
 8817TIP3    H226397   5.624   0.466   4.891
 8818TIP3   OH226398   0.790   7.518   5.062
 8818TIP3    H126399   0.847   7.593   5.075
 8818TIP3    H226400   0.779   7.511   4.967
 8819TIP3   OH226401   4.452   7.419   1.517
 8819TIP3    H126402   4.503   7.365   1.457
 8819TIP3    H226403   4.367   7.377   1.520
 8820TIP3   OH226404   6.753   0.530   1.054
 8820TIP3    H126405   6.768   0.437   1.037
 8820TIP3    H226406   6.751   0.537   1.149
 8821TIP3   OH226407   5.005   3.683   5.422
 8821TIP3    H126408   5.089   3.638   5.426
 8821TIP3    H226409   5.007   3.744   5.496
 8822TIP3   OH226410   1.460   5.201   0.172
 8822TIP3    H126411   1.516   5.273   0.201
 8822TIP3    H226412   1.410   5.177   0.250
 8823TIP3   OH226413   6.275   4.797   2.030
 8823TIP3    H126414   6.230   4.856   1.969
 8823TIP3    H226415   6.297   4.720   1.976
 8824TIP3   OH226416   3.725   5.011   6.015
 8824TIP3    H126417   3.801   4.955   6.003
 8824TIP3    H226418   3.723   5.029   6.109
 8825TIP3   OH226419   7.140   4.978   3.332
 8825TIP3    H126420   7.046   4.989   3.313
 8825TIP3    H226421   7.145   4.980   3.428
 8826TIP3   OH226422   2.550   5.759   2.608
 8826TIP3    H126423   2.588   5.712   2.534
 8826TIP3    H226424   2.543   5.693   2.677
 8827TIP3   OH226425   1.182   2.827   2.219
 8827TIP3    H126426   1.163   2.909   2.174
 8827TIP3    H226427   1.212   2.768   2.150
 8828TIP3   OH226428   6.560   6.644   3.984
 8828TIP3    H126429   6.515   6.624   4.066
 8828TIP3    H226430   6.558   6.562   3.935
 8829TIP3   OH226431   2.260   6.374   1.085
 8829TIP3    H126432   2.243   6.355   0.992
 8829TIP3    H226433   2.213   6.456   1.101
 8830TIP3   OH226434   6.911   7.186   0.514
 8830TIP3    H126435   6.872   7.170   0.600
 8830TIP3    H226436   6.982   7.247   0.531
 8831TIP3   OH226437   6.442   3.962   4.261
 8831TIP3    H126438   6.465   3.884   4.311
 8831TIP3    H226439   6.347   3.957   4.250
 8832TIP3   OH226440   1.775   5.912   0.011
 8832TIP3    H126441   1.783   6.002  -0.021
 8832TIP3    H226442   1.688   5.908   0.051
 8833TIP3   OH226443   3.552   6.114   1.964
 8833TIP3    H126444   3.644   6.100   1.942
 8833TIP3    H226445   3.522   6.179   1.901
 8834TIP3   OH226446   3.734   4.335   4.890
 8834TIP3    H126447   3.749   4.428   4.875
 8834TIP3    H226448   3.767   4.320   4.979
 8835TIP3   OH226449   5.378   1.703   5.385
 8835TIP3    H126450   5.308   1.675   5.444
 8835TIP3    H226451   5.451   1.724   5.444
 8836TIP3   OH226452   6.334   7.306   1.981
 8836TIP3    H126453   6.247   7.318   2.019
 8836TIP3    H226454   6.319   7.303   1.887
 8837TIP3   OH226455   5.560   5.387   1.378
 8837TIP3    H126456   5.484   5.419   1.330
 8837TIP3    H226457   5.527   5.372   1.467
 8838TIP3   OH226458   5.213   5.519   0.242
 8838TIP3    H126459   5.121   5.492   0.242
 8838TIP3    H226460   5.250   5.478   0.164
 8839TIP3   OH226461   6.832   0.225   3.091
 8839TIP3    H126462   6.828   0.174   3.010
 8839TIP3    H226463   6.794   0.169   3.157
 8840TIP3   OH226464   8.115   2.852   2.817
 8840TIP3    H126465   8.133   2.938   2.856
 8840TIP3    H226466   8.024   2.859   2.786
 8841TIP3   OH226467   3.070   7.128   4.223
 8841TIP3    H126468   3.006   7.124   4.152
 8841TIP3    H226469   3.058   7.045   4.270
 8842TIP3   OH226470   0.714   7.100   4.284
 8842TIP3    H126471   0.713   7.156   4.207
 8842TIP3    H226472   0.623   7.071   4.294
 8843TIP3   OH226473   7.381   7.406   1.612
 8843TIP3    H126474   7.323   7.389   1.686
 8843TIP3    H226475   7.467   7.375   1.641
 8844TIP3   OH226476   7.787   6.740   5.751
 8844TIP3    H126477   7.765   6.763   5.661
 8844TIP3    H226478   7.881   6.755   5.757
 8845TIP3   OH226479   4.330   0.863   6.446
 8845TIP3    H126480   4.278   0.786   6.424
 8845TIP3    H226481   4.292   0.896   6.528
 8846TIP3   OH226482   3.521   3.320   6.318
 8846TIP3    H126483   3.469   3.311   6.238
 8846TIP3    H226484   3.552   3.410   6.317
 8847TIP3   OH226485   2.985   4.719   6.310
 8847TIP3    H126486   2.971   4.717   6.215
 8847TIP3    H226487   2.935   4.644   6.342
 8848TIP3   OH226488   1.492   1.325   3.990
 8848TIP3    H126489   1.513   1.367   4.073
 8848TIP3    H226490   1.404   1.289   4.004
 8849TIP3   OH226491   4.613   6.740   3.074
 8849TIP3    H126492   4.574   6.664   3.032
 8849TIP3    H226493   4.707   6.731   3.058
 8850TIP3   OH226494   3.136   0.911   2.647
 8850TIP3    H126495   3.069   0.855   2.608
 8850TIP3    H226496   3.090   0.955   2.719
 8851TIP3   OH226497   2.347   0.272   3.031
 8851TIP3    H126498   2.355   0.236   2.942
 8851TIP3    H226499   2.376   0.363   3.022
 8852TIP3   OH226500   3.400   0.932   4.352
 8852TIP3    H126501   3.455   0.855   4.367
 8852TIP3    H226502   3.462   1.005   4.349
 8853TIP3   OH226503   0.516   6.385   4.866
 8853TIP3    H126504   0.445   6.433   4.825
 8853TIP3    H226505   0.555   6.334   4.795
 8854TIP3   OH226506   5.849   1.039   5.543
 8854TIP3    H126507   5.764   1.010   5.509
 8854TIP3    H226508   5.870   0.976   5.612
 8855TIP3   OH226509   0.196   3.172   4.614
 8855TIP3    H126510   0.235   3.169   4.702
 8855TIP3    H226511   0.239   3.247   4.572
 8856TIP3   OH226512   5.797   1.048   4.078
 8856TIP3    H126513   5.729   1.110   4.050
 8856TIP3    H226514   5.758   0.962   4.065
 8857TIP3   OH226515   3.900   2.621   6.214
 8857TIP3    H126516   3.824   2.652   6.263
 8857TIP3    H226517   3.927   2.697   6.162
 8858TIP3   OH226518   1.296   2.727   3.950
 8858TIP3    H126519   1.222   2.680   3.913
 8858TIP3    H226520   1.340   2.662   4.005
 8859TIP3   OH226521   3.566   4.083   5.946
 8859TIP3    H126522   3.631   4.115   5.883
 8859TIP3    H226523   3.616   4.027   6.006
 8860TIP3   OH226524   1.731   3.028   5.024
 8860TIP3    H126525   1.662   2.987   5.077
 8860TIP3    H226526   1.683   3.081   4.959
 8861TIP3   OH226527   7.690   1.522   5.544
 8861TIP3    H126528   7.660   1.461   5.612
 8861TIP3    H226529   7.692   1.470   5.464
 8862TIP3   OH226530   6.284   2.465   2.697
 8862TIP3    H126531   6.225   2.461   2.621
 8862TIP3    H226532   6.272   2.381   2.741
 8863TIP3   OH226533   4.556   7.335   2.065
 8863TIP3    H126534   4.576   7.375   1.980
 8863TIP3    H226535   4.585   7.244   2.055
 8864TIP3   OH226536   6.832   7.094   2.450
 8864TIP3    H126537   6.853   7.179   2.411
 8864TIP3    H226538   6.794   7.115   2.535
 8865TIP3   OH226539   5.324   2.223   0.232
 8865TIP3    H126540   5.284   2.257   0.312
 8865TIP3    H226541   5.409   2.266   0.227
 8866TIP3   OH226542   2.114   0.717   5.432
 8866TIP3    H126543   2.132   0.681   5.345
 8866TIP3    H226544   2.131   0.645   5.493
 8867TIP3   OH226545   2.863   6.217   3.147
 8867TIP3    H126546   2.871   6.127   3.115
 8867TIP3    H226547   2.923   6.222   3.222
 8868TIP3   OH226548   6.869   0.637   5.864
 8868TIP3    H126549   6.917   0.719   5.864
 8868TIP3    H226550   6.819   0.638   5.945
 8869TIP3   OH226551   1.215   2.929   1.702
 8869TIP3    H126552   1.261   2.857   1.659
 8869TIP3    H226553   1.181   2.892   1.783
 8870TIP3   OH226554   1.119   3.528   5.067
 8870TIP3    H126555   1.112   3.553   4.975
 8870TIP3    H226556   1.124   3.432   5.065
 8871TIP3   OH226557   2.105   3.514   4.412
 8871TIP3    H126558   2.156   3.592   4.434
 8871TIP3    H226559   2.085   3.474   4.496
 8872TIP3   OH226560   1.868   2.194   2.311
 8872TIP3    H126561   1.798   2.130   2.304
 8872TIP3    H226562   1.923   2.178   2.234
 8873TIP3   OH226563   0.113   2.931   0.882
 8873TIP3    H126564   0.161   2.862   0.929
 8873TIP3    H226565   0.180   2.978   0.833
 8874TIP3   OH226566   0.760   2.681   2.098
 8874TIP3    H126567   0.687   2.656   2.040
 8874TIP3    H226568   0.719   2.697   2.183
 8875TIP3   OH226569   5.077   3.352   0.898
 8875TIP3    H126570   5.156   3.407   0.902
 8875TIP3    H226571   5.108   3.268   0.863
 8876TIP3   OH226572   3.397   3.994   6.335
 8876TIP3    H126573   3.492   4.000   6.334
 8876TIP3    H226574   3.376   3.945   6.415
 8877TIP3   OH226575   6.824   4.959   3.037
 8877TIP3    H126576   6.819   4.905   2.958
 8877TIP3    H226577   6.784   4.905   3.106
 8878TIP3   OH226578   5.849   0.742   4.220
 8878TIP3    H126579   5.837   0.652   4.191
 8878TIP3    H226580   5.928   0.771   4.175
 8879TIP3   OH226581   7.283   7.496   4.359
 8879TIP3    H126582   7.312   7.587   4.346
 8879TIP3    H226583   7.304   7.477   4.450
 8880TIP3   OH226584   3.881   0.161   1.428
 8880TIP3    H126585   3.820   0.130   1.362
 8880TIP3    H226586   3.967   0.129   1.399
 8881TIP3   OH226587   7.242   2.631   3.044
 8881TIP3    H126588   7.300   2.614   3.119
 8881TIP3    H226589   7.165   2.672   3.083
 8882TIP3   OH226590   7.529   2.330   6.258
 8882TIP3    H126591   7.619   2.362   6.244
 8882TIP3    H226592   7.498   2.310   6.170
 8883TIP3   OH226593   3.662   5.416   2.301
 8883TIP3    H126594   3.635   5.391   2.389
 8883TIP3    H226595   3.583   5.454   2.261
 8884TIP3   OH226596   7.000   7.514   5.998
 8884TIP3    H126597   6.955   7.434   5.973
 8884TIP3    H226598   7.090   7.501   5.968
 8885TIP3   OH226599   3.568   6.227   1.299
 8885TIP3    H126600   3.521   6.310   1.301
 8885TIP3    H226601   3.532   6.178   1.373
 8886TIP3   OH226602   6.758   2.328   5.418
 8886TIP3    H126603   6.811   2.248   5.416
 8886TIP3    H226604   6.819   2.396   5.449
 8887TIP3   OH226605   5.358   7.793   3.860
 8887TIP3    H126606   5.337   7.779   3.953
 8887TIP3    H226607   5.274   7.795   3.816
 8888TIP3   OH226608   2.721   7.647   2.034
 8888TIP3    H126609   2.715   7.598   2.116
 8888TIP3    H226610   2.697   7.736   2.057
 8889TIP3   OH226611   4.398   4.674   3.961
 8889TIP3    H126612   4.450   4.741   4.006
 8889TIP3    H226613   4.389   4.604   4.026
 8890TIP3   OH226614   1.587   7.714   3.749
 8890TIP3    H126615   1.537   7.779   3.797
 8890TIP3    H226616   1.675   7.752   3.741
 8891TIP3   OH226617   1.788   0.684   4.461
 8891TIP3    H126618   1.849   0.631   4.513
 8891TIP3    H226619   1.728   0.721   4.525
 8892TIP3   OH226620   3.818   1.109   0.573
 8892TIP3    H126621   3.775   1.147   0.650
 8892TIP3    H226622   3.852   1.025   0.603
 8893TIP3   OH226623   5.238   4.386   2.920
 8893TIP3    H126624   5.292   4.444   2.974
 8893TIP3    H226625   5.151   4.392   2.958
 8894TIP3   OH226626   7.024   0.428   5.722
 8894TIP3    H126627   6.965   0.472   5.782
 8894TIP3    H226628   6.980   0.345   5.701
 8895TIP3   OH226629   7.580   2.114   0.767
 8895TIP3    H126630   7.517   2.077   0.829
 8895TIP3    H226631   7.532   2.184   0.724
 8896TIP3   OH226632   1.413   7.009   2.596
 8896TIP3    H126633   1.375   7.093   2.572
 8896TIP3    H226634   1.434   6.967   2.513
 8897TIP3   OH226635  -0.012   1.836   5.951
 8897TIP3    H126636  -0.020   1.779   6.028
 8897TIP3    H226637  -0.077   1.905   5.965
 8898TIP3   OH226638   2.956   0.610   1.288
 8898TIP3    H126639   2.872   0.578   1.322
 8898TIP3    H226640   2.948   0.705   1.291
 8899TIP3   OH226641   7.605   1.341   1.078
 8899TIP3    H126642   7.630   1.306   1.164
 8899TIP3    H226643   7.658   1.291   1.016
 8900TIP3   OH226644   5.733   1.704   3.727
 8900TIP3    H126645   5.727   1.739   3.638
 8900TIP3    H226646   5.723   1.782   3.783
 8901TIP3   OH226647   2.708   7.487   5.111
 8901TIP3    H126648   2.738   7.577   5.104
 8901TIP3    H226649   2.777   7.435   5.070
 8902TIP3   OH226650   2.880   5.519   4.434
 8902TIP3    H126651   2.835   5.584   4.489
 8902TIP3    H226652   2.910   5.569   4.358
 8903TIP3   OH226653   1.837   2.373   2.762
 8903TIP3    H126654   1.858   2.311   2.693
 8903TIP3    H226655   1.922   2.405   2.793
 8904TIP3   OH226656   1.098   4.153   0.439
 8904TIP3    H126657   1.034   4.083   0.455
 8904TIP3    H226658   1.179   4.121   0.480
 8905TIP3   OH226659   7.542   0.408   4.762
 8905TIP3    H126660   7.522   0.394   4.854
 8905TIP3    H226661   7.610   0.344   4.742
 8906TIP3   OH226662   4.199   6.532   5.859
 8906TIP3    H126663   4.127   6.509   5.919
 8906TIP3    H226664   4.271   6.476   5.886
 8907TIP3   OH226665   7.435   6.372   5.886
 8907TIP3    H126666   7.406   6.292   5.843
 8907TIP3    H226667   7.432   6.352   5.979
 8908TIP3   OH226668   4.617   5.548   0.038
 8908TIP3    H126669   4.622   5.502   0.122
 8908TIP3    H226670   4.523   5.566   0.027
 8909TIP3   OH226671   2.301   6.464   5.985
 8909TIP3    H126672   2.352   6.447   6.063
 8909TIP3    H226673   2.211   6.473   6.016
 8910TIP3   OH226674   0.081   1.785   1.759
 8910TIP3    H126675   0.050   1.870   1.727
 8910TIP3    H226676   0.113   1.741   1.680
 8911TIP3   OH226677   0.953   2.394   3.646
 8911TIP3    H126678   0.867   2.433   3.628
 8911TIP3    H226679   0.937   2.337   3.721
 8912TIP3   OH226680   0.554   5.103   4.665
 8912TIP3    H126681   0.557   5.136   4.755
 8912TIP3    H226682   0.465   5.070   4.654
 8913TIP3   OH226683   1.792   7.313   3.232
 8913TIP3    H126684   1.877   7.318   3.275
 8913TIP3    H226685   1.804   7.249   3.161
 8914TIP3   OH226686   2.342   4.593   0.903
 8914TIP3    H126687   2.357   4.500   0.920
 8914TIP3    H226688   2.429   4.633   0.911
 8915TIP3   OH226689   7.499   2.278   2.769
 8915TIP3    H126690   7.436   2.347   2.787
 8915TIP3    H226691   7.526   2.247   2.856
 8916TIP3   OH226692   1.414   3.483   2.158
 8916TIP3    H126693   1.498   3.529   2.168
 8916TIP3    H226694   1.431   3.419   2.089
 8917TIP3   OH226695   0.390   3.090   2.537
 8917TIP3    H126696   0.471   3.140   2.546
 8917TIP3    H226697   0.410   3.023   2.471
 8918TIP3   OH226698   7.217   5.672   6.635
 8918TIP3    H126699   7.217   5.697   6.727
 8918TIP3    H226700   7.309   5.654   6.615
 8919TIP3   OH226701   0.079   4.815   6.297
 8919TIP3    H126702   0.061   4.895   6.248
 8919TIP3    H226703   0.000   4.762   6.288
 8920TIP3   OH226704   2.355   7.198   5.410
 8920TIP3    H126705   2.344   7.210   5.504
 8920TIP3    H226706   2.440   7.237   5.390
 8921TIP3   OH226707   3.292   1.067   5.922
 8921TIP3    H126708   3.265   1.153   5.890
 8921TIP3    H226709   3.263   1.065   6.013
 8922TIP3   OH226710   3.749   2.419   3.007
 8922TIP3    H126711   3.794   2.383   3.084
 8922TIP3    H226712   3.656   2.411   3.028
 8923TIP3   OH226713   6.247   6.182   1.546
 8923TIP3    H126714   6.196   6.200   1.467
 8923TIP3    H226715   6.200   6.110   1.589
 8924TIP3   OH226716   2.941   2.259   5.453
 8924TIP3    H126717   2.954   2.354   5.447
 8924TIP3    H226718   2.964   2.226   5.366
 8925TIP3   OH226719   7.279   3.068   0.895
 8925TIP3    H126720   7.364   3.087   0.935
 8925TIP3    H226721   7.297   3.065   0.801
 8926TIP3   OH226722   1.385   4.101   3.978
 8926TIP3    H126723   1.370   4.086   4.071
 8926TIP3    H226724   1.355   4.191   3.963
 8927TIP3   OH226725   6.383   2.200   5.550
 8927TIP3    H126726   6.461   2.178   5.601
 8927TIP3    H226727   6.352   2.282   5.589
 8928TIP3   OH226728   5.775   3.665   1.790
 8928TIP3    H126729   5.782   3.580   1.834
 8928TIP3    H226730   5.803   3.728   1.857
 8929TIP3   OH226731   7.488   0.377   0.213
 8929TIP3    H126732   7.517   0.406   0.126
 8929TIP3    H226733   7.518   0.446   0.272
 8930TIP3   OH226734   5.367   2.567   0.317
 8930TIP3    H126735   5.391   2.586   0.226
 8930TIP3    H226736   5.449   2.544   0.359
 8931TIP3   OH226737   1.693   3.199   5.724
 8931TIP3    H126738   1.640   3.141   5.778
 8931TIP3    H226739   1.780   3.195   5.762
 8932TIP3   OH226740   4.835   1.826   5.145
 8932TIP3    H126741   4.780   1.882   5.200
 8932TIP3    H226742   4.923   1.835   5.182
 8933TIP3   OH226743   5.291   5.010   3.869
 8933TIP3    H126744   5.375   4.992   3.911
 8933TIP3    H226745   5.226   4.996   3.938
 8934TIP3   OH226746   2.900   3.152   6.189
 8934TIP3    H126747   2.829   3.205   6.152
 8934TIP3    H226748   2.922   3.195   6.271
 8935TIP3   OH226749   0.649   3.883   5.854
 8935TIP3    H126750   0.738   3.896   5.821
 8935TIP3    H226751   0.647   3.791   5.881
 8936TIP3   OH226752   4.661   7.159   1.164
 8936TIP3    H126753   4.617   7.174   1.080
 8936TIP3    H226754   4.700   7.072   1.155
 8937TIP3   OH226755   4.108   7.540   2.426
 8937TIP3    H126756   4.066   7.580   2.502
 8937TIP3    H226757   4.165   7.473   2.462
 8938TIP3   OH226758   0.993   7.057   1.464
 8938TIP3    H126759   1.027   7.145   1.445
 8938TIP3    H226760   0.906   7.073   1.500
 8939TIP3   OH226761   7.025   4.663   3.962
 8939TIP3    H126762   6.941   4.693   3.927
 8939TIP3    H226763   7.024   4.569   3.948
 8940TIP3   OH226764   1.296   5.316   3.740
 8940TIP3    H126765   1.390   5.322   3.726
 8940TIP3    H226766   1.262   5.400   3.709
 8941TIP3   OH226767   8.044   1.978   5.918
 8941TIP3    H126768   7.964   1.958   5.967
 8941TIP3    H226769   8.016   2.040   5.851
 8942TIP3   OH226770   4.489   2.463   1.366
 8942TIP3    H126771   4.415   2.524   1.368
 8942TIP3    H226772   4.481   2.419   1.281
 8943TIP3   OH226773   2.501   6.858   3.203
 8943TIP3    H126774   2.537   6.772   3.186
 8943TIP3    H226775   2.434   6.844   3.270
 8944TIP3   OH226776   6.558   2.588   5.005
 8944TIP3    H126777   6.600   2.502   5.004
 8944TIP3    H226778   6.617   2.643   5.057
 8945TIP3   OH226779   3.989   2.742   4.070
 8945TIP3    H126780   3.935   2.814   4.037
 8945TIP3    H226781   3.988   2.752   4.165
 8946TIP3   OH226782   0.041   7.432   2.421
 8946TIP3    H126783   0.047   7.500   2.354
 8946TIP3    H226784   0.070   7.475   2.502
 8947TIP3   OH226785   1.859   4.150   3.731
 8947TIP3    H126786   1.780   4.144   3.785
 8947TIP3    H226787   1.826   4.147   3.641
 8948TIP3   OH226788   6.228   5.610   2.314
 8948TIP3    H126789   6.180   5.679   2.268
 8948TIP3    H226790   6.188   5.606   2.401
 8949TIP3   OH226791   2.087   5.485   4.845
 8949TIP3    H126792   2.042   5.429   4.909
 8949TIP3    H226793   2.111   5.563   4.894
 8950TIP3   OH226794   3.785   7.791   0.306
 8950TIP3    H126795   3.769   7.781   0.213
 8950TIP3    H226796   3.854   7.727   0.326
 8951TIP3   OH226797   6.607   7.333   1.808
 8951TIP3    H126798   6.525   7.376   1.833
 8951TIP3    H226799   6.619   7.265   1.874
 8952TIP3   OH226800   2.387   0.799   3.317
 8952TIP3    H126801   2.394   0.887   3.354
 8952TIP3    H226802   2.316   0.806   3.253
 8953TIP3   OH226803   4.081   2.758   2.874
 8953TIP3    H126804   4.169   2.722   2.872
 8953TIP3    H226805   4.062   2.771   2.967
 8954TIP3   OH226806   1.045   2.473   1.819
 8954TIP3    H126807   0.999   2.545   1.775
 8954TIP3    H226808   1.072   2.415   1.748
 8955TIP3   OH226809   0.136   1.265   6.706
 8955TIP3    H126810   0.111   1.204   6.776
 8955TIP3    H226811   0.067   1.332   6.707
 8956TIP3   OH226812   5.069   3.585   4.505
 8956TIP3    H126813   5.042   3.600   4.595
 8956TIP3    H226814   5.070   3.672   4.465
 8957TIP3   OH226815   1.742   6.306   3.855
 8957TIP3    H126816   1.649   6.294   3.835
 8957TIP3    H226817   1.788   6.273   3.778
 8958TIP3   OH226818   3.028   7.745   2.746
 8958TIP3    H126819   2.955   7.795   2.781
 8958TIP3    H226820   2.994   7.656   2.736
 8959TIP3   OH226821   3.542   5.193   3.333
 8959TIP3    H126822   3.629   5.231   3.348
 8959TIP3    H226823   3.561   5.102   3.309
 8960TIP3   OH226824   2.760   4.206   4.004
 8960TIP3    H126825   2.742   4.146   3.932
 8960TIP3    H226826   2.674   4.231   4.036
 8961TIP3   OH226827   1.577   2.464   4.924
 8961TIP3    H126828   1.551   2.542   4.876
 8961TIP3    H226829   1.646   2.425   4.871
 8962TIP3   OH226830   4.052   1.055   0.952
 8962TIP3    H126831   4.096   1.137   0.931
 8962TIP3    H226832   3.975   1.080   1.003
 8963TIP3   OH226833   1.311   6.159   6.122
 8963TIP3    H126834   1.231   6.174   6.072
 8963TIP3    H226835   1.355   6.244   6.122
 8964TIP3   OH226836   7.292   1.529   2.059
 8964TIP3    H126837   7.225   1.555   1.995
 8964TIP3    H226838   7.365   1.498   2.006
 8965TIP3   OH226839   4.786   2.179   3.578
 8965TIP3    H126840   4.812   2.254   3.525
 8965TIP3    H226841   4.807   2.205   3.668
 8966TIP3   OH226842   2.559   2.907   4.740
 8966TIP3    H126843   2.481   2.851   4.739
 8966TIP3    H226844   2.629   2.850   4.770
 8967TIP3   OH226845   6.060   7.249   6.546
 8967TIP3    H126846   5.990   7.313   6.557
 8967TIP3    H226847   6.053   7.193   6.623
 8968TIP3   OH226848   7.212   7.069   0.472
 8968TIP3    H126849   7.288   7.098   0.522
 8968TIP3    H226850   7.178   7.149   0.431
 8969TIP3   OH226851   4.621   3.033   3.864
 8969TIP3    H126852   4.577   3.043   3.779
 8969TIP3    H226853   4.576   2.959   3.905
 8970TIP3   OH226854   3.230   1.401   4.185
 8970TIP3    H126855   3.191   1.399   4.272
 8970TIP3    H226856   3.300   1.466   4.191
 8971TIP3   OH226857   6.199   4.479   2.185
 8971TIP3    H126858   6.189   4.551   2.247
 8971TIP3    H226859   6.110   4.464   2.152
 8972TIP3   OH226860   5.055   4.045   2.171
 8972TIP3    H126861   4.976   3.991   2.174
 8972TIP3    H226862   5.075   4.054   2.078
 8973TIP3   OH226863   1.566   5.295   3.677
 8973TIP3    H126864   1.645   5.278   3.625
 8973TIP3    H226865   1.538   5.209   3.707
 8974TIP3   OH226866   6.448   2.789   2.627
 8974TIP3    H126867   6.412   2.758   2.544
 8974TIP3    H226868   6.543   2.788   2.614
 8975TIP3   OH226869   0.684   4.970   1.596
 8975TIP3    H126870   0.745   4.978   1.523
 8975TIP3    H226871   0.733   4.924   1.664
 8976TIP3   OH226872   8.147   0.284   5.016
 8976TIP3    H126873   8.212   0.345   5.049
 8976TIP3    H226874   8.118   0.323   4.933
 8977TIP3   OH226875   5.300   1.287   1.891
 8977TIP3    H126876   5.207   1.288   1.869
 8977TIP3    H226877   5.344   1.285   1.806
 8978TIP3   OH226878   5.788   3.912   3.878
 8978TIP3    H126879   5.752   3.999   3.891
 8978TIP3    H226880   5.803   3.878   3.966
 8979TIP3   OH226881   3.947   2.954   5.993
 8979TIP3    H126882   3.996   3.030   6.024
 8979TIP3    H226883   3.855   2.982   5.994
 8980TIP3   OH226884   7.989   2.527   0.985
 8980TIP3    H126885   8.028   2.443   1.010
 8980TIP3    H226886   7.991   2.580   1.065
 8981TIP3   OH226887   0.019   4.205   4.474
 8981TIP3    H126888  -0.008   4.295   4.489
 8981TIP3    H226889   0.111   4.211   4.450
 8982TIP3   OH226890   6.094   1.427   5.184
 8982TIP3    H126891   6.002   1.421   5.209
 8982TIP3    H226892   6.091   1.451   5.091
 8983TIP3   OH226893   2.394   5.038   5.730
 8983TIP3    H126894   2.313   5.022   5.681
 8983TIP3    H226895   2.420   5.126   5.704
 8984TIP3   OH226896   2.812   1.274   1.656
 8984TIP3    H126897   2.807   1.185   1.620
 8984TIP3    H226898   2.892   1.274   1.709
 8985TIP3   OH226899   6.302   6.357   2.240
 8985TIP3    H126900   6.368   6.381   2.175
 8985TIP3    H226901   6.352   6.327   2.315
 8986TIP3   OH226902   2.754   3.998   4.341
 8986TIP3    H126903   2.798   3.969   4.421
 8986TIP3    H226904   2.804   4.075   4.313
 8987TIP3   OH226905   7.279   0.096   1.567
 8987TIP3    H126906   7.265   0.140   1.483
 8987TIP3    H226907   7.282   0.003   1.546
 8988TIP3   OH226908   0.234   0.851   1.159
 8988TIP3    H126909   0.233   0.774   1.216
 8988TIP3    H226910   0.196   0.820   1.077
 8989TIP3   OH226911   0.077   2.077   0.312
 8989TIP3    H126912  -0.006   2.089   0.359
 8989TIP3    H226913   0.127   2.016   0.367
 8990TIP3   OH226914   5.001   2.256   0.336
 8990TIP3    H126915   4.936   2.198   0.295
 8990TIP3    H226916   5.048   2.200   0.398
 8991TIP3   OH226917   7.186   5.566   3.967
 8991TIP3    H126918   7.164   5.644   3.917
 8991TIP3    H226919   7.167   5.589   4.058
 8992TIP3   OH226920   6.442   6.257   6.509
 8992TIP3    H126921   6.517   6.199   6.514
 8992TIP3    H226922   6.473   6.340   6.544
 8993TIP3   OH226923   6.323   2.705   2.850
 8993TIP3    H126924   6.258   2.649   2.808
 8993TIP3    H226925   6.387   2.724   2.781
 8994TIP3   OH226926   2.487   1.781   3.796
 8994TIP3    H126927   2.444   1.851   3.846
 8994TIP3    H226928   2.563   1.824   3.756
 8995TIP3   OH226929   2.571   7.054   1.342
 8995TIP3    H126930   2.526   7.084   1.421
 8995TIP3    H226931   2.500   7.023   1.285
 8996TIP3   OH226932   6.549   0.813   2.724
 8996TIP3    H126933   6.591   0.892   2.756
 8996TIP3    H226934   6.617   0.746   2.725
 8997TIP3   OH226935   5.309   5.549   4.095
 8997TIP3    H126936   5.378   5.590   4.146
 8997TIP3    H226937   5.336   5.561   4.004
 8998TIP3   OH226938   3.871   5.825   2.859
 8998TIP3    H126939   3.886   5.913   2.892
 8998TIP3    H226940   3.865   5.836   2.764
 8999TIP3   OH226941   2.989   4.686   4.054
 8999TIP3    H126942   2.941   4.668   3.973
 8999TIP3    H226943   2.943   4.760   4.093
 9000TIP3   OH226944   5.426   1.607   3.141
 9000TIP3    H126945   5.352   1.549   3.160
 9000TIP3    H226946   5.503   1.553   3.162
 9001TIP3   OH226947   0.202   5.745   4.386
 9001TIP3    H126948   0.214   5.733   4.292
 9001TIP3    H226949   0.257   5.677   4.426
 9002TIP3   OH226950   3.835   6.038   3.388
 9002TIP3    H126951   3.754   6.019   3.436
 9002TIP3    H226952   3.902   6.046   3.456
 9003TIP3   OH226953   6.660   7.673   3.955
 9003TIP3    H126954   6.727   7.687   3.888
 9003TIP3    H226955   6.664   7.580   3.974
 9004TIP3   OH226956   0.321   3.817   2.738
 9004TIP3    H126957   0.327   3.912   2.732
 9004TIP3    H226958   0.296   3.801   2.829
 9005TIP3   OH226959   3.570   2.737   0.078
 9005TIP3    H126960   3.577   2.644   0.054
 9005TIP3    H226961   3.650   2.776   0.043
 9006TIP3   OH226962   2.315   3.634   0.696
 9006TIP3    H126963   2.230   3.677   0.684
 9006TIP3    H226964   2.358   3.685   0.765
 9007TIP3   OH226965   4.681   6.145   3.184
 9007TIP3    H126966   4.731   6.227   3.186
 9007TIP3    H226967   4.638   6.142   3.270
 9008TIP3   OH226968   4.081   4.730   5.241
 9008TIP3    H126969   4.023   4.742   5.316
 9008TIP3    H226970   4.110   4.818   5.218
 9009TIP3   OH226971   5.933   7.692   3.199
 9009TIP3    H126972   5.979   7.744   3.132
 9009TIP3    H226973   5.964   7.727   3.282
 9010TIP3   OH226974   1.673   4.572   6.802
 9010TIP3    H126975   1.581   4.572   6.776
 9010TIP3    H226976   1.722   4.568   6.720
 9011TIP3   OH226977   0.761   3.653   4.857
 9011TIP3    H126978   0.765   3.565   4.820
 9011TIP3    H226979   0.694   3.698   4.805
 9012TIP3   OH226980   5.442   4.617   1.622
 9012TIP3    H126981   5.496   4.589   1.695
 9012TIP3    H226982   5.353   4.619   1.657
 9013TIP3   OH226983   2.808   6.699   3.123
 9013TIP3    H126984   2.779   6.608   3.113
 9013TIP3    H226985   2.902   6.696   3.102
 9014TIP3   OH226986   6.390   5.752   6.434
 9014TIP3    H126987   6.295   5.763   6.431
 9014TIP3    H226988   6.421   5.786   6.350
 9015TIP3   OH226989   2.326   3.194   2.821
 9015TIP3    H126990   2.236   3.174   2.796
 9015TIP3    H226991   2.330   3.177   2.915
 9016TIP3   OH226992   3.868   7.678   6.130
 9016TIP3    H126993   3.875   7.717   6.218
 9016TIP3    H226994   3.943   7.714   6.083
 9017TIP3   OH226995   6.841   3.784   5.204
 9017TIP3    H126996   6.818   3.788   5.111
 9017TIP3    H226997   6.870   3.873   5.225
 9018TIP3   OH226998   7.162   4.019   1.797
 9018TIP3    H126999   7.131   3.931   1.819
 9018TIP3    H227000   7.082   4.071   1.788
 9019TIP3   OH227001   6.330   3.132   3.633
 9019TIP3    H127002   6.390   3.184   3.579
 9019TIP3    H227003   6.339   3.168   3.721
 9020TIP3   OH227004   5.692   2.196   6.607
 9020TIP3    H127005   5.670   2.178   6.515
 9020TIP3    H227006   5.693   2.110   6.649
 9021TIP3   OH227007   6.296   0.406   5.588
 9021TIP3    H127008   6.384   0.387   5.622
 9021TIP3    H227009   6.308   0.485   5.534
 9022TIP3   OH227010   1.531   6.976   3.540
 9022TIP3    H127011   1.566   6.950   3.455
 9022TIP3    H227012   1.484   6.899   3.572
 9023TIP3   OH227013   2.159   0.474   5.556
 9023TIP3    H127014   2.134   0.435   5.640
 9023TIP3    H227015   2.227   0.416   5.522
 9024TIP3   OH227016   5.544   1.445   1.867
 9024TIP3    H127017   5.450   1.428   1.880
 9024TIP3    H227018   5.567   1.393   1.791
 9025TIP3   OH227019   4.679   6.744   2.018
 9025TIP3    H127020   4.760   6.789   2.043
 9025TIP3    H227021   4.644   6.709   2.099
 9026TIP3   OH227022   4.494   3.618   0.586
 9026TIP3    H127023   4.578   3.647   0.550
 9026TIP3    H227024   4.443   3.592   0.510
 9027TIP3   OH227025   6.685   3.794   3.664
 9027TIP3    H127026   6.619   3.842   3.713
 9027TIP3    H227027   6.649   3.787   3.575
 9028TIP3   OH227028   0.800   3.077   5.401
 9028TIP3    H127029   0.747   3.148   5.363
 9028TIP3    H227030   0.810   3.015   5.329
 9029TIP3   OH227031   6.343   1.962   4.884
 9029TIP3    H127032   6.321   1.984   4.974
 9029TIP3    H227033   6.258   1.955   4.840
 9030TIP3   OH227034   8.189   3.146   0.687
 9030TIP3    H127035   8.130   3.195   0.744
 9030TIP3    H227036   8.275   3.188   0.699
 9031TIP3   OH227037   7.223   5.565   3.031
 9031TIP3    H127038   7.146   5.535   3.080
 9031TIP3    H227039   7.280   5.604   3.098
 9032TIP3   OH227040   5.731   1.899   0.476
 9032TIP3    H127041   5.797   1.921   0.542
 9032TIP3    H227042   5.699   1.813   0.503
 9033TIP3   OH227043   8.003   7.513   4.507
 9033TIP3    H127044   8.030   7.427   4.474
 9033TIP3    H227045   7.909   7.505   4.522
 9034TIP3   OH227046   7.945   0.931   3.468
 9034TIP3    H127047   8.016   0.996   3.474
 9034TIP3    H227048   7.894   0.959   3.391
 9035TIP3   OH227049   3.493   6.096   2.246
 9035TIP3    H127050   3.524   6.093   2.156
 9035TIP3    H227051   3.511   6.186   2.275
 9036TIP3   OH227052   0.852   7.333   2.772
 9036TIP3    H127053   0.907   7.277   2.717
 9036TIP3    H227054   0.842   7.414   2.722
 9037TIP3   OH227055   2.338   4.396   6.827
 9037TIP3    H127056   2.249   4.380   6.795
 9037TIP3    H227057   2.354   4.488   6.808
 9038TIP3   OH227058   0.994   3.189   4.025
 9038TIP3    H127059   1.048   3.112   4.005
 9038TIP3    H227060   0.914   3.175   3.975
 9039TIP3   OH227061   2.267   0.593   3.905
 9039TIP3    H127062   2.347   0.555   3.942
 9039TIP3    H227063   2.294   0.631   3.822
 9040TIP3   OH227064   6.142   0.912   2.470
 9040TIP3    H127065   6.235   0.912   2.450
 9040TIP3    H227066   6.099   0.918   2.385
 9041TIP3   OH227067   3.570   4.641   1.524
 9041TIP3    H127068   3.598   4.685   1.605
 9041TIP3    H227069   3.503   4.698   1.488
 9042TIP3   OH227070   1.600   3.851   0.509
 9042TIP3    H127071   1.604   3.942   0.537
 9042TIP3    H227072   1.525   3.815   0.556
 9043TIP3   OH227073   8.161   2.932   5.791
 9043TIP3    H127074   8.225   2.888   5.735
 9043TIP3    H227075   8.076   2.913   5.750
 9044TIP3   OH227076   5.082   4.058   1.897
 9044TIP3    H127077   5.012   4.120   1.879
 9044TIP3    H227078   5.095   4.012   1.814
 9045TIP3   OH227079   2.819   6.402   3.606
 9045TIP3    H127080   2.818   6.470   3.674
 9045TIP3    H227081   2.750   6.429   3.544
 9046TIP3   OH227082   4.885   2.201   5.032
 9046TIP3    H127083   4.859   2.148   4.957
 9046TIP3    H227084   4.804   2.243   5.062
 9047TIP3   OH227085   4.800   2.283   6.227
 9047TIP3    H127086   4.880   2.287   6.280
 9047TIP3    H227087   4.772   2.373   6.219
 9048TIP3   OH227088   1.693   5.257   1.202
 9048TIP3    H127089   1.610   5.282   1.241
 9048TIP3    H227090   1.735   5.202   1.268
 9049TIP3   OH227091   0.480   1.496   6.370
 9049TIP3    H127092   0.429   1.465   6.444
 9049TIP3    H227093   0.431   1.468   6.293
 9050TIP3   OH227094   1.999   5.281   0.118
 9050TIP3    H127095   1.952   5.197   0.121
 9050TIP3    H227096   1.939   5.340   0.073
 9051TIP3   OH227097   7.647   2.013   1.353
 9051TIP3    H127098   7.611   1.941   1.301
 9051TIP3    H227099   7.571   2.058   1.388
 9052TIP3   OH227100   0.457   0.297   0.970
 9052TIP3    H127101   0.538   0.343   0.946
 9052TIP3    H227102   0.486   0.222   1.022
 9053TIP3   OH227103   4.694   5.868   3.891
 9053TIP3    H127104   4.659   5.786   3.856
 9053TIP3    H227105   4.668   5.935   3.828
 9054TIP3   OH227106   8.163   4.675   6.216
 9054TIP3    H127107   8.189   4.583   6.208
 9054TIP3    H227108   8.075   4.671   6.254
 9055TIP3   OH227109   4.343   1.477   0.716
 9055TIP3    H127110   4.265   1.456   0.664
 9055TIP3    H227111   4.354   1.402   0.774
 9056TIP3   OH227112   2.932   1.803   3.036
 9056TIP3    H127113   2.845   1.782   3.002
 9056TIP3    H227114   2.967   1.868   2.975
 9057TIP3   OH227115   1.252   4.924   4.256
 9057TIP3    H127116   1.177   4.956   4.207
 9057TIP3    H227117   1.215   4.883   4.334
 9058TIP3   OH227118   4.465   2.803   1.093
 9058TIP3    H127119   4.430   2.881   1.050
 9058TIP3    H227120   4.419   2.798   1.176
 9059TIP3   OH227121   7.117   5.853   3.832
 9059TIP3    H127122   7.195   5.909   3.826
 9059TIP3    H227123   7.066   5.877   3.755
 9060TIP3   OH227124   2.063   4.924   4.826
 9060TIP3    H127125   2.090   4.859   4.761
 9060TIP3    H227126   2.144   4.953   4.867
 9061TIP3   OH227127   4.834   0.648   0.263
 9061TIP3    H127128   4.869   0.678   0.347
 9061TIP3    H227129   4.787   0.724   0.228
 9062TIP3   OH227130   0.293   2.771   6.565
 9062TIP3    H127131   0.347   2.747   6.490
 9062TIP3    H227132   0.324   2.858   6.590
 9063TIP3   OH227133   7.523   2.615   2.117
 9063TIP3    H127134   7.475   2.685   2.073
 9063TIP3    H227135   7.607   2.654   2.140
 9064TIP3   OH227136   4.427   5.010   2.575
 9064TIP3    H127137   4.371   4.977   2.505
 9064TIP3    H227138   4.401   5.101   2.586
 9065TIP3   OH227139   3.077   1.780   0.613
 9065TIP3    H127140   3.074   1.717   0.685
 9065TIP3    H227141   3.047   1.862   0.652
 9066TIP3   OH227142   1.902   5.384   6.036
 9066TIP3    H127143   1.823   5.385   5.982
 9066TIP3    H227144   1.953   5.458   6.005
 9067TIP3   OH227145   6.271   1.243   2.412
 9067TIP3    H127146   6.329   1.194   2.470
 9067TIP3    H227147   6.194   1.262   2.466
 9068TIP3   OH227148   2.415   0.789   0.955
 9068TIP3    H127149   2.367   0.769   1.035
 9068TIP3    H227150   2.349   0.784   0.886
 9069TIP3   OH227151   4.702   2.359   6.654
 9069TIP3    H127152   4.666   2.391   6.737
 9069TIP3    H227153   4.663   2.273   6.642
 9070TIP3   OH227154   4.162   3.037   3.321
 9070TIP3    H127155   4.101   3.110   3.327
 9070TIP3    H227156   4.148   2.987   3.402
 9071TIP3   OH227157   6.282   1.221   4.327
 9071TIP3    H127158   6.364   1.173   4.338
 9071TIP3    H227159   6.215   1.162   4.359
 9072TIP3   OH227160   0.852   5.730   1.140
 9072TIP3    H127161   0.940   5.708   1.110
 9072TIP3    H227162   0.839   5.821   1.115
 9073TIP3   OH227163   2.649   5.353   2.793
 9073TIP3    H127164   2.730   5.303   2.789
 9073TIP3    H227165   2.668   5.434   2.745
 9074TIP3   OH227166   3.277   6.216   6.589
 9074TIP3    H127167   3.214   6.278   6.627
 9074TIP3    H227168   3.297   6.253   6.502
 9075TIP3   OH227169   1.039   3.275   6.349
 9075TIP3    H127170   1.123   3.262   6.392
 9075TIP3    H227171   0.974   3.257   6.417
 9076TIP3   OH227172   2.095   0.890   5.657
 9076TIP3    H127173   2.176   0.885   5.707
 9076TIP3    H227174   2.102   0.821   5.592
 9077TIP3   OH227175   7.999   0.101   5.173
 9077TIP3    H127176   8.031   0.191   5.170
 9077TIP3    H227177   7.932   0.097   5.104
 9078TIP3   OH227178   4.528   3.588   3.786
 9078TIP3    H127179   4.503   3.499   3.813
 9078TIP3    H227180   4.546   3.634   3.868
 9079TIP3   OH227181   7.501   5.428   3.367
 9079TIP3    H127182   7.541   5.509   3.336
 9079TIP3    H227183   7.502   5.436   3.463
 9080TIP3   OH227184   3.241   3.397   6.348
 9080TIP3    H127185   3.260   3.365   6.260
 9080TIP3    H227186   3.296   3.344   6.405
 9081TIP3   OH227187   0.073   0.443   0.236
 9081TIP3    H127188   0.027   0.377   0.183
 9081TIP3    H227189   0.022   0.448   0.317
 9082TIP3   OH227190   5.727   2.156   4.794
 9082TIP3    H127191   5.776   2.090   4.844
 9082TIP3    H227192   5.636   2.140   4.817
 9083TIP3   OH227193   7.278   1.752   3.693
 9083TIP3    H127194   7.269   1.847   3.699
 9083TIP3    H227195   7.302   1.724   3.782
 9084TIP3   OH227196   3.861   2.108   1.177
 9084TIP3    H127197   3.939   2.129   1.230
 9084TIP3    H227198   3.855   2.180   1.114
 9085TIP3   OH227199   3.534   2.936   2.189
 9085TIP3    H127200   3.611   2.989   2.167
 9085TIP3    H227201   3.568   2.867   2.246
 9086TIP3   OH227202   2.373   2.499   1.340
 9086TIP3    H127203   2.430   2.564   1.300
 9086TIP3    H227204   2.425   2.460   1.409
 9087TIP3   OH227205   3.444   0.257   3.542
 9087TIP3    H127206   3.419   0.302   3.622
 9087TIP3    H227207   3.477   0.326   3.484
 9088TIP3   OH227208   4.475   6.913   2.865
 9088TIP3    H127209   4.521   6.922   2.948
 9088TIP3    H227210   4.441   6.823   2.866
 9089TIP3   OH227211   5.728   5.253   5.457
 9089TIP3    H127212   5.718   5.159   5.471
 9089TIP3    H227213   5.644   5.281   5.420
 9090TIP3   OH227214   0.169   4.584   0.804
 9090TIP3    H127215   0.111   4.612   0.875
 9090TIP3    H227216   0.255   4.578   0.845
 9091TIP3   OH227217   2.358   3.653   1.526
 9091TIP3    H127218   2.430   3.604   1.486
 9091TIP3    H227219   2.281   3.631   1.473
 9092TIP3   OH227220   1.188   2.862   5.859
 9092TIP3    H127221   1.260   2.922   5.880
 9092TIP3    H227222   1.217   2.818   5.779
 9093TIP3   OH227223   4.709   4.165   4.482
 9093TIP3    H127224   4.758   4.097   4.436
 9093TIP3    H227225   4.776   4.219   4.523
 9094TIP3   OH227226   1.400   4.467   6.571
 9094TIP3    H127227   1.460   4.447   6.499
 9094TIP3    H227228   1.380   4.382   6.609
 9095TIP3   OH227229   2.923   2.649   2.202
 9095TIP3    H127230   3.014   2.646   2.234
 9095TIP3    H227231   2.871   2.611   2.273
 9096TIP3   OH227232   4.734   0.270   3.298
 9096TIP3    H127233   4.776   0.276   3.384
 9096TIP3    H227234   4.685   0.187   3.302
 9097TIP3   OH227235   7.894   4.596   2.227
 9097TIP3    H127236   7.816   4.571   2.177
 9097TIP3    H227237   7.933   4.512   2.252
 9098TIP3   OH227238   0.115   1.047   3.447
 9098TIP3    H127239   0.051   1.011   3.508
 9098TIP3    H227240   0.146   0.971   3.397
 9099TIP3   OH227241   5.961   1.123   0.023
 9099TIP3    H127242   6.004   1.080  -0.051
 9099TIP3    H227243   6.020   1.109   0.097
 9100TIP3   OH227244   1.685   0.843   4.905
 9100TIP3    H127245   1.696   0.800   4.820
 9100TIP3    H227246   1.652   0.774   4.962
 9101TIP3   OH227247   0.894   5.421   5.871
 9101TIP3    H127248   0.970   5.372   5.902
 9101TIP3    H227249   0.921   5.457   5.787
 9102TIP3   OH227250   4.714   2.743   1.415
 9102TIP3    H127251   4.743   2.652   1.419
 9102TIP3    H227252   4.715   2.764   1.321
 9103TIP3   OH227253   7.063   3.611   5.322
 9103TIP3    H127254   6.991   3.565   5.365
 9103TIP3    H227255   7.021   3.667   5.257
 9104TIP3   OH227256   0.494   4.439   0.898
 9104TIP3    H127257   0.561   4.389   0.851
 9104TIP3    H227258   0.496   4.525   0.856
 9105TIP3   OH227259   4.642   2.700   3.286
 9105TIP3    H127260   4.563   2.681   3.236
 9105TIP3    H227261   4.697   2.751   3.226
 9106TIP3   OH227262   6.419   4.354   2.283
 9106TIP3    H127263   6.405   4.266   2.249
 9106TIP3    H227264   6.349   4.406   2.244
 9107TIP3   OH227265   6.740   5.864   0.398
 9107TIP3    H127266   6.829   5.827   0.400
 9107TIP3    H227267   6.737   5.923   0.474
 9108TIP3   OH227268   8.014   2.004   4.995
 9108TIP3    H127269   7.983   2.031   4.909
 9108TIP3    H227270   8.005   2.082   5.050
 9109TIP3   OH227271   7.145   5.426   4.842
 9109TIP3    H127272   7.229   5.381   4.837
 9109TIP3    H227273   7.167   5.519   4.839
 9110TIP3   OH227274   2.396   2.821   1.832
 9110TIP3    H127275   2.368   2.812   1.923
 9110TIP3    H227276   2.408   2.731   1.802
 9111TIP3   OH227277   6.831   1.053   3.195
 9111TIP3    H127278   6.861   1.144   3.193
 9111TIP3    H227279   6.738   1.058   3.174
 9112TIP3   OH227280   5.906   2.041   4.085
 9112TIP3    H127281   5.979   2.032   4.145
 9112TIP3    H227282   5.898   2.135   4.069
 9113TIP3   OH227283   6.343   0.956   2.966
 9113TIP3    H127284   6.339   1.049   2.944
 9113TIP3    H227285   6.339   0.911   2.882
 9114TIP3   OH227286   0.073   2.518   5.712
 9114TIP3    H127287   0.003   2.584   5.707
 9114TIP3    H227288   0.086   2.490   5.622
 9115TIP3   OH227289   4.299   6.277   2.262
 9115TIP3    H127290   4.302   6.232   2.178
 9115TIP3    H227291   4.319   6.209   2.326
 9116TIP3   OH227292   3.147   6.183   5.849
 9116TIP3    H127293   3.136   6.088   5.850
 9116TIP3    H227294   3.074   6.216   5.901
 9117TIP3   OH227295   6.662   3.687   0.728
 9117TIP3    H127296   6.668   3.773   0.686
 9117TIP3    H227297   6.752   3.655   0.729
 9118TIP3   OH227298   0.434   3.220   5.429
 9118TIP3    H127299   0.474   3.159   5.366
 9118TIP3    H227300   0.505   3.240   5.490
 9119TIP3   OH227301   6.623   4.630   2.847
 9119TIP3    H127302   6.588   4.705   2.799
 9119TIP3    H227303   6.587   4.639   2.936
 9120TIP3   OH227304   2.868   2.036   2.714
 9120TIP3    H127305   2.773   2.027   2.702
 9120TIP3    H227306   2.901   1.947   2.708
 9121TIP3   OH227307   1.145   5.083   0.838
 9121TIP3    H127308   1.185   5.169   0.855
 9121TIP3    H227309   1.213   5.020   0.862
 9122TIP3   OH227310   5.864   2.811   0.742
 9122TIP3    H127311   5.810   2.879   0.782
 9122TIP3    H227312   5.878   2.840   0.652
 9123TIP3   OH227313   6.671   3.993   4.818
 9123TIP3    H127314   6.655   3.998   4.724
 9123TIP3    H227315   6.651   4.081   4.851
 9124TIP3   OH227316   8.201   4.772   2.599
 9124TIP3    H127317   8.269   4.830   2.635
 9124TIP3    H227318   8.137   4.832   2.560
 9125TIP3   OH227319   0.045   7.797   6.172
 9125TIP3    H127320   0.034   7.717   6.120
 9125TIP3    H227321  -0.013   7.785   6.247
 9126TIP3   OH227322   3.449   6.587   5.256
 9126TIP3    H127323   3.383   6.643   5.217
 9126TIP3    H227324   3.440   6.600   5.350
 9127TIP3   OH227325   5.361   1.735   2.245
 9127TIP3    H127326   5.403   1.744   2.331
 9127TIP3    H227327   5.313   1.818   2.234
 9128TIP3   OH227328   6.740   7.158   3.084
 9128TIP3    H127329   6.815   7.129   3.137
 9128TIP3    H227330   6.754   7.117   2.999
 9129TIP3   OH227331   1.574   0.762   5.232
 9129TIP3    H127332   1.626   0.840   5.214
 9129TIP3    H227333   1.484   0.790   5.218
 9130TIP3   OH227334   3.782   6.630   1.713
 9130TIP3    H127335   3.807   6.719   1.737
 9130TIP3    H227336   3.697   6.640   1.671
 9131TIP3   OH227337   1.173   7.686   1.325
 9131TIP3    H127338   1.211   7.628   1.391
 9131TIP3    H227339   1.112   7.630   1.276
 9132TIP3   OH227340   1.467   7.406   1.376
 9132TIP3    H127341   1.537   7.354   1.416
 9132TIP3    H227342   1.512   7.478   1.333
 9133TIP3   OH227343   0.243   3.583   4.666
 9133TIP3    H127344   0.193   3.639   4.725
 9133TIP3    H227345   0.201   3.594   4.580
 9134TIP3   OH227346   6.600   4.097   5.458
 9134TIP3    H127347   6.538   4.045   5.509
 9134TIP3    H227348   6.686   4.061   5.482
 9135TIP3   OH227349   5.548   3.252   4.892
 9135TIP3    H127350   5.552   3.164   4.854
 9135TIP3    H227351   5.633   3.263   4.934
 9136TIP3   OH227352   3.739   1.739   3.737
 9136TIP3    H127353   3.832   1.718   3.739
 9136TIP3    H227354   3.704   1.686   3.666
 9137TIP3   OH227355   5.939   3.330   3.451
 9137TIP3    H127356   5.857   3.367   3.486
 9137TIP3    H227357   5.932   3.342   3.357
 9138TIP3   OH227358   3.152   2.854   4.646
 9138TIP3    H127359   3.148   2.863   4.551
 9138TIP3    H227360   3.244   2.867   4.668
 9139TIP3   OH227361   0.801   5.405   4.790
 9139TIP3    H127362   0.879   5.353   4.806
 9139TIP3    H227363   0.781   5.444   4.876
 9140TIP3   OH227364   1.268   2.131   4.015
 9140TIP3    H127365   1.234   2.179   4.090
 9140TIP3    H227366   1.328   2.067   4.053
 9141TIP3   OH227367   5.496   4.875   0.682
 9141TIP3    H127368   5.422   4.861   0.741
 9141TIP3    H227369   5.514   4.788   0.646
 9142TIP3   OH227370   7.265   2.128   6.071
 9142TIP3    H127371   7.251   2.177   5.990
 9142TIP3    H227372   7.333   2.065   6.049
 9143TIP3   OH227373   3.671   0.531   6.725
 9143TIP3    H127374   3.737   0.473   6.688
 9143TIP3    H227375   3.618   0.474   6.781
 9144TIP3   OH227376   2.943   1.426   2.979
 9144TIP3    H127377   2.850   1.430   2.957
 9144TIP3    H227378   2.949   1.462   3.067
 9145TIP3   OH227379   6.559   7.435   6.749
 9145TIP3    H127380   6.511   7.488   6.686
 9145TIP3    H227381   6.630   7.492   6.779
 9146TIP3   OH227382   2.034   0.169   4.799
 9146TIP3    H127383   2.058   0.218   4.720
 9146TIP3    H227384   2.000   0.236   4.858
 9147TIP3   OH227385   5.849   0.658   1.816
 9147TIP3    H127386   5.881   0.713   1.745
 9147TIP3    H227387   5.822   0.719   1.884
 9148TIP3   OH227388   4.899   6.423   0.160
 9148TIP3    H127389   4.838   6.466   0.220
 9148TIP3    H227390   4.976   6.480   0.158
 9149TIP3   OH227391   0.063   3.910  -0.016
 9149TIP3    H127392   0.101   3.923   0.071
 9149TIP3    H227393  -0.022   3.953  -0.011
 9150TIP3   OH227394   7.842  -0.029   3.786
 9150TIP3    H127395   7.852  -0.112   3.739
 9150TIP3    H227396   7.795   0.028   3.725
 9151TIP3   OH227397  -0.024   4.800   4.929
 9151TIP3    H127398  -0.021   4.720   4.980
 9151TIP3    H227399   0.016   4.866   4.986
 9152TIP3   OH227400   1.001   7.623   6.496
 9152TIP3    H127401   0.914   7.645   6.529
 9152TIP3    H227402   1.058   7.693   6.528
 9153TIP3   OH227403   2.888   7.173   6.741
 9153TIP3    H127404   2.839   7.131   6.811
 9153TIP3    H227405   2.929   7.101   6.694
 9154TIP3   OH227406   6.163   1.521   6.354
 9154TIP3    H127407   6.138   1.478   6.272
 9154TIP3    H227408   6.087   1.575   6.376
 9155TIP3   OH227409   0.160   1.865   2.281
 9155TIP3    H127410   0.180   1.778   2.316
 9155TIP3    H227411   0.193   1.863   2.191
 9156TIP3   OH227412   0.897   1.374   2.503
 9156TIP3    H127413   0.817   1.353   2.552
 9156TIP3    H227414   0.939   1.289   2.489
 9157TIP3   OH227415   8.047   5.425   2.923
 9157TIP3    H127416   8.126   5.395   2.876
 9157TIP3    H227417   8.081   5.483   2.991
 9158TIP3   OH227418   2.445   3.655   2.984
 9158TIP3    H127419   2.408   3.738   2.953
 9158TIP3    H227420   2.535   3.655   2.950
 9159TIP3   OH227421   3.363   6.339   5.173
 9159TIP3    H127422   3.276   6.377   5.163
 9159TIP3    H227423   3.412   6.403   5.225
 9160TIP3   OH227424   2.847   1.197   4.968
 9160TIP3    H127425   2.851   1.206   5.063
 9160TIP3    H227426   2.831   1.285   4.935
 9161TIP3   OH227427   5.601   4.305   0.132
 9161TIP3    H127428   5.668   4.251   0.173
 9161TIP3    H227429   5.631   4.318   0.042
 9162TIP3   OH227430   4.879   3.261   5.181
 9162TIP3    H127431   4.840   3.199   5.243
 9162TIP3    H227432   4.804   3.309   5.146
 9163TIP3   OH227433   7.613   4.888   4.303
 9163TIP3    H127434   7.538   4.905   4.247
 9163TIP3    H227435   7.588   4.924   4.388
 9164TIP3   OH227436   4.194   1.273   6.241
 9164TIP3    H127437   4.227   1.198   6.191
 9164TIP3    H227438   4.111   1.243   6.277
 9165TIP3   OH227439   3.845   0.634   4.763
 9165TIP3    H127440   3.903   0.586   4.822
 9165TIP3    H227441   3.818   0.711   4.813
 9166TIP3   OH227442   5.237   4.867   0.914
 9166TIP3    H127443   5.142   4.861   0.928
 9166TIP3    H227444   5.275   4.815   0.984
 9167TIP3   OH227445   0.898   3.958   2.570
 9167TIP3    H127446   0.832   3.992   2.630
 9167TIP3    H227447   0.981   3.979   2.612
 9168TIP3   OH227448   7.096   3.985   2.535
 9168TIP3    H127449   7.071   3.908   2.587
 9168TIP3    H227450   7.112   4.053   2.600
 9169TIP3   OH227451   3.627   5.471   3.522
 9169TIP3    H127452   3.635   5.564   3.501
 9169TIP3    H227453   3.670   5.461   3.606
 9170TIP3   OH227454   2.867   6.463   5.703
 9170TIP3    H127455   2.916   6.545   5.691
 9170TIP3    H227456   2.832   6.469   5.792
 9171TIP3   OH227457   0.242   6.876   0.896
 9171TIP3    H127458   0.308   6.924   0.946
 9171TIP3    H227459   0.191   6.944   0.851
 9172TIP3   OH227460   6.540   2.165   0.647
 9172TIP3    H127461   6.553   2.241   0.590
 9172TIP3    H227462   6.490   2.103   0.594
 9173TIP3   OH227463   1.908   6.662   3.051
 9173TIP3    H127464   1.998   6.630   3.054
 9173TIP3    H227465   1.913   6.741   2.996
 9174TIP3   OH227466   0.826   3.932   4.311
 9174TIP3    H127467   0.913   3.949   4.276
 9174TIP3    H227468   0.788   3.869   4.249
 9175TIP3   OH227469   4.864   7.351   1.098
 9175TIP3    H127470   4.793   7.297   1.132
 9175TIP3    H227471   4.821   7.415   1.042
 9176TIP3   OH227472   5.810   1.807   2.938
 9176TIP3    H127473   5.811   1.870   3.010
 9176TIP3    H227474   5.902   1.784   2.925
 9177TIP3   OH227475   2.898   0.873   1.377
 9177TIP3    H127476   2.937   0.945   1.328
 9177TIP3    H227477   2.862   0.915   1.455
 9178TIP3   OH227478   2.040   1.734   4.575
 9178TIP3    H127479   2.073   1.652   4.537
 9178TIP3    H227480   1.950   1.740   4.543
 9179TIP3   OH227481   5.797   5.118   1.102
 9179TIP3    H127482   5.807   5.067   1.022
 9179TIP3    H227483   5.706   5.104   1.128
 9180TIP3   OH227484   5.147   5.662   6.627
 9180TIP3    H127485   5.105   5.626   6.549
 9180TIP3    H227486   5.225   5.707   6.593
 9181TIP3   OH227487   4.402   0.898   5.421
 9181TIP3    H127488   4.368   0.812   5.395
 9181TIP3    H227489   4.474   0.915   5.360
 9182TIP3   OH227490   0.340   6.454   1.958
 9182TIP3    H127491   0.359   6.393   1.886
 9182TIP3    H227492   0.390   6.532   1.936
 9183TIP3   OH227493   4.310   3.184   2.951
 9183TIP3    H127494   4.305   3.276   2.979
 9183TIP3    H227495   4.233   3.172   2.895
 9184TIP3   OH227496   0.488   6.626   3.091
 9184TIP3    H127497   0.571   6.610   3.135
 9184TIP3    H227498   0.475   6.549   3.035
 9185TIP3   OH227499   2.225   7.045   4.410
 9185TIP3    H127500   2.236   6.956   4.441
 9185TIP3    H227501   2.192   7.093   4.486
 9186TIP3   OH227502   6.093   3.598   4.198
 9186TIP3    H127503   6.055   3.528   4.145
 9186TIP3    H227504   6.103   3.560   4.285
 9187TIP3   OH227505   5.826   3.680   0.645
 9187TIP3    H127506   5.771   3.634   0.708
 9187TIP3    H227507   5.815   3.631   0.563
 9188TIP3   OH227508   5.145   7.581   3.620
 9188TIP3    H127509   5.060   7.550   3.591
 9188TIP3    H227510   5.173   7.518   3.686
 9189TIP3   OH227511   1.881   3.219   5.413
 9189TIP3    H127512   1.799   3.199   5.368
 9189TIP3    H227513   1.898   3.311   5.393
 9190TIP3   OH227514   1.109   2.407   4.769
 9190TIP3    H127515   1.166   2.352   4.824
 9190TIP3    H227516   1.085   2.350   4.696
 9191TIP3   OH227517   3.417   2.037   0.018
 9191TIP3    H127518   3.355   2.062   0.086
 9191TIP3    H227519   3.362   2.010  -0.056
 9192TIP3   OH227520   6.533   2.207   4.510
 9192TIP3    H127521   6.523   2.191   4.604
 9192TIP3    H227522   6.609   2.155   4.485
 9193TIP3   OH227523   1.556   4.749   0.318
 9193TIP3    H127524   1.557   4.829   0.370
 9193TIP3    H227525   1.463   4.731   0.301
 9194TIP3   OH227526   3.274   3.120   2.586
 9194TIP3    H127527   3.320   3.036   2.573
 9194TIP3    H227528   3.211   3.123   2.514
 9195TIP3   OH227529   6.613   5.169   6.025
 9195TIP3    H127530   6.701   5.174   6.064
 9195TIP3    H227531   6.605   5.078   5.997
 9196TIP3   OH227532   2.407   7.659   4.358
 9196TIP3    H127533   2.364   7.591   4.409
 9196TIP3    H227534   2.407   7.625   4.268
 9197TIP3   OH227535   3.162   0.221   0.976
 9197TIP3    H127536   3.129   0.199   1.063
 9197TIP3    H227537   3.219   0.148   0.953
 9198TIP3   OH227538   5.337   7.700   4.732
 9198TIP3    H127539   5.278   7.684   4.807
 9198TIP3    H227540   5.403   7.632   4.740
 9199TIP3   OH227541   4.050   3.854   0.726
 9199TIP3    H127542   3.959   3.822   0.724
 9199TIP3    H227543   4.053   3.915   0.799
 9200TIP3   OH227544   8.194   0.629   1.171
 9200TIP3    H127545   8.127   0.644   1.104
 9200TIP3    H227546   8.277   0.642   1.125
 9201TIP3   OH227547   7.748   5.267   6.312
 9201TIP3    H127548   7.759   5.318   6.231
 9201TIP3    H227549   7.794   5.185   6.294
 9202TIP3   OH227550   4.995   1.490   2.383
 9202TIP3    H127551   5.025   1.407   2.345
 9202TIP3    H227552   5.012   1.555   2.314
 9203TIP3   OH227553   4.344   1.655   5.802
 9203TIP3    H127554   4.249   1.666   5.800
 9203TIP3    H227555   4.377   1.744   5.819
 9204TIP3   OH227556   7.012   1.877   6.695
 9204TIP3    H127557   6.978   1.937   6.629
 9204TIP3    H227558   6.947   1.880   6.765
 9205TIP3   OH227559   7.806   1.450   2.928
 9205TIP3    H127560   7.744   1.522   2.929
 9205TIP3    H227561   7.837   1.444   3.018
 9206TIP3   OH227562   1.799   4.587   3.325
 9206TIP3    H127563   1.718   4.536   3.329
 9206TIP3    H227564   1.780   4.656   3.261
 9207TIP3   OH227565   2.775   4.943   5.346
 9207TIP3    H127566   2.701   4.969   5.401
 9207TIP3    H227567   2.745   4.957   5.256
 9208TIP3   OH227568   3.526   0.375   6.301
 9208TIP3    H127569   3.483   0.366   6.216
 9208TIP3    H227570   3.454   0.368   6.364
 9209TIP3   OH227571   8.003   1.785   0.285
 9209TIP3    H127572   7.984   1.751   0.373
 9209TIP3    H227573   8.091   1.823   0.293
 9210TIP3   OH227574   6.774   4.799   5.409
 9210TIP3    H127575   6.852   4.845   5.379
 9210TIP3    H227576   6.806   4.726   5.461
 9211TIP3   OH227577   2.387   0.856   3.863
 9211TIP3    H127578   2.451   0.826   3.928
 9211TIP3    H227579   2.439   0.875   3.785
 9212TIP3   OH227580   0.012   1.263   4.736
 9212TIP3    H127581  -0.010   1.213   4.657
 9212TIP3    H227582   0.098   1.232   4.762
 9213TIP3   OH227583   6.343   2.206   1.560
 9213TIP3    H127584   6.316   2.132   1.614
 9213TIP3    H227585   6.376   2.271   1.623
 9214TIP3   OH227586   1.282   1.427   3.417
 9214TIP3    H127587   1.313   1.477   3.493
 9214TIP3    H227588   1.191   1.405   3.440
 9215TIP3   OH227589   0.811   1.175   1.284
 9215TIP3    H127590   0.893   1.207   1.322
 9215TIP3    H227591   0.802   1.086   1.318
 9216TIP3   OH227592   0.768   7.165   3.262
 9216TIP3    H127593   0.781   7.080   3.220
 9216TIP3    H227594   0.715   7.214   3.199
 9217TIP3   OH227595   4.898   0.787   3.859
 9217TIP3    H127596   4.829   0.853   3.866
 9217TIP3    H227597   4.961   0.824   3.797
 9218TIP3   OH227598   4.865   6.717   6.471
 9218TIP3    H127599   4.817   6.726   6.554
 9218TIP3    H227600   4.899   6.805   6.454
 9219TIP3   OH227601   0.329   2.038   1.165
 9219TIP3    H127602   0.290   2.118   1.200
 9219TIP3    H227603   0.410   2.027   1.215
 9220TIP3   OH227604   4.908   5.730   6.009
 9220TIP3    H127605   4.925   5.773   5.925
 9220TIP3    H227606   4.828   5.680   5.994
 9221TIP3   OH227607   6.011   1.444   3.112
 9221TIP3    H127608   6.007   1.450   3.208
 9221TIP3    H227609   5.935   1.391   3.088
 9222TIP3   OH227610   2.095   4.580   3.269
 9222TIP3    H127611   2.120   4.567   3.178
 9222TIP3    H227612   2.008   4.620   3.265
 9223TIP3   OH227613   5.597   3.972   0.259
 9223TIP3    H127614   5.656   4.029   0.209
 9223TIP3    H227615   5.618   3.990   0.350
 9224TIP3   OH227616   2.713   5.650   1.644
 9224TIP3    H127617   2.645   5.583   1.633
 9224TIP3    H227618   2.777   5.610   1.703
 9225TIP3   OH227619   3.471   7.192   2.479
 9225TIP3    H127620   3.480   7.099   2.499
 9225TIP3    H227621   3.478   7.236   2.564
 9226TIP3   OH227622   5.100   0.344   2.800
 9226TIP3    H127623   5.052   0.299   2.870
 9226TIP3    H227624   5.139   0.420   2.842
 9227TIP3   OH227625   3.929   6.232   6.784
 9227TIP3    H127626   3.972   6.300   6.731
 9227TIP3    H227627   3.890   6.173   6.720
 9228TIP3   OH227628   7.460   7.189   5.933
 9228TIP3    H127629   7.458   7.197   5.837
 9228TIP3    H227630   7.369   7.198   5.959
 9229TIP3   OH227631   6.594   5.320   6.585
 9229TIP3    H127632   6.615   5.408   6.617
 9229TIP3    H227633   6.591   5.266   6.663
 9230TIP3   OH227634   3.821   1.543   1.023
 9230TIP3    H127635   3.837   1.631   1.058
 9230TIP3    H227636   3.889   1.530   0.957
 9231TIP3   OH227637   1.075   4.546   5.151
 9231TIP3    H127638   1.096   4.627   5.196
 9231TIP3    H227639   1.017   4.572   5.080
 9232TIP3   OH227640   0.915   1.577   2.193
 9232TIP3    H127641   0.898   1.671   2.199
 9232TIP3    H227642   1.010   1.569   2.200
 9233TIP3   OH227643   2.152   2.396   3.313
 9233TIP3    H127644   2.077   2.337   3.309
 9233TIP3    H227645   2.228   2.341   3.294
 9234TIP3   OH227646   5.712   4.257   4.277
 9234TIP3    H127647   5.726   4.174   4.322
 9234TIP3    H227648   5.659   4.309   4.337
 9235TIP3   OH227649   4.070   0.857   0.403
 9235TIP3    H127650   4.083   0.928   0.466
 9235TIP3    H227651   4.122   0.883   0.327
 9236TIP3   OH227652   3.944   1.777   1.112
 9236TIP3    H127653   3.894   1.835   1.171
 9236TIP3    H227654   4.030   1.819   1.105
 9237TIP3   OH227655   2.410   2.270   3.034
 9237TIP3    H127656   2.343   2.238   3.094
 9237TIP3    H227657   2.491   2.266   3.084
 9238TIP3   OH227658   6.936   3.727   5.572
 9238TIP3    H127659   6.891   3.802   5.612
 9238TIP3    H227660   7.010   3.766   5.526
 9239TIP3   OH227661   1.737   5.962   6.148
 9239TIP3    H127662   1.665   5.929   6.201
 9239TIP3    H227663   1.703   6.041   6.108
 9240TIP3   OH227664   4.238   4.619   1.556
 9240TIP3    H127665   4.322   4.573   1.548
 9240TIP3    H227666   4.252   4.680   1.629
 9241TIP3   OH227667   3.548   4.429   0.689
 9241TIP3    H127668   3.635   4.444   0.652
 9241TIP3    H227669   3.489   4.479   0.633
 9242TIP3   OH227670   7.873   5.294   4.868
 9242TIP3    H127671   7.848   5.276   4.958
 9242TIP3    H227672   7.943   5.358   4.875
 9243TIP3   OH227673   6.511   2.012   1.435
 9243TIP3    H127674   6.421   2.038   1.455
 9243TIP3    H227675   6.552   1.999   1.520
 9244TIP3   OH227676   4.920   0.738   6.028
 9244TIP3    H127677   4.864   0.758   6.103
 9244TIP3    H227678   4.860   0.701   5.963
 9245TIP3   OH227679   6.403   7.301   5.549
 9245TIP3    H127680   6.338   7.256   5.602
 9245TIP3    H227681   6.402   7.254   5.466
 9246TIP3   OH227682   3.741   0.455   1.479
 9246TIP3    H127683   3.745   0.544   1.446
 9246TIP3    H227684   3.756   0.400   1.402
 9247TIP3   OH227685   1.722   0.945  -0.068
 9247TIP3    H127686   1.695   0.966   0.021
 9247TIP3    H227687   1.814   0.918  -0.060
 9248TIP3   OH227688   0.645   1.643   2.273
 9248TIP3    H127689   0.669   1.715   2.332
 9248TIP3    H227690   0.720   1.583   2.276
 9249TIP3   OH227691   3.239   6.986   6.670
 9249TIP3    H127692   3.305   7.050   6.646
 9249TIP3    H227693   3.278   6.901   6.648
 9250TIP3   OH227694   2.803   6.958   0.901
 9250TIP3    H127695   2.852   6.989   0.977
 9250TIP3    H227696   2.870   6.922   0.843
 9251TIP3   OH227697   2.777   0.398   4.019
 9251TIP3    H127698   2.690   0.406   4.057
 9251TIP3    H227699   2.832   0.367   4.090
 9252TIP3   OH227700   0.273   0.188   0.756
 9252TIP3    H127701   0.239   0.149   0.837
 9252TIP3    H227702   0.195   0.223   0.712
 9253TIP3   OH227703   7.501   5.061   1.434
 9253TIP3    H127704   7.574   5.041   1.376
 9253TIP3    H227705   7.428   5.008   1.402
 9254TIP3   OH227706   1.924   1.335   2.462
 9254TIP3    H127707   1.892   1.355   2.374
 9254TIP3    H227708   1.925   1.239   2.466
 9255TIP3   OH227709   3.436   7.704   5.436
 9255TIP3    H127710   3.442   7.623   5.487
 9255TIP3    H227711   3.492   7.766   5.485
 9256TIP3   OH227712   5.864   2.632   5.663
 9256TIP3    H127713   5.873   2.548   5.618
 9256TIP3    H227714   5.846   2.694   5.593
 9257TIP3   OH227715   3.573   4.819   1.749
 9257TIP3    H127716   3.605   4.883   1.685
 9257TIP3    H227717   3.478   4.828   1.746
 9258TIP3   OH227718   8.094   3.727   2.503
 9258TIP3    H127719   8.183   3.749   2.531
 9258TIP3    H227720   8.055   3.685   2.580
 9259TIP3   OH227721   7.924   1.305   1.727
 9259TIP3    H127722   7.938   1.343   1.814
 9259TIP3    H227723   7.856   1.239   1.741
 9260TIP3   OH227724   1.040   2.068   3.435
 9260TIP3    H127725   0.968   2.021   3.477
 9260TIP3    H227726   1.054   2.022   3.352
 9261TIP3   OH227727   1.381   7.611   1.520
 9261TIP3    H127728   1.427   7.596   1.603
 9261TIP3    H227729   1.408   7.538   1.464
 9262TIP3   OH227730   3.356   1.373   3.112
 9262TIP3    H127731   3.396   1.397   3.195
 9262TIP3    H227732   3.318   1.454   3.079
 9263TIP3   OH227733   1.393   7.353   2.175
 9263TIP3    H127734   1.309   7.320   2.207
 9263TIP3    H227735   1.438   7.382   2.254
 9264TIP3   OH227736   2.585   3.847   5.286
 9264TIP3    H127737   2.500   3.844   5.329
 9264TIP3    H227738   2.645   3.882   5.352
 9265TIP3   OH227739   1.587   4.340   1.612
 9265TIP3    H127740   1.657   4.335   1.547
 9265TIP3    H227741   1.589   4.430   1.643
 9266TIP3   OH227742   0.780   7.391   6.669
 9266TIP3    H127743   0.787   7.481   6.640
 9266TIP3    H227744   0.735   7.396   6.753
 9267TIP3   OH227745   1.433   0.222   5.209
 9267TIP3    H127746   1.381   0.158   5.259
 9267TIP3    H227747   1.368   0.282   5.172
 9268TIP3   OH227748   0.715   3.775   4.106
 9268TIP3    H127749   0.782   3.757   4.039
 9268TIP3    H227750   0.665   3.694   4.112
 9269TIP3   OH227751   4.850   5.558   5.715
 9269TIP3    H127752   4.797   5.546   5.794
 9269TIP3    H227753   4.913   5.486   5.717
 9270TIP3   OH227754   4.585   2.830   0.081
 9270TIP3    H127755   4.651   2.900   0.084
 9270TIP3    H227756   4.531   2.852   0.005
 9271TIP3   OH227757   5.613   4.591   4.936
 9271TIP3    H127758   5.555   4.654   4.893
 9271TIP3    H227759   5.553   4.528   4.976
 9272TIP3   OH227760   2.256   5.149   4.244
 9272TIP3    H127761   2.310   5.215   4.288
 9272TIP3    H227762   2.180   5.198   4.214
 9273TIP3   OH227763   4.701   7.090   4.890
 9273TIP3    H127764   4.774   7.111   4.832
 9273TIP3    H227765   4.624   7.095   4.833
 9274TIP3   OH227766   4.219   2.146   1.018
 9274TIP3    H127767   4.157   2.206   1.059
 9274TIP3    H227768   4.300   2.157   1.068
 9275TIP3   OH227769   5.217   6.063   4.760
 9275TIP3    H127770   5.263   6.122   4.820
 9275TIP3    H227771   5.125   6.071   4.784
 9276TIP3   OH227772   6.443   2.119   0.015
 9276TIP3    H127773   6.369   2.165   0.054
 9276TIP3    H227774   6.448   2.036   0.063
 9277TIP3   OH227775   6.697   3.407   3.207
 9277TIP3    H127776   6.719   3.451   3.289
 9277TIP3    H227777   6.721   3.316   3.222
 9278TIP3   OH227778   4.313   3.152   3.730
 9278TIP3    H127779   4.326   3.186   3.819
 9278TIP3    H227780   4.325   3.228   3.673
 9279TIP3   OH227781   6.830   3.982   5.921
 9279TIP3    H127782   6.902   3.996   5.859
 9279TIP3    H227783   6.874   3.967   6.005
 9280TIP3   OH227784   6.016   7.682   2.856
 9280TIP3    H127785   6.005   7.772   2.826
 9280TIP3    H227786   5.946   7.633   2.815
 9281TIP3   OH227787   4.962   0.604   0.649
 9281TIP3    H127788   4.999   0.660   0.718
 9281TIP3    H227789   5.003   0.634   0.569
 9282TIP3   OH227790   4.011   1.921   0.562
 9282TIP3    H127791   4.055   1.842   0.530
 9282TIP3    H227792   3.945   1.887   0.623
 9283TIP3   OH227793   5.312   4.139   0.901
 9283TIP3    H127794   5.282   4.178   0.983
 9283TIP3    H227795   5.327   4.047   0.923
 9284TIP3   OH227796   4.637   4.003   3.742
 9284TIP3    H127797   4.623   3.935   3.676
 9284TIP3    H227798   4.731   4.020   3.739
 9285TIP3   OH227799   1.616   7.621   2.822
 9285TIP3    H127800   1.618   7.654   2.912
 9285TIP3    H227801   1.634   7.698   2.768
 9286TIP3   OH227802   2.216   6.139   1.679
 9286TIP3    H127803   2.225   6.099   1.766
 9286TIP3    H227804   2.215   6.064   1.619
 9287TIP3   OH227805   6.315   0.729   3.514
 9287TIP3    H127806   6.296   0.640   3.484
 9287TIP3    H227807   6.393   0.754   3.465
 9288TIP3   OH227808   3.737   0.567   5.697
 9288TIP3    H127809   3.774   0.487   5.736
 9288TIP3    H227810   3.759   0.561   5.604
 9289TIP3   OH227811   2.864   5.576   2.888
 9289TIP3    H127812   2.936   5.635   2.866
 9289TIP3    H227813   2.855   5.583   2.983
 9290TIP3   OH227814   6.273   3.955   1.773
 9290TIP3    H127815   6.337   4.011   1.729
 9290TIP3    H227816   6.193   3.963   1.721
 9291TIP3   OH227817   2.620   4.546   1.804
 9291TIP3    H127818   2.575   4.620   1.764
 9291TIP3    H227819   2.685   4.519   1.739
 9292TIP3   OH227820   2.830   2.761   1.965
 9292TIP3    H127821   2.753   2.730   1.918
 9292TIP3    H227822   2.836   2.704   2.041
 9293TIP3   OH227823   4.219   3.456   4.360
 9293TIP3    H127824   4.297   3.404   4.342
 9293TIP3    H227825   4.202   3.503   4.279
 9294TIP3   OH227826   2.111   7.779   3.041
 9294TIP3    H127827   2.139   7.707   2.985
 9294TIP3    H227828   2.125   7.748   3.130
 9295TIP3   OH227829   0.247   1.944   0.500
 9295TIP3    H127830   0.246   1.933   0.595
 9295TIP3    H227831   0.339   1.935   0.476
 9296TIP3   OH227832   2.767   3.541   4.935
 9296TIP3    H127833   2.823   3.566   4.862
 9296TIP3    H227834   2.696   3.606   4.935
 9297TIP3   OH227835   7.331   2.896   3.626
 9297TIP3    H127836   7.338   2.885   3.532
 9297TIP3    H227837   7.421   2.886   3.658
 9298TIP3   OH227838   5.024   5.220   2.153
 9298TIP3    H127839   5.013   5.309   2.186
 9298TIP3    H227840   4.983   5.164   2.219
 9299TIP3   OH227841   1.033   5.155   6.167
 9299TIP3    H127842   1.049   5.062   6.180
 9299TIP3    H227843   1.097   5.182   6.100
 9300TIP3   OH227844   1.104   2.830   3.564
 9300TIP3    H127845   1.136   2.763   3.503
 9300TIP3    H227846   1.162   2.905   3.549
 9301TIP3   OH227847   1.340   7.339   5.081
 9301TIP3    H127848   1.323   7.304   5.168
 9301TIP3    H227849   1.410   7.403   5.094
 9302TIP3   OH227850   1.680   5.562   0.184
 9302TIP3    H127851   1.603   5.617   0.198
 9302TIP3    H227852   1.696   5.565   0.090
 9303TIP3   OH227853   6.543   5.868   3.566
 9303TIP3    H127854   6.552   5.947   3.513
 9303TIP3    H227855   6.584   5.890   3.649
 9304TIP3   OH227856   2.745   4.818   3.597
 9304TIP3    H127857   2.682   4.746   3.603
 9304TIP3    H227858   2.693   4.893   3.567
 9305TIP3   OH227859   0.764   6.579   4.054
 9305TIP3    H127860   0.690   6.561   4.112
 9305TIP3    H227861   0.826   6.628   4.108
 9306TIP3   OH227862   7.490   7.202   4.646
 9306TIP3    H127863   7.473   7.130   4.586
 9306TIP3    H227864   7.542   7.163   4.716
 9307TIP3   OH227865   6.447   6.229   2.427
 9307TIP3    H127866   6.453   6.142   2.466
 9307TIP3    H227867   6.509   6.282   2.477
 9308TIP3   OH227868   1.549   1.891   0.363
 9308TIP3    H127869   1.469   1.853   0.326
 9308TIP3    H227870   1.617   1.826   0.342
 9309TIP3   OH227871   0.020   5.471   3.603
 9309TIP3    H127872   0.007   5.423   3.685
 9309TIP3    H227873   0.110   5.503   3.609
 9310TIP3   OH227874   2.498   3.212   0.891
 9310TIP3    H127875   2.406   3.218   0.913
 9310TIP3    H227876   2.537   3.160   0.961
 9311TIP3   OH227877   1.440   1.782   2.587
 9311TIP3    H127878   1.355   1.823   2.607
 9311TIP3    H227879   1.505   1.848   2.612
 9312TIP3   OH227880   3.939   7.467   5.620
 9312TIP3    H127881   3.999   7.533   5.586
 9312TIP3    H227882   3.971   7.448   5.709
 9313TIP3   OH227883   6.409   5.122   3.080
 9313TIP3    H127884   6.462   5.187   3.034
 9313TIP3    H227885   6.332   5.171   3.111
 9314TIP3   OH227886   1.231   6.313   3.267
 9314TIP3    H127887   1.225   6.277   3.178
 9314TIP3    H227888   1.269   6.400   3.255
 9315TIP3   OH227889   6.952   7.537   3.340
 9315TIP3    H127890   6.874   7.573   3.383
 9315TIP3    H227891   6.977   7.603   3.275
 9316TIP3   OH227892   1.193   5.814   4.654
 9316TIP3    H127893   1.246   5.790   4.729
 9316TIP3    H227894   1.144   5.735   4.633
 9317TIP3   OH227895   2.989   5.553   6.322
 9317TIP3    H127896   3.017   5.588   6.237
 9317TIP3    H227897   3.052   5.484   6.342
 9318TIP3   OH227898   2.504   4.071   1.555
 9318TIP3    H127899   2.427   4.024   1.586
 9318TIP3    H227900   2.517   4.141   1.619
 9319TIP3   OH227901   6.860   5.073   3.443
 9319TIP3    H127902   6.843   4.983   3.416
 9319TIP3    H227903   6.928   5.065   3.510
 9320TIP3   OH227904   0.325   0.186   1.566
 9320TIP3    H127905   0.392   0.140   1.616
 9320TIP3    H227906   0.357   0.183   1.476
 9321TIP3   OH227907   2.129   7.226   5.721
 9321TIP3    H127908   2.120   7.137   5.753
 9321TIP3    H227909   2.077   7.228   5.641
 9322TIP3   OH227910   7.708   5.097   3.523
 9322TIP3    H127911   7.709   5.184   3.564
 9322TIP3    H227912   7.800   5.079   3.502
 9323TIP3   OH227913   4.688   0.349   0.553
 9323TIP3    H127914   4.619   0.287   0.527
 9323TIP3    H227915   4.769   0.298   0.547
 9324TIP3   OH227916   0.762   4.885   4.483
 9324TIP3    H127917   0.825   4.831   4.435
 9324TIP3    H227918   0.678   4.838   4.473
 9325TIP3   OH227919   7.674   4.057   0.100
 9325TIP3    H127920   7.684   4.140   0.054
 9325TIP3    H227921   7.594   4.066   0.151
 9326TIP3   OH227922   7.917   3.961   5.931
 9326TIP3    H127923   7.830   3.950   5.894
 9326TIP3    H227924   7.968   3.888   5.895
 9327TIP3   OH227925   2.981  -0.053   2.844
 9327TIP3    H127926   3.013   0.037   2.846
 9327TIP3    H227927   2.886  -0.045   2.853
 9328TIP3   OH227928   0.488   7.019   4.453
 9328TIP3    H127929   0.465   7.009   4.361
 9328TIP3    H227930   0.423   7.079   4.488
 9329TIP3   OH227931   6.241   5.361   0.564
 9329TIP3    H127932   6.224   5.266   0.560
 9329TIP3    H227933   6.156   5.399   0.586
 9330TIP3   OH227934   8.077   1.654   3.044
 9330TIP3    H127935   8.101   1.564   3.022
 9330TIP3    H227936   7.994   1.646   3.091
 9331TIP3   OH227937   5.059   3.485   5.113
 9331TIP3    H127938   5.033   3.397   5.139
 9331TIP3    H227939   4.978   3.536   5.116
 9332TIP3   OH227940   8.012   6.989   5.549
 9332TIP3    H127941   8.012   7.006   5.643
 9332TIP3    H227942   7.926   6.951   5.532
 9333TIP3   OH227943   7.995   0.711   2.288
 9333TIP3    H127944   7.961   0.708   2.378
 9333TIP3    H227945   8.031   0.624   2.272
 9334TIP3   OH227946   2.479   7.346   2.212
 9334TIP3    H127947   2.564   7.387   2.227
 9334TIP3    H227948   2.416   7.408   2.248
 9335TIP3   OH227949   0.058   4.394   2.206
 9335TIP3    H127950   0.028   4.304   2.197
 9335TIP3    H227951   0.136   4.399   2.151
 9336TIP3   OH227952   5.864   6.882   5.503
 9336TIP3    H127953   5.792   6.936   5.533
 9336TIP3    H227954   5.853   6.878   5.408
 9337TIP3   OH227955   8.068   4.466   6.495
 9337TIP3    H127956   8.053   4.513   6.413
 9337TIP3    H227957   7.985   4.470   6.541
 9338TIP3   OH227958   2.405   3.007   3.077
 9338TIP3    H127959   2.472   2.942   3.053
 9338TIP3    H227960   2.453   3.090   3.081
 9339TIP3   OH227961   7.461   1.011   5.191
 9339TIP3    H127962   7.537   0.996   5.247
 9339TIP3    H227963   7.489   1.079   5.130
 9340TIP3   OH227964   0.692   2.493   3.614
 9340TIP3    H127965   0.622   2.437   3.648
 9340TIP3    H227966   0.662   2.582   3.632
 9341TIP3   OH227967   5.838   6.178   3.641
 9341TIP3    H127968   5.818   6.268   3.667
 9341TIP3    H227969   5.886   6.188   3.558
 9342TIP3   OH227970   2.360   2.040   5.854
 9342TIP3    H127971   2.282   2.096   5.845
 9342TIP3    H227972   2.411   2.059   5.775
 9343TIP3   OH227973   3.488   1.050   5.365
 9343TIP3    H127974   3.413   1.103   5.390
 9343TIP3    H227975   3.561   1.084   5.417
 9344TIP3   OH227976   0.270   0.674   5.226
 9344TIP3    H127977   0.200   0.711   5.280
 9344TIP3    H227978   0.316   0.614   5.285
 9345TIP3   OH227979   4.359   4.298   2.563
 9345TIP3    H127980   4.392   4.301   2.653
 9345TIP3    H227981   4.275   4.253   2.570
 9346TIP3   OH227982   6.007   1.039   0.824
 9346TIP3    H127983   5.982   0.963   0.877
 9346TIP3    H227984   6.093   1.017   0.789
 9347TIP3   OH227985   6.572   5.462   4.402
 9347TIP3    H127986   6.622   5.496   4.328
 9347TIP3    H227987   6.636   5.419   4.458
 9348TIP3   OH227988   1.852   2.965   0.123
 9348TIP3    H127989   1.939   2.984   0.158
 9348TIP3    H227990   1.869   2.923   0.039
 9349TIP3   OH227991   4.280   5.524   1.980
 9349TIP3    H127992   4.301   5.505   1.888
 9349TIP3    H227993   4.323   5.455   2.030
 9350TIP3   OH227994   7.416   0.198   5.460
 9350TIP3    H127995   7.349   0.222   5.523
 9350TIP3    H227996   7.442   0.280   5.419
 9351TIP3   OH227997   6.049   5.825   4.654
 9351TIP3    H127998   6.115   5.809   4.587
 9351TIP3    H227999   6.099   5.850   4.732
 9352TIP3   OH228000   6.738   0.745   4.725
 9352TIP3    H128001   6.643   0.736   4.721
 9352TIP3    H228002   6.766   0.671   4.779
 9353TIP3   OH228003   6.471   4.520   6.670
 9353TIP3    H128004   6.434   4.462   6.736
 9353TIP3    H228005   6.441   4.484   6.587
 9354TIP3   OH228006   5.372   6.154   4.274
 9354TIP3    H128007   5.449   6.192   4.233
 9354TIP3    H228008   5.396   6.146   4.367
 9355TIP3   OH228009   8.172   1.959   2.328
 9355TIP3    H128010   8.264   1.940   2.349
 9355TIP3    H228011   8.154   1.904   2.251
 9356TIP3   OH228012   2.046   2.219   5.288
 9356TIP3    H128013   1.976   2.234   5.224
 9356TIP3    H228014   2.072   2.307   5.316
 9357TIP3   OH228015   0.493   7.301   5.496
 9357TIP3    H128016   0.488   7.364   5.567
 9357TIP3    H228017   0.405   7.298   5.459
 9358TIP3   OH228018   4.988   5.605   3.666
 9358TIP3    H128019   4.916   5.628   3.607
 9358TIP3    H228020   4.998   5.682   3.722
 9359TIP3   OH228021   0.813   3.881   2.306
 9359TIP3    H128022   0.893   3.872   2.254
 9359TIP3    H228023   0.841   3.925   2.386
 9360TIP3   OH228024   1.918   0.007   0.013
 9360TIP3    H128025   1.825   0.026   0.023
 9360TIP3    H228026   1.958   0.091  -0.010
 9361TIP3   OH228027   4.933   6.041   3.010
 9361TIP3    H128028   5.010   6.014   3.059
 9361TIP3    H228029   4.962   6.041   2.919
 9362TIP3   OH228030   4.306   2.555   2.383
 9362TIP3    H128031   4.317   2.501   2.462
 9362TIP3    H228032   4.265   2.636   2.415
 9363TIP3   OH228033   1.396   3.997   1.850
 9363TIP3    H128034   1.441   3.960   1.774
 9363TIP3    H228035   1.375   4.087   1.823
 9364TIP3   OH228036   6.424   2.450   4.160
 9364TIP3    H128037   6.511   2.489   4.173
 9364TIP3    H228038   6.442   2.358   4.142
 9365TIP3   OH228039   2.148   4.736   2.227
 9365TIP3    H128040   2.142   4.755   2.320
 9365TIP3    H228041   2.077   4.786   2.187
 9366TIP3   OH228042   2.689   6.073   2.333
 9366TIP3    H128043   2.722   6.060   2.422
 9366TIP3    H228044   2.677   6.167   2.326
 9367TIP3   OH228045   3.978   2.859   6.476
 9367TIP3    H128046   3.930   2.884   6.398
 9367TIP3    H228047   3.911   2.845   6.543
 9368TIP3   OH228048   3.712   5.866   1.017
 9368TIP3    H128049   3.757   5.843   0.935
 9368TIP3    H228050   3.716   5.786   1.070
 9369TIP3   OH228051   4.708   4.810   5.162
 9369TIP3    H128052   4.647   4.801   5.236
 9369TIP3    H228053   4.652   4.808   5.084
 9370TIP3   OH228054   5.647   4.358   2.610
 9370TIP3    H128055   5.586   4.297   2.569
 9370TIP3    H228056   5.609   4.444   2.595
 9371TIP3   OH228057   7.160   6.499   3.052
 9371TIP3    H128058   7.097   6.535   2.990
 9371TIP3    H228059   7.205   6.429   3.003
 9372TIP3   OH228060   7.622   3.014   0.554
 9372TIP3    H128061   7.663   2.998   0.468
 9372TIP3    H228062   7.668   3.091   0.588
 9373TIP3   OH228063   4.597   2.000   3.986
 9373TIP3    H128064   4.647   1.952   3.921
 9373TIP3    H228065   4.508   1.967   3.978
 9374TIP3   OH228066   2.960   1.868   2.378
 9374TIP3    H128067   2.992   1.896   2.292
 9374TIP3    H228068   2.917   1.946   2.413
 9375TIP3   OH228069   5.205   4.766   6.559
 9375TIP3    H128070   5.161   4.785   6.642
 9375TIP3    H228071   5.215   4.852   6.518
 9376TIP3   OH228072   6.868   2.689   5.362
 9376TIP3    H128073   6.868   2.769   5.415
 9376TIP3    H228074   6.944   2.640   5.394
 9377TIP3   OH228075   0.265   0.564   3.389
 9377TIP3    H128076   0.248   0.582   3.481
 9377TIP3    H228077   0.358   0.543   3.385
 9378TIP3   OH228078   7.832   2.993   0.355
 9378TIP3    H128079   7.877   2.918   0.394
 9378TIP3    H228080   7.860   2.994   0.264
 9379TIP3   OH228081   6.911   0.451   3.247
 9379TIP3    H128082   6.880   0.383   3.187
 9379TIP3    H228083   6.899   0.413   3.334
 9380TIP3   OH228084   7.682   5.553   2.040
 9380TIP3    H128085   7.645   5.469   2.016
 9380TIP3    H228086   7.777   5.539   2.037
 9381TIP3   OH228087   7.202   2.304   2.187
 9381TIP3    H128088   7.191   2.305   2.282
 9381TIP3    H228089   7.185   2.395   2.160
 9382TIP3   OH228090   4.241   0.669   0.244
 9382TIP3    H128091   4.236   0.732   0.172
 9382TIP3    H228092   4.308   0.705   0.302
 9383TIP3   OH228093   3.455   7.488   3.086
 9383TIP3    H128094   3.531   7.449   3.043
 9383TIP3    H228095   3.470   7.582   3.081
 9384TIP3   OH228096   5.469   6.912   2.855
 9384TIP3    H128097   5.444   6.868   2.773
 9384TIP3    H228098   5.447   6.848   2.923
 9385TIP3   OH228099   3.579   4.937   3.888
 9385TIP3    H128100   3.568   4.892   3.972
 9385TIP3    H228101   3.638   4.880   3.838
 9386TIP3   OH228102   4.470   5.393   3.731
 9386TIP3    H128103   4.532   5.335   3.687
 9386TIP3    H228104   4.387   5.346   3.727
 9387TIP3   OH228105   6.655   1.365   0.986
 9387TIP3    H128106   6.689   1.320   0.909
 9387TIP3    H228107   6.714   1.439   0.999
 9388TIP3   OH228108   5.608   1.955   5.592
 9388TIP3    H128109   5.671   1.910   5.536
 9388TIP3    H228110   5.628   2.048   5.580
 9389TIP3   OH228111   4.615   0.239   6.326
 9389TIP3    H128112   4.659   0.212   6.407
 9389TIP3    H228113   4.686   0.261   6.266
 9390TIP3   OH228114   2.170   7.558   5.424
 9390TIP3    H128115   2.098   7.579   5.483
 9390TIP3    H228116   2.160   7.465   5.404
 9391TIP3   OH228117   1.390   1.387   2.887
 9391TIP3    H128118   1.353   1.330   2.954
 9391TIP3    H228119   1.339   1.468   2.894
 9392TIP3   OH228120   0.084   3.720   4.860
 9392TIP3    H128121   0.138   3.792   4.893
 9392TIP3    H228122  -0.006   3.751   4.869
 9393TIP3   OH228123   8.194   0.520   2.513
 9393TIP3    H128124   8.230   0.608   2.528
 9393TIP3    H228125   8.268   0.461   2.530
 9394TIP3   OH228126   3.712   2.954   2.515
 9394TIP3    H128127   3.795   2.916   2.487
 9394TIP3    H228128   3.726   2.977   2.607
 9395TIP3   OH228129   0.936   5.087   1.012
 9395TIP3    H128130   0.894   5.173   1.011
 9395TIP3    H228131   0.978   5.080   0.926
 9396TIP3   OH228132   3.994   0.882   6.311
 9396TIP3    H128133   3.953   0.858   6.228
 9396TIP3    H228134   4.043   0.804   6.336
 9397TIP3   OH228135   6.053   1.672   3.992
 9397TIP3    H128136   6.067   1.586   3.950
 9397TIP3    H228137   6.085   1.660   4.082
 9398TIP3   OH228138   6.259   5.278   1.473
 9398TIP3    H128139   6.210   5.258   1.553
 9398TIP3    H228140   6.213   5.353   1.435
 9399TIP3   OH228141   1.078   3.591   1.821
 9399TIP3    H128142   1.089   3.543   1.903
 9399TIP3    H228143   1.049   3.679   1.848
 9400TIP3   OH228144   1.747   0.701   3.334
 9400TIP3    H128145   1.797   0.632   3.377
 9400TIP3    H228146   1.789   0.712   3.249
 9401TIP3   OH228147   3.221   5.755   6.338
 9401TIP3    H128148   3.275   5.687   6.298
 9401TIP3    H228149   3.265   5.776   6.420
 9402TIP3   OH228150   5.619   6.500   4.954
 9402TIP3    H128151   5.603   6.498   4.859
 9402TIP3    H228152   5.714   6.506   4.962
 9403TIP3   OH228153   0.393   4.560   1.252
 9403TIP3    H128154   0.446   4.543   1.329
 9403TIP3    H228155   0.302   4.557   1.284
 9404TIP3   OH228156   0.642   5.443   5.024
 9404TIP3    H128157   0.656   5.518   5.082
 9404TIP3    H228158   0.547   5.434   5.020
 9405TIP3   OH228159   2.088   4.151   4.828
 9405TIP3    H128160   2.054   4.212   4.893
 9405TIP3    H228161   2.042   4.174   4.747
 9406TIP3   OH228162   2.492   5.464   2.986
 9406TIP3    H128163   2.556   5.445   2.917
 9406TIP3    H228164   2.507   5.397   3.052
 9407TIP3   OH228165   2.150   5.502   2.999
 9407TIP3    H128166   2.154   5.483   2.905
 9407TIP3    H228167   2.226   5.457   3.035
 9408TIP3   OH228168   7.233   4.004   6.624
 9408TIP3    H128169   7.177   4.078   6.648
 9408TIP3    H228170   7.197   3.930   6.673
 9409TIP3   OH228171   0.554   2.042   3.598
 9409TIP3    H128172   0.501   1.962   3.608
 9409TIP3    H228173   0.577   2.066   3.688
 9410TIP3   OH228174   1.674   1.239   4.730
 9410TIP3    H128175   1.708   1.324   4.702
 9410TIP3    H228176   1.707   1.228   4.819
 9411TIP3   OH228177   5.609   4.249   6.038
 9411TIP3    H128178   5.656   4.328   6.064
 9411TIP3    H228179   5.620   4.244   5.943
 9412TIP3   OH228180   7.975   2.166   0.695
 9412TIP3    H128181   7.935   2.253   0.696
 9412TIP3    H228182   7.903   2.106   0.675
 9413TIP3   OH228183   8.029   0.423   4.520
 9413TIP3    H128184   8.012   0.351   4.460
 9413TIP3    H228185   8.099   0.473   4.478
 9414TIP3   OH228186   1.466   5.851   1.030
 9414TIP3    H128187   1.421   5.929   0.998
 9414TIP3    H228188   1.531   5.884   1.092
 9415TIP3   OH228189   4.114   4.965   2.381
 9415TIP3    H128190   4.113   4.960   2.476
 9415TIP3    H228191   4.022   4.973   2.356
 9416TIP3   OH228192   0.658   3.920   1.915
 9416TIP3    H128193   0.743   3.878   1.900
 9416TIP3    H228194   0.644   3.975   1.838
 9417TIP3   OH228195   2.035   3.348   0.820
 9417TIP3    H128196   2.058   3.365   0.728
 9417TIP3    H228197   1.940   3.339   0.819
 9418TIP3   OH228198   0.214   5.968   1.770
 9418TIP3    H128199   0.236   5.969   1.863
 9418TIP3    H228200   0.119   5.958   1.768
 9419TIP3   OH228201   3.289   0.807   6.451
 9419TIP3    H128202   3.299   0.760   6.534
 9419TIP3    H228203   3.340   0.756   6.389
 9420TIP3   OH228204   6.894   7.831   5.394
 9420TIP3    H128205   6.980   7.788   5.395
 9420TIP3    H228206   6.845   7.788   5.464
 9421TIP3   OH228207   7.359   6.401   3.313
 9421TIP3    H128208   7.347   6.330   3.250
 9421TIP3    H228209   7.439   6.445   3.285
 9422TIP3   OH228210   0.947   5.832   0.065
 9422TIP3    H128211   0.897   5.873   0.137
 9422TIP3    H228212   0.957   5.902   0.001
 9423TIP3   OH228213   6.081   6.366   1.921
 9423TIP3    H128214   6.083   6.279   1.961
 9423TIP3    H228215   6.173   6.391   1.911
 9424TIP3   OH228216   3.868   1.643   1.451
 9424TIP3    H128217   3.913   1.629   1.367
 9424TIP3    H228218   3.897   1.729   1.479
 9425TIP3   OH228219   2.120   0.630   6.406
 9425TIP3    H128220   2.188   0.563   6.398
 9425TIP3    H228221   2.164   0.712   6.379
 9426TIP3   OH228222   2.961   1.907   3.691
 9426TIP3    H128223   3.019   1.832   3.676
 9426TIP3    H228224   3.019   1.977   3.719
 9427TIP3   OH228225   5.297   4.718   3.908
 9427TIP3    H128226   5.351   4.705   3.986
 9427TIP3    H228227   5.327   4.801   3.872
 9428TIP3   OH228228   1.360   0.578   4.685
 9428TIP3    H128229   1.323   0.495   4.715
 9428TIP3    H228230   1.295   0.644   4.710
 9429TIP3   OH228231   6.022   5.878   3.065
 9429TIP3    H128232   6.024   5.788   3.032
 9429TIP3    H228233   6.089   5.924   3.015
 9430TIP3   OH228234   5.542   2.214   1.495
 9430TIP3    H128235   5.541   2.148   1.426
 9430TIP3    H228236   5.450   2.237   1.508
 9431TIP3   OH228237   1.808   2.938   3.798
 9431TIP3    H128238   1.890   2.985   3.813
 9431TIP3    H228239   1.752   3.001   3.753
 9432TIP3   OH228240   6.502   5.070   3.325
 9432TIP3    H128241   6.463   5.072   3.237
 9432TIP3    H228242   6.553   5.150   3.330
 9433TIP3   OH228243   5.407   4.066   6.139
 9433TIP3    H128244   5.399   4.047   6.233
 9433TIP3    H228245   5.496   4.101   6.130
 9434TIP3   OH228246   1.634   7.191   5.065
 9434TIP3    H128247   1.691   7.258   5.105
 9434TIP3    H228248   1.673   7.175   4.979
 9435TIP3   OH228249   3.152   7.210   3.037
 9435TIP3    H128250   3.078   7.267   3.017
 9435TIP3    H228251   3.202   7.206   2.956
 9436TIP3   OH228252   1.595   3.437   6.785
 9436TIP3    H128253   1.525   3.371   6.786
 9436TIP3    H228254   1.674   3.387   6.764
 9437TIP3   OH228255   4.565   0.902   5.191
 9437TIP3    H128256   4.522   0.966   5.135
 9437TIP3    H228257   4.592   0.832   5.131
 9438TIP3   OH228258   3.581   5.689   4.778
 9438TIP3    H128259   3.564   5.642   4.860
 9438TIP3    H228260   3.527   5.768   4.784
 9439TIP3   OH228261   6.101   2.004   4.758
 9439TIP3    H128262   6.036   2.008   4.828
 9439TIP3    H228263   6.119   2.096   4.738
 9440TIP3   OH228264   7.727   3.972   3.967
 9440TIP3    H128265   7.803   3.933   3.926
 9440TIP3    H228266   7.743   4.066   3.961
 9441TIP3   OH228267   6.252   1.415   0.048
 9441TIP3    H128268   6.312   1.387  -0.021
 9441TIP3    H228269   6.165   1.405   0.010
 9442TIP3   OH228270   4.541   7.663   1.183
 9442TIP3    H128271   4.504   7.575   1.194
 9442TIP3    H228272   4.634   7.648   1.166
 9443TIP3   OH228273   7.453   6.335   2.248
 9443TIP3    H128274   7.493   6.254   2.280
 9443TIP3    H228275   7.406   6.370   2.323
 9444TIP3   OH228276   4.321   1.543   0.317
 9444TIP3    H128277   4.345   1.635   0.328
 9444TIP3    H228278   4.404   1.499   0.298
 9445TIP3   OH228279   8.237   7.230   3.416
 9445TIP3    H128280   8.321   7.251   3.457
 9445TIP3    H228281   8.225   7.297   3.349
 9446TIP3   OH228282   4.715   4.601   2.006
 9446TIP3    H128283   4.796   4.650   2.015
 9446TIP3    H228284   4.654   4.642   2.067
 9447TIP3   OH228285   1.794   3.507   3.684
 9447TIP3    H128286   1.839   3.526   3.767
 9447TIP3    H228287   1.701   3.508   3.707
 9448TIP3   OH228288   4.572   5.589   1.570
 9448TIP3    H128289   4.591   5.581   1.664
 9448TIP3    H228290   4.657   5.604   1.529
 9449TIP3   OH228291   7.340   7.419   0.421
 9449TIP3    H128292   7.416   7.406   0.479
 9449TIP3    H228293   7.378   7.451   0.339
 9450TIP3   OH228294   3.263   4.191   2.400
 9450TIP3    H128295   3.220   4.178   2.485
 9450TIP3    H228296   3.201   4.244   2.350
 9451TIP3   OH228297   6.185   3.382   6.344
 9451TIP3    H128298   6.240   3.305   6.332
 9451TIP3    H228299   6.165   3.383   6.437
 9452TIP3   OH228300   6.057   1.973   0.613
 9452TIP3    H128301   5.997   1.961   0.687
 9452TIP3    H228302   6.144   1.959   0.650
 9453TIP3   OH228303   7.754   7.575   3.171
 9453TIP3    H128304   7.762   7.662   3.133
 9453TIP3    H228305   7.661   7.553   3.161
 9454TIP3   OH228306   3.052   5.318   5.446
 9454TIP3    H128307   2.996   5.387   5.481
 9454TIP3    H228308   3.055   5.334   5.352
 9455TIP3   OH228309   3.861   7.031   1.257
 9455TIP3    H128310   3.917   7.108   1.270
 9455TIP3    H228311   3.923   6.959   1.247
 9456TIP3   OH228312   5.616   4.537   1.174
 9456TIP3    H128313   5.605   4.591   1.252
 9456TIP3    H228314   5.649   4.453   1.206
 9457TIP3   OH228315   5.473   6.636   5.755
 9457TIP3    H128316   5.394   6.637   5.809
 9457TIP3    H228317   5.447   6.682   5.674
 9458TIP3   OH228318   6.766   6.719   2.670
 9458TIP3    H128319   6.833   6.781   2.699
 9458TIP3    H228320   6.742   6.670   2.749
 9459TIP3   OH228321   0.273   0.829   4.693
 9459TIP3    H128322   0.366   0.835   4.670
 9459TIP3    H228323   0.245   0.921   4.699
 9460TIP3   OH228324   6.627   1.513   3.431
 9460TIP3    H128325   6.581   1.562   3.363
 9460TIP3    H228326   6.719   1.514   3.403
 9461TIP3   OH228327   7.991   1.196   3.678
 9461TIP3    H128328   8.036   1.190   3.594
 9461TIP3    H228329   7.898   1.192   3.656
 9462TIP3   OH228330   1.715   0.715   0.287
 9462TIP3    H128331   1.643   0.777   0.300
 9462TIP3    H228332   1.673   0.639   0.246
 9463TIP3   OH228333   5.630   2.014   5.988
 9463TIP3    H128334   5.569   2.071   5.941
 9463TIP3    H228335   5.675   2.073   6.049
 9464TIP3   OH228336   7.836   6.718   0.184
 9464TIP3    H128337   7.924   6.685   0.202
 9464TIP3    H228338   7.843   6.757   0.097
 9465TIP3   OH228339   2.845   5.725   3.137
 9465TIP3    H128340   2.920   5.740   3.195
 9465TIP3    H228341   2.805   5.644   3.169
 9466TIP3   OH228342   5.454   6.310   6.695
 9466TIP3    H128343   5.542   6.281   6.720
 9466TIP3    H228344   5.405   6.312   6.776
 9467TIP3   OH228345   5.302   6.050   1.918
 9467TIP3    H128346   5.299   6.061   1.823
 9467TIP3    H228347   5.245   6.119   1.951
 9468TIP3   OH228348   1.544   7.276   3.013
 9468TIP3    H128349   1.530   7.317   3.098
 9468TIP3    H228350   1.634   7.243   3.016
 9469TIP3   OH228351   7.526   4.336   2.963
 9469TIP3    H128352   7.533   4.401   2.893
 9469TIP3    H228353   7.448   4.362   3.012
 9470TIP3   OH228354   6.303   4.947   2.863
 9470TIP3    H128355   6.359   5.006   2.913
 9470TIP3    H228356   6.258   4.895   2.930
 9471TIP3   OH228357   3.791   2.815   6.682
 9471TIP3    H128358   3.830   2.740   6.726
 9471TIP3    H228359   3.701   2.787   6.662
 9472TIP3   OH228360   3.168   5.183   4.695
 9472TIP3    H128361   3.247   5.170   4.748
 9472TIP3    H228362   3.199   5.181   4.605
 9473TIP3   OH228363   5.082   6.855   1.269
 9473TIP3    H128364   5.020   6.856   1.197
 9473TIP3    H228365   5.113   6.945   1.276
 9474TIP3   OH228366   5.859   0.553   3.871
 9474TIP3    H128367   5.832   0.516   3.955
 9474TIP3    H228368   5.777   0.579   3.829
 9475TIP3   OH228369   6.159   2.462   0.727
 9475TIP3    H128370   6.092   2.477   0.660
 9475TIP3    H228371   6.237   2.437   0.677
 9476TIP3   OH228372   3.791   2.998   0.164
 9476TIP3    H128373   3.712   3.039   0.129
 9476TIP3    H228374   3.857   3.068   0.161
 9477TIP3   OH228375   0.386   0.013   5.901
 9477TIP3    H128376   0.399  -0.073   5.860
 9477TIP3    H228377   0.402   0.076   5.831
 9478TIP3   OH228378   1.434   0.823   5.708
 9478TIP3    H128379   1.474   0.799   5.792
 9478TIP3    H228380   1.508   0.829   5.647
 9479TIP3   OH228381   7.274   0.210   4.924
 9479TIP3    H128382   7.250   0.184   5.013
 9479TIP3    H228383   7.340   0.278   4.936
 9480TIP3   OH228384   3.058   5.681   3.308
 9480TIP3    H128385   3.081   5.588   3.310
 9480TIP3    H228386   3.004   5.694   3.386
 9481TIP3   OH228387   3.643   2.682   4.330
 9481TIP3    H128388   3.575   2.714   4.389
 9481TIP3    H228389   3.721   2.733   4.354
 9482TIP3   OH228390   2.223   0.822   3.099
 9482TIP3    H128391   2.169   0.900   3.103
 9482TIP3    H228392   2.232   0.804   3.005
 9483TIP3   OH228393   3.533   0.735   2.388
 9483TIP3    H128394   3.480   0.663   2.352
 9483TIP3    H228395   3.608   0.691   2.428
 9484TIP3   OH228396   5.276   3.605   6.270
 9484TIP3    H128397   5.208   3.552   6.313
 9484TIP3    H228398   5.288   3.680   6.329
 9485TIP3   OH228399   0.588   3.545   6.111
 9485TIP3    H128400   0.561   3.605   6.041
 9485TIP3    H228401   0.530   3.469   6.101
 9486TIP3   OH228402   5.687   7.054   5.661
 9486TIP3    H128403   5.678   7.145   5.634
 9486TIP3    H228404   5.598   7.019   5.659
 9487TIP3   OH228405   1.361   1.711   0.292
 9487TIP3    H128406   1.304   1.634   0.289
 9487TIP3    H228407   1.374   1.734   0.201
 9488TIP3   OH228408   6.364   1.147   0.509
 9488TIP3    H128409   6.425   1.121   0.578
 9488TIP3    H228410   6.414   1.139   0.428
 9489TIP3   OH228411   4.654   2.492   4.259
 9489TIP3    H128412   4.658   2.445   4.343
 9489TIP3    H228413   4.626   2.425   4.197
 9490TIP3   OH228414   0.940   7.109   3.826
 9490TIP3    H128415   0.973   7.189   3.786
 9490TIP3    H228416   0.865   7.084   3.772
 9491TIP3   OH228417   0.240   1.587   0.634
 9491TIP3    H128418   0.238   1.491   0.635
 9491TIP3    H228419   0.148   1.613   0.642
 9492TIP3   OH228420   2.790   0.377   3.750
 9492TIP3    H128421   2.813   0.373   3.843
 9492TIP3    H228422   2.695   0.371   3.748
 9493TIP3   OH228423   7.091   1.322   0.771
 9493TIP3    H128424   7.103   1.275   0.688
 9493TIP3    H228425   7.166   1.381   0.776
 9494TIP3   OH228426   1.349   1.493   6.168
 9494TIP3    H128427   1.358   1.515   6.260
 9494TIP3    H228428   1.278   1.429   6.165
 9495TIP3   OH228429   3.374   6.517   2.098
 9495TIP3    H128430   3.331   6.600   2.118
 9495TIP3    H228431   3.437   6.538   2.029
 9496TIP3   OH228432   7.729   3.178   4.997
 9496TIP3    H128433   7.662   3.166   5.064
 9496TIP3    H228434   7.687   3.232   4.930
 9497TIP3   OH228435   3.426   6.209   5.848
 9497TIP3    H128436   3.333   6.200   5.827
 9497TIP3    H228437   3.440   6.303   5.856
 9498TIP3   OH228438   3.130   7.615   0.293
 9498TIP3    H128439   3.117   7.622   0.388
 9498TIP3    H228440   3.210   7.563   0.284
 9499TIP3   OH228441   1.739   0.563   5.774
 9499TIP3    H128442   1.777   0.647   5.801
 9499TIP3    H228443   1.689   0.533   5.850
 9500TIP3   OH228444   3.073   5.272   0.252
 9500TIP3    H128445   3.148   5.292   0.308
 9500TIP3    H228446   3.093   5.186   0.214
 9501TIP3   OH228447   7.022   7.434   3.901
 9501TIP3    H128448   6.953   7.369   3.915
 9501TIP3    H228449   7.032   7.478   3.986
 9502TIP3   OH228450   6.615   4.745   6.704
 9502TIP3    H128451   6.565   4.794   6.768
 9502TIP3    H228452   6.571   4.659   6.700
 9503TIP3   OH228453   2.743   5.192   4.945
 9503TIP3    H128454   2.815   5.153   4.895
 9503TIP3    H228455   2.759   5.286   4.941
 9504TIP3   OH228456   2.796   3.345   5.285
 9504TIP3    H128457   2.785   3.436   5.255
 9504TIP3    H228458   2.775   3.349   5.378
 9505TIP3   OH228459   1.302   2.101   2.401
 9505TIP3    H128460   1.232   2.137   2.456
 9505TIP3    H228461   1.351   2.178   2.371
 9506TIP3   OH228462   4.832   0.874   4.465
 9506TIP3    H128463   4.757   0.854   4.522
 9506TIP3    H228464   4.796   0.869   4.376
 9507TIP3   OH228465   1.969   7.727   1.409
 9507TIP3    H128466   2.015   7.805   1.439
 9507TIP3    H228467   2.038   7.662   1.397
 9508TIP3   OH228468   4.647   0.601   1.939
 9508TIP3    H128469   4.740   0.581   1.951
 9508TIP3    H228470   4.630   0.674   1.998
 9509TIP3   OH228471   5.759   2.941   5.991
 9509TIP3    H128472   5.720   3.018   6.032
 9509TIP3    H228473   5.769   2.879   6.064
 9510TIP3   OH228474   3.755   2.939   4.813
 9510TIP3    H128475   3.846   2.920   4.836
 9510TIP3    H228476   3.740   3.028   4.847
 9511TIP3   OH228477   5.078   5.352   3.626
 9511TIP3    H128478   5.075   5.447   3.640
 9511TIP3    H228479   4.987   5.324   3.635
 9512TIP3   OH228480   2.691   3.030   2.858
 9512TIP3    H128481   2.706   2.948   2.905
 9512TIP3    H228482   2.769   3.040   2.803
 9513TIP3   OH228483   5.594   4.085   4.973
 9513TIP3    H128484   5.629   4.169   5.005
 9513TIP3    H228485   5.634   4.073   4.887
 9514TIP3   OH228486   1.603   5.593   0.617
 9514TIP3    H128487   1.636   5.643   0.691
 9514TIP3    H228488   1.532   5.646   0.582
 9515TIP3   OH228489   0.774   1.036   2.566
 9515TIP3    H128490   0.730   1.105   2.614
 9515TIP3    H228491   0.860   1.073   2.543
 9516TIP3   OH228492   7.208   2.912   1.293
 9516TIP3    H128493   7.303   2.923   1.280
 9516TIP3    H228494   7.173   2.906   1.204
 9517TIP3   OH228495   3.843   0.313   5.823
 9517TIP3    H128496   3.921   0.323   5.878
 9517TIP3    H228497   3.873   0.257   5.751
 9518TIP3   OH228498   4.414   7.001   6.706
 9518TIP3    H128499   4.442   6.943   6.635
 9518TIP3    H228500   4.469   6.977   6.780
 9519TIP3   OH228501   1.530   6.121   5.706
 9519TIP3    H128502   1.442   6.153   5.727
 9519TIP3    H228503   1.588   6.169   5.766
 9520TIP3   OH228504   6.276   5.837   4.522
 9520TIP3    H128505   6.314   5.793   4.597
 9520TIP3    H228506   6.316   5.796   4.446
 9521TIP3   OH228507   7.175   4.178   3.771
 9521TIP3    H128508   7.148   4.115   3.837
 9521TIP3    H228509   7.100   4.237   3.762
 9522TIP3   OH228510   3.736   4.291   3.432
 9522TIP3    H128511   3.805   4.228   3.452
 9522TIP3    H228512   3.695   4.257   3.352
 9523TIP3   OH228513   5.469   7.710   0.642
 9523TIP3    H128514   5.518   7.651   0.699
 9523TIP3    H228515   5.478   7.672   0.555
 9524TIP3   OH228516   4.430   6.827   1.403
 9524TIP3    H128517   4.444   6.847   1.310
 9524TIP3    H228518   4.337   6.841   1.418
 9525TIP3   OH228519   3.336   0.178   3.991
 9525TIP3    H128520   3.354   0.135   3.908
 9525TIP3    H228521   3.408   0.152   4.048
 9526TIP3   OH228522   7.443   4.252   3.802
 9526TIP3    H128523   7.486   4.170   3.825
 9526TIP3    H228524   7.350   4.231   3.800
 9527TIP3   OH228525   6.387   0.730   6.632
 9527TIP3    H128526   6.337   0.650   6.618
 9527TIP3    H228527   6.461   0.703   6.687
 9528TIP3   OH228528   5.613   2.935   4.165
 9528TIP3    H128529   5.579   3.025   4.161
 9528TIP3    H228530   5.539   2.881   4.140
 9529TIP3   OH228531   6.627   5.012   6.602
 9529TIP3    H128532   6.602   5.045   6.688
 9529TIP3    H228533   6.601   4.920   6.603
 9530TIP3   OH228534   2.825   4.684   1.579
 9530TIP3    H128535   2.877   4.662   1.657
 9530TIP3    H228536   2.796   4.599   1.545
 9531TIP3   OH228537   2.468   1.188   0.789
 9531TIP3    H128538   2.389   1.189   0.844
 9531TIP3    H228539   2.440   1.145   0.708
 9532TIP3   OH228540   2.273   4.498   0.140
 9532TIP3    H128541   2.246   4.483   0.231
 9532TIP3    H228542   2.224   4.433   0.090
 9533TIP3   OH228543   7.039   0.184   0.985
 9533TIP3    H128544   7.047   0.132   1.065
 9533TIP3    H228545   7.127   0.216   0.968
 9534TIP3   OH228546   5.539   0.846   2.061
 9534TIP3    H128547   5.519   0.844   2.155
 9534TIP3    H228548   5.506   0.931   2.032
 9535TIP3   OH228549   4.042   1.417   2.031
 9535TIP3    H128550   4.060   1.340   1.976
 9535TIP3    H228551   4.108   1.414   2.099
 9536TIP3   OH228552   3.364   4.254   3.445
 9536TIP3    H128553   3.435   4.248   3.381
 9536TIP3    H228554   3.400   4.213   3.524
 9537TIP3   OH228555   0.812   6.173   1.940
 9537TIP3    H128556   0.815   6.266   1.918
 9537TIP3    H228557   0.874   6.164   2.013
 9538TIP3   OH228558   0.793   7.138   0.342
 9538TIP3    H128559   0.719   7.125   0.283
 9538TIP3    H228560   0.754   7.179   0.420
 9539TIP3   OH228561   6.114   4.863   0.812
 9539TIP3    H128562   6.207   4.843   0.819
 9539TIP3    H228563   6.071   4.778   0.803
 9540TIP3   OH228564   5.489   1.664   4.547
 9540TIP3    H128565   5.505   1.691   4.638
 9540TIP3    H228566   5.491   1.746   4.498
 9541TIP3   OH228567   4.430   0.051   5.093
 9541TIP3    H128568   4.388  -0.032   5.117
 9541TIP3    H228569   4.504   0.058   5.153
 9542TIP3   OH228570   2.819   4.521   4.861
 9542TIP3    H128571   2.728   4.501   4.885
 9542TIP3    H228572   2.868   4.508   4.941
 9543TIP3   OH228573   1.311   5.491   2.520
 9543TIP3    H128574   1.224   5.531   2.514
 9543TIP3    H228575   1.323   5.449   2.435
 9544TIP3   OH228576   4.244   5.658   6.803
 9544TIP3    H128577   4.307   5.700   6.745
 9544TIP3    H228578   4.186   5.610   6.744
 9545TIP3   OH228579   1.639   3.022   0.279
 9545TIP3    H128580   1.719   2.983   0.244
 9545TIP3    H228581   1.585   3.040   0.202
 9546TIP3   OH228582   5.474   0.778   1.367
 9546TIP3    H128583   5.420   0.760   1.290
 9546TIP3    H228584   5.563   0.756   1.340
 9547TIP3   OH228585   1.075   4.917   3.541
 9547TIP3    H128586   1.025   4.836   3.551
 9547TIP3    H228587   1.153   4.904   3.594
 9548TIP3   OH228588   4.294   6.682   2.587
 9548TIP3    H128589   4.255   6.760   2.548
 9548TIP3    H228590   4.218   6.627   2.610
 9549TIP3   OH228591   5.042   3.785   0.263
 9549TIP3    H128592   4.974   3.755   0.202
 9549TIP3    H228593   5.003   3.862   0.305
 9550TIP3   OH228594   2.562   4.230   0.558
 9550TIP3    H128595   2.615   4.226   0.637
 9550TIP3    H228596   2.596   4.159   0.503
 9551TIP3   OH228597   4.556   0.873   6.050
 9551TIP3    H128598   4.540   0.825   5.969
 9551TIP3    H228599   4.591   0.957   6.022
 9552TIP3   OH228600   5.811   0.332   6.253
 9552TIP3    H128601   5.820   0.247   6.296
 9552TIP3    H228602   5.858   0.322   6.170
 9553TIP3   OH228603   4.131   1.052   6.037
 9553TIP3    H128604   4.143   0.966   5.997
 9553TIP3    H228605   4.200   1.057   6.103
 9554TIP3   OH228606   4.687   6.258   5.421
 9554TIP3    H128607   4.658   6.302   5.500
 9554TIP3    H228608   4.619   6.278   5.356
 9555TIP3   OH228609   1.901   0.636   2.025
 9555TIP3    H128610   1.977   0.577   2.025
 9555TIP3    H228611   1.880   0.647   2.118
 9556TIP3   OH228612   2.004   3.616   6.103
 9556TIP3    H128613   1.944   3.680   6.065
 9556TIP3    H228614   1.958   3.532   6.093
 9557TIP3   OH228615   4.480   3.215   1.038
 9557TIP3    H128616   4.441   3.219   0.950
 9557TIP3    H228617   4.417   3.164   1.089
 9558TIP3   OH228618   7.515   4.971   0.541
 9558TIP3    H128619   7.593   4.954   0.488
 9558TIP3    H228620   7.461   5.029   0.486
 9559TIP3   OH228621   5.575   0.699   5.653
 9559TIP3    H128622   5.616   0.619   5.686
 9559TIP3    H228623   5.493   0.706   5.702
 9560TIP3   OH228624   5.613   6.627   0.832
 9560TIP3    H128625   5.669   6.574   0.775
 9560TIP3    H228626   5.585   6.700   0.776
 9561TIP3   OH228627   0.745   3.959   4.864
 9561TIP3    H128628   0.815   4.022   4.853
 9561TIP3    H228629   0.674   3.992   4.810
 9562TIP3   OH228630   1.957   1.157   3.516
 9562TIP3    H128631   1.888   1.093   3.497
 9562TIP3    H228632   1.909   1.234   3.547
 9563TIP3   OH228633   3.721   5.400   2.850
 9563TIP3    H128634   3.706   5.480   2.901
 9563TIP3    H228635   3.794   5.421   2.793
 9564TIP3   OH228636   1.288   5.846   4.272
 9564TIP3    H128637   1.366   5.851   4.327
 9564TIP3    H228638   1.312   5.787   4.201
 9565TIP3   OH228639   3.884   6.703   2.193
 9565TIP3    H128640   3.954   6.717   2.129
 9565TIP3    H228641   3.863   6.610   2.187
 9566TIP3   OH228642   1.613   2.488   5.475
 9566TIP3    H128643   1.548   2.417   5.473
 9566TIP3    H228644   1.624   2.513   5.383
 9567TIP3   OH228645   4.225   4.549   5.098
 9567TIP3    H128646   4.173   4.622   5.130
 9567TIP3    H228647   4.262   4.509   5.177
 9568TIP3   OH228648   2.144   5.838   2.523
 9568TIP3    H128649   2.164   5.746   2.503
 9568TIP3    H228650   2.072   5.860   2.464
 9569TIP3   OH228651   4.966   0.695   6.348
 9569TIP3    H128652   4.917   0.629   6.397
 9569TIP3    H228653   4.899   0.746   6.303
 9570TIP3   OH228654   6.784   5.550   4.607
 9570TIP3    H128655   6.860   5.598   4.573
 9570TIP3    H228656   6.737   5.614   4.660
 9571TIP3   OH228657   4.236   1.353   5.841
 9571TIP3    H128658   4.189   1.336   5.759
 9571TIP3    H228659   4.183   1.419   5.886
 9572TIP3   OH228660   7.277   5.508   5.782
 9572TIP3    H128661   7.249   5.465   5.863
 9572TIP3    H228662   7.265   5.601   5.799
 9573TIP3   OH228663   1.929   4.283   4.595
 9573TIP3    H128664   1.897   4.357   4.544
 9573TIP3    H228665   1.899   4.206   4.546
 9574TIP3   OH228666   2.839   5.987   5.978
 9574TIP3    H128667   2.830   6.035   5.895
 9574TIP3    H228668   2.868   6.054   6.040
 9575TIP3   OH228669   0.195   1.051   5.270
 9575TIP3    H128670   0.108   1.075   5.238
 9575TIP3    H228671   0.180   0.971   5.322
 9576TIP3   OH228672   3.187   3.930   6.615
 9576TIP3    H128673   3.163   3.974   6.697
 9576TIP3    H228674   3.131   3.853   6.612
 9577TIP3   OH228675   1.781   4.274   1.151
 9577TIP3    H128676   1.852   4.278   1.086
 9577TIP3    H228677   1.770   4.365   1.180
 9578TIP3   OH228678   4.093   3.093   4.288
 9578TIP3    H128679   4.137   3.025   4.340
 9578TIP3    H228680   4.060   3.154   4.354
 9579TIP3   OH228681   1.793   1.688   0.366
 9579TIP3    H128682   1.829   1.777   0.366
 9579TIP3    H228683   1.824   1.650   0.449
 9580TIP3   OH228684   2.779   5.460   0.497
 9580TIP3    H128685   2.834   5.483   0.422
 9580TIP3    H228686   2.814   5.377   0.529
 9581TIP3   OH228687   2.938   0.804   0.017
 9581TIP3    H128688   2.925   0.709   0.012
 9581TIP3    H228689   2.924   0.835  -0.072
 9582TIP3   OH228690   7.490   0.764   1.870
 9582TIP3    H128691   7.405   0.727   1.846
 9582TIP3    H228692   7.474   0.804   1.956
 9583TIP3   OH228693   0.248   6.652   1.053
 9583TIP3    H128694   0.338   6.635   1.082
 9583TIP3    H228695   0.255   6.731   0.999
 9584TIP3   OH228696   2.244   5.763   0.905
 9584TIP3    H128697   2.153   5.737   0.921
 9584TIP3    H228698   2.257   5.838   0.963
 9585TIP3   OH228699   7.863   2.356   3.609
 9585TIP3    H128700   7.891   2.264   3.616
 9585TIP3    H228701   7.775   2.351   3.572
 9586TIP3   OH228702   0.033   5.231   6.429
 9586TIP3    H128703  -0.052   5.214   6.468
 9586TIP3    H228704   0.017   5.298   6.363
 9587TIP3   OH228705   0.505   3.351   6.533
 9587TIP3    H128706   0.447   3.408   6.585
 9587TIP3    H228707   0.446   3.305   6.473
 9588TIP3   OH228708   2.134   2.898   2.351
 9588TIP3    H128709   2.166   2.808   2.360
 9588TIP3    H228710   2.205   2.952   2.384
 9589TIP3   OH228711   0.349   5.340   2.824
 9589TIP3    H128712   0.286   5.288   2.874
 9589TIP3    H228713   0.412   5.276   2.789
 9590TIP3   OH228714   5.243   5.715   6.229
 9590TIP3    H128715   5.214   5.788   6.283
 9590TIP3    H228716   5.202   5.638   6.269
 9591TIP3   OH228717   1.684   0.785   6.321
 9591TIP3    H128718   1.660   0.703   6.277
 9591TIP3    H228719   1.600   0.829   6.337
 9592TIP3   OH228720   2.148   4.510   4.097
 9592TIP3    H128721   2.231   4.472   4.067
 9592TIP3    H228722   2.122   4.569   4.026
 9593TIP3   OH228723   3.633   4.355   5.217
 9593TIP3    H128724   3.714   4.304   5.204
 9593TIP3    H228725   3.664   4.443   5.237
 9594TIP3   OH228726   3.910  -0.089   4.150
 9594TIP3    H128727   4.002  -0.108   4.134
 9594TIP3    H228728   3.906   0.006   4.158
 9595TIP3   OH228729   6.702   5.532   5.665
 9595TIP3    H128730   6.667   5.503   5.749
 9595TIP3    H228731   6.744   5.455   5.628
 9596TIP3   OH228732   2.055   4.135   6.626
 9596TIP3    H128733   2.139   4.097   6.600
 9596TIP3    H228734   2.030   4.086   6.705
 9597TIP3   OH228735   6.009   4.786   0.114
 9597TIP3    H128736   6.014   4.826   0.027
 9597TIP3    H228737   6.045   4.851   0.173
 9598TIP3   OH228738   6.704   4.928   6.247
 9598TIP3    H128739   6.780   4.872   6.237
 9598TIP3    H228740   6.740   5.013   6.273
 9599TIP3   OH228741   4.154   0.416   2.043
 9599TIP3    H128742   4.183   0.388   2.130
 9599TIP3    H228743   4.118   0.504   2.058
 9600TIP3   OH228744   4.774   5.872   1.174
 9600TIP3    H128745   4.712   5.941   1.198
 9600TIP3    H228746   4.787   5.883   1.079
 9601TIP3   OH228747   7.344   4.444   0.455
 9601TIP3    H128748   7.374   4.499   0.526
 9601TIP3    H228749   7.317   4.362   0.497
 9602TIP3   OH228750   0.109   0.255   0.530
 9602TIP3    H128751   0.110   0.350   0.541
 9602TIP3    H228752   0.029   0.237   0.482
 9603TIP3   OH228753   7.361   5.983   5.379
 9603TIP3    H128754   7.431   6.040   5.411
 9603TIP3    H228755   7.347   6.011   5.289
 9604TIP3   OH228756   6.634   4.030   1.061
 9604TIP3    H128757   6.624   3.940   1.028
 9604TIP3    H228758   6.640   4.021   1.156
 9605TIP3   OH228759   1.686   5.453   2.560
 9605TIP3    H128760   1.616   5.388   2.563
 9605TIP3    H228761   1.727   5.442   2.474
 9606TIP3   OH228762   1.885   0.894   6.750
 9606TIP3    H128763   1.955   0.835   6.722
 9606TIP3    H228764   1.879   0.880   6.845
 9607TIP3   OH228765   5.435   1.715   0.181
 9607TIP3    H128766   5.388   1.739   0.261
 9607TIP3    H228767   5.404   1.778   0.115
 9608TIP3   OH228768   5.350   1.771   2.927
 9608TIP3    H128769   5.387   1.706   2.987
 9608TIP3    H228770   5.420   1.836   2.916
 9609TIP3   OH228771   2.485   2.792   1.538
 9609TIP3    H128772   2.434   2.712   1.551
 9609TIP3    H228773   2.419   2.859   1.521
 9610TIP3   OH228774   3.810   0.852   2.499
 9610TIP3    H128775   3.841   0.789   2.434
 9610TIP3    H228776   3.792   0.932   2.450
 9611TIP3   OH228777   5.921   3.159   0.232
 9611TIP3    H128778   5.907   3.251   0.253
 9611TIP3    H228779   5.999   3.134   0.283
 9612TIP3   OH228780   0.139   1.063   3.870
 9612TIP3    H128781   0.195   1.000   3.916
 9612TIP3    H228782   0.124   1.133   3.934
 9613TIP3   OH228783   4.689   4.422   0.588
 9613TIP3    H128784   4.719   4.354   0.648
 9613TIP3    H228785   4.768   4.452   0.543
 9614TIP3   OH228786   3.929   7.638   1.268
 9614TIP3    H128787   3.941   7.585   1.346
 9614TIP3    H228788   4.011   7.687   1.260
 9615TIP3   OH228789   5.913   3.038   4.824
 9615TIP3    H128790   5.928   2.944   4.837
 9615TIP3    H228791   5.826   3.053   4.859
 9616TIP3   OH228792   8.132   6.689   3.013
 9616TIP3    H128793   8.186   6.649   3.082
 9616TIP3    H228794   8.111   6.776   3.046
 9617TIP3   OH228795   1.090   4.865   1.977
 9617TIP3    H128796   1.016   4.844   2.033
 9617TIP3    H228797   1.116   4.953   2.003
 9618TIP3   OH228798   7.261   6.911   5.137
 9618TIP3    H128799   7.256   6.997   5.097
 9618TIP3    H228800   7.188   6.862   5.098
 9619TIP3   OH228801   6.949   3.378   1.598
 9619TIP3    H128802   6.925   3.411   1.511
 9619TIP3    H228803   6.899   3.297   1.607
 9620TIP3   OH228804   3.563   3.635   4.112
 9620TIP3    H128805   3.586   3.558   4.061
 9620TIP3    H228806   3.473   3.619   4.141
 9621TIP3   OH228807   2.535   1.537   2.475
 9621TIP3    H128808   2.627   1.530   2.498
 9621TIP3    H228809   2.509   1.448   2.451
 9622TIP3   OH228810   4.356   5.977   6.729
 9622TIP3    H128811   4.414   6.032   6.676
 9622TIP3    H228812   4.278   5.965   6.676
 9623TIP3   OH228813   0.333   2.533   5.956
 9623TIP3    H128814   0.296   2.618   5.982
 9623TIP3    H228815   0.262   2.491   5.907
 9624TIP3   OH228816   7.863   7.590   4.967
 9624TIP3    H128817   7.914   7.570   4.888
 9624TIP3    H228818   7.780   7.544   4.954
 9625TIP3   OH228819   1.816   1.441   1.903
 9625TIP3    H128820   1.748   1.477   1.845
 9625TIP3    H228821   1.804   1.347   1.897
 9626TIP3   OH228822   6.463   3.002   1.564
 9626TIP3    H128823   6.460   3.075   1.626
 9626TIP3    H228824   6.499   3.040   1.483
 9627TIP3   OH228825   0.615   5.249   4.460
 9627TIP3    H128826   0.605   5.191   4.536
 9627TIP3    H228827   0.613   5.337   4.496
 9628TIP3   OH228828   6.950   2.695   3.623
 9628TIP3    H128829   6.998   2.721   3.702
 9628TIP3    H228830   6.867   2.743   3.630
 9629TIP3   OH228831   1.126   1.255   3.168
 9629TIP3    H128832   1.140   1.275   3.260
 9629TIP3    H228833   1.064   1.322   3.139
 9630TIP3   OH228834   0.531   2.522   2.163
 9630TIP3    H128835   0.584   2.532   2.242
 9630TIP3    H228836   0.444   2.554   2.190
 9631TIP3   OH228837   7.615   6.131   5.520
 9631TIP3    H128838   7.698   6.086   5.504
 9631TIP3    H228839   7.609   6.196   5.449
 9632TIP3   OH228840   5.030   1.834   0.303
 9632TIP3    H128841   5.056   1.891   0.231
 9632TIP3    H228842   4.991   1.893   0.367
 9633TIP3   OH228843   7.069   1.312   4.151
 9633TIP3    H128844   7.073   1.228   4.196
 9633TIP3    H228845   7.052   1.375   4.221
 9634TIP3   OH228846   1.681   2.839   5.283
 9634TIP3    H128847   1.753   2.813   5.225
 9634TIP3    H228848   1.604   2.843   5.227
 9635TIP3   OH228849   7.253   5.748   3.215
 9635TIP3    H128850   7.199   5.740   3.294
 9635TIP3    H228851   7.323   5.808   3.240
 9636TIP3   OH228852   0.744   0.334   0.227
 9636TIP3    H128853   0.715   0.425   0.228
 9636TIP3    H228854   0.703   0.295   0.304
 9637TIP3   OH228855   5.968   4.301   4.135
 9637TIP3    H128856   5.991   4.369   4.199
 9637TIP3    H228857   5.874   4.288   4.147
 9638TIP3   OH228858   8.011   6.059   0.724
 9638TIP3    H128859   7.996   6.136   0.779
 9638TIP3    H228860   8.029   6.095   0.637
 9639TIP3   OH228861   7.312   5.818   5.595
 9639TIP3    H128862   7.247   5.758   5.557
 9639TIP3    H228863   7.345   5.868   5.520
 9640TIP3   OH228864   6.171   6.806  -0.010
 9640TIP3    H128865   6.154   6.889   0.033
 9640TIP3    H228866   6.158   6.740   0.059
 9641TIP3   OH228867   6.508   0.140   4.215
 9641TIP3    H128868   6.495   0.107   4.304
 9641TIP3    H228869   6.460   0.078   4.159
 9642TIP3   OH228870   0.293   1.842   2.010
 9642TIP3    H128871   0.356   1.859   1.940
 9642TIP3    H228872   0.268   1.750   1.999
 9643TIP3   OH228873   5.875   5.022   0.867
 9643TIP3    H128874   5.812   5.009   0.796
 9643TIP3    H228875   5.955   4.980   0.835
 9644TIP3   OH228876   1.611   5.477   6.728
 9644TIP3    H128877   1.684   5.538   6.729
 9644TIP3    H228878   1.622   5.427   6.647
 9645TIP3   OH228879   1.609   7.544   1.180
 9645TIP3    H128880   1.566   7.549   1.095
 9645TIP3    H228881   1.639   7.634   1.197
 9646TIP3   OH228882   0.950   0.818   0.026
 9646TIP3    H128883   0.857   0.825   0.050
 9646TIP3    H228884   0.950   0.791  -0.065
 9647TIP3   OH228885   0.745   0.190   2.890
 9647TIP3    H128886   0.748   0.117   2.952
 9647TIP3    H228887   0.806   0.255   2.925
 9648TIP3   OH228888   8.252   7.565   6.050
 9648TIP3    H128889   8.232   7.478   6.085
 9648TIP3    H228890   8.177   7.586   5.994
 9649TIP3   OH228891   5.245   6.016   5.139
 9649TIP3    H128892   5.261   5.935   5.091
 9649TIP3    H228893   5.152   6.034   5.125
 9650TIP3   OH228894   3.858   0.680   3.409
 9650TIP3    H128895   3.843   0.635   3.492
 9650TIP3    H228896   3.933   0.635   3.371
 9651TIP3   OH228897   2.752   6.574   3.785
 9651TIP3    H128898   2.725   6.663   3.760
 9651TIP3    H228899   2.826   6.587   3.844
 9652TIP3   OH228900   4.000   0.520   4.970
 9652TIP3    H128901   3.983   0.461   5.043
 9652TIP3    H228902   3.998   0.608   5.009
 9653TIP3   OH228903   4.763   2.872   2.424
 9653TIP3    H128904   4.695   2.932   2.393
 9653TIP3    H228905   4.716   2.809   2.478
 9654TIP3   OH228906   7.204   2.691   1.858
 9654TIP3    H128907   7.268   2.757   1.834
 9654TIP3    H228908   7.226   2.614   1.805
 9655TIP3   OH228909   8.022   0.778   6.027
 9655TIP3    H128910   7.998   0.860   5.984
 9655TIP3    H228911   7.977   0.710   5.977
 9656TIP3   OH228912   1.294   4.113   6.485
 9656TIP3    H128913   1.228   4.154   6.429
 9656TIP3    H228914   1.290   4.161   6.567
 9657TIP3   OH228915   1.541   3.873   2.582
 9657TIP3    H128916   1.540   3.930   2.505
 9657TIP3    H228917   1.486   3.799   2.557
 9658TIP3   OH228918   5.598   2.535   5.220
 9658TIP3    H128919   5.613   2.626   5.246
 9658TIP3    H228920   5.506   2.518   5.244
 9659TIP3   OH228921   3.164   3.618   3.905
 9659TIP3    H128922   3.136   3.677   3.835
 9659TIP3    H228923   3.253   3.592   3.881
 9660TIP3   OH228924   7.560   2.535   5.394
 9660TIP3    H128925   7.516   2.506   5.474
 9660TIP3    H228926   7.555   2.460   5.335
 9661TIP3   OH228927   2.100   1.771   5.588
 9661TIP3    H128928   2.111   1.866   5.585
 9661TIP3    H228929   2.077   1.752   5.679
 9662TIP3   OH228930   6.511   4.909   1.405
 9662TIP3    H128931   6.437   4.905   1.344
 9662TIP3    H228932   6.491   4.982   1.463
 9663TIP3   OH228933   7.190   4.855   1.532
 9663TIP3    H128934   7.125   4.798   1.571
 9663TIP3    H228935   7.148   4.941   1.527
 9664TIP3   OH228936   7.140   4.697   3.285
 9664TIP3    H128937   7.184   4.654   3.211
 9664TIP3    H228938   7.169   4.788   3.280
 9665TIP3   OH228939   0.220   6.222   2.096
 9665TIP3    H128940   0.134   6.208   2.135
 9665TIP3    H228941   0.247   6.308   2.125
 9666TIP3   OH228942   7.171   7.741   5.376
 9666TIP3    H128943   7.146   7.664   5.427
 9666TIP3    H228944   7.209   7.705   5.296
 9667TIP3   OH228945   7.154   5.108   5.111
 9667TIP3    H128946   7.121   5.139   5.195
 9667TIP3    H228947   7.154   5.185   5.055
 9668TIP3   OH228948   0.543   3.049   4.059
 9668TIP3    H128949   0.596   3.111   4.108
 9668TIP3    H228950   0.607   2.995   4.012
 9669TIP3   OH228951   3.281   0.225   6.197
 9669TIP3    H128952   3.262   0.189   6.111
 9669TIP3    H228953   3.241   0.312   6.197
 9670TIP3   OH228954   5.306   3.513   5.307
 9670TIP3    H128955   5.269   3.547   5.226
 9670TIP3    H228956   5.239   3.454   5.342
 9671TIP3   OH228957   6.531   3.532   4.692
 9671TIP3    H128958   6.606   3.498   4.740
 9671TIP3    H228959   6.479   3.455   4.670
 9672TIP3   OH228960   3.607   0.024   0.048
 9672TIP3    H128961   3.665  -0.018   0.111
 9672TIP3    H228962   3.519  -0.007   0.071
 9673TIP3   OH228963   5.235   2.328   2.740
 9673TIP3    H128964   5.267   2.327   2.650
 9673TIP3    H228965   5.140   2.320   2.731
 9674TIP3   OH228966   2.896   1.042   6.129
 9674TIP3    H128967   2.855   0.956   6.142
 9674TIP3    H228968   2.966   1.025   6.065
 9675TIP3   OH228969   7.581   0.474   6.745
 9675TIP3    H128970   7.633   0.428   6.679
 9675TIP3    H228971   7.512   0.413   6.769
 9676TIP3   OH228972   2.686   5.276   6.051
 9676TIP3    H128973   2.768   5.325   6.055
 9676TIP3    H228974   2.624   5.329   6.101
 9677TIP3   OH228975   1.172   6.359   1.314
 9677TIP3    H128976   1.162   6.453   1.300
 9677TIP3    H228977   1.083   6.325   1.321
 9678TIP3   OH228978   6.779   1.447   1.296
 9678TIP3    H128979   6.698   1.396   1.301
 9678TIP3    H228980   6.848   1.383   1.314
 9679TIP3   OH228981   2.232   3.071   0.777
 9679TIP3    H128982   2.167   3.020   0.728
 9679TIP3    H228983   2.305   3.081   0.716
 9680TIP3   OH228984   7.830   0.660   5.374
 9680TIP3    H128985   7.855   0.622   5.459
 9680TIP3    H228986   7.839   0.588   5.312
 9681TIP3   OH228987   7.607   5.504   0.732
 9681TIP3    H128988   7.690   5.549   0.713
 9681TIP3    H228989   7.563   5.561   0.795
 9682TIP3   OH228990   7.619   1.651   5.795
 9682TIP3    H128991   7.546   1.608   5.839
 9682TIP3    H228992   7.585   1.673   5.708
 9683TIP3   OH228993   5.484   3.299   2.982
 9683TIP3    H128994   5.484   3.323   2.890
 9683TIP3    H228995   5.499   3.204   2.982
 9684TIP3   OH228996   7.670   6.655   6.592
 9684TIP3    H128997   7.698   6.572   6.629
 9684TIP3    H228998   7.713   6.721   6.646
 9685TIP3   OH228999   7.042   1.679   2.602
 9685TIP3    H129000   7.054   1.597   2.555
 9685TIP3    H229001   7.127   1.723   2.595
 9686TIP3   OH229002   0.461   2.780   2.600
 9686TIP3    H129003   0.402   2.710   2.627
 9686TIP3    H229004   0.447   2.789   2.506
 9687TIP3   OH229005   1.220   0.786   0.948
 9687TIP3    H129006   1.248   0.878   0.946
 9687TIP3    H229007   1.277   0.742   0.885
 9688TIP3   OH229008   7.083   1.742   5.950
 9688TIP3    H129009   7.115   1.755   6.039
 9688TIP3    H229010   7.092   1.828   5.908
 9689TIP3   OH229011   6.218   0.153   5.620
 9689TIP3    H129012   6.276   0.226   5.598
 9689TIP3    H229013   6.277   0.080   5.640
 9690TIP3   OH229014   4.077   0.532   0.431
 9690TIP3    H129015   4.123   0.588   0.368
 9690TIP3    H229016   4.032   0.592   0.490
 9691TIP3   OH229017   3.966   0.980   1.296
 9691TIP3    H129018   4.017   0.899   1.307
 9691TIP3    H229019   4.026   1.050   1.321
 9692TIP3   OH229020   4.046   2.660   3.410
 9692TIP3    H129021   4.043   2.596   3.481
 9692TIP3    H229022   4.045   2.607   3.330
 9693TIP3   OH229023   7.860   6.438   6.353
 9693TIP3    H129024   7.850   6.496   6.277
 9693TIP3    H229025   7.923   6.483   6.409
 9694TIP3   OH229026   1.604   4.417   3.312
 9694TIP3    H129027   1.541   4.382   3.250
 9694TIP3    H229028   1.674   4.352   3.314
 9695TIP3   OH229029   5.399   4.216   0.635
 9695TIP3    H129030   5.379   4.190   0.725
 9695TIP3    H229031   5.369   4.307   0.629
 9696TIP3   OH229032   1.578   0.280   1.122
 9696TIP3    H129033   1.483   0.288   1.114
 9696TIP3    H229034   1.599   0.201   1.071
 9697TIP3   OH229035   2.461   1.894   3.069
 9697TIP3    H129036   2.401   1.898   2.994
 9697TIP3    H229037   2.512   1.814   3.053
 9698TIP3   OH229038   3.451   1.243   5.643
 9698TIP3    H129039   3.401   1.298   5.704
 9698TIP3    H229040   3.536   1.286   5.637
 9699TIP3   OH229041   1.429   1.308   0.773
 9699TIP3    H129042   1.478   1.378   0.817
 9699TIP3    H229043   1.338   1.334   0.780
 9700TIP3   OH229044   3.966   5.519   5.798
 9700TIP3    H129045   4.034   5.528   5.731
 9700TIP3    H229046   3.895   5.471   5.754
 9701TIP3   OH229047   7.955   7.115   1.600
 9701TIP3    H129048   7.968   7.200   1.557
 9701TIP3    H229049   7.951   7.052   1.528
 9702TIP3   OH229050   4.081   4.444   5.454
 9702TIP3    H129051   4.147   4.381   5.422
 9702TIP3    H229052   4.121   4.530   5.440
 9703TIP3   OH229053   4.011   2.587   0.930
 9703TIP3    H129054   4.027   2.644   1.005
 9703TIP3    H229055   3.959   2.515   0.965
 9704TIP3   OH229056   8.223   4.133   3.697
 9704TIP3    H129057   8.217   4.105   3.605
 9704TIP3    H229058   8.167   4.210   3.702
 9705TIP3   OH229059  -0.033   3.829   6.553
 9705TIP3    H129060  -0.036   3.918   6.588
 9705TIP3    H229061   0.056   3.799   6.573
 9706TIP3   OH229062   6.753   5.534   4.063
 9706TIP3    H129063   6.787   5.612   4.018
 9706TIP3    H229064   6.823   5.469   4.053
 9707TIP3   OH229065   3.865   7.319   3.018
 9707TIP3    H129066   3.917   7.240   3.000
 9707TIP3    H229067   3.900   7.352   3.101
 9708TIP3   OH229068   8.166   6.228   3.038
 9708TIP3    H129069   8.119   6.268   3.111
 9708TIP3    H229070   8.149   6.286   2.964
 9709TIP3   OH229071   4.834   2.052   0.736
 9709TIP3    H129072   4.801   1.979   0.788
 9709TIP3    H229073   4.757   2.084   0.689
 9710TIP3   OH229074   2.543   7.522   3.032
 9710TIP3    H129075   2.507   7.595   3.082
 9710TIP3    H229076   2.610   7.561   2.977
 9711TIP3   OH229077   5.961   3.782   2.235
 9711TIP3    H129078   6.034   3.843   2.230
 9711TIP3    H229079   5.985   3.722   2.306
 9712TIP3   OH229080   0.241   1.272   0.079
 9712TIP3    H129081   0.245   1.245  -0.013
 9712TIP3    H229082   0.282   1.359   0.081
 9713TIP3   OH229083   8.043   6.519   1.823
 9713TIP3    H129084   7.974   6.542   1.886
 9713TIP3    H229085   8.110   6.475   1.877
 9714TIP3   OH229086   6.279   6.792   0.447
 9714TIP3    H129087   6.267   6.703   0.480
 9714TIP3    H229088   6.328   6.781   0.366
 9715TIP3   OH229089   4.904   5.839   1.985
 9715TIP3    H129090   4.904   5.755   2.031
 9715TIP3    H229091   4.906   5.904   2.055
 9716TIP3   OH229092   2.867   6.675   1.873
 9716TIP3    H129093   2.854   6.767   1.897
 9716TIP3    H229094   2.820   6.626   1.940
 9717TIP3   OH229095   2.255   4.491   2.401
 9717TIP3    H129096   2.182   4.552   2.405
 9717TIP3    H229097   2.290   4.489   2.491
 9718TIP3   OH229098   7.507   1.192   6.253
 9718TIP3    H129099   7.533   1.163   6.165
 9718TIP3    H229100   7.579   1.166   6.310
 9719TIP3   OH229101  -0.003   4.140   1.480
 9719TIP3    H129102  -0.082   4.087   1.481
 9719TIP3    H229103   0.035   4.127   1.568
 9720TIP3   OH229104   4.234   3.949   0.970
 9720TIP3    H129105   4.324   3.965   1.000
 9720TIP3    H229106   4.244   3.892   0.894
 9721TIP3   OH229107   6.973   6.788   3.433
 9721TIP3    H129108   6.985   6.875   3.395
 9721TIP3    H229109   6.951   6.806   3.525
 9722TIP3   OH229110   5.164   5.991   3.146
 9722TIP3    H129111   5.189   6.082   3.163
 9722TIP3    H229112   5.247   5.945   3.134
 9723TIP3   OH229113   6.605   4.810   1.767
 9723TIP3    H129114   6.656   4.877   1.722
 9723TIP3    H229115   6.531   4.793   1.709
 9724TIP3   OH229116   2.931   0.255   0.316
 9724TIP3    H129117   2.921   0.167   0.353
 9724TIP3    H229118   2.955   0.310   0.390
 9725TIP3   OH229119   7.958   6.670   1.047
 9725TIP3    H129120   8.038   6.660   1.098
 9725TIP3    H229121   7.921   6.753   1.077
 9726TIP3   OH229122   3.691   4.469   0.006
 9726TIP3    H129123   3.786   4.461   0.018
 9726TIP3    H229124   3.668   4.548   0.054
 9727TIP3   OH229125   3.970   7.251   6.061
 9727TIP3    H129126   4.023   7.230   6.138
 9727TIP3    H229127   3.881   7.229   6.086
 9728TIP3   OH229128   4.574   4.956   2.315
 9728TIP3    H129129   4.569   4.966   2.410
 9728TIP3    H229130   4.619   5.035   2.285
 9729TIP3   OH229131   0.066   6.240   3.386
 9729TIP3    H129132   0.130   6.311   3.375
 9729TIP3    H229133   0.087   6.203   3.472
 9730TIP3   OH229134   5.352   3.718   3.967
 9730TIP3    H129135   5.392   3.739   3.883
 9730TIP3    H229136   5.371   3.625   3.980
 9731TIP3   OH229137   5.508   7.831   3.064
 9731TIP3    H129138   5.592   7.877   3.063
 9731TIP3    H229139   5.506   7.787   3.149
 9732TIP3   OH229140   3.506   4.151   3.683
 9732TIP3    H129141   3.590   4.187   3.712
 9732TIP3    H229142   3.518   4.056   3.682
 9733TIP3   OH229143   6.110   6.794   5.574
 9733TIP3    H129144   6.099   6.839   5.657
 9733TIP3    H229145   6.025   6.801   5.531
 9734TIP3   OH229146   1.361   1.531   1.683
 9734TIP3    H129147   1.348   1.443   1.648
 9734TIP3    H229148   1.350   1.522   1.777
 9735TIP3   OH229149   3.424   6.628   0.670
 9735TIP3    H129150   3.367   6.686   0.619
 9735TIP3    H229151   3.489   6.685   0.710
 9736TIP3   OH229152   0.246   2.129   2.210
 9736TIP3    H129153   0.187   2.059   2.238
 9736TIP3    H229154   0.247   2.190   2.285
 9737TIP3   OH229155   0.775   7.672   3.491
 9737TIP3    H129156   0.852   7.691   3.438
 9737TIP3    H229157   0.808   7.665   3.580
 9738TIP3   OH229158   7.176   3.339   3.239
 9738TIP3    H129159   7.109   3.368   3.177
 9738TIP3    H229160   7.195   3.249   3.214
 9739TIP3   OH229161   8.181   5.974   2.875
 9739TIP3    H129162   8.170   6.068   2.885
 9739TIP3    H229163   8.092   5.939   2.887
 9740TIP3   OH229164   3.784   3.331   6.769
 9740TIP3    H129165   3.837   3.315   6.691
 9740TIP3    H229166   3.848   3.344   6.839
 9741TIP3   OH229167   2.647   3.939   3.231
 9741TIP3    H129168   2.678   3.921   3.142
 9741TIP3    H229169   2.726   3.957   3.281
 9742TIP3   OH229170   3.572   2.797   1.924
 9742TIP3    H129171   3.500   2.736   1.912
 9742TIP3    H229172   3.613   2.770   2.007
 9743TIP3   OH229173   5.904   7.597   3.892
 9743TIP3    H129174   5.938   7.594   3.981
 9743TIP3    H229175   5.820   7.550   3.897
 9744TIP3   OH229176   0.814   6.003   1.060
 9744TIP3    H129177   0.729   6.013   1.018
 9744TIP3    H229178   0.800   6.028   1.151
 9745TIP3   OH229179   7.368   6.123   5.130
 9745TIP3    H129180   7.378   6.189   5.198
 9745TIP3    H229181   7.410   6.160   5.053
 9746TIP3   OH229182   1.158   3.627   2.447
 9746TIP3    H129183   1.176   3.720   2.431
 9746TIP3    H229184   1.070   3.626   2.485
 9747TIP3   OH229185   6.739   3.473   6.148
 9747TIP3    H129186   6.654   3.430   6.144
 9747TIP3    H229187   6.796   3.420   6.092
 9748TIP3   OH229188   3.796   1.863   4.196
 9748TIP3    H129189   3.729   1.856   4.264
 9748TIP3    H229190   3.835   1.776   4.192
 9749TIP3   OH229191   3.950   5.375   2.278
 9749TIP3    H129192   3.854   5.368   2.278
 9749TIP3    H229193   3.979   5.301   2.225
 9750TIP3   OH229194   5.920   5.490   3.797
 9750TIP3    H129195   5.837   5.535   3.783
 9750TIP3    H229196   5.960   5.486   3.710
 9751TIP3   OH229197   6.062   5.914   3.339
 9751TIP3    H129198   6.015   5.846   3.388
 9751TIP3    H229199   6.033   5.903   3.249
 9752TIP3   OH229200   6.275   0.187   5.988
 9752TIP3    H129201   6.211   0.162   6.055
 9752TIP3    H229202   6.317   0.104   5.964
 9753TIP3   OH229203   1.914   3.803   3.364
 9753TIP3    H129204   1.843   3.762   3.314
 9753TIP3    H229205   1.914   3.894   3.335
 9754TIP3   OH229206   2.492   1.233   3.018
 9754TIP3    H129207   2.427   1.248   3.087
 9754TIP3    H229208   2.562   1.185   3.061
 9755TIP3   OH229209   1.350   7.417   4.025
 9755TIP3    H129210   1.356   7.503   4.066
 9755TIP3    H229211   1.423   7.368   4.063
 9756TIP3   OH229212   7.794   4.486   6.527
 9756TIP3    H129213   7.767   4.562   6.577
 9756TIP3    H229214   7.713   4.441   6.504
 9757TIP3   OH229215   5.042   6.024   5.357
 9757TIP3    H129216   4.948   6.018   5.378
 9757TIP3    H229217   5.076   5.937   5.375
 9758TIP3   OH229218   7.502   4.329   0.844
 9758TIP3    H129219   7.435   4.395   0.829
 9758TIP3    H229220   7.492   4.305   0.936
 9759TIP3   OH229221   5.186   5.049   5.935
 9759TIP3    H129222   5.096   5.031   5.908
 9759TIP3    H229223   5.198   4.996   6.014
 9760TIP3   OH229224   0.685   4.803   2.461
 9760TIP3    H129225   0.628   4.811   2.385
 9760TIP3    H229226   0.689   4.891   2.498
 9761TIP3   OH229227   7.434   0.445   5.006
 9761TIP3    H129228   7.374   0.492   4.947
 9761TIP3    H229229   7.446   0.505   5.080
 9762TIP3   OH229230   6.189   1.391   2.161
 9762TIP3    H129231   6.227   1.332   2.225
 9762TIP3    H229232   6.227   1.477   2.182
 9763TIP3   OH229233   5.317   0.252   2.613
 9763TIP3    H129234   5.237   0.295   2.642
 9763TIP3    H229235   5.302   0.233   2.521
 9764TIP3   OH229236   5.688   3.512   1.307
 9764TIP3    H129237   5.693   3.604   1.335
 9764TIP3    H229238   5.651   3.516   1.219
 9765TIP3   OH229239   0.167   2.911   4.794
 9765TIP3    H129240   0.101   2.846   4.820
 9765TIP3    H229241   0.229   2.861   4.741
 9766TIP3   OH229242   7.230   4.694   2.983
 9766TIP3    H129243   7.284   4.773   2.975
 9766TIP3    H229244   7.226   4.659   2.894
 9767TIP3   OH229245   3.556   7.230   2.735
 9767TIP3    H129246   3.562   7.323   2.753
 9767TIP3    H229247   3.561   7.188   2.820
 9768TIP3   OH229248   2.544   5.504   4.731
 9768TIP3    H129249   2.565   5.595   4.709
 9768TIP3    H229250   2.473   5.511   4.796
 9769TIP3   OH229251   4.139   5.472   2.782
 9769TIP3    H129252   4.069   5.413   2.808
 9769TIP3    H229253   4.125   5.487   2.688
 9770TIP3   OH229254   5.174   3.565   3.126
 9770TIP3    H129255   5.240   3.528   3.185
 9770TIP3    H229256   5.091   3.539   3.165
 9771TIP3   OH229257   5.174   1.451   3.654
 9771TIP3    H129258   5.250   1.476   3.708
 9771TIP3    H229259   5.102   1.443   3.716
 9772TIP3   OH229260   3.491   1.973   0.470
 9772TIP3    H129261   3.528   2.057   0.496
 9772TIP3    H229262   3.484   1.923   0.551
 9773TIP3   OH229263   5.520   5.908   4.260
 9773TIP3    H129264   5.476   5.988   4.288
 9773TIP3    H229265   5.473   5.837   4.304
 9774TIP3   OH229266   2.038   7.696   2.136
 9774TIP3    H129267   2.059   7.717   2.044
 9774TIP3    H229268   2.102   7.747   2.186
 9775TIP3   OH229269   7.728   7.471   3.495
 9775TIP3    H129270   7.673   7.430   3.429
 9775TIP3    H229271   7.735   7.406   3.565
 9776TIP3   OH229272   2.271   5.984   5.710
 9776TIP3    H129273   2.279   6.063   5.762
 9776TIP3    H229274   2.235   6.013   5.626
 9777TIP3   OH229275   8.129   2.118   4.460
 9777TIP3    H129276   8.125   2.205   4.422
 9777TIP3    H229277   8.049   2.075   4.429
 9778TIP3   OH229278   3.501   1.342   2.484
 9778TIP3    H129279   3.489   1.261   2.533
 9778TIP3    H229280   3.483   1.318   2.393
 9779TIP3   OH229281   0.792   7.400   2.183
 9779TIP3    H129282   0.802   7.427   2.092
 9779TIP3    H229283   0.711   7.443   2.212
 9780TIP3   OH229284   7.587   2.497   6.736
 9780TIP3    H129285   7.681   2.482   6.746
 9780TIP3    H229286   7.556   2.515   6.825
 9781TIP3   OH229287   3.947   4.863   3.184
 9781TIP3    H129288   3.923   4.865   3.277
 9781TIP3    H229289   3.954   4.770   3.163
 9782TIP3   OH229290   4.676   1.248   4.157
 9782TIP3    H129291   4.742   1.184   4.183
 9782TIP3    H229292   4.632   1.207   4.082
 9783TIP3   OH229293   3.262   5.743   5.001
 9783TIP3    H129294   3.183   5.786   4.968
 9783TIP3    H229295   3.332   5.807   4.989
 9784TIP3   OH229296   6.351   2.343   1.803
 9784TIP3    H129297   6.439   2.308   1.817
 9784TIP3    H229298   6.364   2.438   1.796
 9785TIP3   OH229299   7.917   4.618   6.324
 9785TIP3    H129300   7.855   4.547   6.343
 9785TIP3    H229301   7.875   4.697   6.359
 9786TIP3   OH229302   3.641   0.791   5.348
 9786TIP3    H129303   3.566   0.851   5.351
 9786TIP3    H229304   3.610   0.716   5.296
 9787TIP3   OH229305   7.599   1.422   5.314
 9787TIP3    H129306   7.611   1.344   5.259
 9787TIP3    H229307   7.521   1.401   5.366
 9788TIP3   OH229308   6.376   6.685   6.460
 9788TIP3    H129309   6.283   6.690   6.482
 9788TIP3    H229310   6.410   6.772   6.480
 9789TIP3   OH229311   2.747   6.841   3.639
 9789TIP3    H129312   2.666   6.890   3.654
 9789TIP3    H229313   2.738   6.806   3.550
 9790TIP3   OH229314   1.941   2.859   2.539
 9790TIP3    H129315   2.007   2.872   2.472
 9790TIP3    H229316   1.990   2.841   2.619
 9791TIP3   OH229317   1.294   6.382   6.344
 9791TIP3    H129318   1.334   6.299   6.371
 9791TIP3    H229319   1.208   6.382   6.386
 9792TIP3   OH229320   1.432   3.232   6.743
 9792TIP3    H129321   1.415   3.180   6.821
 9792TIP3    H229322   1.465   3.169   6.679
 9793TIP3   OH229323   1.831   5.043   4.547
 9793TIP3    H129324   1.896   4.972   4.544
 9793TIP3    H229325   1.881   5.120   4.573
 9794TIP3   OH229326   7.848   6.688   6.148
 9794TIP3    H129327   7.761   6.665   6.114
 9794TIP3    H229328   7.843   6.783   6.164
 9795TIP3   OH229329   7.950   1.485   4.482
 9795TIP3    H129330   7.923   1.528   4.563
 9795TIP3    H229331   7.882   1.509   4.419
 9796TIP3   OH229332   7.074   7.659   0.139
 9796TIP3    H129333   6.989   7.693   0.166
 9796TIP3    H229334   7.131   7.736   0.136
 9797TIP3   OH229335   6.223   5.490   4.360
 9797TIP3    H129336   6.266   5.450   4.285
 9797TIP3    H229337   6.270   5.573   4.373
 9798TIP3   OH229338   2.913   6.651   6.435
 9798TIP3    H129339   2.896   6.680   6.524
 9798TIP3    H229340   2.834   6.603   6.410
 9799TIP3   OH229341   3.280   1.226   2.883
 9799TIP3    H129342   3.266   1.294   2.949
 9799TIP3    H229343   3.198   1.223   2.834
 9800TIP3   OH229344   0.282   6.218   4.024
 9800TIP3    H129345   0.210   6.218   4.087
 9800TIP3    H229346   0.249   6.269   3.950
 9801TIP3   OH229347   5.091   4.040   0.405
 9801TIP3    H129348   5.180   4.058   0.375
 9801TIP3    H229349   5.102   3.998   0.490
 9802TIP3   OH229350   4.602   3.564   0.878
 9802TIP3    H129351   4.585   3.585   0.786
 9802TIP3    H229352   4.697   3.559   0.884
 9803TIP3   OH229353   2.233   6.932   6.454
 9803TIP3    H129354   2.184   6.910   6.374
 9803TIP3    H229355   2.203   7.020   6.476
 9804TIP3   OH229356   4.364   1.252   0.458
 9804TIP3    H129357   4.403   1.221   0.539
 9804TIP3    H229358   4.295   1.312   0.487
 9805TIP3   OH229359   4.366   4.520   5.364
 9805TIP3    H129360   4.381   4.587   5.430
 9805TIP3    H229361   4.451   4.507   5.323
 9806TIP3   OH229362   4.110   2.382   3.492
 9806TIP3    H129363   4.014   2.373   3.490
 9806TIP3    H229364   4.132   2.382   3.585
 9807TIP3   OH229365   1.790   2.567   3.232
 9807TIP3    H129366   1.820   2.526   3.151
 9807TIP3    H229367   1.799   2.498   3.298
 9808TIP3   OH229368   1.283   7.591   2.583
 9808TIP3    H129369   1.348   7.538   2.629
 9808TIP3    H229370   1.291   7.564   2.491
 9809TIP3   OH229371   1.124   5.148   2.030
 9809TIP3    H129372   1.201   5.176   2.080
 9809TIP3    H229373   1.124   5.204   1.952
 9810TIP3   OH229374   2.865   4.252   5.017
 9810TIP3    H129375   2.822   4.265   5.102
 9810TIP3    H229376   2.793   4.254   4.954
 9811TIP3   OH229377   7.691   1.910   4.028
 9811TIP3    H129378   7.669   1.866   4.111
 9811TIP3    H229379   7.766   1.861   3.994
 9812TIP3   OH229380   5.651   2.527   0.371
 9812TIP3    H129381   5.661   2.621   0.355
 9812TIP3    H229382   5.740   2.492   0.364
 9813TIP3   OH229383   5.350   6.565   0.064
 9813TIP3    H129384   5.265   6.575   0.106
 9813TIP3    H229385   5.380   6.654   0.049
 9814TIP3   OH229386   5.344   4.882   5.195
 9814TIP3    H129387   5.277   4.950   5.187
 9814TIP3    H229388   5.359   4.853   5.105
 9815TIP3   OH229389   5.092   2.005   0.884
 9815TIP3    H129390   5.004   2.035   0.859
 9815TIP3    H229391   5.109   1.931   0.825
 9816TIP3   OH229392   4.812   0.556   6.518
 9816TIP3    H129393   4.776   0.603   6.593
 9816TIP3    H229394   4.754   0.480   6.507
 9817TIP3   OH229395   1.044   0.900   5.229
 9817TIP3    H129396   1.037   0.936   5.317
 9817TIP3    H229397   1.053   0.977   5.172
 9818TIP3   OH229398   4.607   3.751   1.821
 9818TIP3    H129399   4.612   3.716   1.910
 9818TIP3    H229400   4.569   3.680   1.769
 9819TIP3   OH229401   1.775   4.173   0.268
 9819TIP3    H129402   1.842   4.143   0.207
 9819TIP3    H229403   1.733   4.247   0.223
 9820TIP3   OH229404   5.559   1.185   4.045
 9820TIP3    H129405   5.502   1.114   4.075
 9820TIP3    H229406   5.583   1.231   4.126
 9821TIP3   OH229407   1.495   0.143   3.685
 9821TIP3    H129408   1.529   0.200   3.616
 9821TIP3    H229409   1.502   0.195   3.765
 9822TIP3   OH229410   3.794   2.530   6.548
 9822TIP3    H129411   3.753   2.610   6.517
 9822TIP3    H229412   3.888   2.548   6.544
 9823TIP3   OH229413   7.055   5.260   4.454
 9823TIP3    H129414   7.026   5.279   4.544
 9823TIP3    H229415   7.149   5.242   4.462
 9824TIP3   OH229416   5.564   2.797   5.314
 9824TIP3    H129417   5.487   2.803   5.258
 9824TIP3    H229418   5.560   2.875   5.369
 9825TIP3   OH229419   4.377   5.843   0.728
 9825TIP3    H129420   4.456   5.825   0.777
 9825TIP3    H229421   4.311   5.863   0.794
 9826TIP3   OH229422   5.322   6.119   6.287
 9826TIP3    H129423   5.365   6.205   6.292
 9826TIP3    H229424   5.361   6.069   6.359
 9827TIP3   OH229425   2.514   3.642   5.105
 9827TIP3    H129426   2.443   3.703   5.083
 9827TIP3    H229427   2.554   3.678   5.184
 9828TIP3   OH229428   1.706   5.525   3.591
 9828TIP3    H129429   1.647   5.467   3.639
 9828TIP3    H229430   1.781   5.537   3.649
 9829TIP3   OH229431   3.787   0.119   1.047
 9829TIP3    H129432   3.827   0.069   0.976
 9829TIP3    H229433   3.696   0.092   1.047
 9830TIP3   OH229434   7.758   2.600   1.375
 9830TIP3    H129435   7.809   2.519   1.381
 9830TIP3    H229436   7.726   2.614   1.464
 9831TIP3   OH229437   6.298   5.162   5.888
 9831TIP3    H129438   6.364   5.100   5.856
 9831TIP3    H229439   6.326   5.183   5.977
 9832TIP3   OH229440   4.572   7.597   0.617
 9832TIP3    H129441   4.614   7.671   0.573
 9832TIP3    H229442   4.499   7.574   0.561
 9833TIP3   OH229443   4.744   1.935   1.107
 9833TIP3    H129444   4.830   1.894   1.103
 9833TIP3    H229445   4.715   1.937   1.016
 9834TIP3   OH229446   7.429   1.167   2.041
 9834TIP3    H129447   7.447   1.205   2.127
 9834TIP3    H229448   7.480   1.219   1.980
 9835TIP3   OH229449   6.247   0.668   4.222
 9835TIP3    H129450   6.190   0.673   4.298
 9835TIP3    H229451   6.326   0.714   4.248
 9836TIP3   OH229452   0.425   6.138   0.250
 9836TIP3    H129453   0.471   6.218   0.225
 9836TIP3    H229454   0.392   6.101   0.168
 9837TIP3   OH229455   8.154   4.425   0.664
 9837TIP3    H129456   8.132   4.436   0.756
 9837TIP3    H229457   8.151   4.514   0.628
 9838TIP3   OH229458   5.223   1.143   6.059
 9838TIP3    H129459   5.312   1.113   6.044
 9838TIP3    H229460   5.168   1.067   6.041
 9839TIP3   OH229461   2.814   0.070   5.540
 9839TIP3    H129462   2.894   0.056   5.489
 9839TIP3    H229463   2.744   0.067   5.475
 9840TIP3   OH229464   7.637   3.406   0.793
 9840TIP3    H129465   7.657   3.495   0.823
 9840TIP3    H229466   7.620   3.416   0.700
 9841TIP3   OH229467   5.483   5.850   6.784
 9841TIP3    H129468   5.496   5.817   6.873
 9841TIP3    H229469   5.393   5.885   6.784
 9842TIP3   OH229470   6.960   4.130   0.570
 9842TIP3    H129471   6.940   4.164   0.657
 9842TIP3    H229472   6.913   4.188   0.510
 9843TIP3   OH229473   7.844   5.905   1.821
 9843TIP3    H129474   7.755   5.933   1.800
 9843TIP3    H229475   7.838   5.872   1.911
 9844TIP3   OH229476   4.395   6.374   5.960
 9844TIP3    H129477   4.476   6.390   6.008
 9844TIP3    H229478   4.421   6.319   5.886
 9845TIP3   OH229479   6.395   5.999   4.161
 9845TIP3    H129480   6.345   5.941   4.104
 9845TIP3    H229481   6.446   6.054   4.101
 9846TIP3   OH229482   4.743   3.000   4.701
 9846TIP3    H129483   4.788   3.084   4.689
 9846TIP3    H229484   4.660   3.010   4.653
 9847TIP3   OH229485   6.317   0.767   5.827
 9847TIP3    H129486   6.257   0.746   5.899
 9847TIP3    H229487   6.283   0.717   5.753
 9848TIP3   OH229488   6.657   1.729   5.988
 9848TIP3    H129489   6.658   1.824   5.999
 9848TIP3    H229490   6.637   1.717   5.895
 9849TIP3   OH229491   5.806   7.718   6.570
 9849TIP3    H129492   5.760   7.794   6.605
 9849TIP3    H229493   5.886   7.713   6.622
 9850TIP3   OH229494   4.669   5.141   4.682
 9850TIP3    H129495   4.694   5.115   4.771
 9850TIP3    H229496   4.752   5.154   4.636
 9851TIP3   OH229497   0.837   2.630   4.176
 9851TIP3    H129498   0.795   2.693   4.235
 9851TIP3    H229499   0.855   2.679   4.096
 9852TIP3   OH229500   1.545   1.300   6.153
 9852TIP3    H129501   1.608   1.329   6.219
 9852TIP3    H229502   1.476   1.366   6.155
 9853TIP3   OH229503   0.290   0.437   1.695
 9853TIP3    H129504   0.354   0.484   1.641
 9853TIP3    H229505   0.314   0.344   1.683
 9854TIP3   OH229506   7.201   3.133   4.885
 9854TIP3    H129507   7.166   3.158   4.799
 9854TIP3    H229508   7.276   3.191   4.898
 9855TIP3   OH229509   4.883   2.421   2.759
 9855TIP3    H129510   4.854   2.412   2.850
 9855TIP3    H229511   4.933   2.502   2.758
 9856TIP3   OH229512   7.948   2.002   0.014
 9856TIP3    H129513   8.037   2.037   0.008
 9856TIP3    H229514   7.958   1.909  -0.003
 9857TIP3   OH229515   6.321   2.733   0.567
 9857TIP3    H129516   6.261   2.753   0.638
 9857TIP3    H229517   6.270   2.680   0.506
 9858TIP3   OH229518   6.789   6.557   6.058
 9858TIP3    H129519   6.746   6.508   6.128
 9858TIP3    H229520   6.874   6.581   6.095
 9859TIP3   OH229521   1.075   5.046   0.547
 9859TIP3    H129522   1.090   4.954   0.524
 9859TIP3    H229523   1.103   5.052   0.639
 9860TIP3   OH229524   3.727   3.271   3.441
 9860TIP3    H129525   3.691   3.359   3.442
 9860TIP3    H229526   3.665   3.219   3.391
 9861TIP3   OH229527   2.361   1.784   5.755
 9861TIP3    H129528   2.346   1.866   5.803
 9861TIP3    H229529   2.351   1.808   5.663
 9862TIP3   OH229530   4.808   0.947   2.840
 9862TIP3    H129531   4.796   0.981   2.929
 9862TIP3    H229532   4.751   1.001   2.786
 9863TIP3   OH229533   3.079   1.257   1.254
 9863TIP3    H129534   2.998   1.211   1.277
 9863TIP3    H229535   3.106   1.300   1.335
 9864TIP3   OH229536   3.815   2.268   1.496
 9864TIP3    H129537   3.790   2.354   1.463
 9864TIP3    H229538   3.734   2.231   1.531
 9865TIP3   OH229539   0.481   0.850   0.621
 9865TIP3    H129540   0.475   0.800   0.703
 9865TIP3    H229541   0.417   0.921   0.632
 9866TIP3   OH229542   6.411   3.179   0.949
 9866TIP3    H129543   6.426   3.178   1.044
 9866TIP3    H229544   6.373   3.093   0.930
 9867TIP3   OH229545   1.470   4.605   2.654
 9867TIP3    H129546   1.451   4.670   2.586
 9867TIP3    H229547   1.441   4.522   2.616
 9868TIP3   OH229548   7.664   6.395   0.975
 9868TIP3    H129549   7.583   6.441   0.952
 9868TIP3    H229550   7.668   6.399   1.070
 9869TIP3   OH229551   7.615   1.760   2.263
 9869TIP3    H129552   7.679   1.810   2.213
 9869TIP3    H229553   7.602   1.810   2.343
 9870TIP3   OH229554   2.465   6.150   2.555
 9870TIP3    H129555   2.536   6.184   2.501
 9870TIP3    H229556   2.406   6.107   2.493
 9871TIP3   OH229557   4.490   2.178   4.221
 9871TIP3    H129558   4.480   2.087   4.249
 9871TIP3    H229559   4.450   2.181   4.134
 9872TIP3   OH229560   7.715   3.629   0.937
 9872TIP3    H129561   7.802   3.669   0.937
 9872TIP3    H229562   7.656   3.702   0.953
 9873TIP3   OH229563   5.964   5.325   6.759
 9873TIP3    H129564   5.947   5.401   6.703
 9873TIP3    H229565   6.009   5.361   6.835
 9874TIP3   OH229566   3.623   3.870   3.492
 9874TIP3    H129567   3.631   3.905   3.581
 9874TIP3    H229568   3.530   3.849   3.483
 9875TIP3   OH229569   5.868   3.849   1.990
 9875TIP3    H129570   5.787   3.890   2.021
 9875TIP3    H229571   5.920   3.837   2.069
 9876TIP3   OH229572   6.198   0.848   6.326
 9876TIP3    H129573   6.250   0.883   6.254
 9876TIP3    H229574   6.127   0.801   6.284
 9877TIP3   OH229575   7.742   4.170   4.821
 9877TIP3    H129576   7.814   4.192   4.762
 9877TIP3    H229577   7.775   4.191   4.908
 9878TIP3   OH229578   7.913   6.490   2.306
 9878TIP3    H129579   7.911   6.449   2.219
 9878TIP3    H229580   8.004   6.518   2.316
 9879TIP3   OH229581   1.106   0.507   4.910
 9879TIP3    H129582   1.019   0.511   4.870
 9879TIP3    H229583   1.131   0.598   4.920
 9880TIP3   OH229584   3.203   4.796   5.754
 9880TIP3    H129585   3.165   4.834   5.674
 9880TIP3    H229586   3.172   4.852   5.824
 9881TIP3   OH229587   5.683   6.180   5.606
 9881TIP3    H129588   5.680   6.262   5.558
 9881TIP3    H229589   5.594   6.144   5.597
 9882TIP3   OH229590   7.831   4.875   4.928
 9882TIP3    H129591   7.781   4.875   5.010
 9882TIP3    H229592   7.883   4.955   4.932
 9883TIP3   OH229593   0.837   4.879   3.157
 9883TIP3    H129594   0.866   4.930   3.233
 9883TIP3    H229595   0.748   4.852   3.179
 9884TIP3   OH229596   4.103   6.847   2.900
 9884TIP3    H129597   4.045   6.823   2.827
 9884TIP3    H229598   4.183   6.798   2.883
 9885TIP3   OH229599   6.433   6.391   0.762
 9885TIP3    H129600   6.393   6.357   0.682
 9885TIP3    H229601   6.416   6.324   0.828
 9886TIP3   OH229602   0.722   0.017   6.634
 9886TIP3    H129603   0.707   0.012   6.540
 9886TIP3    H229604   0.815  -0.005   6.645
 9887TIP3   OH229605   6.713   2.027   5.101
 9887TIP3    H129606   6.681   2.107   5.143
 9887TIP3    H229607   6.644   1.963   5.119
 9888TIP3   OH229608   7.159   1.659   5.030
 9888TIP3    H129609   7.119   1.589   4.978
 9888TIP3    H229610   7.252   1.656   5.006
 9889TIP3   OH229611   1.040   7.364   4.016
 9889TIP3    H129612   1.016   7.303   4.085
 9889TIP3    H229613   1.134   7.351   4.003
 9890TIP3   OH229614   4.458   7.316   2.883
 9890TIP3    H129615   4.535   7.353   2.840
 9890TIP3    H229616   4.412   7.269   2.813
 9891TIP3   OH229617   5.289   0.369   4.151
 9891TIP3    H129618   5.210   0.406   4.189
 9891TIP3    H229619   5.258   0.316   4.077
 9892TIP3   OH229620   5.183   4.219   3.554
 9892TIP3    H129621   5.170   4.304   3.596
 9892TIP3    H229622   5.203   4.159   3.626
 9893TIP3   OH229623   3.510   4.112   1.451
 9893TIP3    H129624   3.511   4.205   1.473
 9893TIP3    H229625   3.444   4.074   1.509
 9894TIP3   OH229626   4.842   3.788   0.089
 9894TIP3    H129627   4.909   3.799   0.021
 9894TIP3    H229628   4.789   3.867   0.083
 9895TIP3   OH229629   3.133   6.913   5.757
 9895TIP3    H129630   3.080   6.967   5.699
 9895TIP3    H229631   3.103   6.935   5.845
 9896TIP3   OH229632   4.604   5.577   4.423
 9896TIP3    H129633   4.583   5.502   4.479
 9896TIP3    H229634   4.534   5.579   4.358
 9897TIP3   OH229635   4.201   7.546   5.058
 9897TIP3    H129636   4.286   7.584   5.036
 9897TIP3    H229637   4.171   7.596   5.134
 9898TIP3   OH229638   7.725   5.509   5.064
 9898TIP3    H129639   7.731   5.552   4.978
 9898TIP3    H229640   7.632   5.488   5.074
 9899TIP3   OH229641   0.126   7.398   6.362
 9899TIP3    H129642   0.159   7.480   6.327
 9899TIP3    H229643   0.185   7.331   6.327
 9900TIP3   OH229644   4.119   2.201   4.143
 9900TIP3    H129645   4.082   2.172   4.227
 9900TIP3    H229646   4.047   2.250   4.102
 9901TIP3   OH229647   3.767   0.357   1.200
 9901TIP3    H129648   3.756   0.267   1.169
 9901TIP3    H229649   3.695   0.405   1.159
 9902TIP3   OH229650   6.212   5.885   3.995
 9902TIP3    H129651   6.272   5.837   3.937
 9902TIP3    H229652   6.149   5.924   3.935
 9903TIP3   OH229653   1.769   4.874   1.522
 9903TIP3    H129654   1.681   4.875   1.559
 9903TIP3    H229655   1.779   4.786   1.486
 9904TIP3   OH229656   5.665   2.273   3.530
 9904TIP3    H129657   5.613   2.207   3.483
 9904TIP3    H229658   5.607   2.349   3.536
 9905TIP3   OH229659   5.693   6.214   4.509
 9905TIP3    H129660   5.706   6.175   4.423
 9905TIP3    H229661   5.695   6.139   4.569
 9906TIP3   OH229662   1.777   0.669   1.309
 9906TIP3    H129663   1.869   0.692   1.299
 9906TIP3    H229664   1.735   0.701   1.229
 9907TIP3   OH229665   2.325   5.314   2.069
 9907TIP3    H129666   2.390   5.269   2.123
 9907TIP3    H229667   2.369   5.329   1.986
 9908TIP3   OH229668   1.704   6.001   0.661
 9908TIP3    H129669   1.664   6.088   0.665
 9908TIP3    H229670   1.794   6.017   0.634
 9909TIP3   OH229671   3.534   5.494   6.712
 9909TIP3    H129672   3.614   5.482   6.764
 9909TIP3    H229673   3.521   5.589   6.709
 9910TIP3   OH229674   1.861   6.628   6.092
 9910TIP3    H129675   1.794   6.633   6.024
 9910TIP3    H229676   1.837   6.550   6.143
 9911TIP3   OH229677   6.580   0.186   4.866
 9911TIP3    H129678   6.671   0.163   4.848
 9911TIP3    H229679   6.585   0.268   4.916
 9912TIP3   OH229680   3.395   5.620   5.641
 9912TIP3    H129681   3.301   5.614   5.625
 9912TIP3    H229682   3.416   5.539   5.689
 9913TIP3   OH229683   7.001   0.936   3.900
 9913TIP3    H129684   6.985   0.922   3.993
 9913TIP3    H229685   6.985   0.851   3.859
 9914TIP3   OH229686   6.465   4.877   4.368
 9914TIP3    H129687   6.419   4.924   4.437
 9914TIP3    H229688   6.480   4.942   4.300
 9915TIP3   OH229689   3.918   1.454   5.355
 9915TIP3    H129690   3.842   1.511   5.347
 9915TIP3    H229691   3.968   1.491   5.427
 9916TIP3   OH229692   7.059   1.977   5.135
 9916TIP3    H129693   6.973   1.934   5.126
 9916TIP3    H229694   7.103   1.957   5.052
 9917TIP3   OH229695   5.895   1.029   3.720
 9917TIP3    H129696   5.919   1.089   3.791
 9917TIP3    H229697   5.975   0.980   3.701
 9918TIP3   OH229698   0.547   4.487   2.232
 9918TIP3    H129699   0.524   4.559   2.291
 9918TIP3    H229700   0.580   4.419   2.290
 9919TIP3   OH229701   2.465   4.262   1.741
 9919TIP3    H129702   2.509   4.199   1.799
 9919TIP3    H229703   2.488   4.347   1.777
 9920TIP3   OH229704   6.469   6.344   4.080
 9920TIP3    H129705   6.429   6.407   4.139
 9920TIP3    H229706   6.545   6.311   4.129
 9921TIP3   OH229707   3.130   1.240   6.348
 9921TIP3    H129708   3.146   1.175   6.280
 9921TIP3    H229709   3.213   1.246   6.396
 9922TIP3   OH229710   3.628   2.378   6.761
 9922TIP3    H129711   3.582   2.347   6.683
 9922TIP3    H229712   3.720   2.383   6.733
 9923TIP3   OH229713   1.060   4.417   3.523
 9923TIP3    H129714   1.133   4.361   3.498
 9923TIP3    H229715   1.065   4.422   3.619
 9924TIP3   OH229716   1.926   0.438   5.406
 9924TIP3    H129717   1.936   0.346   5.385
 9924TIP3    H229718   1.999   0.459   5.464
 9925TIP3   OH229719   0.697   4.695   3.400
 9925TIP3    H129720   0.747   4.614   3.409
 9925TIP3    H229721   0.728   4.751   3.471
 9926TIP3   OH229722   4.271   2.840   3.965
 9926TIP3    H129723   4.260   2.935   3.971
 9926TIP3    H229724   4.192   2.810   3.921
 9927TIP3   OH229725   4.279   4.642   5.882
 9927TIP3    H129726   4.222   4.719   5.880
 9927TIP3    H229727   4.303   4.632   5.974
 9928TIP3   OH229728   3.669   6.473   2.245
 9928TIP3    H129729   3.591   6.519   2.214
 9928TIP3    H229730   3.695   6.417   2.172
 9929TIP3   OH229731   5.692   1.474   2.646
 9929TIP3    H129732   5.660   1.550   2.696
 9929TIP3    H229733   5.785   1.468   2.668
 9930TIP3   OH229734   7.787   4.529   0.617
 9930TIP3    H129735   7.710   4.472   0.620
 9930TIP3    H229736   7.797   4.551   0.524
 9931TIP3   OH229737   6.367   6.539   6.237
 9931TIP3    H129738   6.349   6.601   6.308
 9931TIP3    H229739   6.438   6.484   6.271
 9932TIP3   OH229740   2.949   2.562   6.381
 9932TIP3    H129741   2.939   2.606   6.466
 9932TIP3    H229742   3.044   2.561   6.366
 9933TIP3   OH229743   2.225   7.822   6.661
 9933TIP3    H129744   2.274   7.744   6.684
 9933TIP3    H229745   2.216   7.870   6.743
 9934TIP3   OH229746   0.540   4.437   1.477
 9934TIP3    H129747   0.500   4.358   1.513
 9934TIP3    H229748   0.623   4.445   1.526
 9935TIP3   OH229749   5.095   7.112   6.063
 9935TIP3    H129750   5.107   7.139   5.971
 9935TIP3    H229751   5.091   7.017   6.060
 9936TIP3   OH229752   6.338   6.599   4.518
 9936TIP3    H129753   6.291   6.531   4.567
 9936TIP3    H229754   6.428   6.568   4.515
 9937TIP3   OH229755   4.251   5.764   1.328
 9937TIP3    H129756   4.172   5.806   1.294
 9937TIP3    H229757   4.297   5.833   1.375
 9938TIP3   OH229758   3.633   2.355   4.469
 9938TIP3    H129759   3.549   2.380   4.431
 9938TIP3    H229760   3.611   2.289   4.535
 9939TIP3   OH229761   6.258   4.770   6.293
 9939TIP3    H129762   6.295   4.859   6.299
 9939TIP3    H229763   6.267   4.747   6.200
 9940TIP3   OH229764   3.258   6.525   5.874
 9940TIP3    H129765   3.237   6.563   5.788
 9940TIP3    H229766   3.176   6.530   5.922
 9941TIP3   OH229767   1.671   1.843   5.839
 9941TIP3    H129768   1.638   1.912   5.895
 9941TIP3    H229769   1.712   1.781   5.899
 9942TIP3   OH229770   5.711   5.485   0.961
 9942TIP3    H129771   5.755   5.439   1.033
 9942TIP3    H229772   5.640   5.533   1.003
 9943TIP3   OH229773   7.276   3.386   3.902
 9943TIP3    H129774   7.325   3.464   3.926
 9943TIP3    H229775   7.206   3.418   3.845
 9944TIP3   OH229776   2.672   4.976   5.886
 9944TIP3    H129777   2.619   5.004   5.811
 9944TIP3    H229778   2.691   5.057   5.933
 9945TIP3   OH229779   1.919   1.104   5.603
 9945TIP3    H129780   1.954   1.185   5.639
 9945TIP3    H229781   1.985   1.038   5.626
 9946TIP3   OH229782   4.843   2.504   1.907
 9946TIP3    H129783   4.767   2.496   1.850
 9946TIP3    H229784   4.875   2.593   1.893
 9947TIP3   OH229785   5.983   0.606   4.929
 9947TIP3    H129786   5.945   0.544   4.866
 9947TIP3    H229787   5.923   0.680   4.928
 9948TIP3   OH229788   5.611   1.371   0.394
 9948TIP3    H129789   5.535   1.399   0.343
 9948TIP3    H229790   5.640   1.291   0.350
 9949TIP3   OH229791   2.831   3.901   2.029
 9949TIP3    H129792   2.857   3.847   1.955
 9949TIP3    H229793   2.814   3.839   2.100
 9950TIP3   OH229794   4.192   3.322   1.496
 9950TIP3    H129795   4.145   3.388   1.445
 9950TIP3    H229796   4.281   3.325   1.462
 9951TIP3   OH229797   6.329   3.918   5.562
 9951TIP3    H129798   6.271   3.859   5.609
 9951TIP3    H229799   6.366   3.864   5.492
 9952TIP3   OH229800   2.866   3.291   4.781
 9952TIP3    H129801   2.957   3.296   4.813
 9952TIP3    H229802   2.823   3.368   4.820
 9953TIP3   OH229803   1.431   5.096   1.975
 9953TIP3    H129804   1.470   5.059   1.895
 9953TIP3    H229805   1.493   5.164   2.003
 9954TIP3   OH229806   1.044   2.678   1.030
 9954TIP3    H129807   1.111   2.611   1.047
 9954TIP3    H229808   0.973   2.657   1.090
 9955TIP3   OH229809   3.428   1.631   5.163
 9955TIP3    H129810   3.470   1.706   5.121
 9955TIP3    H229811   3.349   1.667   5.203
 9956TIP3   OH229812   0.904   2.662   4.492
 9956TIP3    H129813   0.923   2.655   4.586
 9956TIP3    H229814   0.857   2.745   4.484
 9957TIP3   OH229815   5.945   5.736   5.622
 9957TIP3    H129816   6.003   5.665   5.650
 9957TIP3    H229817   5.867   5.692   5.590
 9958TIP3   OH229818   1.544   4.929   0.083
 9958TIP3    H129819   1.517   5.011   0.125
 9958TIP3    H229820   1.638   4.939   0.070
 9959TIP3   OH229821   8.196   2.496   2.802
 9959TIP3    H129822   8.240   2.558   2.744
 9959TIP3    H229823   8.251   2.418   2.799
 9960TIP3   OH229824   5.271   7.164   3.784
 9960TIP3    H129825   5.337   7.162   3.715
 9960TIP3    H229826   5.258   7.257   3.803
 9961TIP3   OH229827   6.955   3.287   5.614
 9961TIP3    H129828   6.935   3.349   5.684
 9961TIP3    H229829   7.043   3.311   5.585
 9962TIP3   OH229830   0.275   3.852   6.661
 9962TIP3    H129831   0.296   3.911   6.733
 9962TIP3    H229832   0.350   3.857   6.603
 9963TIP3   OH229833   1.206   0.026   0.626
 9963TIP3    H129834   1.249   0.014   0.541
 9963TIP3    H229835   1.114   0.007   0.609
 9964TIP3   OH229836   5.740   6.487   6.287
 9964TIP3    H129837   5.710   6.444   6.207
 9964TIP3    H229838   5.723   6.423   6.356
 9965TIP3   OH229839   4.648   0.284   5.985
 9965TIP3    H129840   4.647   0.369   6.030
 9965TIP3    H229841   4.555   0.265   5.968
 9966TIP3   OH229842   4.515   3.520   1.707
 9966TIP3    H129843   4.543   3.429   1.709
 9966TIP3    H229844   4.424   3.519   1.737
 9967TIP3   OH229845   7.925   3.435   4.875
 9967TIP3    H129846   7.852   3.397   4.826
 9967TIP3    H229847   7.954   3.366   4.934
 9968TIP3   OH229848   5.316   5.340   0.553
 9968TIP3    H129849   5.322   5.290   0.635
 9968TIP3    H229850   5.245   5.298   0.504
 9969TIP3   OH229851   4.951   7.649   1.985
 9969TIP3    H129852   4.928   7.699   1.907
 9969TIP3    H229853   4.911   7.563   1.971
 9970TIP3   OH229854   1.224   1.735   6.073
 9970TIP3    H129855   1.271   1.656   6.046
 9970TIP3    H229856   1.145   1.736   6.019
 9971TIP3   OH229857   1.785   1.231   0.486
 9971TIP3    H129858   1.754   1.257   0.400
 9971TIP3    H229859   1.880   1.245   0.483
 9972TIP3   OH229860   1.796   2.037   1.477
 9972TIP3    H129861   1.842   1.958   1.505
 9972TIP3    H229862   1.850   2.073   1.406
 9973TIP3   OH229863   6.386   6.646   2.417
 9973TIP3    H129864   6.480   6.629   2.420
 9973TIP3    H229865   6.348   6.585   2.479
 9974TIP3   OH229866   7.972   2.556   4.451
 9974TIP3    H129867   8.013   2.529   4.370
 9974TIP3    H229868   8.043   2.559   4.515
 9975TIP3   OH229869   7.149   1.285   5.700
 9975TIP3    H129870   7.236   1.252   5.679
 9975TIP3    H229871   7.166   1.367   5.747
 9976TIP3   OH229872   6.806   2.533   3.977
 9976TIP3    H129873   6.864   2.505   4.049
 9976TIP3    H229874   6.846   2.494   3.899
 9977TIP3   OH229875   1.845   5.976   3.849
 9977TIP3    H129876   1.822   5.883   3.847
 9977TIP3    H229877   1.793   6.015   3.780
 9978TIP3   OH229878   8.094   2.353   5.591
 9978TIP3    H129879   8.096   2.423   5.525
 9978TIP3    H229880   8.094   2.399   5.675
 9979TIP3   OH229881   4.038   1.849   5.988
 9979TIP3    H129882   4.046   1.942   6.009
 9979TIP3    H229883   3.950   1.825   6.018
 9980TIP3   OH229884   5.836   1.236   3.033
 9980TIP3    H129885   5.821   1.143   3.048
 9980TIP3    H229886   5.766   1.262   2.973
 9981TIP3   OH229887   8.124   0.711   5.135
 9981TIP3    H129888   8.128   0.616   5.135
 9981TIP3    H229889   8.168   0.737   5.216
 9982TIP3   OH229890   3.249   2.271   3.329
 9982TIP3    H129891   3.312   2.235   3.390
 9982TIP3    H229892   3.241   2.363   3.354
 9983TIP3   OH229893   8.198   2.796   1.336
 9983TIP3    H129894   8.153   2.878   1.358
 9983TIP3    H229895   8.219   2.804   1.243
 9984TIP3   OH229896   0.745   7.153   1.596
 9984TIP3    H129897   0.732   7.237   1.639
 9984TIP3    H229898   0.733   7.172   1.503
 9985TIP3   OH229899   7.076   7.327   2.886
 9985TIP3    H129900   7.036   7.371   2.960
 9985TIP3    H229901   7.015   7.340   2.813
 9986TIP3   OH229902   1.417   0.679   0.232
 9986TIP3    H129903   1.385   0.603   0.281
 9986TIP3    H229904   1.338   0.729   0.211
 9987TIP3   OH229905   5.264   6.486   0.532
 9987TIP3    H129906   5.225   6.399   0.534
 9987TIP3    H229907   5.354   6.471   0.502
 9988TIP3   OH229908   7.772   0.910   4.047
 9988TIP3    H129909   7.798   0.900   3.955
 9988TIP3    H229910   7.687   0.868   4.053
 9989TIP3   OH229911   1.617   7.015   6.235
 9989TIP3    H129912   1.671   7.047   6.163
 9989TIP3    H229913   1.616   7.087   6.298
 9990TIP3   OH229914   3.880   1.215   5.638
 9990TIP3    H129915   3.957   1.272   5.626
 9990TIP3    H229916   3.914   1.136   5.678
 9991TIP3   OH229917   1.990   0.649   0.202
 9991TIP3    H129918   2.021   0.624   0.289
 9991TIP3    H229919   1.920   0.712   0.219
 9992TIP3   OH229920   3.799   6.872   4.949
 9992TIP3    H129921   3.713   6.866   4.989
 9992TIP3    H229922   3.814   6.785   4.911
 9993TIP3   OH229923   6.927   3.920   4.411
 9993TIP3    H129924   6.851   3.867   4.387
 9993TIP3    H229925   6.890   4.002   4.442
 9994TIP3   OH229926   0.853   3.905   2.898
 9994TIP3    H129927   0.932   3.862   2.930
 9994TIP3    H229928   0.795   3.834   2.873
 9995TIP3   OH229929   5.577   2.701   2.405
 9995TIP3    H129930   5.656   2.751   2.383
 9995TIP3    H229931   5.537   2.682   2.320
 9996TIP3   OH229932   2.031   5.830   0.068
 9996TIP3    H129933   1.946   5.866   0.043
 9996TIP3    H229934   2.012   5.771   0.140
 9997TIP3   OH229935   4.754   5.110   3.215
 9997TIP3    H129936   4.705   5.082   3.138
 9997TIP3    H229937   4.702   5.181   3.252
 9998TIP3   OH229938   8.144   0.249   0.407
 9998TIP3    H129939   8.078   0.303   0.364
 9998TIP3    H229940   8.153   0.172   0.351
 9999TIP3   OH229941   2.812   2.962   1.171
 9999TIP3    H129942   2.718   2.979   1.184
 9999TIP3    H229943   2.827   2.982   1.079
10000TIP3   OH229944   3.346   7.192   2.216
10000TIP3    H129945   3.382   7.208   2.304
10000TIP3    H229946   3.369   7.271   2.167
10001TIP3   OH229947   0.513   2.031   3.136
10001TIP3    H129948   0.428   2.052   3.099
10001TIP3    H229949   0.513   1.935   3.145
10002TIP3   OH229950   6.831   4.881   5.772
10002TIP3    H129951   6.882   4.800   5.768
10002TIP3    H229952   6.891   4.945   5.810
10003TIP3   OH229953   5.804   1.842   4.496
10003TIP3    H129954   5.791   1.755   4.534
10003TIP3    H229955   5.768   1.835   4.407
10004TIP3   OH229956   7.570   5.106   3.854
10004TIP3    H129957   7.598   5.092   3.945
10004TIP3    H229958   7.634   5.168   3.819
10005TIP3   OH229959   7.921   0.998   1.241
10005TIP3    H129960   7.936   1.077   1.292
10005TIP3    H229961   7.941   0.926   1.301
10006TIP3   OH229962   0.459   3.081   5.164
10006TIP3    H129963   0.372   3.050   5.137
10006TIP3    H229964   0.456   3.176   5.150
10007TIP3   OH229965   5.707   4.703   5.898
10007TIP3    H129966   5.641   4.760   5.936
10007TIP3    H229967   5.681   4.695   5.806
10008TIP3   OH229968   6.227   5.363   1.951
10008TIP3    H129969   6.271   5.412   2.021
10008TIP3    H229970   6.135   5.362   1.977
10009TIP3   OH229971   4.550   7.852   3.341
10009TIP3    H129972   4.584   7.779   3.289
10009TIP3    H229973   4.616   7.920   3.333
10010TIP3   OH229974   4.513   2.795   5.024
10010TIP3    H129975   4.457   2.855   4.975
10010TIP3    H229976   4.587   2.779   4.966
10011TIP3   OH229977   3.834   4.789   0.223
10011TIP3    H129978   3.759   4.768   0.167
10011TIP3    H229979   3.863   4.704   0.257
10012TIP3   OH229980   3.774   4.271   5.479
10012TIP3    H129981   3.839   4.257   5.410
10012TIP3    H229982   3.776   4.365   5.496
10013TIP3   OH229983   2.353   1.011   2.459
10013TIP3    H129984   2.314   0.925   2.446
10013TIP3    H229985   2.421   1.017   2.393
10014TIP3   OH229986   4.394   7.234   5.686
10014TIP3    H129987   4.411   7.327   5.676
10014TIP3    H229988   4.356   7.207   5.602
10015TIP3   OH229989   1.171   6.598   5.173
10015TIP3    H129990   1.087   6.644   5.176
10015TIP3    H229991   1.186   6.583   5.080
10016TIP3   OH229992   6.422   3.096   2.698
10016TIP3    H129993   6.365   3.142   2.636
10016TIP3    H229994   6.422   3.005   2.667
10017TIP3   OH229995   6.358   4.479   3.045
10017TIP3    H129996   6.334   4.433   2.965
10017TIP3    H229997   6.434   4.430   3.078
10018TIP3   OH229998   7.255   6.412   5.529
10018TIP3    H129999   7.197   6.461   5.471
10018TIP3    H230000   7.197   6.374   5.595
10019TIP3   OH230001   7.535   7.033   2.870
10019TIP3    H130002   7.477   6.957   2.874
10019TIP3    H230003   7.596   7.014   2.799
10020TIP3   OH230004   6.970   7.291   2.044
10020TIP3    H130005   7.034   7.269   2.112
10020TIP3    H230006   6.955   7.209   1.997
10021TIP3   OH230007   5.029   5.111   1.902
10021TIP3    H130008   5.043   5.146   1.990
10021TIP3    H230009   5.087   5.034   1.898
10022TIP3   OH230010   4.703   3.690   2.660
10022TIP3    H130011   4.699   3.786   2.657
10022TIP3    H230012   4.623   3.661   2.618
10023TIP3   OH230013   0.530   4.440   5.175
10023TIP3    H130014   0.615   4.434   5.219
10023TIP3    H230015   0.515   4.534   5.164
10024TIP3   OH230016   3.809   4.793   6.411
10024TIP3    H130017   3.862   4.755   6.482
10024TIP3    H230018   3.872   4.838   6.355
10025TIP3   OH230019   7.443   0.036   3.002
10025TIP3    H130020   7.537   0.037   2.983
10025TIP3    H230021   7.437   0.063   3.093
10026TIP3   OH230022   2.565   3.678   3.334
10026TIP3    H130023   2.589   3.766   3.304
10026TIP3    H230024   2.470   3.675   3.328
10027TIP3   OH230025   7.088   2.551   3.370
10027TIP3    H130026   6.997   2.567   3.392
10027TIP3    H230027   7.128   2.523   3.452
10028TIP3   OH230028   4.535   0.671   0.730
10028TIP3    H130029   4.624   0.640   0.711
10028TIP3    H230030   4.504   0.612   0.799
10029TIP3   OH230031   5.975   4.233   0.411
10029TIP3    H130032   5.927   4.315   0.405
10029TIP3    H230033   6.064   4.255   0.384
10030TIP3   OH230034   3.894   7.633   1.560
10030TIP3    H130035   3.886   7.538   1.571
10030TIP3    H230036   3.965   7.659   1.619
10031TIP3   OH230037   2.650   7.053   5.437
10031TIP3    H130038   2.669   7.133   5.389
10031TIP3    H230039   2.664   6.983   5.373
10032TIP3   OH230040   8.217   0.093   6.028
10032TIP3    H130041   8.184   0.101   6.118
10032TIP3    H230042   8.139   0.092   5.974
10033TIP3   OH230043   6.512   1.731   0.386
10033TIP3    H130044   6.438   1.674   0.407
10033TIP3    H230045   6.583   1.699   0.442
10034TIP3   OH230046   5.971   1.327   6.636
10034TIP3    H130047   6.012   1.397   6.686
10034TIP3    H230048   5.909   1.287   6.697
10035TIP3   OH230049   7.784   7.191   5.736
10035TIP3    H130050   7.814   7.279   5.713
10035TIP3    H230051   7.736   7.203   5.818
10036TIP3   OH230052   1.409   0.422   3.181
10036TIP3    H130053   1.402   0.517   3.190
10036TIP3    H230054   1.319   0.390   3.186
10037TIP3   OH230055   7.867   1.459   1.395
10037TIP3    H130056   7.888   1.496   1.309
10037TIP3    H230057   7.783   1.498   1.418
10038TIP3   OH230058   3.342   1.041   2.347
10038TIP3    H130059   3.319   1.097   2.422
10038TIP3    H230060   3.280   0.969   2.351
10039TIP3   OH230061   1.883   7.494   3.014
10039TIP3    H130062   1.808   7.553   3.015
10039TIP3    H230063   1.849   7.411   3.047
10040TIP3   OH230064   0.923   5.244   2.626
10040TIP3    H130065   0.876   5.319   2.590
10040TIP3    H230066   0.888   5.234   2.714
10041TIP3   OH230067   3.618   6.151   3.055
10041TIP3    H130068   3.713   6.141   3.043
10041TIP3    H230069   3.593   6.220   2.995
10042TIP3   OH230070   7.514   1.575   6.457
10042TIP3    H130071   7.539   1.574   6.364
10042TIP3    H230072   7.516   1.482   6.482
10043TIP3   OH230073   5.387   0.997   1.681
10043TIP3    H130074   5.371   0.933   1.750
10043TIP3    H230075   5.300   1.023   1.652
10044TIP3   OH230076   4.865   6.989   2.654
10044TIP3    H130077   4.934   6.944   2.604
10044TIP3    H230078   4.839   6.924   2.720
10045TIP3   OH230079   0.428   5.735   3.950
10045TIP3    H130080   0.488   5.706   4.019
10045TIP3    H230081   0.343   5.743   3.993
10046TIP3   OH230082   5.995   2.174   6.513
10046TIP3    H130083   5.989   2.095   6.567
10046TIP3    H230084   5.939   2.237   6.557
10047TIP3   OH230085   6.030   2.529   5.278
10047TIP3    H130086   6.103   2.591   5.285
10047TIP3    H230087   5.952   2.582   5.297
10048TIP3   OH230088   5.452   0.375   6.416
10048TIP3    H130089   5.527   0.430   6.391
10048TIP3    H230090   5.460   0.366   6.511
10049TIP3   OH230091   4.853   5.379   1.269
10049TIP3    H130092   4.825   5.468   1.289
10049TIP3    H230093   4.852   5.334   1.353
10050TIP3   OH230094   1.827   3.540   2.761
10050TIP3    H130095   1.776   3.611   2.799
10050TIP3    H230096   1.825   3.470   2.827
10051TIP3   OH230097   4.628   5.922   6.159
10051TIP3    H130098   4.623   5.984   6.086
10051TIP3    H230099   4.567   5.852   6.135
10052TIP3   OH230100   2.773   1.472  -0.023
10052TIP3    H130101   2.783   1.381   0.006
10052TIP3    H230102   2.759   1.521   0.058
10053TIP3   OH230103   7.663   0.038   6.004
10053TIP3    H130104   7.711   0.091   5.940
10053TIP3    H230105   7.574   0.037   5.971
10054TIP3   OH230106   4.130   7.045   1.314
10054TIP3    H130107   4.114   6.987   1.388
10054TIP3    H230108   4.148   7.130   1.354
10055TIP3   OH230109   1.920   1.608   4.268
10055TIP3    H130110   1.907   1.570   4.181
10055TIP3    H230111   2.003   1.571   4.298
10056TIP3   OH230112   8.062   7.254   5.527
10056TIP3    H130113   8.097   7.165   5.525
10056TIP3    H230114   7.971   7.244   5.500
10057TIP3   OH230115   5.209   7.433   5.604
10057TIP3    H130116   5.254   7.488   5.668
10057TIP3    H230117   5.277   7.408   5.542
10058TIP3   OH230118   6.025   4.592   0.896
10058TIP3    H130119   5.969   4.539   0.952
10058TIP3    H230120   5.974   4.605   0.816
10059TIP3   OH230121   7.183   3.070   3.172
10059TIP3    H130122   7.112   3.054   3.234
10059TIP3    H230123   7.255   3.014   3.203
10060TIP3   OH230124   6.134   1.967   1.345
10060TIP3    H130125   6.087   2.045   1.377
10060TIP3    H230126   6.182   1.999   1.268
10061TIP3   OH230127   2.520   4.283   0.270
10061TIP3    H130128   2.445   4.336   0.242
10061TIP3    H230129   2.540   4.314   0.358
10062TIP3   OH230130   0.421   1.082   0.355
10062TIP3    H130131   0.515   1.092   0.371
10062TIP3    H230132   0.403   0.991   0.377
10063TIP3   OH230133   7.649   4.520   2.554
10063TIP3    H130134   7.724   4.461   2.558
10063TIP3    H230135   7.581   4.469   2.510
10064TIP3   OH230136   2.167   3.351   5.902
10064TIP3    H130137   2.213   3.314   5.978
10064TIP3    H230138   2.081   3.310   5.903
10065TIP3   OH230139   6.858   2.941   4.778
10065TIP3    H130140   6.876   2.977   4.691
10065TIP3    H230141   6.766   2.916   4.775
10066TIP3   OH230142   0.731   2.987   3.397
10066TIP3    H130143   0.807   3.043   3.381
10066TIP3    H230144   0.753   2.904   3.354
10067TIP3   OH230145   3.188   2.605   6.108
10067TIP3    H130146   3.106   2.576   6.067
10067TIP3    H230147   3.239   2.525   6.118
10068TIP3   OH230148   8.014   5.497   5.121
10068TIP3    H130149   8.055   5.447   5.191
10068TIP3    H230150   7.921   5.472   5.125
10069TIP3   OH230151   6.960   0.843   3.082
10069TIP3    H130152   6.931   0.929   3.111
10069TIP3    H230153   7.054   0.842   3.099
10070TIP3   OH230154   6.225   5.517   5.887
10070TIP3    H130155   6.181   5.457   5.947
10070TIP3    H230156   6.172   5.596   5.888
10071TIP3   OH230157   3.861   1.346   4.368
10071TIP3    H130158   3.871   1.255   4.395
10071TIP3    H230159   3.774   1.349   4.328
10072TIP3   OH230160   4.626   0.667   5.018
10072TIP3    H130161   4.674   0.612   5.081
10072TIP3    H230162   4.569   0.607   4.972
10073TIP3   OH230163   7.382   7.655   0.254
10073TIP3    H130164   7.429   7.692   0.180
10073TIP3    H230165   7.325   7.726   0.284
10074TIP3   OH230166   0.357   3.638   4.311
10074TIP3    H130167   0.309   3.599   4.384
10074TIP3    H230168   0.329   3.730   4.310
10075TIP3   OH230169   6.799   7.358   2.321
10075TIP3    H130170   6.742   7.432   2.344
10075TIP3    H230171   6.851   7.391   2.247
10076TIP3   OH230172   2.171   0.925   3.718
10076TIP3    H130173   2.234   0.902   3.787
10076TIP3    H230174   2.129   0.843   3.695
10077TIP3   OH230175   1.538   1.122   3.315
10077TIP3    H130176   1.476   1.070   3.264
10077TIP3    H230177   1.488   1.146   3.394
10078TIP3   OH230178   7.312   5.094   5.803
10078TIP3    H130179   7.345   5.036   5.734
10078TIP3    H230180   7.376   5.164   5.808
10079TIP3   OH230181   1.423   7.676   4.153
10079TIP3    H130182   1.493   7.728   4.114
10079TIP3    H230183   1.454   7.657   4.241
10080TIP3   OH230184   4.867   2.932   0.646
10080TIP3    H130185   4.875   3.024   0.625
10080TIP3    H230186   4.776   2.910   0.625
10081TIP3   OH230187   5.377   1.640   1.661
10081TIP3    H130188   5.350   1.612   1.748
10081TIP3    H230189   5.299   1.628   1.607
10082TIP3   OH230190   6.934   0.652   1.880
10082TIP3    H130191   6.911   0.560   1.894
10082TIP3    H230192   6.890   0.675   1.798
10083TIP3   OH230193   8.157   6.905   4.538
10083TIP3    H130194   8.067   6.924   4.566
10083TIP3    H230195   8.212   6.936   4.611
10084TIP3   OH230196   7.413   0.169   2.744
10084TIP3    H130197   7.346   0.237   2.755
10084TIP3    H230198   7.387   0.100   2.805
10085TIP3   OH230199   0.336   2.512   0.034
10085TIP3    H130200   0.391   2.576   0.078
10085TIP3    H230201   0.247   2.549   0.040
10086TIP3   OH230202   0.508   2.191   6.214
10086TIP3    H130203   0.453   2.267   6.230
10086TIP3    H230204   0.477   2.126   6.277
10087TIP3   OH230205   5.937   3.300   3.877
10087TIP3    H130206   6.023   3.267   3.904
10087TIP3    H230207   5.880   3.223   3.878
10088TIP3   OH230208   7.265   2.278   4.606
10088TIP3    H130209   7.307   2.202   4.646
10088TIP3    H230210   7.171   2.262   4.617
10089TIP3   OH230211   5.031   6.222   1.940
10089TIP3    H130212   5.044   6.295   1.879
10089TIP3    H230213   5.020   6.145   1.884
10090TIP3   OH230214   1.543   1.852   3.809
10090TIP3    H130215   1.509   1.781   3.864
10090TIP3    H230216   1.578   1.916   3.872
10091TIP3   OH230217   3.161   1.580   5.558
10091TIP3    H130218   3.135   1.616   5.643
10091TIP3    H230219   3.085   1.529   5.529
10092TIP3   OH230220   1.316   6.512   0.817
10092TIP3    H130221   1.327   6.462   0.736
10092TIP3    H230222   1.313   6.446   0.886
10093TIP3   OH230223   4.138   0.789   4.800
10093TIP3    H130224   4.157   0.744   4.883
10093TIP3    H230225   4.171   0.729   4.733
10094TIP3   OH230226   5.671   5.279   2.325
10094TIP3    H130227   5.758   5.296   2.361
10094TIP3    H230228   5.632   5.217   2.387
10095TIP3   OH230229   3.680   3.246   0.365
10095TIP3    H130230   3.638   3.257   0.279
10095TIP3    H230231   3.659   3.327   0.412
10096TIP3   OH230232   0.493   7.771   3.470
10096TIP3    H130233   0.546   7.705   3.514
10096TIP3    H230234   0.497   7.848   3.526
10097TIP3   OH230235   1.800   0.904   4.292
10097TIP3    H130236   1.786   0.830   4.352
10097TIP3    H230237   1.893   0.902   4.273
10098TIP3   OH230238   0.518   0.346   3.720
10098TIP3    H130239   0.585   0.403   3.757
10098TIP3    H230240   0.435   0.385   3.749
10099TIP3   OH230241   2.430   3.362   5.763
10099TIP3    H130242   2.499   3.306   5.801
10099TIP3    H230243   2.355   3.303   5.752
10100TIP3   OH230244   3.839   4.899   3.448
10100TIP3    H130245   3.746   4.877   3.441
10100TIP3    H230246   3.877   4.828   3.499
10101TIP3   OH230247   2.455   1.757   6.733
10101TIP3    H130248   2.550   1.768   6.737
10101TIP3    H230249   2.439   1.705   6.654
10102TIP3   OH230250   3.596   7.180   5.424
10102TIP3    H130251   3.587   7.122   5.500
10102TIP3    H230252   3.658   7.135   5.367
10103TIP3   OH230253   8.207   4.011   4.743
10103TIP3    H130254   8.289   4.061   4.740
10103TIP3    H230255   8.139   4.075   4.724
10104TIP3   OH230256   6.779   5.167   3.905
10104TIP3    H130257   6.771   5.157   4.000
10104TIP3    H230258   6.858   5.117   3.883
10105TIP3   OH230259   7.721   4.278   4.281
10105TIP3    H130260   7.667   4.208   4.244
10105TIP3    H230261   7.685   4.358   4.243
10106TIP3   OH230262   2.702  -0.046   1.739
10106TIP3    H130263   2.739   0.004   1.666
10106TIP3    H230264   2.702   0.015   1.813
10107TIP3   OH230265   3.054   5.759   0.919
10107TIP3    H130266   3.142   5.725   0.936
10107TIP3    H230267   3.069   5.849   0.889
10108TIP3   OH230268   6.608   1.326   5.311
10108TIP3    H130269   6.547   1.323   5.237
10108TIP3    H230270   6.601   1.415   5.346
10109TIP3   OH230271   2.961   5.033   4.577
10109TIP3    H130272   3.006   5.116   4.592
10109TIP3    H230273   2.907   5.021   4.655
10110TIP3   OH230274   5.507   5.807   5.523
10110TIP3    H130275   5.473   5.729   5.479
10110TIP3    H230276   5.444   5.876   5.501
10111TIP3   OH230277   6.503   0.437   0.029
10111TIP3    H130278   6.517   0.445  -0.065
10111TIP3    H230279   6.535   0.349   0.051
10112TIP3   OH230280   5.751   3.680   3.702
10112TIP3    H130281   5.785   3.683   3.612
10112TIP3    H230282   5.803   3.745   3.749
10113TIP3   OH230283   2.224   1.261   5.445
10113TIP3    H130284   2.289   1.316   5.402
10113TIP3    H230285   2.218   1.183   5.390
10114TIP3   OH230286   7.543   3.260   1.045
10114TIP3    H130287   7.543   3.334   0.984
10114TIP3    H230288   7.611   3.281   1.108
10115TIP3   OH230289   6.879   3.816   4.033
10115TIP3    H130290   6.927   3.734   4.024
10115TIP3    H230291   6.837   3.810   4.119
10116TIP3   OH230292   2.862   3.936   4.871
10116TIP3    H130293   2.939   3.926   4.815
10116TIP3    H230294   2.897   3.930   4.960
10117TIP3   OH230295   2.226   2.119   0.346
10117TIP3    H130296   2.159   2.152   0.286
10117TIP3    H230297   2.183   2.118   0.432
10118TIP3   OH230298   3.733   6.353   2.875
10118TIP3    H130299   3.784   6.304   2.939
10118TIP3    H230300   3.704   6.288   2.811
10119TIP3   OH230301   4.992   6.441   4.580
10119TIP3    H130302   5.019   6.401   4.497
10119TIP3    H230303   5.068   6.429   4.638
10120TIP3   OH230304   4.425   5.890   1.490
10120TIP3    H130305   4.457   5.871   1.578
10120TIP3    H230306   4.498   5.937   1.448
10121TIP3   OH230307   1.988   4.077   5.764
10121TIP3    H130308   2.022   4.069   5.853
10121TIP3    H230309   1.986   3.988   5.731
10122TIP3   OH230310   2.270   0.194   6.347
10122TIP3    H130311   2.355   0.162   6.377
10122TIP3    H230312   2.206   0.132   6.382
10123TIP3   OH230313   0.902   2.209   5.851
10123TIP3    H130314   0.854   2.137   5.892
10123TIP3    H230315   0.900   2.279   5.917
10124TIP3   OH230316   0.762   6.264   4.930
10124TIP3    H130317   0.768   6.265   4.834
10124TIP3    H230318   0.679   6.308   4.949
10125TIP3   OH230319   2.210   1.537   0.577
10125TIP3    H130320   2.255   1.454   0.591
10125TIP3    H230321   2.240   1.593   0.648
10126TIP3   OH230322   1.396   6.134   2.222
10126TIP3    H130323   1.323   6.168   2.273
10126TIP3    H230324   1.361   6.055   2.181
10127TIP3   OH230325   7.138   1.331   6.284
10127TIP3    H130326   7.066   1.332   6.221
10127TIP3    H230327   7.190   1.409   6.262
10128TIP3   OH230328   4.174   7.507   5.449
10128TIP3    H130329   4.150   7.416   5.431
10128TIP3    H230330   4.269   7.509   5.441
10129TIP3   OH230331   6.867   5.762   1.253
10129TIP3    H130332   6.819   5.679   1.244
10129TIP3    H230333   6.819   5.810   1.321
10130TIP3   OH230334   7.522   1.047   0.687
10130TIP3    H130335   7.460   1.021   0.619
10130TIP3    H230336   7.608   1.031   0.649
10131TIP3   OH230337   1.502   2.691   1.237
10131TIP3    H130338   1.462   2.619   1.189
10131TIP3    H230339   1.445   2.766   1.218
10132TIP3   OH230340   6.060   4.041   4.089
10132TIP3    H130341   6.034   4.129   4.117
10132TIP3    H230342   6.116   4.010   4.160
10133TIP3   OH230343   0.608   4.953   2.962
10133TIP3    H130344   0.537   4.913   3.012
10133TIP3    H230345   0.643   4.882   2.909
10134TIP3   OH230346   2.423   0.540   2.977
10134TIP3    H130347   2.505   0.531   2.927
10134TIP3    H230348   2.392   0.628   2.955
10135TIP3   OH230349   5.121   1.252   3.441
10135TIP3    H130350   5.126   1.161   3.470
10135TIP3    H230351   5.169   1.302   3.508
10136TIP3   OH230352   3.535   5.790   0.367
10136TIP3    H130353   3.589   5.712   0.376
10136TIP3    H230354   3.509   5.812   0.457
10137TIP3   OH230355   7.624   0.575   1.705
10137TIP3    H130356   7.577   0.651   1.740
10137TIP3    H230357   7.674   0.541   1.780
10138TIP3   OH230358   3.719   2.502   2.357
10138TIP3    H130359   3.750   2.430   2.303
10138TIP3    H230360   3.781   2.506   2.430
10139TIP3   OH230361   2.690   6.468   6.365
10139TIP3    H130362   2.697   6.432   6.277
10139TIP3    H230363   2.698   6.392   6.423
10140TIP3   OH230364   6.483   7.787   5.908
10140TIP3    H130365   6.518   7.838   5.835
10140TIP3    H230366   6.388   7.801   5.904
10141TIP3   OH230367   2.061   5.154   6.681
10141TIP3    H130368   2.020   5.238   6.702
10141TIP3    H230369   2.021   5.092   6.742
10142TIP3   OH230370   6.026   1.496   1.694
10142TIP3    H130371   5.940   1.538   1.682
10142TIP3    H230372   6.006   1.403   1.697
10143TIP3   OH230373   0.433   6.284   6.299
10143TIP3    H130374   0.342   6.291   6.327
10143TIP3    H230375   0.437   6.204   6.247
10144TIP3   OH230376   2.623   4.482   2.942
10144TIP3    H130377   2.568   4.423   2.995
10144TIP3    H230378   2.706   4.435   2.935
10145TIP3   OH230379   5.711   0.199   3.157
10145TIP3    H130380   5.784   0.148   3.121
10145TIP3    H230381   5.752   0.256   3.222
10146TIP3   OH230382   4.016   5.460   4.967
10146TIP3    H130383   3.972   5.526   5.021
10146TIP3    H230384   4.041   5.507   4.888
10147TIP3   OH230385   0.952   1.957   6.193
10147TIP3    H130386   0.979   2.039   6.152
10147TIP3    H230387   0.943   1.896   6.120
10148TIP3   OH230388   5.053   6.920   0.946
10148TIP3    H130389   5.014   6.934   0.860
10148TIP3    H230390   5.047   7.005   0.990
10149TIP3   OH230391   4.626   4.130   6.553
10149TIP3    H130392   4.708   4.103   6.513
10149TIP3    H230393   4.568   4.054   6.546
10150TIP3   OH230394   2.099   1.720   4.873
10150TIP3    H130395   2.076   1.724   4.780
10150TIP3    H230396   2.026   1.763   4.918
10151TIP3   OH230397   0.533   6.862   0.991
10151TIP3    H130398   0.497   6.919   1.059
10151TIP3    H230399   0.513   6.773   1.020
10152TIP3   OH230400   3.010   6.261   1.309
10152TIP3    H130401   2.985   6.332   1.249
10152TIP3    H230402   3.063   6.305   1.375
10153TIP3   OH230403   7.523   7.194   5.328
10153TIP3    H130404   7.580   7.117   5.325
10153TIP3    H230405   7.443   7.163   5.370
10154TIP3   OH230406   4.883   3.520   0.856
10154TIP3    H130407   4.943   3.558   0.792
10154TIP3    H230408   4.934   3.451   0.899
10155TIP3   OH230409   6.256   1.715   4.428
10155TIP3    H130410   6.349   1.737   4.432
10155TIP3    H230411   6.212   1.797   4.450
10156TIP3   OH230412   4.462   5.343   2.100
10156TIP3    H130413   4.503   5.283   2.163
10156TIP3    H230414   4.533   5.400   2.071
10157TIP3   OH230415   5.623   1.399   4.458
10157TIP3    H130416   5.601   1.492   4.464
10157TIP3    H230417   5.669   1.380   4.539
10158TIP3   OH230418   7.397   1.493   0.491
10158TIP3    H130419   7.456   1.418   0.477
10158TIP3    H230420   7.429   1.534   0.571
10159TIP3   OH230421   5.268   2.210   0.899
10159TIP3    H130422   5.201   2.142   0.909
10159TIP3    H230423   5.350   2.161   0.888
10160TIP3   OH230424   0.266   6.273   0.865
10160TIP3    H130425   0.279   6.356   0.912
10160TIP3    H230426   0.349   6.258   0.820
10161TIP3   OH230427   3.400   5.792   6.531
10161TIP3    H130428   3.495   5.797   6.520
10161TIP3    H230429   3.387   5.766   6.622
10162TIP3   OH230430   2.146   7.147   1.378
10162TIP3    H130431   2.144   7.216   1.312
10162TIP3    H230432   2.086   7.176   1.446
10163TIP3   OH230433   2.960   6.765   1.561
10163TIP3    H130434   2.878   6.772   1.513
10163TIP3    H230435   2.933   6.744   1.651
10164TIP3   OH230436   7.523   4.792   1.085
10164TIP3    H130437   7.592   4.816   1.023
10164TIP3    H230438   7.496   4.876   1.124
10165TIP3   OH230439   4.257   3.903   5.665
10165TIP3    H130440   4.321   3.855   5.717
10165TIP3    H230441   4.224   3.840   5.602
10166TIP3   OH230442   5.426   6.944   4.685
10166TIP3    H130443   5.392   6.945   4.775
10166TIP3    H230444   5.433   7.036   4.661
10167TIP3   OH230445   5.533   4.741   0.267
10167TIP3    H130446   5.537   4.660   0.218
10167TIP3    H230447   5.573   4.721   0.352
10168TIP3   OH230448   5.076   0.538   4.782
10168TIP3    H130449   5.103   0.465   4.839
10168TIP3    H230450   5.116   0.518   4.697
10169TIP3   OH230451   2.326   0.450   6.386
10169TIP3    H130452   2.415   0.458   6.352
10169TIP3    H230453   2.301   0.360   6.363
10170TIP3   OH230454   0.155   0.605   4.825
10170TIP3    H130455   0.191   0.687   4.789
10170TIP3    H230456   0.212   0.585   4.899
10171TIP3   OH230457   0.296   4.872   2.352
10171TIP3    H130458   0.358   4.891   2.282
10171TIP3    H230459   0.230   4.816   2.312
10172TIP3   OH230460   4.854   5.822   0.310
10172TIP3    H130461   4.884   5.778   0.230
10172TIP3    H230462   4.834   5.911   0.282
10173TIP3   OH230463   0.092   2.692   1.506
10173TIP3    H130464   0.027   2.721   1.442
10173TIP3    H230465   0.068   2.737   1.587
10174TIP3   OH230466   2.136   3.120   0.455
10174TIP3    H130467   2.062   3.079   0.499
10174TIP3    H230468   2.209   3.108   0.516
10175TIP3   OH230469   5.930   5.667   1.902
10175TIP3    H130470   5.985   5.705   1.970
10175TIP3    H230471   5.844   5.657   1.943
10176TIP3   OH230472   0.609   2.593   3.128
10176TIP3    H130473   0.634   2.686   3.134
10176TIP3    H230474   0.561   2.587   3.046
10177TIP3   OH230475   4.916   0.463   3.812
10177TIP3    H130476   4.981   0.456   3.743
10177TIP3    H230477   4.868   0.544   3.791
10178TIP3   OH230478   1.841   7.051   2.493
10178TIP3    H130479   1.896   7.080   2.420
10178TIP3    H230480   1.807   6.966   2.466
10179TIP3   OH230481   3.746   4.566   3.397
10179TIP3    H130482   3.734   4.472   3.409
10179TIP3    H230483   3.658   4.602   3.398
10180TIP3   OH230484   6.606   4.340   3.449
10180TIP3    H130485   6.648   4.264   3.489
10180TIP3    H230486   6.675   4.407   3.446
10181TIP3   OH230487   5.702   1.712   0.169
10181TIP3    H130488   5.609   1.724   0.151
10181TIP3    H230489   5.705   1.674   0.257
10182TIP3   OH230490   5.747   7.149   2.767
10182TIP3    H130491   5.829   7.197   2.778
10182TIP3    H230492   5.686   7.212   2.730
10183TIP3   OH230493   0.988   2.559   2.115
10183TIP3    H130494   1.009   2.596   2.201
10183TIP3    H230495   0.910   2.607   2.087
10184TIP3   OH230496   6.087   0.173   1.802
10184TIP3    H130497   6.022   0.108   1.828
10184TIP3    H230498   6.036   0.246   1.768
10185TIP3   OH230499   6.740   2.574   0.639
10185TIP3    H130500   6.700   2.639   0.580
10185TIP3    H230501   6.827   2.609   0.658
10186TIP3   OH230502   5.287   0.790   0.912
10186TIP3    H130503   5.197   0.821   0.911
10186TIP3    H230504   5.304   0.763   0.822
10187TIP3   OH230505   7.790   1.010   6.603
10187TIP3    H130506   7.805   0.938   6.664
10187TIP3    H230507   7.730   1.068   6.650
10188TIP3   OH230508   8.065   6.767   2.143
10188TIP3    H130509   8.095   6.677   2.130
10188TIP3    H230510   8.067   6.779   2.238
10189TIP3   OH230511   7.039   4.106   0.223
10189TIP3    H130512   7.062   4.194   0.193
10189TIP3    H230513   7.118   4.073   0.266
10190TIP3   OH230514   0.570   0.967   5.589
10190TIP3    H130515   0.520   0.886   5.603
10190TIP3    H230516   0.531   1.005   5.511
10191TIP3   OH230517   4.322   2.152   1.865
10191TIP3    H130518   4.305   2.241   1.895
10191TIP3    H230519   4.264   2.140   1.790
10192TIP3   OH230520   1.658   7.151   2.683
10192TIP3    H130521   1.744   7.130   2.646
10192TIP3    H230522   1.600   7.082   2.650
10193TIP3   OH230523   8.148   5.739   0.679
10193TIP3    H130524   8.182   5.764   0.765
10193TIP3    H230525   8.190   5.800   0.618
10194TIP3   OH230526   2.878   6.035   0.208
10194TIP3    H130527   2.786   6.014   0.191
10194TIP3    H230528   2.924   6.014   0.127
10195TIP3   OH230529   6.061   2.904   2.942
10195TIP3    H130530   6.079   2.815   2.911
10195TIP3    H230531   5.970   2.901   2.971
10196TIP3   OH230532   0.371   6.807   1.606
10196TIP3    H130533   0.299   6.744   1.599
10196TIP3    H230534   0.375   6.827   1.700
10197TIP3   OH230535   2.813   1.085   0.809
10197TIP3    H130536   2.729   1.078   0.855
10197TIP3    H230537   2.815   1.009   0.751
10198TIP3   OH230538   2.655   2.218   5.991
10198TIP3    H130539   2.616   2.300   5.961
10198TIP3    H230540   2.728   2.244   6.047
10199TIP3   OH230541   1.613   2.226   3.922
10199TIP3    H130542   1.616   2.316   3.955
10199TIP3    H230543   1.637   2.234   3.830
10200TIP3   OH230544   3.225   6.491   0.829
10200TIP3    H130545   3.307   6.537   0.809
10200TIP3    H230546   3.246   6.399   0.814
10201TIP3   OH230547   1.493   1.256   1.911
10201TIP3    H130548   1.534   1.227   1.829
10201TIP3    H230549   1.428   1.188   1.930
10202TIP3   OH230550   6.023   4.268   3.440
10202TIP3    H130551   6.076   4.202   3.484
10202TIP3    H230552   6.051   4.266   3.349
10203TIP3   OH230553   4.485   3.949   4.717
10203TIP3    H130554   4.501   3.864   4.757
10203TIP3    H230555   4.439   3.999   4.786
10204TIP3   OH230556   2.188   1.563   5.778
10204TIP3    H130557   2.276   1.598   5.761
10204TIP3    H230558   2.134   1.640   5.795
10205TIP3   OH230559   7.966   7.395   1.734
10205TIP3    H130560   7.941   7.391   1.641
10205TIP3    H230561   7.931   7.314   1.771
10206TIP3   OH230562   7.166   6.577   3.969
10206TIP3    H130563   7.198   6.649   4.022
10206TIP3    H230564   7.084   6.551   4.011
10207TIP3   OH230565   2.349   0.835   5.781
10207TIP3    H130566   2.428   0.819   5.729
10207TIP3    H230567   2.382   0.865   5.866
10208TIP3   OH230568   1.585   4.930   4.535
10208TIP3    H130569   1.561   4.998   4.472
10208TIP3    H230570   1.676   4.948   4.558
10209TIP3   OH230571   2.768   7.720   5.413
10209TIP3    H130572   2.804   7.776   5.344
10209TIP3    H230573   2.810   7.750   5.493
10210TIP3   OH230574   4.016   0.886   2.034
10210TIP3    H130575   4.043   0.932   1.955
10210TIP3    H230576   4.009   0.954   2.100
10211TIP3   OH230577   1.417   7.624   4.870
10211TIP3    H130578   1.434   7.620   4.965
10211TIP3    H230579   1.487   7.680   4.836
10212TIP3   OH230580   2.376   6.770   4.102
10212TIP3    H130581   2.349   6.843   4.159
10212TIP3    H230582   2.379   6.694   4.160
10213TIP3   OH230583   2.854   2.459   2.931
10213TIP3    H130584   2.773   2.472   2.880
10213TIP3    H230585   2.887   2.374   2.901
10214TIP3   OH230586   6.396   2.640   5.797
10214TIP3    H130587   6.444   2.644   5.714
10214TIP3    H230588   6.395   2.731   5.828
10215TIP3   OH230589   4.969   3.183   0.404
10215TIP3    H130590   4.875   3.165   0.409
10215TIP3    H230591   5.010   3.097   0.402
10216TIP3   OH230592   5.651   2.012   5.291
10216TIP3    H130593   5.746   2.003   5.284
10216TIP3    H230594   5.630   2.086   5.234
10217TIP3   OH230595   6.242   1.487   4.576
10217TIP3    H130596   6.337   1.477   4.564
10217TIP3    H230597   6.225   1.579   4.558
10218TIP3   OH230598   3.826   6.549   6.524
10218TIP3    H130599   3.890   6.600   6.573
10218TIP3    H230600   3.843   6.458   6.549
10219TIP3   OH230601   0.796   4.570   5.944
10219TIP3    H130602   0.795   4.490   5.997
10219TIP3    H230603   0.812   4.640   6.008
10220TIP3   OH230604   5.314   7.809   0.313
10220TIP3    H130605   5.246   7.853   0.363
10220TIP3    H230606   5.335   7.731   0.364
10221TIP3   OH230607   0.294   5.320   4.592
10221TIP3    H130608   0.359   5.337   4.661
10221TIP3    H230609   0.290   5.225   4.586
10222TIP3   OH230610   4.083   7.715   1.743
10222TIP3    H130611   4.134   7.670   1.810
10222TIP3    H230612   4.137   7.790   1.719
10223TIP3   OH230613   5.679   0.733   5.239
10223TIP3    H130614   5.631   0.804   5.196
10223TIP3    H230615   5.636   0.723   5.323
10224TIP3   OH230616   1.110   7.442   0.411
10224TIP3    H130617   1.032   7.437   0.466
10224TIP3    H230618   1.080   7.417   0.324
10225TIP3   OH230619   7.999   7.194   4.777
10225TIP3    H130620   7.932   7.261   4.765
10225TIP3    H230621   8.070   7.220   4.717
10226TIP3   OH230622   1.227   6.313  -0.003
10226TIP3    H130623   1.306   6.292   0.048
10226TIP3    H230624   1.254   6.386  -0.058
10227TIP3   OH230625   5.504   5.296   5.896
10227TIP3    H130626   5.557   5.217   5.904
10227TIP3    H230627   5.564   5.361   5.859
10228TIP3   OH230628   6.979   0.427   2.228
10228TIP3    H130629   7.015   0.397   2.144
10228TIP3    H230630   6.907   0.366   2.245
10229TIP3   OH230631   2.134   5.196   3.750
10229TIP3    H130632   2.138   5.214   3.656
10229TIP3    H230633   2.113   5.103   3.756
10230TIP3   OH230634   3.215   3.137   1.045
10230TIP3    H130635   3.248   3.227   1.051
10230TIP3    H230636   3.129   3.146   1.003
10231TIP3   OH230637   3.411   2.199   4.197
10231TIP3    H130638   3.396   2.278   4.144
10231TIP3    H230639   3.375   2.220   4.283
10232TIP3   OH230640   2.609   2.441   1.483
10232TIP3    H130641   2.683   2.499   1.502
10232TIP3    H230642   2.639   2.387   1.409
10233TIP3   OH230643   3.126   6.013   2.340
10233TIP3    H130644   3.219   6.001   2.361
10233TIP3    H230645   3.081   5.950   2.395
10234TIP3   OH230646   0.349   7.494   0.251
10234TIP3    H130647   0.352   7.535   0.165
10234TIP3    H230648   0.260   7.510   0.283
10235TIP3   OH230649   1.631   6.662   5.945
10235TIP3    H130650   1.543   6.688   5.972
10235TIP3    H230651   1.617   6.607   5.868
10236TIP3   OH230652   2.139   0.145   3.327
10236TIP3    H130653   2.190   0.154   3.247
10236TIP3    H230654   2.150   0.228   3.373
10237TIP3   OH230655   6.750   0.857   0.546
10237TIP3    H130656   6.752   0.811   0.462
10237TIP3    H230657   6.806   0.806   0.604
10238TIP3   OH230658   5.102   6.931   1.945
10238TIP3    H130659   5.081   6.859   2.005
10238TIP3    H230660   5.024   6.941   1.890
10239TIP3   OH230661   4.638   4.769   2.941
10239TIP3    H130662   4.563   4.820   2.912
10239TIP3    H230663   4.641   4.694   2.881
10240TIP3   OH230664   7.087   5.376   3.558
10240TIP3    H130665   7.119   5.340   3.476
10240TIP3    H230666   7.128   5.463   3.564
10241TIP3   OH230667   0.778   4.888   5.158
10241TIP3    H130668   0.843   4.909   5.091
10241TIP3    H230669   0.809   4.807   5.197
10242TIP3   OH230670   2.871   2.562   1.014
10242TIP3    H130671   2.873   2.517   0.930
10242TIP3    H230672   2.951   2.614   1.015
10243TIP3   OH230673   5.670   1.071   1.602
10243TIP3    H130674   5.683   1.137   1.669
10243TIP3    H230675   5.594   1.021   1.631
10244TIP3   OH230676   5.776   7.634   0.993
10244TIP3    H130677   5.752   7.626   1.085
10244TIP3    H230678   5.833   7.711   0.990
10245TIP3   OH230679   6.881   1.427   4.615
10245TIP3    H130680   6.935   1.355   4.648
10245TIP3    H230681   6.906   1.503   4.667
10246TIP3   OH230682   5.491   2.458   4.537
10246TIP3    H130683   5.524   2.371   4.558
10246TIP3    H230684   5.411   2.442   4.488
10247TIP3   OH230685   3.495   3.051   1.531
10247TIP3    H130686   3.564   3.053   1.465
10247TIP3    H230687   3.528   3.106   1.602
10248TIP3   OH230688   2.109   6.166   5.277
10248TIP3    H130689   2.018   6.191   5.264
10248TIP3    H230690   2.138   6.137   5.191
10249TIP3   OH230691   5.240   1.406   6.556
10249TIP3    H130692   5.292   1.329   6.578
10249TIP3    H230693   5.195   1.383   6.475
10250TIP3   OH230694   2.402   3.443   3.910
10250TIP3    H130695   2.405   3.493   3.991
10250TIP3    H230696   2.335   3.377   3.925
10251TIP3   OH230697   3.493   4.008   5.296
10251TIP3    H130698   3.461   4.057   5.220
10251TIP3    H230699   3.501   4.073   5.365
10252TIP3   OH230700   4.541   5.272   4.448
10252TIP3    H130701   4.538   5.183   4.412
10252TIP3    H230702   4.623   5.275   4.497
10253TIP3   OH230703   2.681   2.217   3.122
10253TIP3    H130704   2.700   2.294   3.176
10253TIP3    H230705   2.739   2.149   3.155
10254TIP3   OH230706   1.865   1.271   1.370
10254TIP3    H130707   1.774   1.298   1.384
10254TIP3    H230708   1.898   1.252   1.458
10255TIP3   OH230709   3.088   1.086   3.687
10255TIP3    H130710   3.115   1.036   3.610
10255TIP3    H230711   3.003   1.123   3.663
10256TIP3   OH230712   5.960   6.647   0.163
10256TIP3    H130713   5.908   6.576   0.201
10256TIP3    H230714   5.978   6.619   0.074
10257TIP3   OH230715   4.122   3.086   5.390
10257TIP3    H130716   4.104   3.040   5.473
10257TIP3    H230717   4.048   3.146   5.380
10258TIP3   OH230718   0.181   6.762   6.283
10258TIP3    H130719   0.272   6.786   6.265
10258TIP3    H230720   0.166   6.683   6.232
10259TIP3   OH230721   0.655   4.523   2.924
10259TIP3    H130722   0.631   4.558   3.009
10259TIP3    H230723   0.750   4.529   2.921
10260TIP3   OH230724   5.618   6.494   2.129
10260TIP3    H130725   5.663   6.550   2.193
10260TIP3    H230726   5.688   6.463   2.071
10261TIP3   OH230727   5.595   6.986   0.865
10261TIP3    H130728   5.516   6.933   0.859
10261TIP3    H230729   5.564   7.076   0.851
10262TIP3   OH230730   2.306   4.063   3.914
10262TIP3    H130731   2.372   4.005   3.877
10262TIP3    H230732   2.229   4.008   3.925
10263TIP3   OH230733   0.497   2.730   3.625
10263TIP3    H130734   0.492   2.764   3.536
10263TIP3    H230735   0.523   2.806   3.678
10264TIP3   OH230736   0.309   3.236   5.880
10264TIP3    H130737   0.268   3.170   5.824
10264TIP3    H230738   0.339   3.303   5.820
10265TIP3   OH230739   7.052   3.576   2.933
10265TIP3    H130740   7.023   3.492   2.967
10265TIP3    H230741   7.142   3.562   2.906
10266TIP3   OH230742   7.172   6.054   1.166
10266TIP3    H130743   7.266   6.048   1.152
10266TIP3    H230744   7.139   6.102   1.089
10267TIP3   OH230745   2.334   4.805   2.975
10267TIP3    H130746   2.311   4.831   2.886
10267TIP3    H230747   2.344   4.888   3.022
10268TIP3   OH230748   1.143   5.820   0.284
10268TIP3    H130749   1.230   5.843   0.251
10268TIP3    H230750   1.092   5.798   0.206
10269TIP3   OH230751   4.640   7.406   0.900
10269TIP3    H130752   4.625   7.497   0.874
10269TIP3    H230753   4.612   7.355   0.824
10270TIP3   OH230754   6.533   1.810   5.168
10270TIP3    H130755   6.443   1.830   5.142
10270TIP3    H230756   6.536   1.830   5.261
10271TIP3   OH230757   4.067   1.974   5.227
10271TIP3    H130758   4.115   2.011   5.302
10271TIP3    H230759   4.016   2.048   5.193
10272TIP3   OH230760   7.631   3.705   5.174
10272TIP3    H130761   7.669   3.720   5.088
10272TIP3    H230762   7.538   3.726   5.163
10273TIP3   OH230763   6.710   3.346   0.887
10273TIP3    H130764   6.633   3.359   0.833
10273TIP3    H230765   6.783   3.378   0.834
10274TIP3   OH230766   5.334   1.833   0.430
10274TIP3    H130767   5.310   1.922   0.457
10274TIP3    H230768   5.426   1.824   0.457
10275TIP3   OH230769   7.394   0.539   2.028
10275TIP3    H130770   7.332   0.569   1.962
10275TIP3    H230771   7.384   0.444   2.027
10276TIP3   OH230772   4.637   6.752   3.358
10276TIP3    H130773   4.621   6.657   3.356
10276TIP3    H230774   4.601   6.785   3.276
10277TIP3   OH230775   6.522   6.510   3.239
10277TIP3    H130776   6.516   6.606   3.235
10277TIP3    H230777   6.437   6.482   3.273
10278TIP3   OH230778   5.076   2.089   4.409
10278TIP3    H130779   4.992   2.134   4.417
10278TIP3    H230780   5.096   2.059   4.497
10279TIP3   OH230781   2.945   1.607   1.802
10279TIP3    H130782   2.958   1.696   1.835
10279TIP3    H230783   2.860   1.581   1.835
10280TIP3   OH230784   3.653   1.377   1.153
10280TIP3    H130785   3.713   1.429   1.100
10280TIP3    H230786   3.572   1.372   1.102
10281TIP3   OH230787   6.424   6.730   1.169
10281TIP3    H130788   6.497   6.768   1.120
10281TIP3    H230789   6.392   6.659   1.113
10282TIP3   OH230790   2.997   1.423   6.527
10282TIP3    H130791   2.945   1.346   6.550
10282TIP3    H230792   3.046   1.396   6.449
10283TIP3   OH230793   6.942   6.261   5.144
10283TIP3    H130794   7.012   6.318   5.176
10283TIP3    H230795   6.908   6.219   5.223
10284TIP3   OH230796   6.543   2.374   2.302
10284TIP3    H130797   6.489   2.392   2.225
10284TIP3    H230798   6.494   2.309   2.352
10285TIP3   OH230799   3.629   4.531   6.416
10285TIP3    H130800   3.683   4.609   6.420
10285TIP3    H230801   3.691   4.458   6.426
10286TIP3   OH230802   1.654   1.559   0.144
10286TIP3    H130803   1.580   1.619   0.129
10286TIP3    H230804   1.706   1.602   0.211
10287TIP3   OH230805   4.602   1.377   6.612
10287TIP3    H130806   4.554   1.307   6.567
10287TIP3    H230807   4.538   1.413   6.674
10288TIP3   OH230808   3.730   0.551   2.798
10288TIP3    H130809   3.654   0.609   2.807
10288TIP3    H230810   3.804   0.606   2.821
10289TIP3   OH230811   3.257   3.712   1.646
10289TIP3    H130812   3.176   3.662   1.653
10289TIP3    H230813   3.313   3.678   1.716
10290TIP3   OH230814   0.140   4.742   1.914
10290TIP3    H130815   0.224   4.696   1.912
10290TIP3    H230816   0.117   4.747   2.006
10291TIP3   OH230817   4.182   7.115   5.838
10291TIP3    H130818   4.095   7.137   5.805
10291TIP3    H230819   4.243   7.157   5.777
10292TIP3   OH230820   3.773   0.319   3.366
10292TIP3    H130821   3.690   0.290   3.329
10292TIP3    H230822   3.791   0.257   3.437
10293TIP3   OH230823   3.779   5.720   3.704
10293TIP3    H130824   3.783   5.628   3.730
10293TIP3    H230825   3.687   5.744   3.714
10294TIP3   OH230826   6.317   1.980   0.725
10294TIP3    H130827   6.370   1.919   0.776
10294TIP3    H230828   6.323   2.063   0.772
10295TIP3   OH230829   3.351   2.373   4.414
10295TIP3    H130830   3.346   2.437   4.485
10295TIP3    H230831   3.342   2.426   4.334
10296TIP3   OH230832   1.220   6.643   2.391
10296TIP3    H130833   1.166   6.608   2.321
10296TIP3    H230834   1.204   6.585   2.465
10297TIP3   OH230835   4.353   0.278   1.056
10297TIP3    H130836   4.370   0.241   1.143
10297TIP3    H230837   4.286   0.345   1.071
10298TIP3   OH230838   7.553   4.723   3.873
10298TIP3    H130839   7.570   4.631   3.851
10298TIP3    H230840   7.462   4.725   3.901
10299TIP3   OH230841   5.191   0.507   0.145
10299TIP3    H130842   5.165   0.558   0.068
10299TIP3    H230843   5.110   0.497   0.195
10300TIP3   OH230844   4.052   6.662   0.609
10300TIP3    H130845   4.022   6.593   0.668
10300TIP3    H230846   4.109   6.717   0.663
10301TIP3   OH230847   3.969   7.206   5.643
10301TIP3    H130848   3.951   7.296   5.618
10301TIP3    H230849   3.995   7.163   5.562
10302TIP3   OH230850   3.435   2.355   3.937
10302TIP3    H130851   3.501   2.413   3.975
10302TIP3    H230852   3.355   2.408   3.937
10303TIP3   OH230853   8.227   1.680   4.614
10303TIP3    H130854   8.226   1.774   4.600
10303TIP3    H230855   8.245   1.669   4.707
10304TIP3   OH230856   1.787   5.719   3.352
10304TIP3    H130857   1.873   5.683   3.375
10304TIP3    H230858   1.805   5.784   3.285
10305TIP3   OH230859   4.719   6.722   1.740
10305TIP3    H130860   4.714   6.723   1.835
10305TIP3    H230861   4.791   6.781   1.718
10306TIP3   OH230862   0.636   1.483   1.606
10306TIP3    H130863   0.599   1.571   1.599
10306TIP3    H230864   0.728   1.494   1.580
10307TIP3   OH230865   7.389   2.014   5.725
10307TIP3    H130866   7.440   1.936   5.703
10307TIP3    H230867   7.396   2.070   5.647
10308TIP3   OH230868   7.425   6.331   1.802
10308TIP3    H130869   7.405   6.289   1.719
10308TIP3    H230870   7.480   6.406   1.779
10309TIP3   OH230871   4.757   2.479   1.434
10309TIP3    H130872   4.811   2.442   1.365
10309TIP3    H230873   4.667   2.458   1.409
10310TIP3   OH230874   1.006   6.909   5.398
10310TIP3    H130875   1.012   6.892   5.304
10310TIP3    H230876   1.093   6.890   5.432
10311TIP3   OH230877   0.280   6.334   3.783
10311TIP3    H130878   0.269   6.256   3.729
10311TIP3    H230879   0.343   6.388   3.735
10312TIP3   OH230880   7.619   1.840   0.027
10312TIP3    H130881   7.676   1.861   0.102
10312TIP3    H230882   7.655   1.759  -0.008
10313TIP3   OH230883   8.283   2.377   2.315
10313TIP3    H130884   8.304   2.289   2.345
10313TIP3    H230885   8.215   2.364   2.248
10314TIP3   OH230886   1.704   5.602   1.098
10314TIP3    H130887   1.735   5.593   1.189
10314TIP3    H230888   1.621   5.650   1.106
10315TIP3   OH230889   4.220   0.769   5.691
10315TIP3    H130890   4.278   0.826   5.641
10315TIP3    H230891   4.182   0.710   5.626
10316TIP3   OH230892   0.941   3.161   3.317
10316TIP3    H130893   0.932   3.197   3.406
10316TIP3    H230894   1.018   3.205   3.282
10317TIP3   OH230895   2.728   7.041   3.298
10317TIP3    H130896   2.817   7.073   3.281
10317TIP3    H230897   2.728   6.951   3.267
10318TIP3   OH230898   0.975   0.215   0.239
10318TIP3    H130899   0.904   0.277   0.228
10318TIP3    H230900   1.037   0.259   0.298
10319TIP3   OH230901   3.939   0.823   6.729
10319TIP3    H130902   3.874   0.853   6.666
10319TIP3    H230903   3.905   0.851   6.814
10320TIP3   OH230904   4.304   7.370   0.626
10320TIP3    H130905   4.266   7.411   0.703
10320TIP3    H230906   4.294   7.436   0.557
10321TIP3   OH230907   5.849   7.306   1.259
10321TIP3    H130908   5.896   7.222   1.261
10321TIP3    H230909   5.872   7.345   1.175
10322TIP3   OH230910   6.363   3.569   2.854
10322TIP3    H130911   6.334   3.499   2.912
10322TIP3    H230912   6.439   3.534   2.810
10323TIP3   OH230913   3.414   2.574   1.894
10323TIP3    H130914   3.431   2.494   1.944
10323TIP3    H230915   3.453   2.557   1.808
10324TIP3   OH230916   6.006   6.716   3.013
10324TIP3    H130917   6.085   6.686   3.058
10324TIP3    H230918   5.997   6.808   3.038
10325TIP3   OH230919   4.675   6.314   3.951
10325TIP3    H130920   4.622   6.312   4.030
10325TIP3    H230921   4.748   6.255   3.970
10326TIP3   OH230922   0.596   3.392   1.230
10326TIP3    H130923   0.528   3.424   1.290
10326TIP3    H230924   0.677   3.398   1.280
10327TIP3   OH230925   0.688   0.419   0.846
10327TIP3    H130926   0.757   0.359   0.818
10327TIP3    H230927   0.734   0.492   0.886
10328TIP3   OH230928   3.681   7.466   1.332
10328TIP3    H130929   3.713   7.533   1.272
10328TIP3    H230930   3.616   7.511   1.386
10329TIP3   OH230931   7.523   1.979   2.425
10329TIP3    H130932   7.606   2.018   2.396
10329TIP3    H230933   7.459   2.050   2.416
10330TIP3   OH230934   2.107   7.395   1.163
10330TIP3    H130935   2.096   7.488   1.143
10330TIP3    H230936   2.022   7.356   1.139
10331TIP3   OH230937   5.263   1.195   3.875
10331TIP3    H130938   5.188   1.228   3.925
10331TIP3    H230939   5.334   1.255   3.895
10332TIP3   OH230940   4.495   4.313   5.147
10332TIP3    H130941   4.575   4.320   5.198
10332TIP3    H230942   4.525   4.301   5.057
10333TIP3   OH230943   7.707   7.756   0.038
10333TIP3    H130944   7.740   7.679  -0.009
10333TIP3    H230945   7.613   7.758   0.018
10334TIP3   OH230946   2.210   3.307   4.857
10334TIP3    H130947   2.260   3.234   4.821
10334TIP3    H230948   2.219   3.299   4.952
10335TIP3   OH230949   1.412   4.814   2.476
10335TIP3    H130950   1.425   4.807   2.382
10335TIP3    H230951   1.320   4.842   2.485
10336TIP3   OH230952   1.717   1.435   6.319
10336TIP3    H130953   1.650   1.445   6.386
10336TIP3    H230954   1.783   1.501   6.340
10337TIP3   OH230955   3.128   0.430   2.168
10337TIP3    H130956   3.167   0.517   2.171
10337TIP3    H230957   3.158   0.393   2.085
10338TIP3   OH230958   4.439   1.897   5.920
10338TIP3    H130959   4.532   1.883   5.901
10338TIP3    H230960   4.425   1.990   5.904
10339TIP3   OH230961   7.181   1.056   2.005
10339TIP3    H130962   7.272   1.081   2.019
10339TIP3    H230963   7.133   1.096   2.077
10340TIP3   OH230964   0.679   1.342   5.590
10340TIP3    H130965   0.764   1.311   5.558
10340TIP3    H230966   0.697   1.429   5.625
10341TIP3   OH230967   1.485   4.919   5.553
10341TIP3    H130968   1.518   4.867   5.626
10341TIP3    H230969   1.560   4.972   5.526
10342TIP3   OH230970   5.686   4.147   3.930
10342TIP3    H130971   5.723   4.234   3.948
10342TIP3    H230972   5.600   4.165   3.893
10343TIP3   OH230973   3.763   3.962   1.436
10343TIP3    H130974   3.675   3.999   1.442
10343TIP3    H230975   3.815   4.029   1.393
10344TIP3   OH230976   7.947   7.781   2.243
10344TIP3    H130977   7.918   7.869   2.218
10344TIP3    H230978   7.941   7.780   2.339
10345TIP3   OH230979   1.044   5.860   1.836
10345TIP3    H130980   0.999   5.802   1.897
10345TIP3    H230981   0.998   5.944   1.843
10346TIP3   OH230982   0.083   6.736   5.142
10346TIP3    H130983   0.107   6.677   5.071
10346TIP3    H230984   0.049   6.814   5.098
10347TIP3   OH230985   7.110   1.222   1.608
10347TIP3    H130986   7.173   1.157   1.576
10347TIP3    H230987   7.046   1.171   1.657
10348TIP3   OH230988   6.498   6.083   2.145
10348TIP3    H130989   6.582   6.041   2.130
10348TIP3    H230990   6.506   6.123   2.232
10349TIP3   OH230991   6.432   6.903   4.016
10349TIP3    H130992   6.405   6.819   3.979
10349TIP3    H230993   6.419   6.966   3.945
10350TIP3   OH230994   5.712   2.071   6.342
10350TIP3    H130995   5.722   2.117   6.259
10350TIP3    H230996   5.788   2.013   6.346
10351TIP3   OH230997   8.165   4.918   0.217
10351TIP3    H130998   8.071   4.935   0.227
10351TIP3    H230999   8.181   4.844   0.275
10352TIP3   OH231000   5.768   5.588   2.943
10352TIP3    H131001   5.856   5.624   2.957
10352TIP3    H231002   5.783   5.507   2.894
10353TIP3   OH231003   1.937   1.347   3.210
10353TIP3    H131004   1.863   1.353   3.270
10353TIP3    H231005   2.013   1.368   3.263
10354TIP3   OH231006   3.652   3.601   2.084
10354TIP3    H131007   3.627   3.530   2.143
10354TIP3    H231008   3.621   3.681   2.127
10355TIP3   OH231009   5.403   3.873   5.453
10355TIP3    H131010   5.475   3.866   5.391
10355TIP3    H231011   5.335   3.921   5.405
10356TIP3   OH231012   3.736   2.441   6.037
10356TIP3    H131013   3.782   2.500   6.097
10356TIP3    H231014   3.717   2.364   6.090
10357TIP3   OH231015   4.194   3.523   6.121
10357TIP3    H131016   4.191   3.493   6.031
10357TIP3    H231017   4.288   3.525   6.143
10358TIP3   OH231018   6.403   0.660   2.202
10358TIP3    H131019   6.416   0.716   2.279
10358TIP3    H231020   6.474   0.684   2.142
10359TIP3   OH231021   2.253   2.376   5.007
10359TIP3    H131022   2.333   2.425   4.985
10359TIP3    H231023   2.281   2.317   5.078
10360TIP3   OH231024   6.961   1.395   6.102
10360TIP3    H131025   6.908   1.462   6.057
10360TIP3    H231026   6.896   1.336   6.140
10361TIP3   OH231027   1.979   3.530   1.980
10361TIP3    H131028   1.963   3.538   2.074
10361TIP3    H231029   2.045   3.597   1.961
10362TIP3   OH231030   4.036   0.458   5.951
10362TIP3    H131031   4.108   0.419   5.901
10362TIP3    H231032   4.079   0.502   6.024
10363TIP3   OH231033   1.516   0.347   3.874
10363TIP3    H131034   1.553   0.373   3.959
10363TIP3    H231035   1.566   0.397   3.810
10364TIP3   OH231036   3.092   5.700   6.614
10364TIP3    H131037   3.131   5.787   6.627
10364TIP3    H231038   3.087   5.690   6.519
10365TIP3   OH231039   5.705   0.078   5.294
10365TIP3    H131040   5.730   0.015   5.226
10365TIP3    H231041   5.789   0.112   5.326
10366TIP3   OH231042   3.061   0.113   1.217
10366TIP3    H131043   3.123   0.069   1.275
10366TIP3    H231044   2.976   0.075   1.240
10367TIP3   OH231045   5.276   1.499   4.447
10367TIP3    H131046   5.338   1.566   4.477
10367TIP3    H231047   5.298   1.485   4.355
10368TIP3   OH231048   2.695   7.676   4.404
10368TIP3    H131049   2.729   7.587   4.392
10368TIP3    H231050   2.600   7.666   4.403
10369TIP3   OH231051   5.930   1.393   0.166
10369TIP3    H131052   5.901   1.386   0.257
10369TIP3    H231053   5.996   1.325   0.156
10370TIP3   OH231054   2.090   1.412   1.849
10370TIP3    H131055   2.104   1.489   1.794
10370TIP3    H231056   1.997   1.417   1.873
10371TIP3   OH231057   5.406   5.319   0.795
10371TIP3    H131058   5.416   5.355   0.883
10371TIP3    H231059   5.408   5.395   0.738
10372TIP3   OH231060   6.064   1.292   5.954
10372TIP3    H131061   6.000   1.248   6.010
10372TIP3    H231062   6.119   1.221   5.921
10373TIP3   OH231063   2.378   4.449   2.646
10373TIP3    H131064   2.425   4.366   2.643
10373TIP3    H231065   2.423   4.501   2.712
10374TIP3   OH231066   5.078   1.734   5.915
10374TIP3    H131067   5.045   1.822   5.933
10374TIP3    H231068   5.014   1.676   5.955
10375TIP3   OH231069   2.654   7.185   3.521
10375TIP3    H131070   2.572   7.214   3.560
10375TIP3    H231071   2.628   7.136   3.443
10376TIP3   OH231072   7.690   4.116   2.586
10376TIP3    H131073   7.755   4.185   2.598
10376TIP3    H231074   7.734   4.051   2.531
10377TIP3   OH231075   1.040   2.095   2.618
10377TIP3    H131076   1.004   2.179   2.590
10377TIP3    H231077   0.990   2.030   2.569
10378TIP3   OH231078   6.416   3.844   0.138
10378TIP3    H131079   6.367   3.855   0.220
10378TIP3    H231080   6.402   3.927   0.092
10379TIP3   OH231081   5.300   4.222   6.547
10379TIP3    H131082   5.210   4.243   6.520
10379TIP3    H231083   5.313   4.132   6.517
10380TIP3   OH231084   0.895   1.149   4.855
10380TIP3    H131085   0.887   1.054   4.844
10380TIP3    H231086   0.973   1.160   4.908
10381TIP3   OH231087   5.690   5.554   1.969
10381TIP3    H131088   5.702   5.460   1.976
10381TIP3    H231089   5.595   5.567   1.970
10382TIP3   OH231090   1.203   5.255   4.005
10382TIP3    H131091   1.220   5.275   3.913
10382TIP3    H231092   1.110   5.275   4.018
10383TIP3   OH231093   5.042   3.793   2.446
10383TIP3    H131094   5.116   3.810   2.503
10383TIP3    H231095   5.080   3.756   2.366
10384TIP3   OH231096   1.167   4.301   3.015
10384TIP3    H131097   1.159   4.385   3.061
10384TIP3    H231098   1.208   4.323   2.931
10385TIP3   OH231099   2.583   5.077   1.094
10385TIP3    H131100   2.652   5.024   1.133
10385TIP3    H231101   2.503   5.049   1.140
10386TIP3   OH231102   5.282   5.874   1.245
10386TIP3    H131103   5.287   5.810   1.173
10386TIP3    H231104   5.193   5.909   1.238
10387TIP3   OH231105   1.231   1.214   6.748
10387TIP3    H131106   1.266   1.292   6.792
10387TIP3    H231107   1.292   1.198   6.676
10388TIP3   OH231108   4.027   7.814   3.256
10388TIP3    H131109   3.965   7.814   3.329
10388TIP3    H231110   4.113   7.820   3.298
10389TIP3   OH231111   3.838   7.444   4.336
10389TIP3    H131112   3.906   7.509   4.355
10389TIP3    H231113   3.883   7.375   4.287
10390TIP3   OH231114   4.307   1.517   5.534
10390TIP3    H131115   4.368   1.536   5.606
10390TIP3    H231116   4.261   1.600   5.520
10391TIP3   OH231117   6.487   3.175   4.352
10391TIP3    H131118   6.516   3.255   4.309
10391TIP3    H231119   6.401   3.158   4.315
10392TIP3   OH231120   1.624   6.166   0.956
10392TIP3    H131121   1.541   6.126   0.983
10392TIP3    H231122   1.611   6.188   0.863
10393TIP3   OH231123   4.295   3.744   3.727
10393TIP3    H131124   4.373   3.689   3.723
10393TIP3    H231125   4.263   3.734   3.817
10394TIP3   OH231126   1.509   0.055   2.550
10394TIP3    H131127   1.435   0.114   2.535
10394TIP3    H231128   1.482  -0.028   2.512
10395TIP3   OH231129   3.778   0.218   4.346
10395TIP3    H131130   3.691   0.181   4.329
10395TIP3    H231131   3.775   0.243   4.438
10396TIP3   OH231132   7.126   4.159   5.963
10396TIP3    H131133   7.187   4.100   6.008
10396TIP3    H231134   7.083   4.207   6.033
10397TIP3   OH231135   6.756   4.965   4.571
10397TIP3    H131136   6.744   5.060   4.566
10397TIP3    H231137   6.701   4.938   4.645
10398TIP3   OH231138   1.539   5.762   6.202
10398TIP3    H131139   1.459   5.716   6.176
10398TIP3    H231140   1.609   5.699   6.188
10399TIP3   OH231141   1.148   4.465   4.205
10399TIP3    H131142   1.194   4.499   4.282
10399TIP3    H231143   1.135   4.542   4.150
10400TIP3   OH231144   2.984   4.056   6.303
10400TIP3    H131145   3.057   4.113   6.329
10400TIP3    H231146   2.936   4.039   6.384
10401TIP3   OH231147   3.801   2.272   0.329
10401TIP3    H131148   3.820   2.233   0.415
10401TIP3    H231149   3.725   2.224   0.297
10402TIP3   OH231150   5.548   2.493   0.905
10402TIP3    H131151   5.567   2.501   0.812
10402TIP3    H231152   5.548   2.399   0.923
10403TIP3   OH231153   6.718   7.049   4.828
10403TIP3    H131154   6.692   7.029   4.918
10403TIP3    H231155   6.749   6.967   4.792
10404TIP3   OH231156   5.858   1.710   1.642
10404TIP3    H131157   5.840   1.720   1.735
10404TIP3    H231158   5.785   1.752   1.597
10405TIP3   OH231159   4.313   3.629   0.855
10405TIP3    H131160   4.394   3.595   0.894
10405TIP3    H231161   4.324   3.616   0.761
10406TIP3   OH231162   3.499   1.453   3.707
10406TIP3    H131163   3.459   1.463   3.793
10406TIP3    H231164   3.495   1.359   3.689
10407TIP3   OH231165   3.122   7.027   2.531
10407TIP3    H131166   3.036   7.068   2.536
10407TIP3    H231167   3.134   7.008   2.438
10408TIP3   OH231168   4.028   5.643   4.440
10408TIP3    H131169   3.961   5.574   4.441
10408TIP3    H231170   4.108   5.598   4.468
10409TIP3   OH231171   7.593   3.747   4.075
10409TIP3    H131172   7.643   3.690   4.134
10409TIP3    H231173   7.653   3.819   4.055
10410TIP3   OH231174   8.270   6.472   4.735
10410TIP3    H131175   8.270   6.482   4.640
10410TIP3    H231176   8.258   6.378   4.749
10411TIP3   OH231177   7.605   7.486   4.941
10411TIP3    H131178   7.524   7.446   4.974
10411TIP3    H231179   7.582   7.577   4.925
10412TIP3   OH231180   1.225   6.043   3.067
10412TIP3    H131181   1.239   6.131   3.033
10412TIP3    H231182   1.145   6.013   3.024
10413TIP3   OH231183   4.086   3.876   1.485
10413TIP3    H131184   4.149   3.805   1.473
10413TIP3    H231185   4.125   3.951   1.441
10414TIP3   OH231186   6.738   0.340   6.714
10414TIP3    H131187   6.723   0.435   6.712
10414TIP3    H231188   6.677   0.307   6.779
10415TIP3   OH231189   7.608   6.707   5.965
10415TIP3    H131190   7.655   6.730   5.885
10415TIP3    H231191   7.539   6.773   5.973
10416TIP3   OH231192   8.165   2.173   2.514
10416TIP3    H131193   8.134   2.109   2.451
10416TIP3    H231194   8.117   2.152   2.594
10417TIP3   OH231195   0.212   2.369   3.203
10417TIP3    H131196   0.117   2.374   3.190
10417TIP3    H231197   0.248   2.362   3.115
10418TIP3   OH231198   1.596   7.516   6.609
10418TIP3    H131199   1.634   7.553   6.688
10418TIP3    H231200   1.519   7.468   6.639
10419TIP3   OH231201   8.084   4.476   0.919
10419TIP3    H131202   8.017   4.545   0.925
10419TIP3    H231203   8.092   4.442   1.008
10420TIP3   OH231204   0.281   2.053   2.999
10420TIP3    H131205   0.290   2.054   2.903
10420TIP3    H231206   0.220   1.982   3.017
10421TIP3   OH231207   5.506   7.244   0.807
10421TIP3    H131208   5.547   7.323   0.770
10421TIP3    H231209   5.413   7.264   0.808
10422TIP3   OH231210   6.213   2.239   6.740
10422TIP3    H131211   6.246   2.169   6.684
10422TIP3    H231212   6.232   2.210   6.829
10423TIP3   OH231213   4.656   7.130   3.873
10423TIP3    H131214   4.574   7.080   3.877
10423TIP3    H231215   4.670   7.160   3.962
10424TIP3   OH231216   3.373   4.431   6.401
10424TIP3    H131217   3.463   4.456   6.382
10424TIP3    H231218   3.355   4.467   6.487
10425TIP3   OH231219   5.711   3.519   4.269
10425TIP3    H131220   5.628   3.499   4.312
10425TIP3    H231221   5.761   3.567   4.334
10426TIP3   OH231222   5.709   2.414   6.366
10426TIP3    H131223   5.710   2.488   6.426
10426TIP3    H231224   5.796   2.413   6.327
10427TIP3   OH231225   7.139   3.813   4.249
10427TIP3    H131226   7.101   3.753   4.185
10427TIP3    H231227   7.064   3.856   4.290
10428TIP3   OH231228   7.536   2.972   0.252
10428TIP3    H131229   7.557   2.909   0.184
10428TIP3    H231230   7.583   3.052   0.227
10429TIP3   OH231231   1.950   6.197   1.340
10429TIP3    H131232   1.861   6.179   1.309
10429TIP3    H231233   1.941   6.206   1.434
10430TIP3   OH231234   6.911   7.023   6.409
10430TIP3    H131235   6.952   6.937   6.396
10430TIP3    H231236   6.873   7.044   6.324
10431TIP3   OH231237   1.096   6.570   0.542
10431TIP3    H131238   1.090   6.487   0.590
10431TIP3    H231239   1.025   6.623   0.578
10432TIP3   OH231240   1.366   0.186   4.244
10432TIP3    H131241   1.289   0.133   4.223
10432TIP3    H231242   1.439   0.124   4.236
10433TIP3   OH231243   5.539   0.756   4.882
10433TIP3    H131244   5.518   0.828   4.942
10433TIP3    H231245   5.459   0.741   4.832
10434TIP3   OH231246   6.901   1.187   2.258
10434TIP3    H131247   6.987   1.225   2.240
10434TIP3    H231248   6.845   1.219   2.187
10435TIP3   OH231249   3.599   7.463   3.690
10435TIP3    H131250   3.674   7.520   3.671
10435TIP3    H231251   3.565   7.438   3.605
10436TIP3   OH231252   5.717   5.620   4.666
10436TIP3    H131253   5.785   5.624   4.733
10436TIP3    H231254   5.670   5.538   4.683
10437TIP3   OH231255   3.650   6.957   3.930
10437TIP3    H131256   3.689   7.031   3.976
10437TIP3    H231257   3.581   6.995   3.876
10438TIP3   OH231258   3.461   6.936   2.212
10438TIP3    H131259   3.417   7.019   2.192
10438TIP3    H231260   3.508   6.954   2.293
10439TIP3   OH231261   2.395   3.817   6.440
10439TIP3    H131262   2.443   3.826   6.358
10439TIP3    H231263   2.382   3.722   6.450
10440TIP3   OH231264   7.427   5.191   3.084
10440TIP3    H131265   7.496   5.190   3.150
10440TIP3    H231266   7.454   5.258   3.021
10441TIP3   OH231267   6.592   3.168   6.487
10441TIP3    H131268   6.686   3.162   6.502
10441TIP3    H231269   6.568   3.255   6.518
10442TIP3   OH231270   8.244   4.078   3.421
10442TIP3    H131271   8.205   4.113   3.341
10442TIP3    H231272   8.338   4.082   3.406
10443TIP3   OH231273   0.343   6.001   4.352
10443TIP3    H131274   0.430   5.962   4.357
10443TIP3    H231275   0.284   5.926   4.352
10444TIP3   OH231276   4.187   3.619   3.276
10444TIP3    H131277   4.135   3.561   3.220
10444TIP3    H231278   4.275   3.583   3.272
10445TIP3   OH231279   7.060   1.695   5.274
10445TIP3    H131280   7.106   1.709   5.192
10445TIP3    H231281   6.967   1.696   5.249
10446TIP3   OH231282   6.100   2.285   3.758
10446TIP3    H131283   6.180   2.266   3.807
10446TIP3    H231284   6.032   2.289   3.825
10447TIP3   OH231285   5.811   4.305   5.039
10447TIP3    H131286   5.761   4.342   5.112
10447TIP3    H231287   5.859   4.232   5.077
10448TIP3   OH231288   7.907   0.787   1.472
10448TIP3    H131289   7.909   0.700   1.510
10448TIP3    H231290   7.943   0.844   1.540
10449TIP3   OH231291   0.057   3.583   3.119
10449TIP3    H131292   0.014   3.521   3.061
10449TIP3    H231293  -0.004   3.594   3.192
10450TIP3   OH231294   1.419   2.643   4.672
10450TIP3    H131295   1.377   2.587   4.607
10450TIP3    H231296   1.504   2.664   4.634
10451TIP3   OH231297   7.570   4.123   4.589
10451TIP3    H131298   7.540   4.203   4.547
10451TIP3    H231299   7.622   4.153   4.664
10452TIP3   OH231300   5.467   0.934   5.092
10452TIP3    H131301   5.401   0.980   5.039
10452TIP3    H231302   5.431   0.934   5.180
10453TIP3   OH231303   3.791   1.207   5.341
10453TIP3    H131304   3.835   1.123   5.357
10453TIP3    H231305   3.862   1.271   5.342
10454TIP3   OH231306   2.652   1.748   4.660
10454TIP3    H131307   2.729   1.731   4.606
10454TIP3    H231308   2.584   1.691   4.624
10455TIP3   OH231309   0.317   1.673   5.290
10455TIP3    H131310   0.384   1.696   5.226
10455TIP3    H231311   0.293   1.757   5.330
10456TIP3   OH231312   3.858   6.877   2.392
10456TIP3    H131313   3.856   6.795   2.343
10456TIP3    H231314   3.766   6.906   2.393
10457TIP3   OH231315   7.156   6.420   1.364
10457TIP3    H131316   7.171   6.430   1.270
10457TIP3    H231317   7.222   6.477   1.404
10458TIP3   OH231318   3.555   7.360   3.438
10458TIP3    H131319   3.473   7.351   3.389
10458TIP3    H231320   3.619   7.310   3.388
10459TIP3   OH231321   1.898   2.173   2.584
10459TIP3    H131322   1.864   2.187   2.495
10459TIP3    H231323   1.933   2.084   2.583
10460TIP3   OH231324   5.466   6.906   2.033
10460TIP3    H131325   5.389   6.899   2.090
10460TIP3    H231326   5.514   6.982   2.066
10461TIP3   OH231327   7.845   7.513   2.079
10461TIP3    H131328   7.892   7.561   2.010
10461TIP3    H231329   7.845   7.572   2.154
10462TIP3   OH231330   6.962   6.987   5.960
10462TIP3    H131331   6.890   6.960   6.016
10462TIP3    H231332   7.022   6.912   5.961
10463TIP3   OH231333   4.116   3.745   3.499
10463TIP3    H131334   4.149   3.703   3.419
10463TIP3    H231335   4.185   3.729   3.564
10464TIP3   OH231336   1.083   7.069   2.346
10464TIP3    H131337   1.040   7.116   2.418
10464TIP3    H231338   1.112   7.138   2.286
10465TIP3   OH231339   7.395   3.690   5.597
10465TIP3    H131340   7.362   3.644   5.520
10465TIP3    H231341   7.482   3.653   5.611
10466TIP3   OH231342   6.235   3.836   2.182
10466TIP3    H131343   6.327   3.855   2.165
10466TIP3    H231344   6.221   3.749   2.145
10467TIP3   OH231345   3.214   1.692   2.487
10467TIP3    H131346   3.175   1.746   2.419
10467TIP3    H231347   3.288   1.743   2.520
10468TIP3   OH231348   1.632   3.320   4.001
10468TIP3    H131349   1.690   3.244   3.993
10468TIP3    H231350   1.652   3.357   4.087
10469TIP3   OH231351   6.574   6.905   2.458
10469TIP3    H131352   6.574   6.837   2.525
10469TIP3    H231353   6.649   6.884   2.401
10470TIP3   OH231354   1.938   2.795   0.869
10470TIP3    H131355   1.944   2.712   0.916
10470TIP3    H231356   1.973   2.860   0.930
10471TIP3   OH231357   7.144   0.219   4.637
10471TIP3    H131358   7.224   0.269   4.655
10471TIP3    H231359   7.138   0.159   4.711
10472TIP3   OH231360   0.966   1.812   3.731
10472TIP3    H131361   0.933   1.745   3.791
10472TIP3    H231362   1.010   1.876   3.789
10473TIP3   OH231363   4.667   2.186   0.528
10473TIP3    H131364   4.613   2.187   0.450
10473TIP3    H231365   4.731   2.256   0.514
10474TIP3   OH231366   3.893   6.207   5.372
10474TIP3    H131367   3.813   6.260   5.375
10474TIP3    H231368   3.899   6.167   5.458
10475TIP3   OH231369   3.907   1.806   1.961
10475TIP3    H131370   3.925   1.712   1.968
10475TIP3    H231371   3.893   1.821   1.868
10476TIP3   OH231372   1.389   2.218   2.915
10476TIP3    H131373   1.331   2.194   2.987
10476TIP3    H231374   1.477   2.200   2.948
10477TIP3   OH231375   2.340   7.295   0.140
10477TIP3    H131376   2.344   7.275   0.047
10477TIP3    H231377   2.411   7.243   0.179
10478TIP3   OH231378   1.587   2.557   1.445
10478TIP3    H131379   1.532   2.481   1.427
10478TIP3    H231380   1.568   2.618   1.374
10479TIP3   OH231381   2.401   7.515   6.522
10479TIP3    H131382   2.308   7.491   6.517
10479TIP3    H231383   2.431   7.476   6.604
10480TIP3   OH231384   0.175   6.513   2.941
10480TIP3    H131385   0.142   6.549   3.023
10480TIP3    H231386   0.270   6.520   2.947
10481TIP3   OH231387   6.855   7.483   3.655
10481TIP3    H131388   6.850   7.564   3.707
10481TIP3    H231389   6.808   7.505   3.574
10482TIP3   OH231390   1.150   2.189   3.131
10482TIP3    H131391   1.141   2.094   3.129
10482TIP3    H231392   1.060   2.222   3.138
10483TIP3   OH231393   3.758   5.217   1.256
10483TIP3    H131394   3.733   5.125   1.258
10483TIP3    H231395   3.677   5.263   1.234
10484TIP3   OH231396   0.663   5.887   3.643
10484TIP3    H131397   0.679   5.829   3.718
10484TIP3    H231398   0.747   5.930   3.628
10485TIP3   OH231399   8.180   6.534   2.226
10485TIP3    H131400   8.238   6.489   2.288
10485TIP3    H231401   8.227   6.529   2.143
10486TIP3   OH231402   4.467   1.456   1.350
10486TIP3    H131403   4.422   1.384   1.305
10486TIP3    H231404   4.484   1.520   1.281
10487TIP3   OH231405   2.593   1.705   3.469
10487TIP3    H131406   2.551   1.627   3.505
10487TIP3    H231407   2.661   1.672   3.411
10488TIP3   OH231408   6.133   6.173   0.051
10488TIP3    H131409   6.057   6.189  -0.005
10488TIP3    H231410   6.200   6.234   0.020
10489TIP3   OH231411   0.717   7.186   1.948
10489TIP3    H131412   0.726   7.280   1.935
10489TIP3    H231413   0.623   7.172   1.959
10490TIP3   OH231414   0.519   4.234   4.064
10490TIP3    H131415   0.487   4.148   4.090
10490TIP3    H231416   0.613   4.231   4.083
10491TIP3   OH231417   0.463   7.149   1.987
10491TIP3    H131418   0.441   7.173   2.077
10491TIP3    H231419   0.414   7.211   1.932
10492TIP3   OH231420   1.955   7.583   3.278
10492TIP3    H131421   1.885   7.548   3.333
10492TIP3    H231422   1.913   7.601   3.194
10493TIP3   OH231423   5.175   4.883   6.163
10493TIP3    H131424   5.084   4.853   6.162
10493TIP3    H231425   5.182   4.932   6.245
10494TIP3   OH231426   4.953   5.644   0.990
10494TIP3    H131427   5.004   5.626   0.911
10494TIP3    H231428   4.940   5.739   0.989
10495TIP3   OH231429   7.316   0.933   1.569
10495TIP3    H131430   7.345   0.967   1.485
10495TIP3    H231431   7.357   0.990   1.634
10496TIP3   OH231432   7.326   0.412   0.477
10496TIP3    H131433   7.371   0.346   0.424
10496TIP3    H231434   7.289   0.474   0.413
10497TIP3   OH231435   4.785   7.220   6.597
10497TIP3    H131436   4.742   7.250   6.677
10497TIP3    H231437   4.765   7.288   6.533
10498TIP3   OH231438   5.480   1.307   5.326
10498TIP3    H131439   5.456   1.322   5.418
10498TIP3    H231440   5.422   1.237   5.297
10499TIP3   OH231441   3.956   5.764   1.187
10499TIP3    H131442   3.889   5.816   1.231
10499TIP3    H231443   3.927   5.674   1.197
10500TIP3   OH231444   5.105   3.883   6.362
10500TIP3    H131445   5.071   3.910   6.277
10500TIP3    H231446   5.080   3.791   6.370
10501TIP3   OH231447   0.481   2.403   1.331
10501TIP3    H131448   0.495   2.489   1.291
10501TIP3    H231449   0.544   2.346   1.287
10502TIP3   OH231450   0.651   6.526   0.469
10502TIP3    H131451   0.716   6.458   0.485
10502TIP3    H231452   0.686   6.603   0.515
10503TIP3   OH231453   6.988   6.125   2.368
10503TIP3    H131454   7.072   6.112   2.413
10503TIP3    H231455   6.974   6.219   2.371
10504TIP3   OH231456   7.353   6.628   6.222
10504TIP3    H131457   7.294   6.558   6.250
10504TIP3    H231458   7.304   6.709   6.237
10505TIP3   OH231459   2.560   2.706   5.891
10505TIP3    H131460   2.495   2.766   5.855
10505TIP3    H231461   2.632   2.762   5.918
10506TIP3   OH231462   4.008   2.652   1.340
10506TIP3    H131463   3.948   2.719   1.374
10506TIP3    H231464   4.000   2.660   1.244
10507TIP3   OH231465   5.406   0.589   5.318
10507TIP3    H131466   5.488   0.541   5.320
10507TIP3    H231467   5.377   0.583   5.227
10508TIP3   OH231468   0.270   7.466   5.633
10508TIP3    H131469   0.352   7.502   5.667
10508TIP3    H231470   0.225   7.432   5.710
10509TIP3   OH231471   1.351   5.404   1.105
10509TIP3    H131472   1.270   5.390   1.154
10509TIP3    H231473   1.400   5.467   1.158
10510TIP3   OH231474   4.648   1.412   2.586
10510TIP3    H131475   4.600   1.338   2.548
10510TIP3    H231476   4.734   1.408   2.544
10511TIP3   OH231477   2.697   7.485   2.290
10511TIP3    H131478   2.728   7.548   2.355
10511TIP3    H231479   2.772   7.429   2.273
10512TIP3   OH231480   6.418   4.981   6.308
10512TIP3    H131481   6.450   5.027   6.385
10512TIP3    H231482   6.498   4.951   6.263
10513TIP3   OH231483   1.201   1.717   3.338
10513TIP3    H131484   1.277   1.673   3.300
10513TIP3    H231485   1.226   1.733   3.429
10514TIP3   OH231486   3.136   0.193   3.672
10514TIP3    H131487   3.148   0.280   3.710
10514TIP3    H231488   3.068   0.152   3.725
10515TIP3   OH231489   1.017   2.036   1.875
10515TIP3    H131490   0.978   2.063   1.792
10515TIP3    H231491   1.093   1.984   1.849
10516TIP3   OH231492   6.336   6.543   0.056
10516TIP3    H131493   6.307   6.576  -0.028
10516TIP3    H231494   6.370   6.455   0.037
10517TIP3   OH231495   0.761   2.838   0.264
10517TIP3    H131496   0.671   2.869   0.278
10517TIP3    H231497   0.789   2.881   0.183
10518TIP3   OH231498   0.738   4.287   0.796
10518TIP3    H131499   0.763   4.240   0.717
10518TIP3    H231500   0.789   4.368   0.793
10519TIP3   OH231501   1.346   5.690   4.872
10519TIP3    H131502   1.338   5.618   4.809
10519TIP3    H231503   1.439   5.713   4.869
10520TIP3   OH231504   0.536   5.097   1.371
10520TIP3    H131505   0.554   5.023   1.313
10520TIP3    H231506   0.584   5.170   1.332
10521TIP3   OH231507   1.140   6.488   5.426
10521TIP3    H131508   1.173   6.516   5.341
10521TIP3    H231509   1.218   6.459   5.473
10522TIP3   OH231510   7.790   0.600   4.596
10522TIP3    H131511   7.723   0.625   4.533
10522TIP3    H231512   7.871   0.597   4.545
10523TIP3   OH231513   2.004   6.789   6.256
10523TIP3    H131514   1.963   6.717   6.209
10523TIP3    H231515   2.089   6.756   6.282
10524TIP3   OH231516   3.857   6.814   3.160
10524TIP3    H131517   3.909   6.886   3.125
10524TIP3    H231518   3.808   6.852   3.232
10525TIP3   OH231519   2.429   0.333   0.981
10525TIP3    H131520   2.455   0.348   0.891
10525TIP3    H231521   2.333   0.334   0.979
10526TIP3   OH231522   5.455   3.687   3.694
10526TIP3    H131523   5.549   3.704   3.694
10526TIP3    H231524   5.427   3.702   3.604
10527TIP3   OH231525   6.267   1.174   0.977
10527TIP3    H131526   6.226   1.185   0.890
10527TIP3    H231527   6.216   1.106   1.019
10528TIP3   OH231528   2.992   2.795   2.504
10528TIP3    H131529   3.042   2.756   2.432
10528TIP3    H231530   3.030   2.757   2.583
10529TIP3   OH231531   3.828   2.080   6.735
10529TIP3    H131532   3.806   2.013   6.800
10529TIP3    H231533   3.791   2.048   6.653
10530TIP3   OH231534   1.096   2.053   6.582
10530TIP3    H131535   1.066   2.062   6.673
10530TIP3    H231536   1.019   2.075   6.529
10531TIP3   OH231537   4.464   1.148   5.544
10531TIP3    H131538   4.458   1.059   5.508
10531TIP3    H231539   4.546   1.183   5.509
10532TIP3   OH231540   7.523   5.760   4.051
10532TIP3    H131541   7.530   5.806   3.967
10532TIP3    H231542   7.602   5.706   4.055
10533TIP3   OH231543   8.074   6.485   0.775
10533TIP3    H131544   8.032   6.533   0.846
10533TIP3    H231545   8.043   6.395   0.786
10534TIP3   OH231546   6.475   0.977   4.025
10534TIP3    H131547   6.569   0.982   4.007
10534TIP3    H231548   6.449   0.894   3.986
10535TIP3   OH231549   0.733   6.914   6.042
10535TIP3    H131550   0.682   6.838   6.070
10535TIP3    H231551   0.726   6.975   6.116
10536TIP3   OH231552   6.664   5.294   5.219
10536TIP3    H131553   6.686   5.377   5.176
10536TIP3    H231554   6.672   5.228   5.150
10537TIP3   OH231555   5.743   6.906   0.576
10537TIP3    H131556   5.799   6.847   0.525
10537TIP3    H231557   5.783   6.907   0.663
10538TIP3   OH231558   2.379   1.472   6.709
10538TIP3    H131559   2.325   1.397   6.734
10538TIP3    H231560   2.320   1.528   6.658
10539TIP3   OH231561   7.086   6.083   5.475
10539TIP3    H131562   7.088   6.091   5.571
10539TIP3    H231563   7.178   6.080   5.449
10540TIP3   OH231564   3.941   2.007   0.870
10540TIP3    H131565   4.012   2.055   0.829
10540TIP3    H231566   3.970   1.915   0.868
10541TIP3   OH231567   1.152   0.147   0.009
10541TIP3    H131568   1.088   0.141   0.080
10541TIP3    H231569   1.115   0.094  -0.061
10542TIP3   OH231570   4.695   1.705   4.428
10542TIP3    H131571   4.667   1.628   4.378
10542TIP3    H231572   4.669   1.685   4.518
10543TIP3   OH231573   8.263   5.060   6.208
10543TIP3    H131574   8.299   5.089   6.292
10543TIP3    H231575   8.168   5.059   6.222
10544TIP3   OH231576   1.506   3.509   2.814
10544TIP3    H131577   1.492   3.555   2.731
10544TIP3    H231578   1.426   3.458   2.827
10545TIP3   OH231579   5.641   3.539   5.905
10545TIP3    H131580   5.608   3.518   5.817
10545TIP3    H231581   5.734   3.556   5.892
10546TIP3   OH231582   0.323   5.203   5.607
10546TIP3    H131583   0.389   5.178   5.672
10546TIP3    H231584   0.359   5.172   5.524
10547TIP3   OH231585   6.340   0.413   0.814
10547TIP3    H131586   6.365   0.415   0.906
10547TIP3    H231587   6.325   0.505   0.791
10548TIP3   OH231588   0.082   3.728   5.251
10548TIP3    H131589   0.046   3.702   5.166
10548TIP3    H231590   0.091   3.823   5.245
10549TIP3   OH231591   7.261   5.874   5.075
10549TIP3    H131592   7.172   5.888   5.107
10549TIP3    H231593   7.306   5.957   5.090
10550TIP3   OH231594   4.908   6.974   6.682
10550TIP3    H131595   4.879   7.058   6.648
10550TIP3    H231596   4.895   6.981   6.777
10551TIP3   OH231597   1.447   4.717   6.713
10551TIP3    H131598   1.438   4.650   6.646
10551TIP3    H231599   1.363   4.719   6.758
10552TIP3   OH231600   7.092   1.268   5.313
10552TIP3    H131601   7.011   1.314   5.289
10552TIP3    H231602   7.072   1.228   5.397
10553TIP3   OH231603   8.231   7.621   6.609
10553TIP3    H131604   8.313   7.643   6.565
10553TIP3    H231605   8.168   7.611   6.537
10554TIP3   OH231606   3.594   2.890   2.994
10554TIP3    H131607   3.529   2.890   3.064
10554TIP3    H231608   3.677   2.910   3.038
10555TIP3   OH231609   6.213   7.405   2.663
10555TIP3    H131610   6.252   7.326   2.699
10555TIP3    H231611   6.266   7.476   2.699
10556TIP3   OH231612   6.102   4.580   6.389
10556TIP3    H131613   6.158   4.655   6.372
10556TIP3    H231614   6.064   4.558   6.304
10557TIP3   OH231615   7.901   0.533   1.602
10557TIP3    H131616   7.857   0.486   1.673
10557TIP3    H231617   7.994   0.525   1.622
10558TIP3   OH231618   4.855   0.014   1.884
10558TIP3    H131619   4.939   0.028   1.927
10558TIP3    H231620   4.877  -0.032   1.803
10559TIP3   OH231621   3.067   0.046   0.416
10559TIP3    H131622   3.062   0.072   0.508
10559TIP3    H231623   3.068  -0.050   0.418
10560TIP3   OH231624   1.449   3.946   3.141
10560TIP3    H131625   1.390   3.872   3.153
10560TIP3    H231626   1.456   3.956   3.046
10561TIP3   OH231627   3.391   0.206   3.095
10561TIP3    H131628   3.434   0.283   3.056
10561TIP3    H231629   3.431   0.131   3.051
10562TIP3   OH231630   2.393   6.933   3.675
10562TIP3    H131631   2.307   6.901   3.705
10562TIP3    H231632   2.436   6.855   3.638
10563TIP3   OH231633   4.222   1.634   3.539
10563TIP3    H131634   4.245   1.542   3.552
10563TIP3    H231635   4.303   1.682   3.559
10564TIP3   OH231636   0.209   2.975   6.199
10564TIP3    H131637   0.279   2.966   6.263
10564TIP3    H231638   0.139   3.019   6.247
10565TIP3   OH231639   1.671   1.053   4.528
10565TIP3    H131640   1.707   1.089   4.447
10565TIP3    H231641   1.691   1.118   4.595
10566TIP3   OH231642   6.619   1.069   2.212
10566TIP3    H131643   6.621   0.981   2.173
10566TIP3    H231644   6.686   1.118   2.164
10567TIP3   OH231645   4.745   6.370   4.426
10567TIP3    H131646   4.839   6.372   4.407
10567TIP3    H231647   4.720   6.278   4.416
10568TIP3   OH231648   2.866   6.448   5.242
10568TIP3    H131649   2.832   6.507   5.310
10568TIP3    H231650   2.817   6.367   5.255
10569TIP3   OH231651   3.549   5.771   3.801
10569TIP3    H131652   3.525   5.717   3.876
10569TIP3    H231653   3.465   5.801   3.765
10570TIP3   OH231654   5.524   4.115   1.765
10570TIP3    H131655   5.500   4.206   1.748
10570TIP3    H231656   5.455   4.082   1.823
10571TIP3   OH231657   1.573   4.226   2.125
10571TIP3    H131658   1.597   4.220   2.032
10571TIP3    H231659   1.500   4.288   2.126
10572TIP3   OH231660   7.496   6.121   4.132
10572TIP3    H131661   7.479   6.028   4.148
10572TIP3    H231662   7.482   6.132   4.038
10573TIP3   OH231663   4.394   0.189   1.323
10573TIP3    H131664   4.315   0.137   1.336
10573TIP3    H231665   4.392   0.254   1.392
10574TIP3   OH231666   3.211   5.960   1.925
10574TIP3    H131667   3.225   5.954   1.831
10574TIP3    H231668   3.284   5.912   1.964
10575TIP3   OH231669   6.648   4.619   3.618
10575TIP3    H131670   6.616   4.565   3.690
10575TIP3    H231671   6.734   4.582   3.597
10576TIP3   OH231672   6.560   3.370   0.169
10576TIP3    H131673   6.472   3.397   0.147
10576TIP3    H231674   6.603   3.357   0.084
10577TIP3   OH231675   1.626   7.175   0.412
10577TIP3    H131676   1.643   7.140   0.325
10577TIP3    H231677   1.580   7.105   0.458
10578TIP3   OH231678   8.260   6.164   4.882
10578TIP3    H131679   8.194   6.170   4.814
10578TIP3    H231680   8.334   6.119   4.840
10579TIP3   OH231681   4.286   2.056   6.230
10579TIP3    H131682   4.304   1.963   6.216
10579TIP3    H231683   4.371   2.094   6.252
10580TIP3   OH231684   0.790   1.356   2.100
10580TIP3    H131685   0.845   1.426   2.137
10580TIP3    H231686   0.743   1.398   2.029
10581TIP3   OH231687   8.025   7.449   1.206
10581TIP3    H131688   8.017   7.361   1.170
10581TIP3    H231689   8.021   7.506   1.129
10582TIP3   OH231690   6.402   6.877   4.852
10582TIP3    H131691   6.332   6.828   4.808
10582TIP3    H231692   6.456   6.810   4.894
10583TIP3   OH231693   4.379   4.885   1.643
10583TIP3    H131694   4.345   4.965   1.682
10583TIP3    H231695   4.374   4.900   1.548
10584TIP3   OH231696   0.672   3.854   0.799
10584TIP3    H131697   0.731   3.911   0.749
10584TIP3    H231698   0.627   3.914   0.859
10585TIP3   OH231699   1.457   5.598   1.250
10585TIP3    H131700   1.495   5.555   1.327
10585TIP3    H231701   1.414   5.676   1.285
10586TIP3   OH231702   7.723   6.679   0.454
10586TIP3    H131703   7.756   6.692   0.365
10586TIP3    H231704   7.802   6.672   0.508
10587TIP3   OH231705   3.076   6.567   4.961
10587TIP3    H131706   3.119   6.496   5.009
10587TIP3    H231707   3.036   6.620   5.029
10588TIP3   OH231708   3.482   0.247   0.793
10588TIP3    H131709   3.440   0.257   0.879
10588TIP3    H231710   3.527   0.162   0.798
10589TIP3   OH231711   5.408   0.548   0.766
10589TIP3    H131712   5.378   0.483   0.830
10589TIP3    H231713   5.475   0.502   0.715
10590TIP3   OH231714   6.936   3.571   0.717
10590TIP3    H131715   7.028   3.570   0.744
10590TIP3    H231716   6.923   3.487   0.673
10591TIP3   OH231717   2.649   5.409   1.127
10591TIP3    H131718   2.723   5.430   1.184
10591TIP3    H231719   2.577   5.463   1.159
10592TIP3   OH231720   0.364   3.897   1.499
10592TIP3    H131721   0.292   3.874   1.440
10592TIP3    H231722   0.342   3.853   1.581
10593TIP3   OH231723   0.178   3.278   2.577
10593TIP3    H131724   0.224   3.194   2.581
10593TIP3    H231725   0.224   3.328   2.510
10594TIP3   OH231726   4.964   5.153   0.551
10594TIP3    H131727   4.870   5.154   0.568
10594TIP3    H231728   4.982   5.239   0.513
10595TIP3   OH231729   7.047   4.551   0.733
10595TIP3    H131730   7.064   4.559   0.640
10595TIP3    H231731   7.100   4.476   0.761
10596TIP3   OH231732   3.260   3.891   4.537
10596TIP3    H131733   3.286   3.920   4.450
10596TIP3    H231734   3.343   3.873   4.582
10597TIP3   OH231735   7.297   7.618   0.884
10597TIP3    H131736   7.351   7.634   0.807
10597TIP3    H231737   7.350   7.649   0.958
10598TIP3   OH231738   2.876   7.363   0.474
10598TIP3    H131739   2.943   7.430   0.485
10598TIP3    H231740   2.803   7.392   0.528
10599TIP3   OH231741   7.623   4.273   0.617
10599TIP3    H131742   7.586   4.275   0.705
10599TIP3    H231743   7.628   4.180   0.595
10600TIP3   OH231744   3.977   0.930   3.924
10600TIP3    H131745   3.885   0.914   3.902
10600TIP3    H231746   3.982   1.024   3.941
10601TIP3   OH231747   1.398   4.862   0.577
10601TIP3    H131748   1.413   4.915   0.656
10601TIP3    H231749   1.353   4.784   0.609
10602TIP3   OH231750   1.532   5.972   2.632
10602TIP3    H131751   1.593   5.968   2.705
10602TIP3    H231752   1.551   5.893   2.581
10603TIP3   OH231753   5.336   6.388   6.302
10603TIP3    H131754   5.243   6.392   6.279
10603TIP3    H231755   5.338   6.409   6.396
10604TIP3   OH231756   7.018   1.519   5.491
10604TIP3    H131757   7.030   1.572   5.412
10604TIP3    H231758   7.107   1.510   5.527
10605TIP3   OH231759   7.785   3.883   5.318
10605TIP3    H131760   7.712   3.839   5.276
10605TIP3    H231761   7.745   3.946   5.377
10606TIP3   OH231762   2.396   6.279   4.897
10606TIP3    H131763   2.458   6.264   4.826
10606TIP3    H231764   2.339   6.348   4.865
10607TIP3   OH231765   4.323   4.045   1.294
10607TIP3    H131766   4.300   4.132   1.262
10607TIP3    H231767   4.371   4.004   1.222
10608TIP3   OH231768   0.659   6.841   4.719
10608TIP3    H131769   0.711   6.834   4.799
10608TIP3    H231770   0.677   6.930   4.687
10609TIP3   OH231771   6.527   1.564   5.400
10609TIP3    H131772   6.455   1.627   5.391
10609TIP3    H231773   6.606   1.618   5.398
10610TIP3   OH231774   7.709   6.195   5.786
10610TIP3    H131775   7.678   6.284   5.802
10610TIP3    H231776   7.667   6.170   5.704
10611TIP3   OH231777   7.346   0.636   6.545
10611TIP3    H131778   7.284   0.696   6.587
10611TIP3    H231779   7.342   0.557   6.598
10612TIP3   OH231780   3.955   7.204   4.841
10612TIP3    H131781   3.865   7.193   4.809
10612TIP3    H231782   4.001   7.243   4.766
10613TIP3   OH231783   7.623   7.149   1.061
10613TIP3    H131784   7.650   7.214   0.997
10613TIP3    H231785   7.561   7.194   1.117
10614TIP3   OH231786   4.607   3.381   4.764
10614TIP3    H131787   4.552   3.306   4.738
10614TIP3    H231788   4.696   3.353   4.745
10615TIP3   OH231789   2.877   1.559   6.215
10615TIP3    H131790   2.804   1.521   6.265
10615TIP3    H231791   2.913   1.485   6.166
10616TIP3   OH231792   7.953   0.319   1.126
10616TIP3    H131793   8.032   0.359   1.162
10616TIP3    H231794   7.887   0.387   1.129
10617TIP3   OH231795   0.726   6.314   3.610
10617TIP3    H131796   0.693   6.354   3.530
10617TIP3    H231797   0.819   6.335   3.611
10618TIP3   OH231798   7.464   2.732   0.978
10618TIP3    H131799   7.506   2.715   1.062
10618TIP3    H231800   7.508   2.810   0.944
10619TIP3   OH231801   2.981   4.608   1.816
10619TIP3    H131802   3.004   4.515   1.828
10619TIP3    H231803   3.058   4.656   1.845
10620TIP3   OH231804   8.056   7.012   0.882
10620TIP3    H131805   8.143   6.974   0.870
10620TIP3    H231806   7.996   6.947   0.846
10621TIP3   OH231807   2.578   0.772   6.489
10621TIP3    H131808   2.594   0.860   6.455
10621TIP3    H231809   2.599   0.714   6.416
10622TIP3   OH231810   2.397   5.740   2.998
10622TIP3    H131811   2.423   5.653   3.027
10622TIP3    H231812   2.469   5.797   3.028
10623TIP3   OH231813   1.615   2.774   4.893
10623TIP3    H131814   1.586   2.803   4.806
10623TIP3    H231815   1.685   2.712   4.875
10624TIP3   OH231816   0.389   7.088   1.570
10624TIP3    H131817   0.368   6.997   1.593
10624TIP3    H231818   0.477   7.083   1.533
10625TIP3   OH231819   6.702   7.798   2.003
10625TIP3    H131820   6.713   7.736   1.931
10625TIP3    H231821   6.688   7.882   1.961
10626TIP3   OH231822   2.643   5.041   2.950
10626TIP3    H131823   2.584   5.100   2.997
10626TIP3    H231824   2.665   4.973   3.013
10627TIP3   OH231825   3.185   4.747   1.909
10627TIP3    H131826   3.153   4.830   1.874
10627TIP3    H231827   3.270   4.768   1.947
10628TIP3   OH231828   7.659   4.825   3.270
10628TIP3    H131829   7.616   4.741   3.254
10628TIP3    H231830   7.606   4.867   3.338
10629TIP3   OH231831   5.786   4.670   3.728
10629TIP3    H131832   5.795   4.760   3.697
10629TIP3    H231833   5.798   4.676   3.822
10630TIP3   OH231834   3.842   0.823   6.092
10630TIP3    H131835   3.867   0.809   6.001
10630TIP3    H231836   3.758   0.778   6.101
10631TIP3   OH231837   1.832   7.174   2.975
10631TIP3    H131838   1.775   7.170   2.898
10631TIP3    H231839   1.920   7.159   2.940
10632TIP3   OH231840   2.402   2.835   4.317
10632TIP3    H131841   2.411   2.764   4.382
10632TIP3    H231842   2.456   2.906   4.352
10633TIP3   OH231843   2.890   7.494   2.670
10633TIP3    H131844   2.820   7.429   2.668
10633TIP3    H231845   2.873   7.545   2.750
10634TIP3   OH231846   4.882   0.313   5.209
10634TIP3    H131847   4.936   0.273   5.141
10634TIP3    H231848   4.924   0.287   5.291
10635TIP3   OH231849   6.868   3.414   5.376
10635TIP3    H131850   6.880   3.333   5.426
10635TIP3    H231851   6.788   3.452   5.411
10636TIP3   OH231852   7.336   5.329   5.377
10636TIP3    H131853   7.413   5.361   5.330
10636TIP3    H231854   7.263   5.341   5.316
10637TIP3   OH231855   1.529   0.829   2.172
10637TIP3    H131856   1.592   0.873   2.115
10637TIP3    H231857   1.582   0.770   2.225
10638TIP3   OH231858   6.756   4.569   5.001
10638TIP3    H131859   6.697   4.572   5.076
10638TIP3    H231860   6.699   4.588   4.926
10639TIP3   OH231861   0.068   5.808   2.984
10639TIP3    H131862   0.007   5.880   2.971
10639TIP3    H231863   0.146   5.832   2.934
10640TIP3   OH231864   0.113   2.502   6.399
10640TIP3    H131865   0.092   2.595   6.401
10640TIP3    H231866   0.059   2.463   6.468
10641TIP3   OH231867   7.649   1.916   1.057
10641TIP3    H131868   7.564   1.927   1.014
10641TIP3    H231869   7.692   2.000   1.047
10642TIP3   OH231870   6.466   0.526   1.038
10642TIP3    H131871   6.458   0.614   1.002
10642TIP3    H231872   6.555   0.523   1.074
10643TIP3   OH231873   5.098   3.914   1.167
10643TIP3    H131874   5.093   3.895   1.073
10643TIP3    H231875   5.189   3.938   1.181
10644TIP3   OH231876   1.143   7.599   2.253
10644TIP3    H131877   1.137   7.506   2.232
10644TIP3    H231878   1.102   7.644   2.179
10645TIP3   OH231879   0.418   7.618   0.022
10645TIP3    H131880   0.501   7.656   0.049
10645TIP3    H231881   0.418   7.625  -0.073
10646TIP3   OH231882   4.824   7.381   1.547
10646TIP3    H131883   4.908   7.366   1.503
10646TIP3    H231884   4.766   7.315   1.510
10647TIP3   OH231885   2.880   3.320   5.927
10647TIP3    H131886   2.930   3.400   5.913
10647TIP3    H231887   2.946   3.253   5.944
10648TIP3   OH231888   5.190   1.837   1.455
10648TIP3    H131889   5.202   1.742   1.445
10648TIP3    H231890   5.128   1.846   1.527
10649TIP3   OH231891   7.615   0.434   5.578
10649TIP3    H131892   7.556   0.462   5.648
10649TIP3    H231893   7.695   0.484   5.592
10650TIP3   OH231894   2.047   1.357   5.666
10650TIP3    H131895   2.107   1.412   5.716
10650TIP3    H231896   2.097   1.330   5.590
10651TIP3   OH231897   1.329   2.809   5.629
10651TIP3    H131898   1.363   2.898   5.636
10651TIP3    H231899   1.406   2.753   5.638
10652TIP3   OH231900   3.950   5.883   4.499
10652TIP3    H131901   3.985   5.795   4.484
10652TIP3    H231902   3.856   5.874   4.486
10653TIP3   OH231903   6.291   3.823   6.524
10653TIP3    H131904   6.338   3.873   6.591
10653TIP3    H231905   6.293   3.733   6.554
10654TIP3   OH231906   6.716   2.776   0.891
10654TIP3    H131907   6.746   2.862   0.864
10654TIP3    H231908   6.790   2.718   0.874
10655TIP3   OH231909   6.949   0.739   0.713
10655TIP3    H131910   7.000   0.817   0.695
10655TIP3    H231911   6.993   0.697   0.786
10656TIP3   OH231912   6.121   7.038   2.419
10656TIP3    H131913   6.109   6.943   2.414
10656TIP3    H231914   6.054   7.068   2.480
10657TIP3   OH231915   4.361   7.612   0.437
10657TIP3    H131916   4.376   7.705   0.422
10657TIP3    H231917   4.333   7.578   0.353
10658TIP3   OH231918   2.734   4.093   5.743
10658TIP3    H131919   2.826   4.077   5.767
10658TIP3    H231920   2.688   4.015   5.774
10659TIP3   OH231921   2.035   5.770   5.282
10659TIP3    H131922   2.097   5.834   5.319
10659TIP3    H231923   2.008   5.717   5.356
10660TIP3   OH231924   2.522   3.023   6.634
10660TIP3    H131925   2.522   3.103   6.685
10660TIP3    H231926   2.574   2.961   6.686
10661TIP3   OH231927   4.957   3.489   4.055
10661TIP3    H131928   4.991   3.577   4.037
10661TIP3    H231929   4.940   3.489   4.149
10662TIP3   OH231930   5.957   6.651   6.224
10662TIP3    H131931   5.923   6.739   6.239
10662TIP3    H231932   5.882   6.594   6.239
10663TIP3   OH231933   8.011   7.082   2.717
10663TIP3    H131934   7.997   7.150   2.783
10663TIP3    H231935   8.080   7.119   2.661
10664TIP3   OH231936   3.497   5.042   4.803
10664TIP3    H131937   3.466   5.133   4.807
10664TIP3    H231938   3.577   5.046   4.751
10665TIP3   OH231939   1.755   2.975   1.484
10665TIP3    H131940   1.662   3.001   1.487
10665TIP3    H231941   1.754   2.881   1.499
10666TIP3   OH231942   8.140   2.895   5.115
10666TIP3    H131943   8.068   2.954   5.094
10666TIP3    H231944   8.206   2.912   5.047
10667TIP3   OH231945   3.300   3.977   4.075
10667TIP3    H131946   3.337   3.916   4.011
10667TIP3    H231947   3.206   3.972   4.061
10668TIP3   OH231948   4.973   4.714   2.145
10668TIP3    H131949   4.961   4.787   2.084
10668TIP3    H231950   5.031   4.654   2.098
10669TIP3   OH231951   1.913   1.137   6.220
10669TIP3    H131952   1.916   1.065   6.284
10669TIP3    H231953   1.856   1.203   6.261
10670TIP3   OH231954   3.424   7.172   6.603
10670TIP3    H131955   3.413   7.261   6.635
10670TIP3    H231956   3.512   7.171   6.563
10671TIP3   OH231957   7.723   7.601   0.318
10671TIP3    H131958   7.697   7.635   0.232
10671TIP3    H231959   7.698   7.509   0.315
10672TIP3   OH231960   3.431   5.924   1.038
10672TIP3    H131961   3.519   5.907   1.071
10672TIP3    H231962   3.445   5.973   0.956
10673TIP3   OH231963   0.628   7.398   3.417
10673TIP3    H131964   0.600   7.394   3.326
10673TIP3    H231965   0.666   7.486   3.427
10674TIP3   OH231966   3.126   6.203   4.287
10674TIP3    H131967   3.217   6.176   4.300
10674TIP3    H231968   3.132   6.290   4.248
10675TIP3   OH231969   0.855   6.577   2.822
10675TIP3    H131970   0.879   6.525   2.745
10675TIP3    H231971   0.847   6.513   2.893
10676TIP3   OH231972   8.063   1.289   3.204
10676TIP3    H131973   8.094   1.337   3.127
10676TIP3    H231974   7.972   1.318   3.216
10677TIP3   OH231975   6.166   5.094   5.628
10677TIP3    H131976   6.154   4.999   5.636
10677TIP3    H231977   6.238   5.104   5.566
10678TIP3   OH231978   8.035   7.390   3.613
10678TIP3    H131979   8.096   7.324   3.644
10678TIP3    H231980   7.955   7.375   3.663
10679TIP3   OH231981   5.166   5.815   4.160
10679TIP3    H131982   5.209   5.813   4.246
10679TIP3    H231983   5.119   5.732   4.155
10680TIP3   OH231984   6.630   5.664   4.827
10680TIP3    H131985   6.595   5.754   4.828
10680TIP3    H231986   6.657   5.648   4.917
10681TIP3   OH231987   1.577   4.022   0.182
10681TIP3    H131988   1.641   4.056   0.245
10681TIP3    H231989   1.545   4.100   0.137
10682TIP3   OH231990   3.662   1.304   6.054
10682TIP3    H131991   3.579   1.284   6.098
10682TIP3    H231992   3.720   1.231   6.078
10683TIP3   OH231993   6.861   5.572   0.919
10683TIP3    H131994   6.840   5.665   0.913
10683TIP3    H231995   6.817   5.543   0.999
10684TIP3   OH231996   4.872   0.859   6.730
10684TIP3    H131997   4.934   0.788   6.746
10684TIP3    H231998   4.792   0.815   6.701
10685TIP3   OH231999   4.127   3.153   2.746
10685TIP3    H132000   4.059   3.209   2.709
10685TIP3    H232001   4.141   3.085   2.680
10686TIP3   OH232002   0.312   2.747   1.312
10686TIP3    H132003   0.350   2.825   1.350
10686TIP3    H232004   0.232   2.731   1.363
10687TIP3   OH232005   7.227   6.658   0.445
10687TIP3    H132006   7.193   6.734   0.399
10687TIP3    H232007   7.258   6.692   0.529
10688TIP3   OH232008   1.494   5.843   0.519
10688TIP3    H132009   1.520   5.852   0.428
10688TIP3    H232010   1.556   5.898   0.567
10689TIP3   OH232011   7.709   2.127   3.748
10689TIP3    H132012   7.700   2.055   3.687
10689TIP3    H232013   7.794   2.113   3.791
10690TIP3   OH232014   3.343   6.595   5.529
10690TIP3    H132015   3.327   6.506   5.559
10690TIP3    H232016   3.358   6.645   5.610
10691TIP3   OH232017   4.737   0.483   0.790
10691TIP3    H132018   4.828   0.510   0.796
10691TIP3    H232019   4.730   0.439   0.706
10692TIP3   OH232020   5.708   7.462   4.345
10692TIP3    H132021   5.675   7.472   4.434
10692TIP3    H232022   5.673   7.536   4.297
10693TIP3   OH232023   5.315   4.715   5.796
10693TIP3    H132024   5.293   4.783   5.860
10693TIP3    H232025   5.235   4.664   5.787
10694TIP3   OH232026   2.832   4.944   0.071
10694TIP3    H132027   2.774   4.875   0.036
10694TIP3    H232028   2.807   4.950   0.163
10695TIP3   OH232029   0.012   7.696   4.995
10695TIP3    H132030   0.053   7.765   5.047
10695TIP3    H232031   0.060   7.696   4.913
10696TIP3   OH232032   7.869   4.455   3.856
10696TIP3    H132033   7.876   4.546   3.886
10696TIP3    H232034   7.779   4.430   3.878
10697TIP3   OH232035   3.152   1.240   2.351
10697TIP3    H132036   3.064   1.252   2.387
10697TIP3    H232037   3.208   1.296   2.404
10698TIP3   OH232038   0.462   7.059   3.137
10698TIP3    H132039   0.414   6.979   3.160
10698TIP3    H232040   0.529   7.029   3.076
10699TIP3   OH232041   5.857   6.534   2.479
10699TIP3    H132042   5.810   6.594   2.421
10699TIP3    H232043   5.938   6.513   2.433
10700TIP3   OH232044   1.917   5.459   1.290
10700TIP3    H132045   1.915   5.418   1.376
10700TIP3    H232046   1.878   5.394   1.231
10701TIP3   OH232047   4.817   1.337   5.086
10701TIP3    H132048   4.790   1.256   5.045
10701TIP3    H232049   4.735   1.382   5.106
10702TIP3   OH232050   6.119   2.601   3.709
10702TIP3    H132051   6.130   2.508   3.727
10702TIP3    H232052   6.031   2.608   3.672
10703TIP3   OH232053   3.823   0.625   1.968
10703TIP3    H132054   3.788   0.603   2.054
10703TIP3    H232055   3.843   0.541   1.927
10704TIP3   OH232056   6.697   1.325   2.128
10704TIP3    H132057   6.753   1.402   2.115
10704TIP3    H232058   6.616   1.347   2.081
10705TIP3   OH232059   2.601   1.336   4.685
10705TIP3    H132060   2.673   1.345   4.622
10705TIP3    H232061   2.522   1.353   4.633
10706TIP3   OH232062   3.642   1.971   3.304
10706TIP3    H132063   3.736   1.991   3.302
10706TIP3    H232064   3.627   1.939   3.393
10707TIP3   OH232065   5.750   4.643   3.228
10707TIP3    H132066   5.784   4.710   3.287
10707TIP3    H232067   5.719   4.574   3.287
10708TIP3   OH232068   0.677   1.941   4.371
10708TIP3    H132069   0.667   2.022   4.322
10708TIP3    H232070   0.740   1.961   4.440
10709TIP3   OH232071   4.038   6.364   3.014
10709TIP3    H132072   4.111   6.386   3.072
10709TIP3    H232073   3.972   6.430   3.031
10710TIP3   OH232074   8.033   6.179   0.461
10710TIP3    H132075   7.998   6.136   0.382
10710TIP3    H232076   8.082   6.254   0.428
10711TIP3   OH232077   5.139   4.385   5.119
10711TIP3    H132078   5.076   4.328   5.076
10711TIP3    H232079   5.092   4.468   5.130
10712TIP3   OH232080   7.765   2.877   6.318
10712TIP3    H132081   7.706   2.802   6.309
10712TIP3    H232082   7.768   2.916   6.231
10713TIP3   OH232083   3.533   5.205   2.887
10713TIP3    H132084   3.614   5.255   2.892
10713TIP3    H232085   3.527   5.175   2.796
10714TIP3   OH232086   6.157   5.125   2.701
10714TIP3    H132087   6.211   5.068   2.755
10714TIP3    H232088   6.215   5.154   2.631
10715TIP3   OH232089  -0.026   4.735   3.082
10715TIP3    H132090   0.052   4.723   3.137
10715TIP3    H232091   0.000   4.702   2.996
10716TIP3   OH232092   4.775   4.088   4.005
10716TIP3    H132093   4.813   4.077   3.918
10716TIP3    H232094   4.681   4.099   3.990
10717TIP3   OH232095   7.135   6.185   5.751
10717TIP3    H132096   7.219   6.206   5.711
10717TIP3    H232097   7.154   6.113   5.812
10718TIP3   OH232098   4.003   1.898   4.012
10718TIP3    H132099   3.951   1.910   4.091
10718TIP3    H232100   4.026   1.987   3.985
10719TIP3   OH232101   7.246   4.549   4.937
10719TIP3    H132102   7.267   4.597   4.857
10719TIP3    H232103   7.151   4.539   4.935
10720TIP3   OH232104   4.642   5.870   2.431
10720TIP3    H132105   4.609   5.872   2.520
10720TIP3    H232106   4.636   5.779   2.404
10721TIP3   OH232107   2.702   6.289   4.450
10721TIP3    H132108   2.789   6.322   4.430
10721TIP3    H232109   2.673   6.247   4.369
10722TIP3   OH232110   5.290   5.697   1.425
10722TIP3    H132111   5.284   5.772   1.367
10722TIP3    H232112   5.384   5.682   1.436
10723TIP3   OH232113   2.675   5.194   6.542
10723TIP3    H132114   2.676   5.282   6.504
10723TIP3    H232115   2.766   5.164   6.536
10724TIP3   OH232116   7.249   7.058   1.695
10724TIP3    H132117   7.223   7.064   1.603
10724TIP3    H232118   7.180   7.105   1.742
10725TIP3   OH232119   1.884   0.935   3.851
10725TIP3    H132120   1.953   1.001   3.842
10725TIP3    H232121   1.927   0.861   3.894
10726TIP3   OH232122   4.189   7.442   0.849
10726TIP3    H132123   4.108   7.399   0.878
10726TIP3    H232124   4.197   7.518   0.906
10727TIP3   OH232125   1.288   0.975   3.815
10727TIP3    H132126   1.278   0.908   3.747
10727TIP3    H232127   1.213   0.961   3.873
10728TIP3   OH232128   0.840   7.714   4.192
10728TIP3    H132129   0.855   7.639   4.249
10728TIP3    H232130   0.920   7.721   4.140
10729TIP3   OH232131   0.652   7.693   3.252
10729TIP3    H132132   0.667   7.749   3.328
10729TIP3    H232133   0.605   7.749   3.190
10730TIP3   OH232134   3.675   3.896   5.509
10730TIP3    H132135   3.674   3.873   5.416
10730TIP3    H232136   3.729   3.828   5.550
10731TIP3   OH232137   4.173   5.251   3.519
10731TIP3    H132138   4.216   5.196   3.453
10731TIP3    H232139   4.134   5.323   3.468
10732TIP3   OH232140   7.191   7.693   3.031
10732TIP3    H132141   7.228   7.614   3.071
10732TIP3    H232142   7.259   7.760   3.043
10733TIP3   OH232143   3.162   0.767   5.028
10733TIP3    H132144   3.165   0.835   5.095
10733TIP3    H232145   3.099   0.799   4.963
10734TIP3   OH232146   6.305   7.517   3.255
10734TIP3    H132147   6.286   7.454   3.325
10734TIP3    H232148   6.341   7.593   3.300
10735TIP3   OH232149   4.926   6.161   1.140
10735TIP3    H132150   5.004   6.204   1.105
10735TIP3    H232151   4.854   6.195   1.087
10736TIP3   OH232152   2.360   6.255   2.975
10736TIP3    H132153   2.447   6.229   3.005
10736TIP3    H232154   2.303   6.237   3.050
10737TIP3   OH232155   5.627   4.021   4.391
10737TIP3    H132156   5.554   4.082   4.398
10737TIP3    H232157   5.586   3.935   4.379
10738TIP3   OH232158   6.554   4.069   2.584
10738TIP3    H132159   6.590   3.986   2.554
10738TIP3    H232160   6.603   4.089   2.664
10739TIP3   OH232161   7.562   6.677   1.312
10739TIP3    H132162   7.604   6.728   1.381
10739TIP3    H232163   7.625   6.607   1.292
10740TIP3   OH232164   6.905   5.024   0.854
10740TIP3    H132165   6.818   5.063   0.865
10740TIP3    H232166   6.966   5.097   0.868
10741TIP3   OH232167   2.927   2.716   3.553
10741TIP3    H132168   2.931   2.799   3.601
10741TIP3    H232169   2.940   2.740   3.462
10742TIP3   OH232170   0.525   4.268   6.158
10742TIP3    H132171   0.445   4.296   6.112
10742TIP3    H232172   0.580   4.346   6.161
10743TIP3   OH232173   0.991   1.527   1.761
10743TIP3    H132174   0.947   1.528   1.676
10743TIP3    H232175   0.920   1.513   1.824
10744TIP3   OH232176   1.704   3.747   4.123
10744TIP3    H132177   1.743   3.701   4.197
10744TIP3    H232178   1.758   3.724   4.048
10745TIP3   OH232179   5.615   6.220   1.883
10745TIP3    H132180   5.575   6.297   1.843
10745TIP3    H232181   5.644   6.167   1.809
10746TIP3   OH232182   5.893   2.323   0.816
10746TIP3    H132183   5.962   2.384   0.842
10746TIP3    H232184   5.843   2.371   0.749
10747TIP3   OH232185   5.639   6.161   4.144
10747TIP3    H132186   5.724   6.139   4.180
10747TIP3    H232187   5.620   6.091   4.081
10748TIP3   OH232188   7.076   3.489   3.708
10748TIP3    H132189   7.080   3.582   3.687
10748TIP3    H232190   7.037   3.449   3.630
10749TIP3   OH232191   6.375   2.871   4.144
10749TIP3    H132192   6.442   2.911   4.199
10749TIP3    H232193   6.373   2.925   4.065
10750TIP3   OH232194   0.472   5.585   3.746
10750TIP3    H132195   0.558   5.610   3.711
10750TIP3    H232196   0.465   5.634   3.828
10751TIP3   OH232197   1.708   3.445   1.942
10751TIP3    H132198   1.705   3.350   1.952
10751TIP3    H232199   1.801   3.466   1.937
10752TIP3   OH232200   5.243   5.110   0.264
10752TIP3    H132201   5.308   5.173   0.234
10752TIP3    H232202   5.283   5.070   0.341
10753TIP3   OH232203   7.566   2.951   3.751
10753TIP3    H132204   7.577   2.971   3.658
10753TIP3    H232205   7.549   3.036   3.791
10754TIP3   OH232206   3.746   5.962   6.400
10754TIP3    H132207   3.743   5.870   6.426
10754TIP3    H232208   3.708   5.964   6.312
10755TIP3   OH232209   4.191   5.593   6.434
10755TIP3    H132210   4.146   5.570   6.515
10755TIP3    H232211   4.267   5.645   6.462
10756TIP3   OH232212   5.506   4.915   1.863
10756TIP3    H132213   5.596   4.886   1.850
10756TIP3    H232214   5.457   4.835   1.877
10757TIP3   OH232215   6.489   4.411   1.599
10757TIP3    H132216   6.509   4.456   1.517
10757TIP3    H232217   6.419   4.463   1.639
10758TIP3   OH232218   3.999   6.468   2.009
10758TIP3    H132219   4.053   6.410   1.955
10758TIP3    H232220   3.978   6.542   1.952
10759TIP3   OH232221   0.944   2.684   6.160
10759TIP3    H132222   0.938   2.731   6.077
10759TIP3    H232223   1.021   2.721   6.203
10760TIP3   OH232224   5.253   7.394   0.880
10760TIP3    H132225   5.212   7.470   0.919
10760TIP3    H232226   5.344   7.421   0.864
10761TIP3   OH232227   7.918   0.697   0.721
10761TIP3    H132228   7.837   0.657   0.751
10761TIP3    H232229   7.955   0.633   0.660
10762TIP3   OH232230   1.401   2.629   0.789
10762TIP3    H132231   1.477   2.687   0.803
10762TIP3    H232232   1.426   2.573   0.715
10763TIP3   OH232233   6.795   3.334   0.380
10763TIP3    H132234   6.710   3.316   0.340
10763TIP3    H232235   6.859   3.294   0.321
10764TIP3   OH232236   3.379   6.658   2.966
10764TIP3    H132237   3.472   6.662   2.945
10764TIP3    H232238   3.370   6.581   3.021
10765TIP3   OH232239   6.017   6.333   6.279
10765TIP3    H132240   5.999   6.427   6.292
10765TIP3    H232241   5.948   6.304   6.219
10766TIP3   OH232242   0.633   7.066   5.554
10766TIP3    H132243   0.594   7.012   5.622
10766TIP3    H232244   0.581   7.146   5.554
10767TIP3   OH232245   5.369   6.404   3.451
10767TIP3    H132246   5.450   6.353   3.441
10767TIP3    H232247   5.389   6.489   3.412
10768TIP3   OH232248   5.851   3.428   5.670
10768TIP3    H132249   5.874   3.340   5.701
10768TIP3    H232250   5.787   3.413   5.601
10769TIP3   OH232251   2.124   1.867   3.391
10769TIP3    H132252   2.136   1.833   3.302
10769TIP3    H232253   2.209   1.853   3.433
10770TIP3   OH232254   4.310   7.100   0.669
10770TIP3    H132255   4.353   7.185   0.680
10770TIP3    H232256   4.217   7.118   0.681
10771TIP3   OH232257   5.167   1.595   0.365
10771TIP3    H132258   5.218   1.623   0.441
10771TIP3    H232259   5.137   1.676   0.325
10772TIP3   OH232260   2.159   5.999   4.607
10772TIP3    H132261   2.070   5.965   4.618
10772TIP3    H232262   2.183   5.977   4.517
10773TIP3   OH232263   3.249   2.274   1.787
10773TIP3    H132264   3.284   2.245   1.703
10773TIP3    H232265   3.321   2.259   1.849
10774TIP3   OH232266   6.264   4.590   1.035
10774TIP3    H132267   6.329   4.627   0.976
10774TIP3    H232268   6.187   4.577   0.980
10775TIP3   OH232269   7.136   0.084   1.274
10775TIP3    H132270   7.215   0.029   1.279
10775TIP3    H232271   7.168   0.173   1.292
10776TIP3   OH232272   0.443   7.481   1.573
10776TIP3    H132273   0.453   7.423   1.497
10776TIP3    H232274   0.349   7.496   1.578
10777TIP3   OH232275   4.767   3.379   3.322
10777TIP3    H132276   4.716   3.421   3.391
10777TIP3    H232277   4.736   3.288   3.322
10778TIP3   OH232278   5.046   1.118   0.459
10778TIP3    H132279   5.043   1.208   0.491
10778TIP3    H232280   5.139   1.097   0.457
10779TIP3   OH232281   1.120   0.101   4.157
10779TIP3    H132282   1.124   0.015   4.199
10779TIP3    H232283   1.089   0.083   4.069
10780TIP3   OH232284   7.297   0.938   3.903
10780TIP3    H132285   7.275   0.974   3.989
10780TIP3    H232286   7.214   0.935   3.856
10781TIP3   OH232287   3.583   3.082   1.099
10781TIP3    H132288   3.650   3.149   1.104
10781TIP3    H232289   3.510   3.117   1.151
10782TIP3   OH232290   1.541   4.495   3.543
10782TIP3    H132291   1.547   4.417   3.598
10782TIP3    H232292   1.554   4.463   3.454
10783TIP3   OH232293   1.280   3.920   5.198
10783TIP3    H132294   1.217   3.926   5.126
10783TIP3    H232295   1.299   3.826   5.206
10784TIP3   OH232296   3.151   3.934   4.999
10784TIP3    H132297   3.118   3.856   5.042
10784TIP3    H232298   3.210   3.902   4.931
10785TIP3   OH232299   2.910   7.031   3.973
10785TIP3    H132300   2.843   7.095   3.948
10785TIP3    H232301   2.861   6.963   4.019
10786TIP3   OH232302   3.786   2.589   1.909
10786TIP3    H132303   3.760   2.613   1.998
10786TIP3    H232304   3.873   2.627   1.898
10787TIP3   OH232305   1.613   0.464   2.694
10787TIP3    H132306   1.608   0.556   2.721
10787TIP3    H232307   1.589   0.465   2.602
10788TIP3   OH232308   3.815   1.024   2.734
10788TIP3    H132309   3.810   0.950   2.673
10788TIP3    H232310   3.738   1.013   2.789
10789TIP3   OH232311   6.440   0.469   1.939
10789TIP3    H132312   6.501   0.529   1.897
10789TIP3    H232313   6.490   0.389   1.952
10790TIP3   OH232314   2.298   5.050   3.112
10790TIP3    H132315   2.240   5.010   3.176
10790TIP3    H232316   2.241   5.077   3.040
10791TIP3   OH232317   5.550   5.704   1.468
10791TIP3    H132318   5.565   5.653   1.547
10791TIP3    H232319   5.569   5.643   1.396
10792TIP3   OH232320   1.118   3.198   1.936
10792TIP3    H132321   1.190   3.171   1.994
10792TIP3    H232322   1.137   3.290   1.916
10793TIP3   OH232323   1.848   6.379   3.469
10793TIP3    H132324   1.885   6.345   3.551
10793TIP3    H232325   1.754   6.382   3.485
10794TIP3   OH232326   3.821   2.972   4.297
10794TIP3    H132327   3.900   3.026   4.297
10794TIP3    H232328   3.848   2.890   4.338
10795TIP3   OH232329   4.607   3.922   4.234
10795TIP3    H132330   4.530   3.878   4.270
10795TIP3    H232331   4.572   3.978   4.164
10796TIP3   OH232332   2.820   3.305   1.055
10796TIP3    H132333   2.769   3.281   0.977
10796TIP3    H232334   2.795   3.395   1.073
10797TIP3   OH232335   1.068   5.639   3.922
10797TIP3    H132336   0.996   5.589   3.959
10797TIP3    H232337   1.036   5.729   3.919
10798TIP3   OH232338   2.310   0.071   0.292
10798TIP3    H132339   2.224   0.090   0.330
10798TIP3    H232340   2.291   0.022   0.213
10799TIP3   OH232341   5.140   0.520   6.041
10799TIP3    H132342   5.076   0.448   6.043
10799TIP3    H232343   5.090   0.596   6.012
10800TIP3   OH232344   8.032   7.213   5.914
10800TIP3    H132345   7.986   7.142   5.870
10800TIP3    H232346   8.076   7.171   5.988
10801TIP3   OH232347   3.234   4.373   6.635
10801TIP3    H132348   3.304   4.322   6.595
10801TIP3    H232349   3.204   4.319   6.708
10802TIP3   OH232350   4.889   7.008   0.582
10802TIP3    H132351   4.982   7.026   0.589
10802TIP3    H232352   4.852   7.036   0.666
10803TIP3   OH232353   6.352   1.562   3.910
10803TIP3    H132354   6.398   1.551   3.993
10803TIP3    H232355   6.282   1.496   3.912
10804TIP3   OH232356  -0.034   3.062   4.546
10804TIP3    H132357  -0.035   2.969   4.566
10804TIP3    H232358   0.056   3.090   4.564
10805TIP3   OH232359   6.102   0.279   0.978
10805TIP3    H132360   6.145   0.290   1.063
10805TIP3    H232361   6.166   0.312   0.915
10806TIP3   OH232362   4.174   0.962   5.111
10806TIP3    H132363   4.266   0.981   5.093
10806TIP3    H232364   4.126   1.006   5.041
10807TIP3   OH232365   4.969   0.603   4.052
10807TIP3    H132366   4.961   0.678   3.994
10807TIP3    H232367   4.955   0.527   3.994
10808TIP3   OH232368   7.245   1.673   1.835
10808TIP3    H132369   7.227   1.745   1.774
10808TIP3    H232370   7.322   1.629   1.798
10809TIP3   OH232371   8.140   4.456   3.451
10809TIP3    H132372   8.120   4.409   3.531
10809TIP3    H232373   8.057   4.497   3.426
10810TIP3   OH232374   5.169   6.318   2.597
10810TIP3    H132375   5.263   6.321   2.581
10810TIP3    H232376   5.131   6.309   2.509
10811TIP3   OH232377   1.208   6.861   1.765
10811TIP3    H132378   1.192   6.892   1.854
10811TIP3    H232379   1.286   6.807   1.773
10812TIP3   OH232380   4.772   2.864   2.072
10812TIP3    H132381   4.840   2.836   2.012
10812TIP3    H232382   4.784   2.959   2.081
10813TIP3   OH232383   1.571   6.252   4.330
10813TIP3    H132384   1.516   6.246   4.252
10813TIP3    H232385   1.648   6.198   4.309
10814TIP3   OH232386   1.478   1.114   4.246
10814TIP3    H132387   1.427   1.033   4.242
10814TIP3    H232388   1.421   1.176   4.292
10815TIP3   OH232389   1.353   0.524   5.678
10815TIP3    H132390   1.346   0.614   5.710
10815TIP3    H232391   1.316   0.527   5.590
10816TIP3   OH232392   7.133   2.324   1.193
10816TIP3    H132393   7.117   2.409   1.236
10816TIP3    H232394   7.185   2.346   1.116
10817TIP3   OH232395   3.380   1.654   4.163
10817TIP3    H132396   3.295   1.697   4.153
10817TIP3    H232397   3.440   1.707   4.111
10818TIP3   OH232398   4.538   1.864   0.508
10818TIP3    H132399   4.450   1.834   0.528
10818TIP3    H232400   4.534   1.959   0.520
10819TIP3   OH232401   5.635   0.504   1.252
10819TIP3    H132402   5.669   0.594   1.260
10819TIP3    H232403   5.668   0.460   1.331
10820TIP3   OH232404   5.379   7.389   0.130
10820TIP3    H132405   5.316   7.318   0.117
10820TIP3    H232406   5.447   7.351   0.186
10821TIP3   OH232407   5.273   7.549   1.711
10821TIP3    H132408   5.186   7.567   1.747
10821TIP3    H232409   5.307   7.636   1.686
10822TIP3   OH232410   1.929   0.528   6.181
10822TIP3    H132411   1.931   0.618   6.213
10822TIP3    H232412   2.021   0.502   6.174
10823TIP3   OH232413   7.904   5.128   5.590
10823TIP3    H132414   7.922   5.206   5.643
10823TIP3    H232415   7.835   5.082   5.637
10824TIP3   OH232416   7.124   1.627   3.056
10824TIP3    H132417   7.132   1.679   3.136
10824TIP3    H232418   7.204   1.575   3.054
10825TIP3   OH232419   8.147   5.920   1.794
10825TIP3    H132420   8.160   5.825   1.790
10825TIP3    H232421   8.075   5.931   1.856
10826TIP3   OH232422   0.177   2.768   5.986
10826TIP3    H132423   0.208   2.845   6.032
10826TIP3    H232424   0.082   2.768   5.999
10827TIP3   OH232425   7.746   6.535   2.530
10827TIP3    H132426   7.807   6.567   2.597
10827TIP3    H232427   7.800   6.518   2.454
10828TIP3   OH232428   7.837   0.929   5.272
10828TIP3    H132429   7.812   0.929   5.179
10828TIP3    H232430   7.860   0.838   5.291
10829TIP3   OH232431   7.109   6.816   1.636
10829TIP3    H132432   7.116   6.910   1.657
10829TIP3    H232433   7.197   6.791   1.608
10830TIP3   OH232434   4.432   2.653   0.853
10830TIP3    H132435   4.508   2.665   0.795
10830TIP3    H232436   4.467   2.664   0.941
10831TIP3   OH232437   1.111   1.502   5.892
10831TIP3    H132438   1.202   1.473   5.884
10831TIP3    H232439   1.078   1.455   5.968
10832TIP3   OH232440   3.150   6.143   1.026
10832TIP3    H132441   3.182   6.102   1.106
10832TIP3    H232442   3.055   6.128   1.027
10833TIP3   OH232443   5.746   7.059   4.294
10833TIP3    H132444   5.754   6.992   4.226
10833TIP3    H232445   5.754   7.012   4.376
10834TIP3   OH232446   7.625   1.733   5.355
10834TIP3    H132447   7.570   1.662   5.321
10834TIP3    H232448   7.668   1.695   5.431
10835TIP3   OH232449   4.018   6.828   5.138
10835TIP3    H132450   4.060   6.769   5.075
10835TIP3    H232451   3.938   6.858   5.093
10836TIP3   OH232452   2.339   7.174   2.563
10836TIP3    H132453   2.328   7.102   2.626
10836TIP3    H232454   2.254   7.179   2.518
10837TIP3   OH232455   4.702   4.982   1.925
10837TIP3    H132456   4.640   4.910   1.937
10837TIP3    H232457   4.775   4.942   1.876
10838TIP3   OH232458   6.060   2.591   1.276
10838TIP3    H132459   5.988   2.648   1.303
10838TIP3    H232460   6.109   2.572   1.356
10839TIP3   OH232461   6.067   1.189   1.770
10839TIP3    H132462   6.051   1.106   1.815
10839TIP3    H232463   6.162   1.197   1.766
10840TIP3   OH232464   3.901   2.199   0.634
10840TIP3    H132465   3.942   2.279   0.665
10840TIP3    H232466   3.968   2.132   0.646
10841TIP3   OH232467   4.249   3.102   2.483
10841TIP3    H132468   4.336   3.133   2.510
10841TIP3    H232469   4.246   3.121   2.389
10842TIP3   OH232470   4.157   5.641   2.546
10842TIP3    H132471   4.148   5.736   2.556
10842TIP3    H232472   4.185   5.630   2.455
10843TIP3   OH232473   5.373   6.392   4.503
10843TIP3    H132474   5.397   6.300   4.487
10843TIP3    H232475   5.279   6.390   4.517
10844TIP3   OH232476   1.090   4.789   0.411
10844TIP3    H132477   1.048   4.847   0.347
10844TIP3    H232478   1.031   4.713   0.416
10845TIP3   OH232479   0.659   3.198   0.452
10845TIP3    H132480   0.655   3.281   0.404
10845TIP3    H232481   0.752   3.177   0.456
10846TIP3   OH232482   0.155   6.728   1.929
10846TIP3    H132483   0.139   6.823   1.929
10846TIP3    H232484   0.150   6.703   1.837
10847TIP3   OH232485   3.277   2.994   3.840
10847TIP3    H132486   3.201   2.941   3.863
10847TIP3    H232487   3.351   2.949   3.882
10848TIP3   OH232488   0.361   1.512   2.014
10848TIP3    H132489   0.422   1.440   1.997
10848TIP3    H232490   0.301   1.511   1.940
10849TIP3   OH232491   7.884   5.758   4.587
10849TIP3    H132492   7.927   5.673   4.583
10849TIP3    H232493   7.920   5.807   4.512
10850TIP3   OH232494   4.153   3.639   4.874
10850TIP3    H132495   4.218   3.600   4.814
10850TIP3    H232496   4.108   3.564   4.912
10851TIP3   OH232497   0.786   0.460   4.396
10851TIP3    H132498   0.728   0.475   4.321
10851TIP3    H232499   0.863   0.417   4.359
10852TIP3   OH232500   3.203   5.007   1.539
10852TIP3    H132501   3.192   5.101   1.551
10852TIP3    H232502   3.115   4.974   1.522
10853TIP3   OH232503   3.163   7.457   5.733
10853TIP3    H132504   3.195   7.514   5.663
10853TIP3    H232505   3.098   7.400   5.691
10854TIP3   OH232506   2.165   5.954   5.455
10854TIP3    H132507   2.136   6.023   5.394
10854TIP3    H232508   2.261   5.960   5.453
10855TIP3   OH232509   3.467   5.948   0.066
10855TIP3    H132510   3.413   6.007   0.119
10855TIP3    H232511   3.547   5.937   0.117
10856TIP3   OH232512   6.360   1.591   2.823
10856TIP3    H132513   6.292   1.622   2.764
10856TIP3    H232514   6.336   1.625   2.909
10857TIP3   OH232515   7.752   3.743   4.665
10857TIP3    H132516   7.775   3.664   4.615
10857TIP3    H232517   7.696   3.792   4.605
10858TIP3   OH232518   1.288   7.248   5.331
10858TIP3    H132519   1.235   7.287   5.401
10858TIP3    H232520   1.282   7.154   5.347
10859TIP3   OH232521   2.024   3.006   3.521
10859TIP3    H132522   2.030   2.911   3.513
10859TIP3    H232523   2.014   3.038   3.431
10860TIP3   OH232524   3.124   1.685   3.675
10860TIP3    H132525   3.196   1.653   3.621
10860TIP3    H232526   3.114   1.620   3.745
10861TIP3   OH232527   5.093   3.678   6.628
10861TIP3    H132528   5.182   3.647   6.641
10861TIP3    H232529   5.069   3.645   6.541
10862TIP3   OH232530   6.464   1.636   1.125
10862TIP3    H132531   6.509   1.552   1.119
10862TIP3    H232532   6.522   1.690   1.180
10863TIP3   OH232533   5.170   3.368   0.351
10863TIP3    H132534   5.111   3.292   0.359
10863TIP3    H232535   5.229   3.361   0.426
10864TIP3   OH232536   1.081   3.861   0.495
10864TIP3    H132537   0.992   3.883   0.523
10864TIP3    H232538   1.120   3.818   0.571
10865TIP3   OH232539   7.174   6.444   6.305
10865TIP3    H132540   7.089   6.431   6.261
10865TIP3    H232541   7.151   6.467   6.395
10866TIP3   OH232542   7.805   3.457   5.790
10866TIP3    H132543   7.879   3.463   5.730
10866TIP3    H232544   7.790   3.547   5.818
10867TIP3   OH232545   3.649   3.063   5.576
10867TIP3    H132546   3.627   2.974   5.605
10867TIP3    H232547   3.674   3.108   5.657
10868TIP3   OH232548   5.831   4.406   5.558
10868TIP3    H132549   5.873   4.332   5.513
10868TIP3    H232550   5.777   4.447   5.490
10869TIP3   OH232551   0.280   7.447   4.362
10869TIP3    H132552   0.349   7.504   4.393
10869TIP3    H232553   0.199   7.497   4.375
10870TIP3   OH232554   0.128   0.826   5.390
10870TIP3    H132555   0.158   0.857   5.475
10870TIP3    H232556   0.034   0.812   5.402
10871TIP3   OH232557   2.594   3.229   2.311
10871TIP3    H132558   2.510   3.232   2.266
10871TIP3    H232559   2.586   3.291   2.383
10872TIP3   OH232560   0.175   0.784   4.024
10872TIP3    H132561   0.178   0.732   4.105
10872TIP3    H232562   0.103   0.845   4.038
10873TIP3   OH232563   4.695   4.611   4.359
10873TIP3    H132564   4.684   4.576   4.271
10873TIP3    H232565   4.606   4.615   4.395
10874TIP3   OH232566   6.684   1.250   5.564
10874TIP3    H132567   6.707   1.325   5.618
10874TIP3    H232568   6.657   1.288   5.480
10875TIP3   OH232569   2.892   4.375   2.842
10875TIP3    H132570   2.936   4.407   2.763
10875TIP3    H232571   2.950   4.400   2.914
10876TIP3   OH232572   0.921   0.483   0.663
10876TIP3    H132573   0.854   0.506   0.598
10876TIP3    H232574   0.955   0.567   0.693
10877TIP3   OH232575   2.509   3.502   1.746
10877TIP3    H132576   2.573   3.469   1.809
10877TIP3    H232577   2.517   3.443   1.671
10878TIP3   OH232578   4.985   2.176   2.664
10878TIP3    H132579   4.956   2.148   2.577
10878TIP3    H232580   4.920   2.241   2.690
10879TIP3   OH232581   4.108   2.594   4.655
10879TIP3    H132582   4.017   2.566   4.658
10879TIP3    H232583   4.155   2.518   4.620
10880TIP3   OH232584   6.972   5.001   4.382
10880TIP3    H132585   6.893   4.989   4.434
10880TIP3    H232586   7.017   5.075   4.422
10881TIP3   OH232587   4.217   0.475   5.176
10881TIP3    H132588   4.145   0.481   5.239
10881TIP3    H232589   4.209   0.387   5.139
10882TIP3   OH232590   3.453   5.851   1.921
10882TIP3    H132591   3.428   5.826   1.832
10882TIP3    H232592   3.495   5.936   1.911
10883TIP3   OH232593   0.587   5.119   4.222
10883TIP3    H132594   0.555   5.187   4.163
10883TIP3    H232595   0.568   5.152   4.310
10884TIP3   OH232596   5.105   2.563   6.570
10884TIP3    H132597   5.013   2.583   6.587
10884TIP3    H232598   5.136   2.521   6.650
10885TIP3   OH232599   5.607   4.521   4.381
10885TIP3    H132600   5.591   4.615   4.380
10885TIP3    H232601   5.532   4.483   4.426
10886TIP3   OH232602   4.817   5.923   5.826
10886TIP3    H132603   4.799   5.992   5.889
10886TIP3    H232604   4.846   5.969   5.747
10887TIP3   OH232605   2.126   7.583   3.488
10887TIP3    H132606   2.075   7.584   3.407
10887TIP3    H232607   2.130   7.491   3.513
10888TIP3   OH232608   3.577   1.192   3.646
10888TIP3    H132609   3.645   1.126   3.635
10888TIP3    H232610   3.527   1.189   3.564
10889TIP3   OH232611   7.680   0.336   0.643
10889TIP3    H132612   7.746   0.372   0.702
10889TIP3    H232613   7.601   0.329   0.696
10890TIP3   OH232614   1.136   2.549   2.529
10890TIP3    H132615   1.144   2.459   2.499
10890TIP3    H232616   1.084   2.593   2.460
10891TIP3   OH232617   5.090   0.583   2.338
10891TIP3    H132618   5.012   0.609   2.288
10891TIP3    H232619   5.068   0.603   2.429
10892TIP3   OH232620   1.836   5.650   4.106
10892TIP3    H132621   1.888   5.648   4.187
10892TIP3    H232622   1.751   5.614   4.133
10893TIP3   OH232623   1.781   4.931   4.842
10893TIP3    H132624   1.876   4.926   4.840
10893TIP3    H232625   1.762   5.023   4.857
10894TIP3   OH232626   1.839   0.231   4.119
10894TIP3    H132627   1.792   0.190   4.046
10894TIP3    H232628   1.770   0.263   4.177
10895TIP3   OH232629   3.276   3.707   5.447
10895TIP3    H132630   3.228   3.778   5.404
10895TIP3    H232631   3.209   3.643   5.470
10896TIP3   OH232632   0.458   7.295   0.101
10896TIP3    H132633   0.381   7.256   0.143
10896TIP3    H232634   0.474   7.375   0.151
10897TIP3   OH232635   2.809   7.653   0.776
10897TIP3    H132636   2.738   7.590   0.768
10897TIP3    H232637   2.848   7.634   0.862
10898TIP3   OH232638   0.099   4.660   2.842
10898TIP3    H132639   0.173   4.625   2.891
10898TIP3    H232640   0.130   4.663   2.751
10899TIP3   OH232641   7.465   2.332   0.920
10899TIP3    H132642   7.380   2.308   0.883
10899TIP3    H232643   7.453   2.326   1.015
10900TIP3   OH232644   6.551   3.794   0.972
10900TIP3    H132645   6.560   3.710   1.017
10900TIP3    H232646   6.544   3.770   0.879
10901TIP3   OH232647   1.188   0.430   3.716
10901TIP3    H132648   1.249   0.403   3.785
10901TIP3    H232649   1.241   0.434   3.637
10902TIP3   OH232650   6.588   4.767   0.230
10902TIP3    H132651   6.603   4.790   0.322
10902TIP3    H232652   6.532   4.690   0.233
10903TIP3   OH232653   4.288   2.541   4.266
10903TIP3    H132654   4.320   2.483   4.335
10903TIP3    H232655   4.193   2.536   4.273
10904TIP3   OH232656   5.285   2.913   1.540
10904TIP3    H132657   5.209   2.959   1.505
10904TIP3    H232658   5.298   2.951   1.627
10905TIP3   OH232659   0.033   3.560   4.466
10905TIP3    H132660  -0.001   3.614   4.395
10905TIP3    H232661  -0.042   3.546   4.524
10906TIP3   OH232662   7.731   1.566   5.110
10906TIP3    H132663   7.703   1.536   5.197
10906TIP3    H232664   7.826   1.550   5.109
10907TIP3   OH232665   5.131   5.660   1.668
10907TIP3    H132666   5.177   5.675   1.585
10907TIP3    H232667   5.130   5.565   1.678
10908TIP3   OH232668   6.985   1.353   1.040
10908TIP3    H132669   6.898   1.332   1.073
10908TIP3    H232670   6.972   1.370   0.947
10909TIP3   OH232671   6.058   7.308   3.575
10909TIP3    H132672   6.092   7.314   3.485
10909TIP3    H232673   5.993   7.238   3.571
10910TIP3   OH232674   8.202   3.566   5.449
10910TIP3    H132675   8.249   3.529   5.524
10910TIP3    H232676   8.240   3.653   5.438
10911TIP3   OH232677   2.589   7.408   0.973
10911TIP3    H132678   2.559   7.471   0.908
10911TIP3    H232679   2.621   7.334   0.922
10912TIP3   OH232680   7.910   6.150   5.624
10912TIP3    H132681   7.856   6.136   5.702
10912TIP3    H232682   7.895   6.242   5.601
10913TIP3   OH232683   8.163   3.581   6.218
10913TIP3    H132684   8.230   3.587   6.150
10913TIP3    H232685   8.125   3.668   6.224
10914TIP3   OH232686   3.702   0.852   4.288
10914TIP3    H132687   3.716   0.867   4.195
10914TIP3    H232688   3.690   0.757   4.296
10915TIP3   OH232689   0.372   4.564   3.602
10915TIP3    H132690   0.375   4.472   3.578
10915TIP3    H232691   0.373   4.611   3.518
10916TIP3   OH232692   3.380   2.611   4.623
10916TIP3    H132693   3.395   2.680   4.558
10916TIP3    H232694   3.391   2.655   4.708
10917TIP3   OH232695   0.629   4.624   6.675
10917TIP3    H132696   0.651   4.555   6.738
10917TIP3    H232697   0.616   4.702   6.728
10918TIP3   OH232698   5.280   6.808   3.592
10918TIP3    H132699   5.196   6.848   3.614
10918TIP3    H232700   5.345   6.871   3.623
10919TIP3   OH232701   0.257   0.377   1.148
10919TIP3    H132702   0.265   0.299   1.203
10919TIP3    H232703   0.324   0.365   1.081
10920TIP3   OH232704   2.994   3.606   3.261
10920TIP3    H132705   2.958   3.553   3.190
10920TIP3    H232706   3.001   3.546   3.335
10921TIP3   OH232707   7.066   0.679   2.332
10921TIP3    H132708   7.043   0.586   2.335
10921TIP3    H232709   7.059   0.703   2.240
10922TIP3   OH232710   5.053   0.228   1.395
10922TIP3    H132711   5.086   0.300   1.341
10922TIP3    H232712   4.969   0.205   1.355
10923TIP3   OH232713   4.565   2.215   2.290
10923TIP3    H132714   4.565   2.310   2.300
10923TIP3    H232715   4.504   2.184   2.357
10924TIP3   OH232716   3.536   1.250   0.440
10924TIP3    H132717   3.493   1.168   0.464
10924TIP3    H232718   3.482   1.284   0.368
10925TIP3   OH232719   0.757   6.953   4.964
10925TIP3    H132720   0.712   6.954   5.049
10925TIP3    H232721   0.823   6.884   4.974
10926TIP3   OH232722   0.759   0.490   2.349
10926TIP3    H132723   0.788   0.418   2.405
10926TIP3    H232724   0.722   0.446   2.272
10927TIP3   OH232725   4.724   3.655   1.237
10927TIP3    H132726   4.670   3.592   1.190
10927TIP3    H232727   4.665   3.694   1.302
10928TIP3   OH232728   7.612   5.856   4.452
10928TIP3    H132729   7.566   5.868   4.369
10928TIP3    H232730   7.677   5.789   4.434
10929TIP3   OH232731   4.090   3.526   0.949
10929TIP3    H132732   4.055   3.602   0.995
10929TIP3    H232733   4.176   3.554   0.918
10930TIP3   OH232734   5.870   0.705   3.482
10930TIP3    H132735   5.952   0.696   3.531
10930TIP3    H232736   5.836   0.615   3.475
10931TIP3   OH232737   4.195   3.107   4.022
10931TIP3    H132738   4.114   3.116   3.972
10931TIP3    H232739   4.166   3.104   4.113
10932TIP3   OH232740   4.077   4.245   0.313
10932TIP3    H132741   4.120   4.250   0.399
10932TIP3    H232742   3.986   4.222   0.334
10933TIP3   OH232743   5.445   4.445   5.107
10933TIP3    H132744   5.520   4.405   5.151
10933TIP3    H232745   5.375   4.443   5.173
10934TIP3   OH232746   2.204   4.834   0.874
10934TIP3    H132747   2.232   4.750   0.910
10934TIP3    H232748   2.285   4.877   0.846
10935TIP3   OH232749   4.490   0.155   1.736
10935TIP3    H132750   4.404   0.178   1.774
10935TIP3    H232751   4.547   0.227   1.761
10936TIP3   OH232752   1.371   1.292   1.554
10936TIP3    H132753   1.285   1.273   1.517
10936TIP3    H232754   1.408   1.206   1.575
10937TIP3   OH232755   3.248   1.003   1.224
10937TIP3    H132756   3.211   1.091   1.233
10937TIP3    H232757   3.337   1.010   1.258
10938TIP3   OH232758   6.155   4.756   2.301
10938TIP3    H132759   6.236   4.729   2.344
10938TIP3    H232760   6.182   4.783   2.214
10939TIP3   OH232761   5.704   3.758   1.373
10939TIP3    H132762   5.657   3.822   1.426
10939TIP3    H232763   5.792   3.755   1.410
10940TIP3   OH232764   7.678   3.620   0.180
10940TIP3    H132765   7.606   3.659   0.229
10940TIP3    H232766   7.721   3.562   0.243
10941TIP3   OH232767   2.836   6.491   1.419
10941TIP3    H132768   2.741   6.482   1.414
10941TIP3    H232769   2.864   6.504   1.328
10942TIP3   OH232770   2.453   4.706   3.195
10942TIP3    H132771   2.527   4.646   3.202
10942TIP3    H232772   2.436   4.713   3.101
10943TIP3   OH232773   6.617   1.454   4.507
10943TIP3    H132774   6.637   1.443   4.414
10943TIP3    H232775   6.699   1.435   4.552
10944TIP3   OH232776   3.724   2.640   5.760
10944TIP3    H132777   3.810   2.645   5.800
10944TIP3    H232778   3.739   2.601   5.674
10945TIP3   OH232779   3.821   5.405   5.594
10945TIP3    H132780   3.736   5.417   5.552
10945TIP3    H232781   3.882   5.457   5.541
10946TIP3   OH232782   7.125   4.392   4.686
10946TIP3    H132783   7.075   4.453   4.740
10946TIP3    H232784   7.152   4.443   4.610
10947TIP3   OH232785   5.689   1.491   5.412
10947TIP3    H132786   5.635   1.431   5.463
10947TIP3    H232787   5.722   1.554   5.475
10948TIP3   OH232788   3.485   2.397   2.119
10948TIP3    H132789   3.497   2.306   2.092
10948TIP3    H232790   3.562   2.416   2.173
10949TIP3   OH232791   0.442   0.459   6.136
10949TIP3    H132792   0.505   0.528   6.115
10949TIP3    H232793   0.482   0.411   6.208
10950TIP3   OH232794   5.028   1.970   4.147
10950TIP3    H132795   4.949   1.922   4.170
10950TIP3    H232796   5.066   1.996   4.231
10951TIP3   OH232797   7.034   0.664   3.798
10951TIP3    H132798   6.994   0.587   3.838
10951TIP3    H232799   7.128   0.650   3.808
10952TIP3   OH232800   1.449   1.603   3.902
10952TIP3    H132801   1.353   1.595   3.906
10952TIP3    H232802   1.474   1.547   3.828
10953TIP3   OH232803   7.249   6.349   6.733
10953TIP3    H132804   7.322   6.289   6.718
10953TIP3    H232805   7.268   6.390   6.817
10954TIP3   OH232806   4.796   4.387   5.643
10954TIP3    H132807   4.759   4.323   5.582
10954TIP3    H232808   4.853   4.441   5.588
10955TIP3   OH232809   7.198   0.356   2.797
10955TIP3    H132810   7.233   0.442   2.774
10955TIP3    H232811   7.104   0.371   2.809
10956TIP3   OH232812   1.384   3.951   1.282
10956TIP3    H132813   1.319   3.901   1.331
10956TIP3    H232814   1.354   4.041   1.286
10957TIP3   OH232815   6.297   0.848   5.091
10957TIP3    H132816   6.255   0.821   5.009
10957TIP3    H232817   6.224   0.871   5.148
10958TIP3   OH232818   7.730   2.783   2.190
10958TIP3    H132819   7.677   2.842   2.137
10958TIP3    H232820   7.794   2.840   2.232
10959TIP3   OH232821   1.454   7.529   5.859
10959TIP3    H132822   1.426   7.472   5.932
10959TIP3    H232823   1.372   7.563   5.823
10960TIP3   OH232824   2.778   0.906   2.280
10960TIP3    H132825   2.790   0.844   2.208
10960TIP3    H232826   2.859   0.957   2.282
10961TIP3   OH232827   2.586   6.254   1.620
10961TIP3    H132828   2.644   6.244   1.544
10961TIP3    H232829   2.497   6.250   1.584
10962TIP3   OH232830   5.502   3.148   0.207
10962TIP3    H132831   5.491   3.115   0.118
10962TIP3    H232832   5.526   3.072   0.259
10963TIP3   OH232833   1.263   7.091   5.927
10963TIP3    H132834   1.225   7.017   5.974
10963TIP3    H232835   1.189   7.150   5.911
10964TIP3   OH232836   3.416   5.098   0.994
10964TIP3    H132837   3.440   5.028   1.055
10964TIP3    H232838   3.325   5.079   0.970
10965TIP3   OH232839   0.072   2.758   2.802
10965TIP3    H132840  -0.020   2.784   2.795
10965TIP3    H232841   0.120   2.829   2.759
10966TIP3   OH232842   8.209   7.648   1.077
10966TIP3    H132843   8.276   7.675   1.014
10966TIP3    H232844   8.132   7.699   1.053
10967TIP3   OH232845   4.546   7.048   1.584
10967TIP3    H132846   4.622   6.999   1.613
10967TIP3    H232847   4.494   6.984   1.534
10968TIP3   OH232848   4.276   4.059   2.978
10968TIP3    H132849   4.300   4.006   3.054
10968TIP3    H232850   4.187   4.031   2.957
10969TIP3   OH232851   5.638   1.437   3.180
10969TIP3    H132852   5.657   1.386   3.100
10969TIP3    H232853   5.614   1.370   3.245
10970TIP3   OH232854   0.858   0.632   5.493
10970TIP3    H132855   0.804   0.701   5.531
10970TIP3    H232856   0.845   0.639   5.399
10971TIP3   OH232857   0.050   7.319   4.077
10971TIP3    H132858  -0.015   7.389   4.068
10971TIP3    H232859   0.131   7.365   4.099
10972TIP3   OH232860   4.301   7.167   5.443
10972TIP3    H132861   4.220   7.124   5.415
10972TIP3    H232862   4.337   7.204   5.362
10973TIP3   OH232863   7.062   3.222   0.806
10973TIP3    H132864   7.047   3.288   0.873
10973TIP3    H232865   7.137   3.171   0.838
10974TIP3   OH232866   4.375   5.298   2.553
10974TIP3    H132867   4.416   5.344   2.626
10974TIP3    H232868   4.286   5.334   2.549
10975TIP3   OH232869   0.520   3.452   3.565
10975TIP3    H132870   0.425   3.464   3.559
10975TIP3    H232871   0.536   3.367   3.524
10976TIP3   OH232872   8.053   2.326   3.895
10976TIP3    H132873   7.982   2.362   3.948
10976TIP3    H232874   8.133   2.349   3.943
10977TIP3   OH232875   8.126   3.061   2.241
10977TIP3    H132876   8.218   3.088   2.246
10977TIP3    H232877   8.094   3.099   2.159
10978TIP3   OH232878   6.118   1.798   1.737
10978TIP3    H132879   6.182   1.745   1.687
10978TIP3    H232880   6.034   1.777   1.697
10979TIP3   OH232881   4.477   1.533   2.270
10979TIP3    H132882   4.569   1.556   2.277
10979TIP3    H232883   4.437   1.609   2.227
10980TIP3   OH232884   2.255   2.255   4.278
10980TIP3    H132885   2.249   2.231   4.185
10980TIP3    H232886   2.349   2.254   4.297
10981TIP3   OH232887   5.134   2.582   2.137
10981TIP3    H132888   5.073   2.647   2.104
10981TIP3    H232889   5.136   2.597   2.232
10982TIP3   OH232890   0.217   3.962   4.970
10982TIP3    H132891   0.204   4.039   4.914
10982TIP3    H232892   0.162   3.979   5.046
10983TIP3   OH232893   4.537   5.782   6.374
10983TIP3    H132894   4.566   5.851   6.314
10983TIP3    H232895   4.615   5.729   6.390
10984TIP3   OH232896   4.001   3.168   5.770
10984TIP3    H132897   3.906   3.158   5.777
10984TIP3    H232898   4.025   3.116   5.693
10985TIP3   OH232899   2.186   2.430   5.521
10985TIP3    H132900   2.187   2.399   5.430
10985TIP3    H232901   2.238   2.510   5.520
10986TIP3   OH232902   2.544   6.143   4.276
10986TIP3    H132903   2.606   6.076   4.246
10986TIP3    H232904   2.504   6.176   4.195
10987TIP3   OH232905   4.349   4.223   5.364
10987TIP3    H132906   4.341   4.299   5.422
10987TIP3    H232907   4.406   4.252   5.294
10988TIP3   OH232908   7.380   4.459   5.250
10988TIP3    H132909   7.414   4.388   5.304
10988TIP3    H232910   7.372   4.534   5.310
10989TIP3   OH232911   0.076   3.747   0.382
10989TIP3    H132912  -0.016   3.764   0.403
10989TIP3    H232913   0.124   3.772   0.460
10990TIP3   OH232914   4.631   4.492   4.121
10990TIP3    H132915   4.653   4.406   4.158
10990TIP3    H232916   4.670   4.491   4.033
10991TIP3   OH232917   1.294   3.467   0.245
10991TIP3    H132918   1.213   3.457   0.194
10991TIP3    H232919   1.289   3.556   0.280
10992TIP3   OH232920   6.922   7.207   3.623
10992TIP3    H132921   6.859   7.274   3.650
10992TIP3    H232922   6.990   7.256   3.577
10993TIP3   OH232923   6.852   7.412   6.382
10993TIP3    H132924   6.816   7.399   6.469
10993TIP3    H232925   6.851   7.507   6.369
10994TIP3   OH232926   3.863   1.609   2.267
10994TIP3    H132927   3.795   1.628   2.332
10994TIP3    H232928   3.916   1.540   2.307
10995TIP3   OH232929   4.809   3.065   2.633
10995TIP3    H132930   4.792   3.042   2.541
10995TIP3    H232931   4.844   3.155   2.629
10996TIP3   OH232932   8.041   4.626   6.736
10996TIP3    H132933   8.078   4.605   6.650
10996TIP3    H232934   8.107   4.598   6.799
10997TIP3   OH232935   7.136   5.803   5.805
10997TIP3    H132936   7.045   5.828   5.787
10997TIP3    H232937   7.187   5.848   5.737
10998TIP3   OH232938   4.965   6.453   2.077
10998TIP3    H132939   5.006   6.372   2.047
10998TIP3    H232940   4.871   6.439   2.065
10999TIP3   OH232941   6.090   0.221   4.798
10999TIP3    H132942   6.023   0.273   4.752
10999TIP3    H232943   6.045   0.187   4.875
11000TIP3   OH232944   3.121   6.973   0.366
11000TIP3    H132945   3.174   6.896   0.388
11000TIP3    H232946   3.181   7.047   0.375
11001TIP3   OH232947   8.066   6.716   5.711
11001TIP3    H132948   8.064   6.805   5.746
11001TIP3    H232949   8.158   6.699   5.693
11002TIP3   OH232950   2.189   3.234   2.425
11002TIP3    H132951   2.111   3.197   2.468
11002TIP3    H232952   2.172   3.328   2.423
11003TIP3   OH232953   2.938   7.814   3.882
11003TIP3    H132954   2.938   7.726   3.920
11003TIP3    H232955   2.959   7.801   3.790
11004TIP3   OH232956   7.296   4.916   1.280
11004TIP3    H132957   7.249   4.994   1.251
11004TIP3    H232958   7.242   4.878   1.348
11005TIP3   OH232959   3.880   0.367   6.649
11005TIP3    H132960   3.952   0.328   6.700
11005TIP3    H232961   3.913   0.369   6.559
11006TIP3   OH232962   4.623   6.900   4.219
11006TIP3    H132963   4.631   6.880   4.312
11006TIP3    H232964   4.607   6.994   4.215
11007TIP3   OH232965   4.007   3.288   0.870
11007TIP3    H132966   4.027   3.350   0.939
11007TIP3    H232967   4.042   3.328   0.790
11008TIP3   OH232968   5.734   3.386   5.055
11008TIP3    H132969   5.809   3.418   5.105
11008TIP3    H232970   5.668   3.454   5.065
11009TIP3   OH232971   3.848   3.127   3.663
11009TIP3    H132972   3.800   3.171   3.592
11009TIP3    H232973   3.788   3.059   3.693
11010TIP3   OH232974   8.204   5.147   1.473
11010TIP3    H132975   8.285   5.161   1.424
11010TIP3    H232976   8.228   5.165   1.564
11011TIP3   OH232977   1.277   4.063   0.726
11011TIP3    H132978   1.195   4.014   0.714
11011TIP3    H232979   1.321   4.017   0.798
11012TIP3   OH232980   0.364   7.566   6.537
11012TIP3    H132981   0.299   7.630   6.507
11012TIP3    H232982   0.424   7.556   6.463
11013TIP3   OH232983   1.936   6.408   2.175
11013TIP3    H132984   1.906   6.439   2.089
11013TIP3    H232985   1.929   6.313   2.170
11014TIP3   OH232986   3.715   0.435   0.132
11014TIP3    H132987   3.693   0.350   0.093
11014TIP3    H232988   3.652   0.446   0.203
11015TIP3   OH232989   3.842   2.790  -0.013
11015TIP3    H132990   3.881   2.732   0.052
11015TIP3    H232991   3.825   2.871   0.033
11016TIP3   OH232992   6.611   1.310   0.451
11016TIP3    H132993   6.685   1.249   0.458
11016TIP3    H232994   6.617   1.364   0.530
11017TIP3   OH232995   1.350   4.654   3.701
11017TIP3    H132996   1.370   4.727   3.760
11017TIP3    H232997   1.433   4.610   3.687
11018TIP3   OH232998   3.600   5.465   2.567
11018TIP3    H132999   3.610   5.450   2.661
11018TIP3    H233000   3.516   5.509   2.558
11019TIP3   OH233001   7.938   3.898   0.421
11019TIP3    H133002   7.944   3.855   0.336
11019TIP3    H233003   8.014   3.956   0.423
11020TIP3   OH233004   6.718   7.239   2.667
11020TIP3    H133005   6.771   7.318   2.674
11020TIP3    H233006   6.633   7.269   2.635
11021TIP3   OH233007   3.798   3.026   1.782
11021TIP3    H133008   3.834   3.078   1.710
11021TIP3    H233009   3.703   3.037   1.775
11022TIP3   OH233010   6.742   1.251   6.297
11022TIP3    H133011   6.704   1.279   6.381
11022TIP3    H233012   6.803   1.181   6.321
11023TIP3   OH233013   5.254   5.263   1.668
11023TIP3    H133014   5.266   5.338   1.727
11023TIP3    H233015   5.239   5.189   1.727
11024TIP3   OH233016   3.049   6.864   4.330
11024TIP3    H133017   2.960   6.833   4.348
11024TIP3    H233018   3.101   6.834   4.405
11025TIP3   OH233019   0.017   1.940   4.596
11025TIP3    H133020  -0.036   2.003   4.546
11025TIP3    H233021   0.106   1.975   4.592
11026TIP3   OH233022   7.200   3.210   6.021
11026TIP3    H133023   7.195   3.116   6.036
11026TIP3    H233024   7.151   3.249   6.093
11027TIP3   OH233025   7.145   2.964   2.130
11027TIP3    H133026   7.198   2.942   2.206
11027TIP3    H233027   7.086   2.889   2.119
11028TIP3   OH233028   2.686   0.548   2.858
11028TIP3    H133029   2.670   0.572   2.767
11028TIP3    H233030   2.704   0.454   2.856
11029TIP3   OH233031   4.280   6.854   3.147
11029TIP3    H133032   4.216   6.922   3.128
11029TIP3    H233033   4.297   6.813   3.062
11030TIP3   OH233034   1.719   1.631   2.434
11030TIP3    H133035   1.737   1.602   2.344
11030TIP3    H233036   1.641   1.581   2.460
11031TIP3   OH233037   5.988   0.842   6.004
11031TIP3    H133038   6.063   0.894   5.975
11031TIP3    H233039   6.016   0.751   5.991
11032TIP3   OH233040   3.548   2.457   0.129
11032TIP3    H133041   3.586   2.486   0.212
11032TIP3    H233042   3.454   2.456   0.145
11033TIP3   OH233043   5.182   6.236   0.522
11033TIP3    H133044   5.176   6.213   0.430
11033TIP3    H233045   5.210   6.156   0.566
11034TIP3   OH233046   7.130   5.633   4.321
11034TIP3    H133047   7.053   5.643   4.377
11034TIP3    H233048   7.163   5.546   4.341
11035TIP3   OH233049   2.159   1.739   3.153
11035TIP3    H133050   2.171   1.802   3.082
11035TIP3    H233051   2.207   1.661   3.125
11036TIP3   OH233052   1.208   3.263   0.665
11036TIP3    H133053   1.180   3.228   0.580
11036TIP3    H233054   1.262   3.193   0.702
11037TIP3   OH233055   2.677   6.534   3.415
11037TIP3    H133056   2.749   6.598   3.419
11037TIP3    H233057   2.643   6.542   3.326
11038TIP3   OH233058   2.745   6.934   4.553
11038TIP3    H133059   2.667   6.973   4.513
11038TIP3    H233060   2.770   6.864   4.492
11039TIP3   OH233061   5.896   1.106   5.019
11039TIP3    H133062   5.878   1.157   4.940
11039TIP3    H233063   5.815   1.112   5.071
11040TIP3   OH233064   7.817   6.099   3.681
11040TIP3    H133065   7.796   6.188   3.653
11040TIP3    H233066   7.898   6.109   3.731
11041TIP3   OH233067   7.876   3.781   0.081
11041TIP3    H133068   7.928   3.705   0.054
11041TIP3    H233069   7.792   3.745   0.107
11042TIP3   OH233070   3.636   3.734   1.569
11042TIP3    H133071   3.707   3.782   1.525
11042TIP3    H233072   3.624   3.780   1.652
11043TIP3   OH233073   2.258   2.016   4.982
11043TIP3    H133074   2.200   2.079   4.940
11043TIP3    H233075   2.313   1.983   4.911
11044TIP3   OH233076   6.144   5.009   1.124
11044TIP3    H133077   6.107   5.027   1.038
11044TIP3    H233078   6.078   4.956   1.168
11045TIP3   OH233079   4.430   5.410   1.135
11045TIP3    H133080   4.437   5.467   1.212
11045TIP3    H233081   4.507   5.431   1.082
11046TIP3   OH233082   1.453   0.916   0.648
11046TIP3    H133083   1.368   0.957   0.664
11046TIP3    H233084   1.499   0.923   0.732
11047TIP3   OH233085   6.721   7.302   5.063
11047TIP3    H133086   6.631   7.333   5.076
11047TIP3    H233087   6.719   7.211   5.092
11048TIP3   OH233088   3.238   1.030   1.904
11048TIP3    H133089   3.149   0.995   1.893
11048TIP3    H233090   3.291   0.978   1.843
11049TIP3   OH233091   7.348   7.441   4.624
11049TIP3    H133092   7.412   7.370   4.613
11049TIP3    H233093   7.299   7.417   4.703
11050TIP3   OH233094   2.789   1.580   3.303
11050TIP3    H133095   2.850   1.653   3.294
11050TIP3    H233096   2.846   1.505   3.322
11051TIP3   OH233097   4.245   2.780   1.579
11051TIP3    H133098   4.214   2.719   1.646
11051TIP3    H233099   4.175   2.845   1.572
11052TIP3   OH233100   1.902   2.439   2.388
11052TIP3    H133101   1.872   2.350   2.366
11052TIP3    H233102   1.972   2.425   2.451
11053TIP3   OH233103   0.261   5.340   0.213
11053TIP3    H133104   0.176   5.364   0.176
11053TIP3    H233105   0.295   5.421   0.251
11054TIP3   OH233106   5.861   3.717   5.715
11054TIP3    H133107   5.874   3.626   5.689
11054TIP3    H233108   5.882   3.719   5.808
11055TIP3   OH233109   8.220   5.923   1.529
11055TIP3    H133110   8.176   5.930   1.614
11055TIP3    H233111   8.149   5.902   1.468
11056TIP3   OH233112   8.161   1.801   1.238
11056TIP3    H133113   8.225   1.773   1.303
11056TIP3    H233114   8.077   1.796   1.283
11057TIP3   OH233115   0.067   0.837   2.272
11057TIP3    H133116   0.125   0.905   2.306
11057TIP3    H233117   0.029   0.795   2.349
11058TIP3   OH233118   3.787   6.716   6.189
11058TIP3    H133119   3.830   6.691   6.107
11058TIP3    H233120   3.771   6.633   6.234
11059TIP3   OH233121   1.565   3.411   4.558
11059TIP3    H133122   1.496   3.447   4.615
11059TIP3    H233123   1.646   3.447   4.594
11060TIP3   OH233124   5.916   2.626   2.665
11060TIP3    H133125   5.887   2.710   2.700
11060TIP3    H233126   5.847   2.565   2.690
11061TIP3   OH233127   4.683   1.812   5.810
11061TIP3    H133128   4.742   1.802   5.885
11061TIP3    H233129   4.710   1.895   5.770
11062TIP3   OH233130   1.339   6.183   2.701
11062TIP3    H133131   1.400   6.253   2.680
11062TIP3    H233132   1.385   6.103   2.677
11063TIP3   OH233133   6.836   6.157   5.363
11063TIP3    H133134   6.784   6.078   5.350
11063TIP3    H233135   6.892   6.136   5.438
11064TIP3   OH233136   2.506   6.692   0.538
11064TIP3    H133137   2.550   6.609   0.521
11064TIP3    H233138   2.526   6.713   0.629
11065TIP3   OH233139   6.246   6.817   1.853
11065TIP3    H133140   6.225   6.801   1.760
11065TIP3    H233141   6.223   6.735   1.897
11066TIP3   OH233142   0.513   6.634   1.169
11066TIP3    H133143   0.470   6.604   1.249
11066TIP3    H233144   0.605   6.643   1.193
11067TIP3   OH233145   2.323   7.788   5.325
11067TIP3    H133146   2.249   7.728   5.318
11067TIP3    H233147   2.397   7.733   5.352
11068TIP3   OH233148   4.969   7.046   0.296
11068TIP3    H133149   4.935   7.100   0.368
11068TIP3    H233150   4.972   7.106   0.221
11069TIP3   OH233151   7.198   2.407   0.481
11069TIP3    H133152   7.208   2.342   0.412
11069TIP3    H233153   7.160   2.483   0.438
11070TIP3   OH233154   7.082   5.986   6.260
11070TIP3    H133155   7.071   6.070   6.217
11070TIP3    H233156   7.031   5.925   6.208
11071TIP3   OH233157   0.210   2.395   2.686
11071TIP3    H133158   0.193   2.484   2.657
11071TIP3    H233159   0.235   2.404   2.778
11072TIP3   OH233160   5.403   2.630   3.763
11072TIP3    H133161   5.406   2.718   3.724
11072TIP3    H233162   5.345   2.640   3.839
11073TIP3   OH233163   1.299   4.517   4.480
11073TIP3    H133164   1.390   4.534   4.456
11073TIP3    H233165   1.301   4.431   4.522
11074TIP3   OH233166   3.024   1.836   6.805
11074TIP3    H133167   2.985   1.785   6.734
11074TIP3    H233168   2.957   1.901   6.826
11075TIP3   OH233169   1.103   7.882   3.537
11075TIP3    H133170   1.141   7.796   3.558
11075TIP3    H233171   1.178   7.940   3.530
11076TIP3   OH233172   8.252   3.089   0.140
11076TIP3    H133173   8.297   3.071   0.222
11076TIP3    H233174   8.216   3.004   0.113
11077TIP3   OH233175   2.149   2.384   2.483
11077TIP3    H133176   2.167   2.346   2.397
11077TIP3    H233177   2.188   2.324   2.545
11078TIP3   OH233178   5.998   6.118   5.553
11078TIP3    H133179   6.041   6.049   5.501
11078TIP3    H233180   5.926   6.148   5.498
11079TIP3   OH233181   2.730   5.977   4.120
11079TIP3    H133182   2.785   6.041   4.164
11079TIP3    H233183   2.757   5.982   4.028
11080TIP3   OH233184   1.142   5.890   6.090
11080TIP3    H133185   1.129   5.905   6.184
11080TIP3    H233186   1.091   5.960   6.048
11081TIP3   OH233187   7.404   3.420   4.859
11081TIP3    H133188   7.371   3.410   4.949
11081TIP3    H233189   7.427   3.512   4.852
11082TIP3   OH233190   1.088   4.010   4.250
11082TIP3    H133191   1.100   3.928   4.201
11082TIP3    H233192   1.145   4.000   4.326
11083TIP3   OH233193   5.409   4.375   0.388
11083TIP3    H133194   5.485   4.390   0.445
11083TIP3    H233195   5.446   4.363   0.301
11084TIP3   OH233196   4.233   5.999   4.637
11084TIP3    H133197   4.155   6.040   4.674
11084TIP3    H233198   4.202   5.955   4.558
11085TIP3   OH233199   4.433   3.864   0.716
11085TIP3    H133200   4.461   3.773   0.708
11085TIP3    H233201   4.502   3.905   0.769
11086TIP3   OH233202   5.010   2.461   4.570
11086TIP3    H133203   5.080   2.526   4.566
11086TIP3    H233204   5.003   2.427   4.480
11087TIP3   OH233205   0.506   5.764   4.857
11087TIP3    H133206   0.505   5.739   4.765
11087TIP3    H233207   0.565   5.839   4.861
11088TIP3   OH233208   8.149   7.791   3.366
11088TIP3    H133209   8.163   7.833   3.281
11088TIP3    H233210   8.071   7.737   3.354
11089TIP3   OH233211   4.779   5.900   1.756
11089TIP3    H133212   4.838   5.954   1.703
11089TIP3    H233213   4.820   5.897   1.842
11090TIP3   OH233214   7.617   5.677   3.308
11090TIP3    H133215   7.711   5.661   3.316
11090TIP3    H233216   7.610   5.744   3.239
11091TIP3   OH233217   0.617   7.057   0.152
11091TIP3    H133218   0.569   7.138   0.133
11091TIP3    H233219   0.688   7.056   0.087
11092TIP3   OH233220   4.371   5.549   0.134
11092TIP3    H133221   4.305   5.609   0.099
11092TIP3    H233222   4.358   5.552   0.229
11093TIP3   OH233223   2.879   6.826   2.384
11093TIP3    H133224   2.913   6.785   2.304
11093TIP3    H233225   2.820   6.894   2.352
11094TIP3   OH233226   2.346   1.269   0.467
11094TIP3    H133227   2.386   1.253   0.381
11094TIP3    H233228   2.405   1.330   0.511
11095TIP3   OH233229   4.341   6.798   5.489
11095TIP3    H133230   4.413   6.808   5.552
11095TIP3    H233231   4.262   6.805   5.542
11096TIP3   OH233232   6.431   6.717   0.238
11096TIP3    H133233   6.403   6.662   0.165
11096TIP3    H233234   6.485   6.785   0.198
11097TIP3   OH233235   7.207   4.356   5.580
11097TIP3    H133236   7.166   4.331   5.663
11097TIP3    H233237   7.197   4.451   5.577
11098TIP3   OH233238   7.991   5.739   0.395
11098TIP3    H133239   8.083   5.762   0.402
11098TIP3    H233240   7.989   5.644   0.405
11099TIP3   OH233241   1.840   2.255   4.487
11099TIP3    H133242   1.821   2.305   4.408
11099TIP3    H233243   1.918   2.203   4.465
11100TIP3   OH233244   7.048   1.397   1.870
11100TIP3    H133245   7.012   1.311   1.849
11100TIP3    H233246   7.086   1.427   1.788
11101TIP3   OH233247   5.013   6.293   0.742
11101TIP3    H133248   5.055   6.279   0.657
11101TIP3    H233249   5.071   6.354   0.788
11102TIP3   OH233250   3.702   7.160   3.314
11102TIP3    H133251   3.669   7.075   3.344
11102TIP3    H233252   3.702   7.154   3.219
11103TIP3   OH233253   4.804   0.918   1.719
11103TIP3    H133254   4.712   0.928   1.742
11103TIP3    H233255   4.847   0.893   1.801
11104TIP3   OH233256   1.798   5.924   1.030
11104TIP3    H133257   1.742   5.990   1.070
11104TIP3    H233258   1.871   5.914   1.092
11105TIP3   OH233259   3.904   7.309   1.257
11105TIP3    H133260   3.830   7.347   1.304
11105TIP3    H233261   3.981   7.337   1.307
11106TIP3   OH233262   2.168   4.033   1.836
11106TIP3    H133263   2.254   4.000   1.811
11106TIP3    H233264   2.176   4.054   1.929
11107TIP3   OH233265   4.096   3.026   2.037
11107TIP3    H133266   4.045   3.106   2.021
11107TIP3    H233267   4.166   3.029   1.972
11108TIP3   OH233268   2.479   4.232   4.139
11108TIP3    H133269   2.428   4.153   4.156
11108TIP3    H233270   2.416   4.292   4.098
11109TIP3   OH233271   4.021   6.517   5.549
11109TIP3    H133272   3.980   6.516   5.463
11109TIP3    H233273   4.115   6.522   5.531
11110TIP3   OH233274   8.211   2.916   6.049
11110TIP3    H133275   8.127   2.926   6.093
11110TIP3    H233276   8.191   2.927   5.956
11111TIP3   OH233277   7.829   5.197   5.117
11111TIP3    H133278   7.799   5.252   5.190
11111TIP3    H233279   7.866   5.120   5.160
11112TIP3   OH233280   3.033   2.571   2.698
11112TIP3    H133281   3.044   2.594   2.790
11112TIP3    H233282   3.022   2.476   2.698
11113TIP3   OH233283   4.050   4.876   4.522
11113TIP3    H133284   4.132   4.913   4.487
11113TIP3    H233285   4.079   4.803   4.577
11114TIP3   OH233286   5.008   3.793   0.650
11114TIP3    H133287   5.102   3.802   0.634
11114TIP3    H233288   4.991   3.699   0.642
11115TIP3   OH233289   0.031  -0.001   4.894
11115TIP3    H133290   0.007   0.042   4.976
11115TIP3    H233291   0.014   0.065   4.826
11116TIP3   OH233292   0.232   4.794   0.130
11116TIP3    H133293   0.189   4.736   0.068
11116TIP3    H233294   0.294   4.844   0.077
11117TIP3   OH233295   1.066   1.018   5.472
11117TIP3    H133296   1.015   1.057   5.543
11117TIP3    H233297   1.156   1.016   5.506
11118TIP3   OH233298   3.185   0.850   2.978
11118TIP3    H133299   3.189   0.757   2.957
11118TIP3    H233300   3.109   0.883   2.930
11119TIP3   OH233301   8.097   0.719   0.237
11119TIP3    H133302   8.163   0.678   0.182
11119TIP3    H233303   8.108   0.813   0.223
11120TIP3   OH233304   7.986   4.938   2.527
11120TIP3    H133305   7.927   5.009   2.551
11120TIP3    H233306   7.930   4.872   2.486
11121TIP3   OH233307   1.808   0.685   0.545
11121TIP3    H133308   1.892   0.642   0.557
11121TIP3    H233309   1.797   0.691   0.450
11122TIP3   OH233310   5.616   2.249   5.157
11122TIP3    H133311   5.624   2.271   5.064
11122TIP3    H233312   5.593   2.331   5.200
11123TIP3   OH233313   6.460   0.864   1.109
11123TIP3    H133314   6.454   0.958   1.088
11123TIP3    H233315   6.538   0.835   1.063
11124TIP3   OH233316   7.259   6.004   4.831
11124TIP3    H133317   7.181   6.053   4.855
11124TIP3    H233318   7.286   5.960   4.911
11125TIP3   OH233319   5.752   1.015   6.520
11125TIP3    H133320   5.790   1.082   6.464
11125TIP3    H233321   5.688   1.062   6.573
11126TIP3   OH233322   6.611   1.286   3.656
11126TIP3    H133323   6.609   1.201   3.613
11126TIP3    H233324   6.703   1.300   3.677
11127TIP3   OH233325   5.482   7.381   3.072
11127TIP3    H133326   5.566   7.341   3.097
11127TIP3    H233327   5.431   7.308   3.036
11128TIP3   OH233328   1.560   4.777   3.857
11128TIP3    H133329   1.558   4.690   3.898
11128TIP3    H233330   1.572   4.838   3.930
11129TIP3   OH233331   3.048   7.690   5.856
11129TIP3    H133332   3.123   7.749   5.859
11129TIP3    H233333   3.080   7.614   5.808
11130TIP3   OH233334   0.194   5.612   0.882
11130TIP3    H133335   0.273   5.623   0.934
11130TIP3    H233336   0.219   5.636   0.793
11131TIP3   OH233337   5.155   2.091   6.484
11131TIP3    H133338   5.220   2.052   6.426
11131TIP3    H233339   5.202   2.161   6.530
11132TIP3   OH233340   2.384   1.597   2.785
11132TIP3    H133341   2.311   1.565   2.731
11132TIP3    H233342   2.460   1.547   2.754
11133TIP3   OH233343   4.708   4.884   3.941
11133TIP3    H133344   4.700   4.826   3.865
11133TIP3    H233345   4.797   4.918   3.936
11134TIP3   OH233346   2.169   1.758   1.505
11134TIP3    H133347   2.077   1.768   1.481
11134TIP3    H233348   2.194   1.844   1.538
11135TIP3   OH233349   7.508   1.508   3.162
11135TIP3    H133350   7.494   1.581   3.222
11135TIP3    H233351   7.503   1.547   3.075
11136TIP3   OH233352   7.300   0.540   6.257
11136TIP3    H133353   7.259   0.617   6.217
11136TIP3    H233354   7.344   0.575   6.335
11137TIP3   OH233355   3.538   3.377   4.265
11137TIP3    H133356   3.563   3.458   4.310
11137TIP3    H233357   3.466   3.404   4.207
11138TIP3   OH233358   0.958   2.721   2.349
11138TIP3    H133359   0.877   2.770   2.363
11138TIP3    H233360   1.024   2.788   2.331
11139TIP3   OH233361   5.048   0.985   6.291
11139TIP3    H133362   4.989   1.023   6.227
11139TIP3    H233363   4.992   0.930   6.346
11140TIP3   OH233364   4.123   1.712   5.512
11140TIP3    H133365   4.036   1.676   5.528
11140TIP3    H233366   4.137   1.774   5.583
11141TIP3   OH233367   1.513   2.156   2.644
11141TIP3    H133368   1.562   2.074   2.641
11141TIP3    H233369   1.475   2.157   2.732
11142TIP3   OH233370   3.551   3.043   6.239
11142TIP3    H133371   3.575   3.125   6.282
11142TIP3    H233372   3.464   3.023   6.273
11143TIP3   OH233373   0.928   0.069   1.452
11143TIP3    H133374   0.918  -0.020   1.419
11143TIP3    H233375   0.951   0.058   1.544
11144TIP3   OH233376   2.518   4.602   6.368
11144TIP3    H133377   2.493   4.628   6.279
11144TIP3    H233378   2.611   4.580   6.361
11145TIP3   OH233379   3.771   3.619   3.513
11145TIP3    H133380   3.761   3.709   3.544
11145TIP3    H233381   3.684   3.596   3.480
11146TIP3   OH233382   4.172   1.544   0.034
11146TIP3    H133383   4.139   1.628   0.064
11146TIP3    H233384   4.148   1.483   0.104
11147TIP3   OH233385   2.522   7.614   5.401
11147TIP3    H133386   2.534   7.554   5.474
11147TIP3    H233387   2.606   7.661   5.395
11148TIP3   OH233388   4.279   7.658   1.528
11148TIP3    H133389   4.188   7.637   1.506
11148TIP3    H233390   4.330   7.586   1.492
11149TIP3   OH233391   4.118   6.212   2.758
11149TIP3    H133392   4.049   6.244   2.700
11149TIP3    H233393   4.086   6.232   2.846
11150TIP3   OH233394   1.915   6.850   4.115
11150TIP3    H133395   1.847   6.913   4.091
11150TIP3    H233396   1.881   6.806   4.193
11151TIP3   OH233397   6.939   4.749   4.649
11151TIP3    H133398   6.880   4.805   4.598
11151TIP3    H233399   7.024   4.760   4.608
11152TIP3   OH233400   8.182   0.323   6.562
11152TIP3    H133401   8.198   0.406   6.607
11152TIP3    H233402   8.094   0.332   6.524
11153TIP3   OH233403   4.964   7.408   6.769
11153TIP3    H133404   4.943   7.328   6.818
11153TIP3    H233405   5.007   7.376   6.689
11154TIP3   OH233406   6.563   1.946   4.224
11154TIP3    H133407   6.555   1.885   4.297
11154TIP3    H233408   6.550   1.893   4.146
11155TIP3   OH233409   7.625   7.206   6.439
11155TIP3    H133410   7.628   7.234   6.348
11155TIP3    H233411   7.534   7.178   6.453
11156TIP3   OH233412   4.602   3.935   2.695
11156TIP3    H133413   4.608   4.029   2.676
11156TIP3    H233414   4.508   3.921   2.710
11157TIP3   OH233415   3.339   0.462   2.648
11157TIP3    H133416   3.265   0.421   2.605
11157TIP3    H233417   3.408   0.462   2.582
11158TIP3   OH233418   3.734   3.730   0.192
11158TIP3    H133419   3.776   3.777   0.264
11158TIP3    H233420   3.759   3.638   0.205
11159TIP3   OH233421   5.104   7.115   1.377
11159TIP3    H133422   5.049   7.172   1.324
11159TIP3    H233423   5.152   7.175   1.434
11160TIP3   OH233424   2.783   4.501   6.375
11160TIP3    H133425   2.785   4.449   6.294
11160TIP3    H233426   2.846   4.458   6.432
11161TIP3   OH233427   2.598   2.227   5.074
11161TIP3    H133428   2.560   2.255   5.157
11161TIP3    H233429   2.646   2.303   5.043
11162TIP3   OH233430   5.010   7.297   3.702
11162TIP3    H133431   5.008   7.344   3.785
11162TIP3    H233432   5.089   7.244   3.707
11163TIP3   OH233433   2.386   4.498   1.226
11163TIP3    H133434   2.399   4.405   1.245
11163TIP3    H233435   2.399   4.505   1.132
11164TIP3   OH233436   1.928   5.685   0.277
11164TIP3    H133437   1.900   5.596   0.252
11164TIP3    H233438   1.918   5.687   0.372
11165TIP3   OH233439   4.838   5.401   2.261
11165TIP3    H133440   4.889   5.410   2.341
11165TIP3    H233441   4.767   5.341   2.284
11166TIP3   OH233442   8.204   6.287   3.711
11166TIP3    H133443   8.260   6.221   3.669
11166TIP3    H233444   8.173   6.342   3.639
11167TIP3   OH233445   1.753   4.614   1.436
11167TIP3    H133446   1.670   4.624   1.388
11167TIP3    H233447   1.804   4.553   1.384
11168TIP3   OH233448   0.323   2.697   5.636
11168TIP3    H133449   0.401   2.695   5.580
11168TIP3    H233450   0.290   2.607   5.635
11169TIP3   OH233451   2.476   7.220   4.177
11169TIP3    H133452   2.416   7.206   4.104
11169TIP3    H233453   2.507   7.132   4.199
11170TIP3   OH233454   7.052   1.145   3.706
11170TIP3    H133455   7.012   1.115   3.788
11170TIP3    H233456   7.052   1.067   3.650
11171TIP3   OH233457   0.274   7.726   4.515
11171TIP3    H133458   0.214   7.772   4.455
11171TIP3    H233459   0.233   7.734   4.601
11172TIP3   OH233460   6.994   2.245   4.633
11172TIP3    H133461   6.954   2.330   4.648
11172TIP3    H233462   6.942   2.185   4.688
11173TIP3   OH233463   1.220   1.050   2.266
11173TIP3    H133464   1.285   1.118   2.279
11173TIP3    H233465   1.150   1.092   2.217
11174TIP3   OH233466   2.646   2.692   0.243
11174TIP3    H133467   2.603   2.633   0.306
11174TIP3    H233468   2.613   2.664   0.158
11175TIP3   OH233469   5.806   6.377   1.984
11175TIP3    H133470   5.889   6.359   1.940
11175TIP3    H233471   5.744   6.316   1.945
11176TIP3   OH233472   1.742   4.799   0.843
11176TIP3    H133473   1.791   4.719   0.864
11176TIP3    H233474   1.672   4.802   0.908
11177TIP3   OH233475   6.821   2.205   4.074
11177TIP3    H133476   6.866   2.278   4.118
11177TIP3    H233477   6.882   2.132   4.080
11178TIP3   OH233478   3.697   7.093   4.327
11178TIP3    H133479   3.733   7.102   4.415
11178TIP3    H233480   3.603   7.107   4.338
11179TIP3   OH233481   6.850   0.341   4.633
11179TIP3    H133482   6.803   0.399   4.694
11179TIP3    H233483   6.927   0.390   4.607
11180TIP3   OH233484   3.455   2.565   5.460
11180TIP3    H133485   3.391   2.505   5.421
11180TIP3    H233486   3.536   2.550   5.411
11181TIP3   OH233487   1.130   3.775   0.773
11181TIP3    H133488   1.121   3.705   0.837
11181TIP3    H233489   1.088   3.851   0.814
11182TIP3   OH233490   2.423   6.076   4.513
11182TIP3    H133491   2.337   6.102   4.548
11182TIP3    H233492   2.432   6.128   4.433
11183TIP3   OH233493   7.044   1.891   3.529
11183TIP3    H133494   6.965   1.858   3.572
11183TIP3    H233495   7.090   1.940   3.596
11184TIP3   OH233496   7.879   5.343   3.447
11184TIP3    H133497   7.952   5.286   3.473
11184TIP3    H233498   7.895   5.426   3.492
11185TIP3   OH233499   3.517   4.209   2.506
11185TIP3    H133500   3.574   4.214   2.430
11185TIP3    H233501   3.428   4.214   2.471
11186TIP3   OH233502   4.288   2.579   2.724
11186TIP3    H133503   4.361   2.529   2.688
11186TIP3    H233504   4.327   2.660   2.755
11187TIP3   OH233505   0.526   4.880   4.353
11187TIP3    H133506   0.498   4.932   4.278
11187TIP3    H233507   0.528   4.942   4.426
11188TIP3   OH233508   2.340   2.120   6.123
11188TIP3    H133509   2.341   2.213   6.100
11188TIP3    H233510   2.351   2.074   6.039
11189TIP3   OH233511   2.677   0.122   0.913
11189TIP3    H133512   2.710   0.145   1.000
11189TIP3    H233513   2.582   0.118   0.924
11190TIP3   OH233514   7.491   4.627   1.822
11190TIP3    H133515   7.554   4.575   1.772
11190TIP3    H233516   7.424   4.563   1.849
11191TIP3   OH233517   0.114   7.742   0.118
11191TIP3    H133518   0.175   7.813   0.096
11191TIP3    H233519   0.125   7.730   0.213
11192TIP3   OH233520   4.036   3.991   2.848
11192TIP3    H133521   4.042   3.921   2.782
11192TIP3    H233522   3.944   3.991   2.875
11193TIP3   OH233523   6.878   5.784   3.984
11193TIP3    H133524   6.960   5.809   3.941
11193TIP3    H233525   6.878   5.832   4.066
11194TIP3   OH233526   7.243   2.731   4.514
11194TIP3    H133527   7.333   2.758   4.536
11194TIP3    H233528   7.194   2.813   4.508
11195TIP3   OH233529   7.309   0.745   0.597
11195TIP3    H133530   7.234   0.802   0.614
11195TIP3    H233531   7.285   0.661   0.635
11196TIP3   OH233532   4.940   2.526   0.912
11196TIP3    H133533   4.955   2.620   0.911
11196TIP3    H233534   4.962   2.499   1.001
11197TIP3   OH233535   1.132   4.840   1.273
11197TIP3    H133536   1.059   4.779   1.284
11197TIP3    H233537   1.210   4.784   1.271
11198TIP3   OH233538   2.443   5.586   0.900
11198TIP3    H133539   2.505   5.566   0.830
11198TIP3    H233540   2.386   5.653   0.862
11199TIP3   OH233541   2.217   3.112   6.055
11199TIP3    H133542   2.129   3.092   6.025
11199TIP3    H233543   2.235   3.048   6.124
11200TIP3   OH233544   7.249   0.350   4.076
11200TIP3    H133545   7.272   0.440   4.102
11200TIP3    H233546   7.189   0.320   4.144
11201TIP3   OH233547   7.869   0.523   5.605
11201TIP3    H133548   7.874   0.543   5.699
11201TIP3    H233549   7.953   0.482   5.585
11202TIP3   OH233550   5.166   4.774   4.711
11202TIP3    H133551   5.162   4.679   4.724
11202TIP3    H233552   5.176   4.785   4.616
11203TIP3   OH233553   2.946   4.932   4.210
11203TIP3    H133554   2.960   4.919   4.304
11203TIP3    H233555   2.913   5.021   4.202
11204TIP3   OH233556   6.119   0.369   6.427
11204TIP3    H133557   6.174   0.433   6.383
11204TIP3    H233558   6.101   0.302   6.361
11205TIP3   OH233559   6.612   6.427   3.741
11205TIP3    H133560   6.522   6.398   3.757
11205TIP3    H233561   6.604   6.491   3.670
11206TIP3   OH233562   5.203   7.276   2.784
11206TIP3    H133563   5.277   7.252   2.840
11206TIP3    H233564   5.131   7.220   2.813
11207TIP3   OH233565   0.746   5.046   5.450
11207TIP3    H133566   0.665   5.028   5.403
11207TIP3    H233567   0.814   5.047   5.382
11208TIP3   OH233568   1.757   7.769   1.250
11208TIP3    H133569   1.727   7.850   1.291
11208TIP3    H233570   1.803   7.723   1.320
11209TIP3   OH233571   6.927   0.727   0.346
11209TIP3    H133572   7.005   0.681   0.315
11209TIP3    H233573   6.953   0.820   0.344
11210TIP3   OH233574   2.772   3.218   2.093
11210TIP3    H133575   2.730   3.225   2.179
11210TIP3    H233576   2.730   3.143   2.052
11211TIP3   OH233577   3.576   7.447   5.912
11211TIP3    H133578   3.649   7.404   5.869
11211TIP3    H233579   3.607   7.466   6.001
11212TIP3   OH233580   6.039   0.901   5.197
11212TIP3    H133581   5.963   0.944   5.156
11212TIP3    H233582   6.079   0.969   5.251
11213TIP3   OH233583   5.689   0.576   2.884
11213TIP3    H133584   5.741   0.497   2.895
11213TIP3    H233585   5.737   0.644   2.931
11214TIP3   OH233586   0.739   1.568   2.847
11214TIP3    H133587   0.788   1.637   2.892
11214TIP3    H233588   0.766   1.487   2.890
11215TIP3   OH233589   5.110   7.809   4.623
11215TIP3    H133590   5.082   7.736   4.678
11215TIP3    H233591   5.206   7.803   4.623
11216TIP3   OH233592   1.925   0.424   2.480
11216TIP3    H133593   1.934   0.446   2.573
11216TIP3    H233594   1.834   0.396   2.471
11217TIP3   OH233595   1.933   1.078   5.149
11217TIP3    H133596   1.930   1.023   5.228
11217TIP3    H233597   2.025   1.101   5.139
11218TIP3   OH233598   5.567   6.232   3.028
11218TIP3    H133599   5.609   6.299   3.082
11218TIP3    H233600   5.623   6.155   3.039
11219TIP3   OH233601   1.106   1.533   2.827
11219TIP3    H133602   1.188   1.577   2.850
11219TIP3    H233603   1.107   1.530   2.731
11220TIP3   OH233604   3.780   2.859   3.768
11220TIP3    H133605   3.810   2.879   3.856
11220TIP3    H233606   3.685   2.849   3.776
11221TIP3   OH233607   5.594   4.104   5.396
11221TIP3    H133608   5.526   4.121   5.462
11221TIP3    H233609   5.650   4.038   5.436
11222TIP3   OH233610   6.447   3.349   5.491
11222TIP3    H133611   6.512   3.374   5.558
11222TIP3    H233612   6.499   3.336   5.412
11223TIP3   OH233613   8.271   5.258   5.931
11223TIP3    H133614   8.350   5.245   5.983
11223TIP3    H233615   8.255   5.352   5.933
11224TIP3   OH233616   4.131   6.870   4.234
11224TIP3    H133617   4.059   6.864   4.172
11224TIP3    H233618   4.190   6.798   4.209
11225TIP3   OH233619   0.217   1.064   2.385
11225TIP3    H133620   0.190   1.136   2.329
11225TIP3    H233621   0.311   1.058   2.374
11226TIP3   OH233622   8.123   4.573   1.241
11226TIP3    H133623   8.028   4.567   1.249
11226TIP3    H233624   8.155   4.489   1.272
11227TIP3   OH233625   2.258   6.070   2.755
11227TIP3    H133626   2.266   6.112   2.841
11227TIP3    H233627   2.323   6.114   2.701
11228TIP3   OH233628   4.356   1.081   3.676
11228TIP3    H133629   4.342   1.017   3.606
11228TIP3    H233630   4.379   1.027   3.752
11229TIP3   OH233631   4.186   3.712   5.480
11229TIP3    H133632   4.200   3.618   5.492
11229TIP3    H233633   4.166   3.721   5.387
11230TIP3   OH233634   2.320   3.694   1.010
11230TIP3    H133635   2.227   3.678   1.023
11230TIP3    H233636   2.363   3.630   1.067
11231TIP3   OH233637   3.346   3.785   0.840
11231TIP3    H133638   3.326   3.712   0.898
11231TIP3    H233639   3.395   3.745   0.768
11232TIP3   OH233640   3.800   3.860   0.874
11232TIP3    H133641   3.711   3.896   0.879
11232TIP3    H233642   3.855   3.927   0.914
11233TIP3   OH233643   5.523   3.840   2.302
11233TIP3    H133644   5.457   3.904   2.328
11233TIP3    H233645   5.474   3.771   2.257
11234TIP3   OH233646   5.154   0.889   2.425
11234TIP3    H133647   5.104   0.821   2.468
11234TIP3    H233648   5.212   0.923   2.493
11235TIP3   OH233649   6.017   2.287   2.132
11235TIP3    H133650   6.054   2.253   2.051
11235TIP3    H233651   5.924   2.297   2.115
11236TIP3   OH233652   2.136   6.231   4.748
11236TIP3    H133653   2.162   6.142   4.727
11236TIP3    H233654   2.206   6.286   4.712
11237TIP3   OH233655   4.306   1.346   5.306
11237TIP3    H133656   4.313   1.402   5.384
11237TIP3    H233657   4.216   1.313   5.308
11238TIP3   OH233658   7.330   5.853   3.512
11238TIP3    H133659   7.288   5.893   3.588
11238TIP3    H233660   7.389   5.921   3.479
11239TIP3   OH233661   2.336   4.094   0.656
11239TIP3    H133662   2.347   4.013   0.607
11239TIP3    H233663   2.403   4.153   0.621
11240TIP3   OH233664   5.412   5.530   3.336
11240TIP3    H133665   5.346   5.557   3.400
11240TIP3    H233666   5.496   5.550   3.377
11241TIP3   OH233667   4.500   6.512   0.327
11241TIP3    H133668   4.589   6.505   0.361
11241TIP3    H233669   4.491   6.437   0.268
11242TIP3   OH233670   2.340   5.881   5.167
11242TIP3    H133671   2.296   5.939   5.105
11242TIP3    H233672   2.343   5.930   5.249
11243TIP3   OH233673   2.179   4.086   5.374
11243TIP3    H133674   2.213   4.006   5.414
11243TIP3    H233675   2.130   4.129   5.444
11244TIP3   OH233676   5.091   1.791   2.799
11244TIP3    H133677   5.169   1.783   2.855
11244TIP3    H233678   5.064   1.701   2.783
11245TIP3   OH233679   5.536   6.008   5.110
11245TIP3    H133680   5.456   6.039   5.151
11245TIP3    H233681   5.590   5.977   5.183
11246TIP3   OH233682   0.772   4.418   5.304
11246TIP3    H133683   0.807   4.508   5.307
11246TIP3    H233684   0.798   4.385   5.218
11247TIP3   OH233685   7.727   6.366   0.098
11247TIP3    H133686   7.659   6.432   0.110
11247TIP3    H233687   7.781   6.373   0.177
11248TIP3   OH233688   4.661   6.796   3.632
11248TIP3    H133689   4.573   6.793   3.670
11248TIP3    H233690   4.647   6.780   3.539
11249TIP3   OH233691   5.986   2.857   1.489
11249TIP3    H133692   5.956   2.797   1.558
11249TIP3    H233693   6.080   2.839   1.480
11250TIP3   OH233694   5.385   1.155   3.185
11250TIP3    H133695   5.293   1.134   3.170
11250TIP3    H233696   5.424   1.153   3.097
11251TIP3   OH233697   6.511   5.250   3.832
11251TIP3    H133698   6.481   5.161   3.853
11251TIP3    H233699   6.481   5.264   3.742
11252TIP3   OH233700   5.292   0.779   1.851
11252TIP3    H133701   5.370   0.724   1.842
11252TIP3    H233702   5.275   0.781   1.945
11253TIP3   OH233703   5.684   0.037   1.075
11253TIP3    H133704   5.655  -0.054   1.073
11253TIP3    H233705   5.604   0.088   1.059
11254TIP3   OH233706   4.998   7.774   2.292
11254TIP3    H133707   4.944   7.785   2.214
11254TIP3    H233708   5.088   7.783   2.259
11255TIP3   OH233709   2.006   5.024   0.895
11255TIP3    H133710   2.055   4.946   0.869
11255TIP3    H233711   1.935   5.031   0.832
11256TIP3   OH233712   1.896   2.483   5.608
11256TIP3    H133713   1.986   2.452   5.612
11256TIP3    H233714   1.898   2.555   5.544
11257TIP3   OH233715   2.813   6.173   5.785
11257TIP3    H133716   2.826   6.267   5.774
11257TIP3    H233717   2.731   6.155   5.738
11258TIP3   OH233718   3.928   2.532   1.621
11258TIP3    H133719   3.906   2.590   1.694
11258TIP3    H233720   3.946   2.591   1.548
11259TIP3   OH233721   3.494   3.290   5.851
11259TIP3    H133722   3.462   3.376   5.826
11259TIP3    H233723   3.445   3.229   5.795
11260TIP3   OH233724   2.503   0.435   4.114
11260TIP3    H133725   2.446   0.454   4.189
11260TIP3    H233726   2.523   0.342   4.121
11261TIP3   OH233727   7.504   0.367   6.179
11261TIP3    H133728   7.539   0.363   6.268
11261TIP3    H233729   7.431   0.429   6.185
11262TIP3   OH233730   4.259   6.561   3.980
11262TIP3    H133731   4.179   6.548   4.031
11262TIP3    H233732   4.307   6.628   4.028
11263TIP3   OH233733   3.439   5.554   2.232
11263TIP3    H133734   3.420   5.646   2.253
11263TIP3    H233735   3.407   5.544   2.142
11264TIP3   OH233736   0.727   5.791   0.357
11264TIP3    H133737   0.703   5.812   0.448
11264TIP3    H233738   0.787   5.717   0.366
11265TIP3   OH233739   6.655   7.691   5.222
11265TIP3    H133740   6.640   7.774   5.177
11265TIP3    H233741   6.712   7.642   5.163
11266TIP3   OH233742   5.740   5.453   2.680
11266TIP3    H133743   5.662   5.495   2.716
11266TIP3    H233744   5.714   5.361   2.667
11267TIP3   OH233745   0.880   5.780   0.754
11267TIP3    H133746   0.802   5.825   0.722
11267TIP3    H233747   0.952   5.840   0.734
11268TIP3   OH233748   0.914   3.640   4.341
11268TIP3    H133749   0.826   3.614   4.369
11268TIP3    H233750   0.939   3.573   4.277
11269TIP3   OH233751   3.999   0.379   0.074
11269TIP3    H133752   4.022   0.465   0.037
11269TIP3    H233753   3.904   0.375   0.067
11270TIP3   OH233754   3.783   1.868   2.183
11270TIP3    H133755   3.735   1.785   2.193
11270TIP3    H233756   3.832   1.857   2.101
11271TIP3   OH233757   3.792   2.797   1.429
11271TIP3    H133758   3.748   2.813   1.346
11271TIP3    H233759   3.727   2.819   1.495
11272TIP3   OH233760   0.771   4.484   2.099
11272TIP3    H133761   0.773   4.388   2.102
11272TIP3    H233762   0.688   4.507   2.138
11273TIP3   OH233763   1.141   7.599   3.283
11273TIP3    H133764   1.085   7.524   3.301
11273TIP3    H233765   1.190   7.612   3.364
11274TIP3   OH233766   6.231   6.731   3.484
11274TIP3    H133767   6.163   6.749   3.549
11274TIP3    H233768   6.314   6.741   3.532
11275TIP3   OH233769   3.169   1.588   3.337
11275TIP3    H133770   3.200   1.654   3.275
11275TIP3    H233771   3.137   1.639   3.412
11276TIP3   OH233772   0.219   3.551   1.673
11276TIP3    H133773   0.309   3.528   1.650
11276TIP3    H233774   0.228   3.632   1.723
11277TIP3   OH233775   7.917   6.803   4.039
11277TIP3    H133776   7.975   6.818   4.113
11277TIP3    H233777   7.829   6.816   4.074
11278TIP3   OH233778   4.185   1.593   4.607
11278TIP3    H133779   4.102   1.583   4.561
11278TIP3    H233780   4.161   1.618   4.696
11279TIP3   OH233781   3.762   4.480   4.410
11279TIP3    H133782   3.674   4.463   4.376
11279TIP3    H233783   3.771   4.421   4.485
11280TIP3   OH233784   1.095   3.406   2.270
11280TIP3    H133785   1.110   3.445   2.184
11280TIP3    H233786   1.151   3.456   2.330
11281TIP3   OH233787   3.788   0.995   3.634
11281TIP3    H133788   3.738   0.914   3.628
11281TIP3    H233789   3.788   1.017   3.727
11282TIP3   OH233790   5.103   5.376   2.375
11282TIP3    H133791   5.132   5.364   2.465
11282TIP3    H233792   5.120   5.468   2.356
11283TIP3   OH233793   0.837   4.573   2.528
11283TIP3    H133794   0.774   4.639   2.499
11283TIP3    H233795   0.912   4.584   2.470
11284TIP3   OH233796   0.574   7.038   3.436
11284TIP3    H133797   0.617   6.972   3.381
11284TIP3    H233798   0.607   7.122   3.403
11285TIP3   OH233799   2.062   2.119   4.374
11285TIP3    H133800   2.116   2.171   4.315
11285TIP3    H233801   2.055   2.034   4.330
11286TIP3   OH233802   0.792   6.268   4.399
11286TIP3    H133803   0.699   6.286   4.410
11286TIP3    H233804   0.803   6.252   4.305
11287TIP3   OH233805   5.993   6.817   1.103
11287TIP3    H133806   6.025   6.818   1.013
11287TIP3    H233807   5.903   6.785   1.096
11288TIP3   OH233808   7.076   5.453   6.578
11288TIP3    H133809   7.013   5.452   6.650
11288TIP3    H233810   7.126   5.534   6.592
11289TIP3   OH233811   6.801   6.417   1.838
11289TIP3    H133812   6.830   6.501   1.801
11289TIP3    H233813   6.867   6.396   1.905
11290TIP3   OH233814   6.356   4.001   4.744
11290TIP3    H133815   6.342   3.916   4.786
11290TIP3    H233816   6.436   3.990   4.693
11291TIP3   OH233817   5.351   2.445   5.353
11291TIP3    H133818   5.380   2.355   5.338
11291TIP3    H233819   5.367   2.461   5.446
11292TIP3   OH233820   1.152   4.508   3.219
11292TIP3    H133821   1.196   4.442   3.272
11292TIP3    H233822   1.154   4.587   3.273
11293TIP3   OH233823   6.863   1.409   0.320
11293TIP3    H133824   6.851   1.496   0.284
11293TIP3    H233825   6.775   1.371   0.321
11294TIP3   OH233826   6.217   1.185   4.984
11294TIP3    H133827   6.192   1.141   4.903
11294TIP3    H233828   6.147   1.162   5.046
11295TIP3   OH233829   3.628   6.121   2.752
11295TIP3    H133830   3.602   6.029   2.745
11295TIP3    H233831   3.548   6.168   2.774
11296TIP3   OH233832   4.984   5.147   4.232
11296TIP3    H133833   5.073   5.174   4.253
11296TIP3    H233834   4.930   5.223   4.255
11297TIP3   OH233835   8.278   2.732   4.889
11297TIP3    H133836   8.269   2.673   4.815
11297TIP3    H233837   8.227   2.691   4.959
11298TIP3   OH233838   1.462   6.495   1.149
11298TIP3    H133839   1.410   6.573   1.170
11298TIP3    H233840   1.542   6.530   1.108
11299TIP3   OH233841   0.472   3.173   4.350
11299TIP3    H133842   0.387   3.195   4.313
11299TIP3    H233843   0.535   3.222   4.296
11300TIP3   OH233844   5.178   6.933   3.874
11300TIP3    H133845   5.229   7.010   3.851
11300TIP3    H233846   5.088   6.955   3.849
11301TIP3   OH233847   0.456   7.442   4.688
11301TIP3    H133848   0.533   7.498   4.690
11301TIP3    H233849   0.477   7.373   4.625
11302TIP3   OH233850   2.750   3.982   6.406
11302TIP3    H133851   2.709   3.995   6.321
11302TIP3    H233852   2.713   3.899   6.438
11303TIP3   OH233853   7.471   2.568   0.120
11303TIP3    H133854   7.431   2.516   0.050
11303TIP3    H233855   7.494   2.651   0.079
11304TIP3   OH233856   6.033   6.407   3.258
11304TIP3    H133857   6.020   6.318   3.291
11304TIP3    H233858   6.085   6.395   3.178
11305TIP3   OH233859   5.298   2.376   2.457
11305TIP3    H133860   5.224   2.365   2.398
11305TIP3    H233861   5.374   2.350   2.406
11306TIP3   OH233862   5.003   0.192   3.029
11306TIP3    H133863   5.095   0.171   3.042
11306TIP3    H233864   4.959   0.107   3.024
11307TIP3   OH233865   0.338   3.954   5.715
11307TIP3    H133866   0.420   3.932   5.670
11307TIP3    H233867   0.273   3.955   5.645
11308TIP3   OH233868   5.132   0.842   5.636
11308TIP3    H133869   5.110   0.923   5.683
11308TIP3    H233870   5.125   0.773   5.702
11309TIP3   OH233871   7.363   4.080   1.360
11309TIP3    H133872   7.361   4.050   1.451
11309TIP3    H233873   7.358   4.176   1.366
11310TIP3   OH233874   2.076   3.337   4.615
11310TIP3    H133875   2.108   3.372   4.698
11310TIP3    H233876   2.006   3.277   4.639
11311TIP3   OH233877   3.470   1.627   1.057
11311TIP3    H133878   3.483   1.543   1.011
11311TIP3    H233879   3.405   1.607   1.124
11312TIP3   OH233880   1.796   4.225   3.344
11312TIP3    H133881   1.748   4.144   3.362
11312TIP3    H233882   1.812   4.223   3.250
11313TIP3   OH233883   3.933   4.720   3.633
11313TIP3    H133884   3.843   4.696   3.655
11313TIP3    H233885   3.974   4.637   3.606
11314TIP3   OH233886   2.271   7.153   5.157
11314TIP3    H133887   2.282   7.132   5.250
11314TIP3    H233888   2.289   7.246   5.150
11315TIP3   OH233889   3.508   0.993   6.182
11315TIP3    H133890   3.577   0.975   6.246
11315TIP3    H233891   3.550   0.976   6.097
11316TIP3   OH233892   3.574   5.657   5.378
11316TIP3    H133893   3.553   5.581   5.432
11316TIP3    H233894   3.507   5.722   5.402
11317TIP3   OH233895   2.421   3.085   1.742
11317TIP3    H133896   2.458   2.997   1.745
11317TIP3    H233897   2.363   3.089   1.819
11318TIP3   OH233898   5.985   2.464   6.414
11318TIP3    H133899   5.946   2.534   6.467
11318TIP3    H233900   6.022   2.403   6.478
11319TIP3   OH233901   7.309   3.273   5.673
11319TIP3    H133902   7.318   3.302   5.764
11319TIP3    H233903   7.281   3.352   5.626
11320TIP3   OH233904   1.607   6.621   3.180
11320TIP3    H133905   1.591   6.663   3.096
11320TIP3    H233906   1.615   6.693   3.243
11321TIP3   OH233907   6.246   4.075   4.508
11321TIP3    H133908   6.273   4.057   4.598
11321TIP3    H233909   6.195   3.999   4.482
11322TIP3   OH233910   2.875   3.127   1.664
11322TIP3    H133911   2.885   3.105   1.757
11322TIP3    H233912   2.844   3.046   1.623
11323TIP3   OH233913   2.719   3.659   2.912
11323TIP3    H133914   2.734   3.744   2.953
11323TIP3    H233915   2.769   3.597   2.965
11324TIP3   OH233916   6.613   7.579   2.334
11324TIP3    H133917   6.626   7.674   2.330
11324TIP3    H233918   6.548   7.560   2.266
11325TIP3   OH233919   5.965   2.301   4.035
11325TIP3    H133920   5.921   2.350   4.105
11325TIP3    H233921   6.047   2.348   4.020
11326TIP3   OH233922   7.558   2.407   1.701
11326TIP3    H133923   7.635   2.427   1.754
11326TIP3    H233924   7.585   2.333   1.647
11327TIP3   OH233925   7.701   7.096   0.311
11327TIP3    H133926   7.720   7.037   0.384
11327TIP3    H233927   7.778   7.091   0.255
11328TIP3   OH233928   4.241   7.828   3.413
11328TIP3    H133929   4.264   7.735   3.409
11328TIP3    H233930   4.325   7.873   3.411
11329TIP3   OH233931   1.608   0.973   0.439
11329TIP3    H133932   1.664   1.028   0.493
11329TIP3    H233933   1.552   0.927   0.502
11330TIP3   OH233934   3.453   6.471   1.337
11330TIP3    H133935   3.459   6.465   1.432
11330TIP3    H233936   3.404   6.552   1.321
11331TIP3   OH233937   3.882   0.355   6.190
11331TIP3    H133938   3.893   0.276   6.137
11331TIP3    H233939   3.824   0.411   6.138
11332TIP3   OH233940   0.560   1.968   6.429
11332TIP3    H133941   0.650   1.972   6.461
11332TIP3    H233942   0.514   2.038   6.476
11333TIP3   OH233943   5.901   4.627   6.579
11333TIP3    H133944   5.858   4.712   6.570
11333TIP3    H233945   5.983   4.637   6.530
11334TIP3   OH233946   8.266   6.035   3.577
11334TIP3    H133947   8.179   6.015   3.543
11334TIP3    H233948   8.316   5.954   3.566
11335TIP3   OH233949   0.135   4.142   1.727
11335TIP3    H133950   0.170   4.085   1.796
11335TIP3    H233951   0.123   4.226   1.770
11336TIP3   OH233952   0.936   5.526   0.050
11336TIP3    H133953   0.937   5.617   0.021
11336TIP3    H233954   1.008   5.520   0.113
11337TIP3   OH233955   0.542   1.298   0.112
11337TIP3    H133956   0.579   1.340   0.034
11337TIP3    H233957   0.507   1.215   0.080
11338TIP3   OH233958   2.133   3.455   2.679
11338TIP3    H133959   2.078   3.506   2.738
11338TIP3    H233960   2.211   3.435   2.731
11339TIP3   OH233961   7.586   3.310   5.761
11339TIP3    H133962   7.662   3.367   5.773
11339TIP3    H233963   7.513   3.357   5.801
11340TIP3   OH233964   4.824   1.844   2.938
11340TIP3    H133965   4.824   1.883   3.025
11340TIP3    H233966   4.915   1.819   2.922
11341TIP3   OH233967   5.820   0.907   6.190
11341TIP3    H133968   5.868   0.870   6.115
11341TIP3    H233969   5.834   0.844   6.260
11342TIP3   OH233970   1.821   4.681   4.648
11342TIP3    H133971   1.885   4.750   4.667
11342TIP3    H233972   1.759   4.686   4.721
11343TIP3   OH233973   4.585   6.508   2.956
11343TIP3    H133974   4.582   6.422   2.913
11343TIP3    H233975   4.550   6.491   3.044
11344TIP3   OH233976   0.845   1.688   5.471
11344TIP3    H133977   0.875   1.770   5.510
11344TIP3    H233978   0.822   1.633   5.546
11345TIP3   OH233979   5.798   2.428   3.802
11345TIP3    H133980   5.773   2.469   3.719
11345TIP3    H233981   5.885   2.462   3.821
11346TIP3   OH233982   2.299   4.023   0.038
11346TIP3    H133983   2.367   4.012   0.104
11346TIP3    H233984   2.299   3.940  -0.011
11347TIP3   OH233985   2.864   2.565   2.477
11347TIP3    H133986   2.941   2.595   2.524
11347TIP3    H233987   2.790   2.596   2.530
11348TIP3   OH233988   4.847   5.434   4.495
11348TIP3    H133989   4.807   5.390   4.420
11348TIP3    H233990   4.854   5.525   4.468
11349TIP3   OH233991   0.765   0.326   1.121
11349TIP3    H133992   0.766   0.387   1.047
11349TIP3    H233993   0.841   0.353   1.174
11350TIP3   OH233994   1.129   6.474   2.832
11350TIP3    H133995   1.178   6.555   2.831
11350TIP3    H233996   1.038   6.500   2.816
11351TIP3   OH233997   7.804   7.207   0.823
11351TIP3    H133998   7.783   7.299   0.833
11351TIP3    H233999   7.896   7.206   0.795
11352TIP3   OH234000   0.840   5.231   2.893
11352TIP3    H134001   0.868   5.314   2.933
11352TIP3    H234002   0.772   5.198   2.951
11353TIP3   OH234003   7.016   0.258   1.997
11353TIP3    H134004   6.964   0.184   2.029
11353TIP3    H234005   6.967   0.290   1.921
11354TIP3   OH234006   6.399   2.996   2.119
11354TIP3    H134007   6.335   3.004   2.049
11354TIP3    H234008   6.369   2.921   2.171
11355TIP3   OH234009   1.348   2.297   4.905
11355TIP3    H134010   1.411   2.369   4.905
11355TIP3    H234011   1.387   2.230   4.960
11356TIP3   OH234012   7.173   4.309   0.629
11356TIP3    H134013   7.179   4.268   0.715
11356TIP3    H234014   7.120   4.249   0.577
11357TIP3   OH234015   5.394   7.557   0.407
11357TIP3    H134016   5.317   7.505   0.385
11357TIP3    H234017   5.468   7.505   0.374
11358TIP3   OH234018   7.113   5.410   2.652
11358TIP3    H134019   7.091   5.499   2.681
11358TIP3    H234020   7.105   5.356   2.731
11359TIP3   OH234021   0.863   4.686   4.305
11359TIP3    H134022   0.855   4.612   4.244
11359TIP3    H234023   0.944   4.669   4.352
11360TIP3   OH234024   6.101   7.694   2.232
11360TIP3    H134025   6.071   7.616   2.278
11360TIP3    H234026   6.060   7.688   2.145
11361TIP3   OH234027   8.268   2.240   2.960
11361TIP3    H134028   8.241   2.322   3.000
11361TIP3    H234029   8.313   2.192   3.030
11362TIP3   OH234030   7.337   6.631   5.832
11362TIP3    H134031   7.371   6.661   5.748
11362TIP3    H234032   7.391   6.555   5.855
11363TIP3   OH234033   6.287   7.578   5.393
11363TIP3    H134034   6.294   7.593   5.299
11363TIP3    H234035   6.239   7.495   5.400
11364TIP3   OH234036   4.726   3.842   6.358
11364TIP3    H134037   4.706   3.754   6.388
11364TIP3    H234038   4.648   3.894   6.380
11365TIP3   OH234039   3.280   3.395   1.030
11365TIP3    H134040   3.370   3.403   1.001
11365TIP3    H234041   3.227   3.410   0.952
11366TIP3   OH234042   3.953   4.122   1.297
11366TIP3    H134043   3.970   4.209   1.261
11366TIP3    H234044   4.009   4.117   1.374
11367TIP3   OH234045   0.551   7.325   6.292
11367TIP3    H134046   0.461   7.294   6.280
11367TIP3    H234047   0.544   7.420   6.292
11368TIP3   OH234048   5.640   7.289   4.898
11368TIP3    H134049   5.611   7.372   4.935
11368TIP3    H234050   5.565   7.259   4.847
11369TIP3   OH234051   2.651   2.719   3.670
11369TIP3    H134052   2.737   2.754   3.693
11369TIP3    H234053   2.615   2.687   3.753
11370TIP3   OH234054   4.270   3.445   5.462
11370TIP3    H134055   4.199   3.429   5.524
11370TIP3    H234056   4.236   3.415   5.378
11371TIP3   OH234057   3.602   4.894   0.026
11371TIP3    H134058   3.639   4.982   0.019
11371TIP3    H234059   3.630   4.850  -0.054
11372TIP3   OH234060   7.937   0.413   6.437
11372TIP3    H134061   7.887   0.351   6.490
11372TIP3    H234062   7.898   0.498   6.455
11373TIP3   OH234063   4.340   6.491   1.209
11373TIP3    H134064   4.268   6.543   1.244
11373TIP3    H234065   4.381   6.547   1.143
11374TIP3   OH234066   1.667   4.318   4.784
11374TIP3    H134067   1.759   4.333   4.760
11374TIP3    H234068   1.671   4.249   4.850
11375TIP3   OH234069   3.318   0.098   2.807
11375TIP3    H134070   3.320   0.105   2.711
11375TIP3    H234071   3.406   0.070   2.830
11376TIP3   OH234072   0.923   2.948   0.060
11376TIP3    H134073   1.005   2.909   0.091
11376TIP3    H234074   0.933   3.042   0.078
11377TIP3   OH234075   1.535   2.156   1.507
11377TIP3    H134076   1.620   2.115   1.489
11377TIP3    H234077   1.545   2.192   1.595
11378TIP3   OH234078   4.404   6.084   5.445
11378TIP3    H134079   4.377   6.134   5.522
11378TIP3    H234080   4.464   6.018   5.481
11379TIP3   OH234081   6.037   6.155   3.446
11379TIP3    H134082   6.051   6.066   3.415
11379TIP3    H234083   6.118   6.178   3.493
11380TIP3   OH234084   7.777   4.719   2.888
11380TIP3    H134085   7.857   4.690   2.933
11380TIP3    H234086   7.712   4.652   2.909
11381TIP3   OH234087   2.899   7.449   5.385
11381TIP3    H134088   2.817   7.467   5.339
11381TIP3    H234089   2.966   7.493   5.332
11382TIP3   OH234090   2.971   3.408   3.939
11382TIP3    H134091   3.049   3.455   3.907
11382TIP3    H234092   3.006   3.336   3.991
11383TIP3   OH234093   6.590   2.975   5.067
11383TIP3    H134094   6.552   3.063   5.062
11383TIP3    H234095   6.591   2.944   4.977
11384TIP3   OH234096   7.052   1.604   1.274
11384TIP3    H134097   6.985   1.640   1.215
11384TIP3    H234098   7.135   1.636   1.238
11385TIP3   OH234099   7.295   0.258   2.026
11385TIP3    H134100   7.200   0.252   2.013
11385TIP3    H234101   7.333   0.224   1.945
11386TIP3   OH234102   7.988   1.333   4.714
11386TIP3    H134103   7.967   1.350   4.622
11386TIP3    H234104   8.081   1.311   4.713
11387TIP3   OH234105   7.284   7.335   0.802
11387TIP3    H134106   7.314   7.283   0.877
11387TIP3    H234107   7.300   7.426   0.827
11388TIP3   OH234108   4.966   3.106   1.162
11388TIP3    H134109   4.882   3.099   1.207
11388TIP3    H234110   4.950   3.071   1.075
11389TIP3   OH234111   7.797   4.592   1.569
11389TIP3    H134112   7.805   4.561   1.659
11389TIP3    H234113   7.875   4.645   1.555
11390TIP3   OH234114   8.136   1.298   2.596
11390TIP3    H134115   8.148   1.227   2.659
11390TIP3    H234116   8.145   1.256   2.510
11391TIP3   OH234117   7.629   1.489   4.864
11391TIP3    H134118   7.684   1.505   4.941
11391TIP3    H234119   7.650   1.400   4.836
11392TIP3   OH234120   2.689   1.926   3.660
11392TIP3    H134121   2.785   1.930   3.662
11392TIP3    H234122   2.669   1.880   3.578
11393TIP3   OH234123   2.102   0.483   2.969
11393TIP3    H134124   2.194   0.477   2.994
11393TIP3    H234125   2.056   0.424   3.028
11394TIP3   OH234126   7.873   3.004   2.361
11394TIP3    H134127   7.935   3.075   2.342
11394TIP3    H234128   7.908   2.962   2.440
11395TIP3   OH234129   7.216   6.734   2.583
11395TIP3    H134130   7.134   6.782   2.579
11395TIP3    H234131   7.283   6.801   2.570
11396TIP3   OH234132   7.730   6.448   0.665
11396TIP3    H134133   7.760   6.513   0.728
11396TIP3    H234134   7.727   6.366   0.714
11397TIP3   OH234135   3.677   1.382   5.580
11397TIP3    H134136   3.753   1.325   5.577
11397TIP3    H234137   3.672   1.419   5.492
11398TIP3   OH234138   1.456   6.225   3.782
11398TIP3    H134139   1.437   6.246   3.690
11398TIP3    H234140   1.398   6.151   3.802
11399TIP3   OH234141   7.410   7.615   2.878
11399TIP3    H134142   7.362   7.694   2.854
11399TIP3    H234143   7.405   7.559   2.800
11400TIP3   OH234144   2.056   6.386   5.026
11400TIP3    H134145   2.031   6.305   4.982
11400TIP3    H234146   2.129   6.421   4.974
11401TIP3   OH234147   3.425   2.737   2.855
11401TIP3    H134148   3.472   2.817   2.876
11401TIP3    H234149   3.494   2.672   2.839
11402TIP3   OH234150   1.969   2.630   5.104
11402TIP3    H134151   1.920   2.649   5.024
11402TIP3    H234152   2.031   2.702   5.112
11403TIP3   OH234153   4.936   6.817   2.132
11403TIP3    H134154   4.944   6.891   2.193
11403TIP3    H234155   4.960   6.741   2.185
11404TIP3   OH234156   1.672   3.477   0.197
11404TIP3    H134157   1.665   3.568   0.226
11404TIP3    H234158   1.687   3.483   0.102
11405TIP3   OH234159   3.643   7.065   2.005
11405TIP3    H134160   3.640   7.159   2.023
11405TIP3    H234161   3.701   7.029   2.072
11406TIP3   OH234162   2.271   4.881   3.962
11406TIP3    H134163   2.313   4.964   3.940
11406TIP3    H234164   2.216   4.861   3.886
11407TIP3   OH234165   5.359   4.999   0.482
11407TIP3    H134166   5.317   4.919   0.452
11407TIP3    H234167   5.418   4.972   0.552
11408TIP3   OH234168   3.210   5.005   2.136
11408TIP3    H134169   3.256   5.087   2.118
11408TIP3    H234170   3.120   5.020   2.106
11409TIP3   OH234171   6.461   5.906   1.494
11409TIP3    H134172   6.434   5.982   1.442
11409TIP3    H234173   6.440   5.930   1.585
11410TIP3   OH234174   0.491   4.527   2.563
11410TIP3    H134175   0.452   4.452   2.517
11410TIP3    H234176   0.580   4.499   2.582
11411TIP3   OH234177   1.118   2.562   0.323
11411TIP3    H134178   1.188   2.496   0.322
11411TIP3    H234179   1.137   2.615   0.400
11412TIP3   OH234180   2.191   1.302   3.491
11412TIP3    H134181   2.113   1.247   3.498
11412TIP3    H234182   2.158   1.389   3.469
11413TIP3   OH234183   5.910   4.654   4.348
11413TIP3    H134184   6.005   4.649   4.350
11413TIP3    H234185   5.886   4.696   4.431
11414TIP3   OH234186   4.551   7.039   4.625
11414TIP3    H134187   4.458   7.058   4.641
11414TIP3    H234188   4.554   6.945   4.610
11415TIP3   OH234189   7.857   7.117   2.223
11415TIP3    H134190   7.806   7.043   2.256
11415TIP3    H234191   7.823   7.193   2.270
11416TIP3   OH234192   4.314   0.277   6.191
11416TIP3    H134193   4.394   0.229   6.211
11416TIP3    H234194   4.253   0.251   6.261
11417TIP3   OH234195   1.642   1.528   0.793
11417TIP3    H134196   1.729   1.538   0.831
11417TIP3    H234197   1.640   1.590   0.721
11418TIP3   OH234198   4.047   6.660   4.880
11418TIP3    H134199   4.076   6.570   4.869
11418TIP3    H234200   3.951   6.655   4.877
11419TIP3   OH234201   7.967   6.602   4.461
11419TIP3    H134202   7.903   6.545   4.419
11419TIP3    H234203   8.052   6.568   4.435
11420TIP3   OH234204   0.631   6.919   2.950
11420TIP3    H134205   0.574   6.842   2.959
11420TIP3    H234206   0.671   6.908   2.864
11421TIP3   OH234207   6.436   3.686   4.202
11421TIP3    H134208   6.367   3.726   4.255
11421TIP3    H234209   6.392   3.664   4.119
11422TIP3   OH234210   7.769   0.029   4.993
11422TIP3    H134211   7.769   0.085   4.916
11422TIP3    H234212   7.711   0.073   5.055
11423TIP3   OH234213   5.132   5.075   5.210
11423TIP3    H134214   5.038   5.058   5.213
11423TIP3    H234215   5.158   5.079   5.302
11424TIP3   OH234216   5.015   3.972   4.621
11424TIP3    H134217   5.007   3.932   4.534
11424TIP3    H234218   4.934   3.950   4.665
11425TIP3   OH234219   5.007   0.570   1.587
11425TIP3    H134220   4.914   0.568   1.566
11425TIP3    H234221   5.051   0.579   1.502
11426TIP3   OH234222   1.179   7.211   4.465
11426TIP3    H134223   1.129   7.211   4.547
11426TIP3    H234224   1.260   7.165   4.487
11427TIP3   OH234225   4.788   4.331   3.679
11427TIP3    H134226   4.802   4.279   3.600
11427TIP3    H234227   4.835   4.413   3.663
11428TIP3   OH234228   1.329   1.892   4.707
11428TIP3    H134229   1.363   1.846   4.630
11428TIP3    H234230   1.383   1.859   4.779
11429TIP3   OH234231   4.584   0.504   1.236
11429TIP3    H134232   4.607   0.425   1.188
11429TIP3    H234233   4.542   0.561   1.172
11430TIP3   OH234234   5.155   0.896   3.692
11430TIP3    H134235   5.225   0.920   3.753
11430TIP3    H234236   5.186   0.926   3.606
11431TIP3   OH234237   0.011   1.382   3.463
11431TIP3    H134238   0.018   1.330   3.543
11431TIP3    H234239   0.075   1.452   3.474
11432TIP3   OH234240   5.949   4.823   3.324
11432TIP3    H134241   5.909   4.898   3.367
11432TIP3    H234242   6.043   4.833   3.340
11433TIP3   OH234243   0.815   4.454   3.378
11433TIP3    H134244   0.754   4.390   3.342
11433TIP3    H234245   0.887   4.402   3.414
11434TIP3   OH234246   4.652   7.416   3.625
11434TIP3    H134247   4.604   7.364   3.561
11434TIP3    H234248   4.586   7.475   3.662
11435TIP3   OH234249   1.471   3.366   1.541
11435TIP3    H134250   1.451   3.339   1.631
11435TIP3    H234251   1.566   3.379   1.542
11436TIP3   OH234252   1.303   0.119   1.797
11436TIP3    H134253   1.266   0.088   1.715
11436TIP3    H234254   1.397   0.125   1.781
11437TIP3   OH234255   4.348   7.804   5.578
11437TIP3    H134256   4.411   7.732   5.586
11437TIP3    H234257   4.288   7.792   5.651
11438TIP3   OH234258   6.044   7.365   0.714
11438TIP3    H134259   6.093   7.325   0.642
11438TIP3    H234260   6.111   7.402   0.771
11439TIP3   OH234261   4.559   6.056   0.586
11439TIP3    H134262   4.465   6.036   0.588
11439TIP3    H234263   4.568   6.120   0.515
11440TIP3   OH234264   6.573   6.246   1.482
11440TIP3    H134265   6.524   6.326   1.502
11440TIP3    H234266   6.599   6.212   1.567
11441TIP3   OH234267   4.388   5.293   5.361
11441TIP3    H134268   4.307   5.323   5.403
11441TIP3    H234269   4.364   5.283   5.269
11442TIP3   OH234270   2.968   7.558   0.077
11442TIP3    H134271   3.036   7.581   0.140
11442TIP3    H234272   2.978   7.622   0.006
11443TIP3   OH234273   6.097   3.440   3.635
11443TIP3    H134274   6.137   3.371   3.689
11443TIP3    H234275   6.051   3.392   3.566
11444TIP3   OH234276   5.166   2.976   5.572
11444TIP3    H134277   5.160   3.071   5.583
11444TIP3    H234278   5.089   2.942   5.617
11445TIP3   OH234279   5.780   6.984   0.186
11445TIP3    H134280   5.783   6.949   0.275
11445TIP3    H234281   5.872   6.999   0.164
11446TIP3   OH234282   6.531   1.383   3.036
11446TIP3    H134283   6.460   1.369   2.972
11446TIP3    H234284   6.489   1.433   3.107
11447TIP3   OH234285   5.969   1.680   1.310
11447TIP3    H134286   5.908   1.606   1.309
11447TIP3    H234287   5.979   1.703   1.402
11448TIP3   OH234288   0.429   4.167   5.168
11448TIP3    H134289   0.475   4.250   5.178
11448TIP3    H234290   0.376   4.179   5.089
11449TIP3   OH234291   2.938   2.445   3.473
11449TIP3    H134292   2.957   2.429   3.380
11449TIP3    H234293   2.920   2.539   3.478
11450TIP3   OH234294   3.382   3.356   0.223
11450TIP3    H134295   3.305   3.317   0.264
11450TIP3    H234296   3.407   3.292   0.155
11451TIP3   OH234297   6.851   2.614   0.096
11451TIP3    H134298   6.942   2.605   0.069
11451TIP3    H234299   6.833   2.707   0.090
11452TIP3   OH234300   7.247   6.976   2.878
11452TIP3    H134301   7.201   7.000   2.797
11452TIP3    H234302   7.177   6.953   2.939
11453TIP3   OH234303   7.999   1.395   5.317
11453TIP3    H134304   8.001   1.474   5.370
11453TIP3    H234305   7.938   1.337   5.363
11454TIP3   OH234306   6.615   7.848   2.976
11454TIP3    H134307   6.541   7.871   2.919
11454TIP3    H234308   6.690   7.890   2.934
11455TIP3   OH234309   3.764   7.799   0.863
11455TIP3    H134310   3.714   7.732   0.908
11455TIP3    H234311   3.795   7.857   0.932
11456TIP3   OH234312   3.434   4.608   6.051
11456TIP3    H134313   3.417   4.517   6.076
11456TIP3    H234314   3.524   4.608   6.019
11457TIP3   OH234315   7.394   2.683   6.372
11457TIP3    H134316   7.484   2.692   6.403
11457TIP3    H234317   7.390   2.737   6.293
11458TIP3   OH234318   4.145   4.224   0.564
11458TIP3    H134319   4.222   4.187   0.608
11458TIP3    H234320   4.079   4.154   0.569
11459TIP3   OH234321   3.842   5.493   1.094
11459TIP3    H134322   3.934   5.473   1.107
11459TIP3    H234323   3.809   5.422   1.039
11460TIP3   OH234324   4.541   0.346   6.593
11460TIP3    H134325   4.625   0.301   6.604
11460TIP3    H234326   4.476   0.276   6.584
11461TIP3   OH234327   8.094   3.539   0.492
11461TIP3    H134328   8.080   3.464   0.435
11461TIP3    H234329   8.159   3.509   0.556
11462TIP3   OH234330   5.419   2.418   4.805
11462TIP3    H134331   5.345   2.358   4.814
11462TIP3    H234332   5.410   2.453   4.716
11463TIP3   OH234333   5.534   0.292   1.709
11463TIP3    H134334   5.488   0.315   1.789
11463TIP3    H234335   5.495   0.208   1.683
11464TIP3   OH234336   7.664   2.112   5.634
11464TIP3    H134337   7.651   2.205   5.614
11464TIP3    H234338   7.743   2.110   5.687
11465TIP3   OH234339   1.163   1.910   0.416
11465TIP3    H134340   1.187   1.964   0.341
11465TIP3    H234341   1.180   1.821   0.388
11466TIP3   OH234342   6.233   1.865   5.614
11466TIP3    H134343   6.239   1.916   5.695
11466TIP3    H234344   6.277   1.782   5.634
11467TIP3   OH234345   5.063   3.737   3.962
11467TIP3    H134346   5.154   3.713   3.976
11467TIP3    H234347   5.051   3.736   3.867
11468TIP3   OH234348   3.440   6.312   3.664
11468TIP3    H134349   3.517   6.262   3.690
11468TIP3    H234350   3.447   6.395   3.713
11469TIP3   OH234351   2.876   3.260   2.460
11469TIP3    H134352   2.968   3.237   2.455
11469TIP3    H234353   2.830   3.179   2.439
11470TIP3   OH234354   2.375   1.299   1.591
11470TIP3    H134355   2.395   1.245   1.667
11470TIP3    H234356   2.395   1.389   1.618
11471TIP3   OH234357   3.855   2.469   4.644
11471TIP3    H134358   3.810   2.389   4.615
11471TIP3    H234359   3.786   2.535   4.646
11472TIP3   OH234360   3.495   3.717   2.846
11472TIP3    H134361   3.462   3.806   2.862
11472TIP3    H234362   3.542   3.723   2.763
11473TIP3   OH234363   3.543   7.772   0.450
11473TIP3    H134364   3.624   7.781   0.399
11473TIP3    H234365   3.563   7.814   0.534
11474TIP3   OH234366   7.380   2.252   3.712
11474TIP3    H134367   7.393   2.245   3.617
11474TIP3    H234368   7.445   2.317   3.741
11475TIP3   OH234369   2.720   0.350   2.517
11475TIP3    H134370   2.686   0.423   2.569
11475TIP3    H234371   2.792   0.314   2.569
11476TIP3   OH234372   6.094   1.921   6.627
11476TIP3    H134373   6.126   1.877   6.705
11476TIP3    H234374   6.149   1.886   6.556
11477TIP3   OH234375   0.112   0.720   0.959
11477TIP3    H134376   0.052   0.666   0.908
11477TIP3    H234377   0.197   0.678   0.950
11478TIP3   OH234378   1.436   5.458   1.965
11478TIP3    H134379   1.398   5.541   1.994
11478TIP3    H234380   1.383   5.433   1.889
11479TIP3   OH234381   6.486   5.435   5.384
11479TIP3    H134382   6.534   5.478   5.454
11479TIP3    H234383   6.546   5.369   5.350
11480TIP3   OH234384   3.670   0.482   2.185
11480TIP3    H134385   3.668   0.413   2.118
11480TIP3    H234386   3.580   0.515   2.188
11481TIP3   OH234387   7.632   5.688   2.652
11481TIP3    H134388   7.567   5.633   2.608
11481TIP3    H234389   7.710   5.683   2.596
11482TIP3   OH234390   5.268   0.751   4.770
11482TIP3    H134391   5.220   0.720   4.847
11482TIP3    H234392   5.210   0.816   4.730
11483TIP3   OH234393   0.556   4.701   3.151
11483TIP3    H134394   0.560   4.705   3.246
11483TIP3    H234395   0.471   4.741   3.128
11484TIP3   OH234396   1.903   2.076   4.071
11484TIP3    H134397   1.980   2.106   4.023
11484TIP3    H234398   1.935   2.006   4.128
11485TIP3   OH234399   6.870   5.631   1.582
11485TIP3    H134400   6.792   5.621   1.637
11485TIP3    H234401   6.939   5.589   1.633
11486TIP3   OH234402   6.703   6.109   4.601
11486TIP3    H134403   6.686   6.168   4.675
11486TIP3    H234404   6.617   6.076   4.575
11487TIP3   OH234405   5.417   6.705   6.046
11487TIP3    H134406   5.443   6.717   6.137
11487TIP3    H234407   5.410   6.610   6.036
11488TIP3   OH234408   8.083   1.080   6.609
11488TIP3    H134409   7.994   1.047   6.608
11488TIP3    H234410   8.097   1.111   6.699
11489TIP3   OH234411   7.079   3.576   4.442
11489TIP3    H134412   7.126   3.502   4.481
11489TIP3    H234413   7.145   3.643   4.428
11490TIP3   OH234414   0.915   5.889   4.303
11490TIP3    H134415   0.963   5.971   4.307
11490TIP3    H234416   0.885   5.874   4.392
11491TIP3   OH234417   5.245   2.908   4.375
11491TIP3    H134418   5.245   2.926   4.281
11491TIP3    H234419   5.213   2.818   4.383
11492TIP3   OH234420   4.509   1.269   0.226
11492TIP3    H134421   4.462   1.272   0.310
11492TIP3    H234422   4.443   1.247   0.161
11493TIP3   OH234423   8.140   0.973   4.350
11493TIP3    H134424   8.171   1.059   4.379
11493TIP3    H234425   8.119   0.927   4.431
11494TIP3   OH234426   2.677   3.467   6.350
11494TIP3    H134427   2.670   3.404   6.421
11494TIP3    H234428   2.669   3.415   6.270
11495TIP3   OH234429   0.280   2.036   6.279
11495TIP3    H134430   0.312   2.033   6.369
11495TIP3    H234431   0.193   2.076   6.286
11496TIP3   OH234432   1.099   4.058   3.266
11496TIP3    H134433   1.007   4.049   3.288
11496TIP3    H234434   1.105   4.031   3.174
11497TIP3   OH234435   3.404   2.990   4.996
11497TIP3    H134436   3.332   3.034   5.041
11497TIP3    H234437   3.482   3.040   5.019
11498TIP3   OH234438   5.526   3.768   6.410
11498TIP3    H134439   5.579   3.779   6.489
11498TIP3    H234440   5.555   3.685   6.372
11499TIP3   OH234441   5.652   6.314   5.191
11499TIP3    H134442   5.647   6.382   5.258
11499TIP3    H234443   5.605   6.351   5.116
11500TIP3   OH234444   6.302   3.073   4.671
11500TIP3    H134445   6.222   3.035   4.635
11500TIP3    H234446   6.365   3.000   4.672
11501TIP3   OH234447   4.821   5.281   1.801
11501TIP3    H134448   4.897   5.304   1.748
11501TIP3    H234449   4.854   5.213   1.861
11502TIP3   OH234450   4.618   0.053   2.914
11502TIP3    H134451   4.695   0.046   2.970
11502TIP3    H234452   4.652   0.049   2.825
11503TIP3   OH234453   1.780   4.531   4.406
11503TIP3    H134454   1.790   4.593   4.479
11503TIP3    H234455   1.869   4.502   4.387
11504TIP3   OH234456   7.987   2.663   1.223
11504TIP3    H134457   8.057   2.696   1.279
11504TIP3    H234458   7.910   2.662   1.279
11505TIP3   OH234459   7.628   1.625   6.731
11505TIP3    H134460   7.616   1.589   6.643
11505TIP3    H234461   7.618   1.720   6.720
11506TIP3   OH234462   6.689   2.188   3.829
11506TIP3    H134463   6.733   2.244   3.894
11506TIP3    H234464   6.710   2.099   3.857
11507TIP3   OH234465   3.424   2.778   5.161
11507TIP3    H134466   3.435   2.846   5.095
11507TIP3    H234467   3.437   2.824   5.244
11508TIP3   OH234468   7.379   4.038   1.650
11508TIP3    H134469   7.402   3.946   1.659
11508TIP3    H234470   7.303   4.050   1.707
11509TIP3   OH234471   7.762   6.156   0.550
11509TIP3    H134472   7.829   6.101   0.508
11509TIP3    H234473   7.802   6.185   0.632
11510TIP3   OH234474   4.134   3.074   4.737
11510TIP3    H134475   4.171   3.155   4.702
11510TIP3    H234476   4.112   3.095   4.828
11511TIP3   OH234477   0.558   3.979   2.527
11511TIP3    H134478   0.566   4.037   2.452
11511TIP3    H234479   0.581   4.034   2.602
11512TIP3   OH234480   4.594   4.907   4.402
11512TIP3    H134481   4.688   4.895   4.392
11512TIP3    H234482   4.579   4.903   4.497
11513TIP3   OH234483   5.033   5.715   5.064
11513TIP3    H134484   4.990   5.799   5.049
11513TIP3    H234485   5.126   5.735   5.062
11514TIP3   OH234486   3.647   7.773   5.631
11514TIP3    H134487   3.723   7.805   5.679
11514TIP3    H234488   3.594   7.727   5.697
11515TIP3   OH234489   2.788   5.601   2.644
11515TIP3    H134490   2.815   5.594   2.735
11515TIP3    H234491   2.868   5.588   2.594
11516TIP3   OH234492   3.213   7.570   2.978
11516TIP3    H134493   3.235   7.561   2.886
11516TIP3    H234494   3.282   7.523   3.024
11517TIP3   OH234495   0.075   1.545   5.453
11517TIP3    H134496   0.037   1.610   5.511
11517TIP3    H234497   0.060   1.461   5.498
11518TIP3   OH234498   4.448   3.339   4.318
11518TIP3    H134499   4.532   3.384   4.306
11518TIP3    H234500   4.458   3.257   4.269
11519TIP3   OH234501   2.203   1.559   6.478
11519TIP3    H134502   2.143   1.553   6.552
11519TIP3    H234503   2.146   1.553   6.401
11520TIP3   OH234504   6.773   7.294   6.625
11520TIP3    H134505   6.708   7.333   6.683
11520TIP3    H234506   6.742   7.205   6.609
11521TIP3   OH234507   4.834   0.656   2.813
11521TIP3    H134508   4.830   0.750   2.830
11521TIP3    H234509   4.835   0.616   2.900
11522TIP3   OH234510   7.500   7.443   6.682
11522TIP3    H134511   7.532   7.468   6.595
11522TIP3    H234512   7.576   7.454   6.739
11523TIP3   OH234513   1.223   6.914   1.358
11523TIP3    H134514   1.232   7.008   1.339
11523TIP3    H234515   1.145   6.908   1.412
11524TIP3   OH234516   4.063   1.674   4.879
11524TIP3    H134517   4.101   1.738   4.940
11524TIP3    H234518   4.030   1.605   4.936
11525TIP3   OH234519   0.323   1.134   5.034
11525TIP3    H134520   0.415   1.113   5.021
11525TIP3    H234521   0.300   1.091   5.117
11526TIP3   OH234522   3.245   4.614   3.672
11526TIP3    H134523   3.173   4.668   3.640
11526TIP3    H234524   3.288   4.668   3.739
11527TIP3   OH234525   4.414   7.703   4.929
11527TIP3    H134526   4.373   7.777   4.886
11527TIP3    H234527   4.492   7.684   4.876
11528TIP3   OH234528   8.142   7.139   4.169
11528TIP3    H134529   8.068   7.160   4.111
11528TIP3    H234530   8.219   7.170   4.122
11529TIP3   OH234531   2.753   5.964   1.839
11529TIP3    H134532   2.842   5.952   1.804
11529TIP3    H234533   2.697   5.921   1.775
11530TIP3   OH234534   5.345   4.650   6.114
11530TIP3    H134535   5.290   4.573   6.125
11530TIP3    H234536   5.285   4.724   6.125
11531TIP3   OH234537   2.649   5.765   0.128
11531TIP3    H134538   2.617   5.851   0.099
11531TIP3    H234539   2.622   5.759   0.220
11532TIP3   OH234540   8.069   4.653   2.816
11532TIP3    H134541   8.056   4.740   2.853
11532TIP3    H234542   8.104   4.669   2.729
11533TIP3   OH234543   3.610   6.863   1.210
11533TIP3    H134544   3.615   6.901   1.123
11533TIP3    H234545   3.686   6.900   1.257
11534TIP3   OH234546   0.392   5.497   5.697
11534TIP3    H134547   0.468   5.508   5.754
11534TIP3    H234548   0.428   5.463   5.615
11535TIP3   OH234549   6.454   7.412   4.338
11535TIP3    H134550   6.387   7.448   4.281
11535TIP3    H234551   6.433   7.447   4.425
11536TIP3   OH234552   8.057   7.822   5.077
11536TIP3    H134553   8.004   7.743   5.065
11536TIP3    H234554   8.144   7.797   5.045
11537TIP3   OH234555   0.229   5.959   1.131
11537TIP3    H134556   0.227   6.051   1.103
11537TIP3    H234557   0.304   5.921   1.085
11538TIP3   OH234558   6.171   7.381   0.173
11538TIP3    H134559   6.186   7.473   0.197
11538TIP3    H234560   6.182   7.379   0.078
11539TIP3   OH234561   2.924   6.923   6.626
11539TIP3    H134562   2.886   6.838   6.648
11539TIP3    H234563   2.867   6.958   6.558
11540TIP3   OH234564   4.080   3.735   5.226
11540TIP3    H134565   4.117   3.822   5.208
11540TIP3    H234566   4.073   3.694   5.140
11541TIP3   OH234567   8.245   5.429   6.231
11541TIP3    H134568   8.157   5.462   6.216
11541TIP3    H234569   8.301   5.507   6.227
11542TIP3   OH234570   2.855   1.216   3.576
11542TIP3    H134571   2.772   1.259   3.594
11542TIP3    H234572   2.903   1.279   3.521
11543TIP3   OH234573   2.089   7.675   2.605
11543TIP3    H134574   2.057   7.765   2.602
11543TIP3    H234575   2.011   7.622   2.621
11544TIP3   OH234576   1.826   5.210   1.828
11544TIP3    H134577   1.774   5.137   1.860
11544TIP3    H234578   1.917   5.180   1.834
11545TIP3   OH234579   7.467   2.005   3.473
11545TIP3    H134580   7.560   1.983   3.467
11545TIP3    H234581   7.422   1.920   3.464
11546TIP3   OH234582   5.128   4.680   3.554
11546TIP3    H134583   5.197   4.634   3.507
11546TIP3    H234584   5.165   4.767   3.572
11547TIP3   OH234585   5.251   1.170   2.504
11547TIP3    H134586   5.217   1.167   2.414
11547TIP3    H234587   5.172   1.170   2.559
11548TIP3   OH234588   0.225   6.927   2.275
11548TIP3    H134589   0.244   7.015   2.243
11548TIP3    H234590   0.139   6.936   2.317
11549TIP3   OH234591   6.586   6.154   6.158
11549TIP3    H134592   6.627   6.068   6.144
11549TIP3    H234593   6.496   6.134   6.183
11550TIP3   OH234594   6.157   5.596   1.339
11550TIP3    H134595   6.176   5.689   1.332
11550TIP3    H234596   6.125   5.571   1.253
11551TIP3   OH234597   1.364   4.023   0.373
11551TIP3    H134598   1.435   3.997   0.314
11551TIP3    H234599   1.369   3.960   0.445
11552TIP3   OH234600   3.990   4.694   1.637
11552TIP3    H134601   3.998   4.789   1.629
11552TIP3    H234602   4.024   4.660   1.554
11553TIP3   OH234603   7.167   1.472   5.915
11553TIP3    H134604   7.104   1.440   5.980
11553TIP3    H234605   7.163   1.567   5.922
11554TIP3   OH234606   6.977   2.068   0.167
11554TIP3    H134607   6.972   2.138   0.233
11554TIP3    H234608   6.982   1.987   0.218
11555TIP3   OH234609   1.334   5.019   5.829
11555TIP3    H134610   1.389   5.085   5.786
11555TIP3    H234611   1.329   4.948   5.765
11556TIP3   OH234612   7.280   7.769   6.771
11556TIP3    H134613   7.354   7.821   6.802
11556TIP3    H234614   7.307   7.739   6.684
11557TIP3   OH234615   3.648   2.154   1.752
11557TIP3    H134616   3.722   2.211   1.773
11557TIP3    H234617   3.612   2.191   1.671
11558TIP3   OH234618   1.705   1.358   3.025
11558TIP3    H134619   1.631   1.377   3.082
11558TIP3    H234620   1.782   1.379   3.077
11559TIP3   OH234621   4.348   4.451   4.215
11559TIP3    H134622   4.443   4.438   4.219
11559TIP3    H234623   4.312   4.372   4.254
11560TIP3   OH234624   2.845   0.725   4.215
11560TIP3    H134625   2.812   0.661   4.278
11560TIP3    H234626   2.894   0.788   4.268
11561TIP3   OH234627   2.450   0.273   2.358
11561TIP3    H134628   2.512   0.314   2.417
11561TIP3    H234629   2.404   0.209   2.412
11562TIP3   OH234630   6.571   0.062   5.315
11562TIP3    H134631   6.554   0.060   5.221
11562TIP3    H234632   6.550  -0.026   5.346
11563TIP3   OH234633   6.364   2.443   6.464
11563TIP3    H134634   6.441   2.495   6.488
11563TIP3    H234635   6.355   2.456   6.370
11564TIP3   OH234636   3.685   1.729   4.426
11564TIP3    H134637   3.630   1.804   4.403
11564TIP3    H234638   3.622   1.659   4.445
11565TIP3   OH234639   8.033   2.891   0.038
11565TIP3    H134640   8.027   2.827   0.108
11565TIP3    H234641   8.065   2.842  -0.038
11566TIP3   OH234642   7.878   2.866   3.243
11566TIP3    H134643   7.966   2.839   3.217
11566TIP3    H234644   7.892   2.943   3.298
11567TIP3   OH234645   6.425   7.303   5.971
11567TIP3    H134646   6.358   7.305   6.039
11567TIP3    H234647   6.380   7.331   5.892
11568TIP3   OH234648   7.287   5.405   6.419
11568TIP3    H134649   7.323   5.364   6.498
11568TIP3    H234650   7.194   5.417   6.439
11569TIP3   OH234651   7.073   3.607   4.018
11569TIP3    H134652   7.089   3.514   4.033
11569TIP3    H234653   7.158   3.642   3.991
11570TIP3   OH234654   4.364   5.451   2.920
11570TIP3    H134655   4.324   5.453   3.007
11570TIP3    H234656   4.291   5.458   2.859
11571TIP3   OH234657   5.914   0.051   3.036
11571TIP3    H134658   5.966  -0.020   2.997
11571TIP3    H234659   5.975   0.099   3.091
11572TIP3   OH234660   7.022   5.791   2.048
11572TIP3    H134661   6.994   5.768   2.136
11572TIP3    H234662   7.070   5.714   2.017
11573TIP3   OH234663   1.870   7.715   0.597
11573TIP3    H134664   1.796   7.735   0.655
11573TIP3    H234665   1.941   7.769   0.630
11574TIP3   OH234666   1.175   3.295   4.771
11574TIP3    H134667   1.261   3.332   4.789
11574TIP3    H234668   1.143   3.342   4.694
11575TIP3   OH234669   2.830   6.552   2.550
11575TIP3    H134670   2.886   6.480   2.523
11575TIP3    H234671   2.755   6.510   2.592
11576TIP3   OH234672   1.196   6.008   4.062
11576TIP3    H134673   1.265   5.971   4.116
11576TIP3    H234674   1.135   6.047   4.124
11577TIP3   OH234675   3.505   5.163   0.289
11577TIP3    H134676   3.507   5.077   0.330
11577TIP3    H234677   3.451   5.151   0.210
11578TIP3   OH234678   3.945   7.182   5.112
11578TIP3    H134679   4.024   7.225   5.145
11578TIP3    H234680   3.955   7.181   5.017
11579TIP3   OH234681   4.665   3.509   0.324
11579TIP3    H134682   4.614   3.442   0.368
11579TIP3    H234683   4.729   3.460   0.272
11580TIP3   OH234684   6.923   0.485   0.555
11580TIP3    H134685   6.856   0.554   0.560
11580TIP3    H234686   6.911   0.434   0.635
11581TIP3   OH234687   7.770   5.714   4.851
11581TIP3    H134688   7.830   5.761   4.908
11581TIP3    H234689   7.802   5.731   4.763
11582TIP3   OH234690   3.350   5.258   1.601
11582TIP3    H134691   3.411   5.273   1.673
11582TIP3    H234692   3.400   5.203   1.539
11583TIP3   OH234693   0.669   1.817   3.319
11583TIP3    H134694   0.590   1.763   3.318
11583TIP3    H234695   0.637   1.907   3.319
11584TIP3   OH234696   6.149   6.752   2.444
11584TIP3    H134697   6.096   6.673   2.431
11584TIP3    H234698   6.239   6.722   2.435
11585TIP3   OH234699   4.902   1.576   0.789
11585TIP3    H134700   4.896   1.513   0.717
11585TIP3    H234701   4.992   1.567   0.821
11586TIP3   OH234702   7.715   7.433   0.968
11586TIP3    H134703   7.705   7.519   1.009
11586TIP3    H234704   7.694   7.448   0.876
11587TIP3   OH234705   3.152   3.108   3.621
11587TIP3    H134706   3.063   3.087   3.651
11587TIP3    H234707   3.209   3.078   3.691
11588TIP3   OH234708   2.318   1.516   3.053
11588TIP3    H134709   2.264   1.442   3.080
11588TIP3    H234710   2.371   1.482   2.982
11589TIP3   OH234711   0.782   5.077   2.444
11589TIP3    H134712   0.843   5.134   2.492
11589TIP3    H234713   0.821   5.068   2.357
11590TIP3   OH234714   4.417   6.656   1.907
11590TIP3    H134715   4.416   6.590   1.976
11590TIP3    H234716   4.510   6.676   1.895
11591TIP3   OH234717   6.370   2.662   4.337
11591TIP3    H134718   6.363   2.586   4.280
11591TIP3    H234719   6.398   2.733   4.279
11592TIP3   OH234720   2.261   6.817   3.315
11592TIP3    H134721   2.218   6.739   3.348
11592TIP3    H234722   2.215   6.890   3.358
11593TIP3   OH234723   2.551   7.111   0.377
11593TIP3    H134724   2.528   7.020   0.355
11593TIP3    H234725   2.555   7.111   0.473
11594TIP3   OH234726   2.218   3.181   3.930
11594TIP3    H134727   2.137   3.209   3.973
11594TIP3    H234728   2.279   3.167   4.002
11595TIP3   OH234729   3.732   0.491   3.104
11595TIP3    H134730   3.815   0.457   3.137
11595TIP3    H234731   3.750   0.582   3.081
11596TIP3   OH234732   5.351   0.664   3.296
11596TIP3    H134733   5.404   0.585   3.291
11596TIP3    H234734   5.373   0.713   3.216
11597TIP3   OH234735   3.620   3.898   4.027
11597TIP3    H134736   3.602   3.806   4.047
11597TIP3    H234737   3.571   3.947   4.093
11598TIP3   OH234738   4.781   5.916   3.375
11598TIP3    H134739   4.876   5.922   3.363
11598TIP3    H234740   4.746   5.912   3.286
11599TIP3   OH234741   7.482   1.874   2.987
11599TIP3    H134742   7.497   1.887   2.893
11599TIP3    H234743   7.427   1.795   2.991
11600TIP3   OH234744   7.576   3.840   1.244
11600TIP3    H134745   7.531   3.828   1.161
11600TIP3    H234746   7.511   3.881   1.301
11601TIP3   OH234747   7.234   6.246   4.119
11601TIP3    H134748   7.192   6.164   4.095
11601TIP3    H234749   7.328   6.228   4.114
11602TIP3   OH234750   4.820   6.444   1.348
11602TIP3    H134751   4.830   6.463   1.442
11602TIP3    H234752   4.836   6.350   1.342
11603TIP3   OH234753   5.932   6.490   5.052
11603TIP3    H134754   5.904   6.442   4.974
11603TIP3    H234755   5.975   6.424   5.106
11604TIP3   OH234756   3.478   6.431   3.111
11604TIP3    H134757   3.562   6.474   3.095
11604TIP3    H234758   3.484   6.399   3.201
11605TIP3   OH234759   8.318   3.985   5.205
11605TIP3    H134760   8.266   3.988   5.285
11605TIP3    H234761   8.265   4.031   5.139
11606TIP3   OH234762   6.861   7.500   1.882
11606TIP3    H134763   6.783   7.499   1.937
11606TIP3    H234764   6.915   7.429   1.915
11607TIP3   OH234765   0.084   6.463   2.427
11607TIP3    H134766   0.133   6.406   2.487
11607TIP3    H234767   0.084   6.548   2.470
11608TIP3   OH234768   2.096   2.181   6.516
11608TIP3    H134769   2.160   2.125   6.473
11608TIP3    H234770   2.141   2.265   6.527
11609TIP3   OH234771   1.951   0.268   0.142
11609TIP3    H134772   1.899   0.348   0.145
11609TIP3    H234773   2.027   0.291   0.088
11610TIP3   OH234774   1.289   4.287   4.669
11610TIP3    H134775   1.377   4.252   4.653
11610TIP3    H234776   1.282   4.288   4.765
11611TIP3   OH234777   1.583   0.178   1.385
11611TIP3    H134778   1.579   0.251   1.447
11611TIP3    H234779   1.584   0.221   1.299
11612TIP3   OH234780   1.143   2.934   2.922
11612TIP3    H134781   1.184   2.900   3.002
11612TIP3    H234782   1.149   2.862   2.860
11613TIP3   OH234783   6.130   1.156   5.279
11613TIP3    H134784   6.124   1.242   5.239
11613TIP3    H234785   6.134   1.174   5.373
11614TIP3   OH234786   2.294   6.460   5.607
11614TIP3    H134787   2.350   6.445   5.531
11614TIP3    H234788   2.232   6.527   5.578
11615TIP3   OH234789   7.052   6.187   0.119
11615TIP3    H134790   6.995   6.243   0.066
11615TIP3    H234791   7.001   6.107   0.133
11616TIP3   OH234792   0.754   0.310   6.178
11616TIP3    H134793   0.834   0.262   6.153
11616TIP3    H234794   0.683   0.252   6.153
11617TIP3   OH234795   3.125   7.738   4.512
11617TIP3    H134796   3.191   7.729   4.581
11617TIP3    H234797   3.041   7.735   4.557
11618TIP3   OH234798   8.069   2.785   2.228
11618TIP3    H134799   8.082   2.879   2.213
11618TIP3    H234800   8.057   2.777   2.322
11619TIP3   OH234801   1.862   6.287   0.969
11619TIP3    H134802   1.774   6.249   0.973
11619TIP3    H234803   1.857   6.365   1.024
11620TIP3   OH234804   2.529   2.017   1.923
11620TIP3    H134805   2.555   1.928   1.898
11620TIP3    H234806   2.588   2.074   1.875
11621TIP3   OH234807   5.623   7.193   0.033
11621TIP3    H134808   5.697   7.133   0.040
11621TIP3    H234809   5.639   7.259   0.100
11622TIP3   OH234810   3.876   1.615   5.571
11622TIP3    H134811   3.831   1.565   5.638
11622TIP3    H234812   3.806   1.660   5.523
11623TIP3   OH234813   4.482   5.071   5.508
11623TIP3    H134814   4.463   5.135   5.440
11623TIP3    H234815   4.474   5.120   5.590
11624TIP3   OH234816   3.030   0.373   4.223
11624TIP3    H134817   3.109   0.427   4.213
11624TIP3    H234818   3.018   0.333   4.137
11625TIP3   OH234819   8.175   6.007   3.311
11625TIP3    H134820   8.245   5.945   3.330
11625TIP3    H234821   8.216   6.073   3.255
11626TIP3   OH234822   8.258   0.274   3.663
11626TIP3    H134823   8.200   0.269   3.739
11626TIP3    H234824   8.259   0.185   3.628
11627TIP3   OH234825   2.482   3.568   4.152
11627TIP3    H134826   2.404   3.515   4.169
11627TIP3    H234827   2.497   3.615   4.233
11628TIP3   OH234828   4.938   7.810   1.726
11628TIP3    H134829   4.950   7.716   1.713
11628TIP3    H234830   4.926   7.845   1.638
11629TIP3   OH234831   0.508   0.974   5.285
11629TIP3    H134832   0.468   1.059   5.303
11629TIP3    H234833   0.601   0.987   5.300
11630TIP3   OH234834   1.538   3.676   1.541
11630TIP3    H134835   1.540   3.679   1.446
11630TIP3    H234836   1.540   3.582   1.562
11631TIP3   OH234837   0.220   3.995   1.938
11631TIP3    H134838   0.143   3.939   1.947
11631TIP3    H234839   0.267   3.985   2.021
11632TIP3   OH234840   5.735   3.464   2.571
11632TIP3    H134841   5.702   3.553   2.561
11632TIP3    H234842   5.657   3.411   2.586
11633TIP3   OH234843   5.561   6.915   3.227
11633TIP3    H134844   5.601   6.828   3.222
11633TIP3    H234845   5.601   6.964   3.154
11634TIP3   OH234846   2.001   0.404   1.661
11634TIP3    H134847   1.980   0.317   1.628
11634TIP3    H234848   1.980   0.401   1.754
11635TIP3   OH234849   3.919   5.576   0.698
11635TIP3    H134850   3.914   5.525   0.778
11635TIP3    H234851   3.888   5.517   0.629
11636TIP3   OH234852   0.355   4.811   2.995
11636TIP3    H134853   0.269   4.836   2.962
11636TIP3    H234854   0.378   4.732   2.945
11637TIP3   OH234855   3.468   5.532   3.920
11637TIP3    H134856   3.422   5.609   3.952
11637TIP3    H234857   3.399   5.467   3.904
11638TIP3   OH234858   2.941   2.298   6.507
11638TIP3    H134859   2.887   2.366   6.466
11638TIP3    H234860   2.922   2.218   6.459
11639TIP3   OH234861   1.391   5.203   1.624
11639TIP3    H134862   1.342   5.203   1.542
11639TIP3    H234863   1.473   5.248   1.603
11640TIP3   OH234864   3.168   2.706   0.147
11640TIP3    H134865   3.242   2.758   0.178
11640TIP3    H234866   3.101   2.770   0.123
11641TIP3   OH234867   6.153   3.397   6.628
11641TIP3    H134868   6.087   3.417   6.695
11641TIP3    H234869   6.191   3.313   6.656
11642TIP3   OH234870   7.217   5.753   1.111
11642TIP3    H134871   7.176   5.718   1.032
11642TIP3    H234872   7.164   5.829   1.134
11643TIP3   OH234873   2.224   7.600   0.465
11643TIP3    H134874   2.263   7.677   0.508
11643TIP3    H234875   2.295   7.564   0.413
11644TIP3   OH234876   1.671   5.589   2.959
11644TIP3    H134877   1.654   5.669   3.009
11644TIP3    H234878   1.584   5.554   2.939
11645TIP3   OH234879   4.749   4.969   3.592
11645TIP3    H134880   4.769   4.882   3.627
11645TIP3    H234881   4.669   4.995   3.637
11646TIP3   OH234882   6.022   1.068   4.335
11646TIP3    H134883   5.930   1.042   4.339
11646TIP3    H234884   6.066   1.013   4.400
11647TIP3   OH234885   3.334   2.396   0.874
11647TIP3    H134886   3.407   2.449   0.840
11647TIP3    H234887   3.324   2.326   0.810
11648TIP3   OH234888   6.672   5.233   4.633
11648TIP3    H134889   6.746   5.278   4.673
11648TIP3    H234890   6.594   5.272   4.673
11649TIP3   OH234891   0.800   5.576   4.305
11649TIP3    H134892   0.768   5.566   4.394
11649TIP3    H234893   0.893   5.556   4.310
11650TIP3   OH234894   3.789   3.933   2.960
11650TIP3    H134895   3.742   3.916   2.879
11650TIP3    H234896   3.727   3.912   3.030
11651TIP3   OH234897   6.914   5.496   0.627
11651TIP3    H134898   6.909   5.479   0.721
11651TIP3    H234899   6.933   5.411   0.588
11652TIP3   OH234900   2.196   6.604   0.384
11652TIP3    H134901   2.180   6.697   0.372
11652TIP3    H234902   2.170   6.586   0.474
11653TIP3   OH234903   7.873   3.674   3.586
11653TIP3    H134904   7.929   3.752   3.591
11653TIP3    H234905   7.848   3.658   3.677
11654TIP3   OH234906   4.002   6.705   6.652
11654TIP3    H134907   4.067   6.714   6.582
11654TIP3    H234908   4.054   6.698   6.732
11655TIP3   OH234909   4.545   1.755   0.265
11655TIP3    H134910   4.535   1.803   0.348
11655TIP3    H234911   4.635   1.721   0.268
11656TIP3   OH234912   2.291   0.058   1.670
11656TIP3    H134913   2.256  -0.029   1.653
11656TIP3    H234914   2.338   0.081   1.591
11657TIP3   OH234915   7.994   6.758   0.584
11657TIP3    H134916   8.082   6.728   0.563
11657TIP3    H234917   7.972   6.713   0.666
11658TIP3   OH234918   2.640   1.421   6.656
11658TIP3    H134919   2.673   1.425   6.745
11658TIP3    H234920   2.545   1.423   6.666
11659TIP3   OH234921   2.623   0.859   1.259
11659TIP3    H134922   2.706   0.898   1.285
11659TIP3    H234923   2.565   0.935   1.246
11660TIP3   OH234924   1.686   0.883   5.618
11660TIP3    H134925   1.741   0.960   5.609
11660TIP3    H234926   1.729   0.815   5.566
11661TIP3   OH234927   3.234   0.351   1.938
11661TIP3    H134928   3.241   0.275   1.879
11661TIP3    H234929   3.305   0.409   1.911
11662TIP3   OH234930   5.807   5.845   4.909
11662TIP3    H134931   5.871   5.903   4.949
11662TIP3    H234932   5.855   5.801   4.839
11663TIP3   OH234933   7.797   3.673   1.875
11663TIP3    H134934   7.802   3.685   1.780
11663TIP3    H234935   7.740   3.743   1.905
11664TIP3   OH234936   4.506   6.029   6.510
11664TIP3    H134937   4.520   5.937   6.488
11664TIP3    H234938   4.441   6.059   6.446
11665TIP3   OH234939   5.378   7.141   0.437
11665TIP3    H134940   5.313   7.087   0.391
11665TIP3    H234941   5.334   7.224   0.450
11666TIP3   OH234942   7.484   0.778   3.288
11666TIP3    H134943   7.467   0.729   3.208
11666TIP3    H234944   7.574   0.809   3.280
11667TIP3   OH234945   6.960   6.677   1.828
11667TIP3    H134946   7.035   6.624   1.857
11667TIP3    H234947   6.995   6.735   1.761
11668TIP3   OH234948   7.866   1.174   5.424
11668TIP3    H134949   7.862   1.113   5.351
11668TIP3    H234950   7.845   1.121   5.501
11669TIP3   OH234951   3.070   5.302   4.347
11669TIP3    H134952   3.070   5.379   4.404
11669TIP3    H234953   3.101   5.335   4.263
11670TIP3   OH234954   4.421   5.130   1.094
11670TIP3    H134955   4.484   5.101   1.161
11670TIP3    H234956   4.427   5.226   1.096
11671TIP3   OH234957   2.279   6.663   6.581
11671TIP3    H134958   2.262   6.749   6.544
11671TIP3    H234959   2.373   6.650   6.571
11672TIP3   OH234960   1.658   1.775   4.301
11672TIP3    H134961   1.637   1.840   4.235
11672TIP3    H234962   1.740   1.735   4.271
11673TIP3   OH234963   6.223   0.482   0.087
11673TIP3    H134964   6.303   0.469   0.036
11673TIP3    H234965   6.242   0.442   0.172
11674TIP3   OH234966   0.521   0.957   4.292
11674TIP3    H134967   0.576   0.995   4.223
11674TIP3    H234968   0.561   0.988   4.374
11675TIP3   OH234969   4.093   7.421   3.544
11675TIP3    H134970   4.091   7.327   3.566
11675TIP3    H234971   4.154   7.459   3.607
11676TIP3   OH234972   3.619   4.186   2.236
11676TIP3    H134973   3.678   4.261   2.246
11676TIP3    H234974   3.560   4.211   2.166
11677TIP3   OH234975   3.302   2.348   6.000
11677TIP3    H134976   3.252   2.382   5.926
11677TIP3    H234977   3.393   2.345   5.969
11678TIP3   OH234978   7.028   7.126   5.494
11678TIP3    H134979   7.016   7.031   5.493
11678TIP3    H234980   6.953   7.160   5.446
11679TIP3   OH234981   1.721   4.057   0.843
11679TIP3    H134982   1.690   4.051   0.933
11679TIP3    H234983   1.808   4.095   0.850
11680TIP3   OH234984   4.830   4.434   0.883
11680TIP3    H134985   4.772   4.508   0.863
11680TIP3    H234986   4.915   4.460   0.847
11681TIP3   OH234987   4.858   5.611   1.529
11681TIP3    H134988   4.908   5.693   1.528
11681TIP3    H234989   4.820   5.605   1.442
11682TIP3   OH234990   6.236   5.672   2.818
11682TIP3    H134991   6.190   5.654   2.900
11682TIP3    H234992   6.280   5.589   2.798
11683TIP3   OH234993   2.436   0.853   0.297
11683TIP3    H134994   2.516   0.903   0.310
11683TIP3    H234995   2.400   0.887   0.215
11684TIP3   OH234996   1.178   4.324   0.736
11684TIP3    H134997   1.182   4.334   0.831
11684TIP3    H234998   1.211   4.235   0.720
11685TIP3   OH234999   7.424   2.527   4.440
11685TIP3    H135000   7.403   2.620   4.432
11685TIP3    H235001   7.401   2.490   4.355
11686TIP3   OH235002   7.081   6.142   1.418
11686TIP3    H135003   7.086   6.236   1.407
11686TIP3    H235004   7.105   6.106   1.333
11687TIP3   OH235005   7.001   2.407   6.462
11687TIP3    H135006   6.925   2.464   6.451
11687TIP3    H235007   7.065   2.460   6.509
11688TIP3   OH235008   0.290   7.441   4.010
11688TIP3    H135009   0.375   7.483   4.019
11688TIP3    H235010   0.308   7.357   3.968
11689TIP3   OH235011   1.197   4.845   4.734
11689TIP3    H135012   1.224   4.936   4.722
11689TIP3    H235013   1.279   4.795   4.731
11690TIP3   OH235014   4.093   6.859   3.546
11690TIP3    H135015   4.093   6.781   3.490
11690TIP3    H235016   4.002   6.867   3.576
11691TIP3   OH235017   1.744   7.724   1.615
11691TIP3    H135018   1.822   7.745   1.563
11691TIP3    H235019   1.714   7.809   1.647
11692TIP3   OH235020   0.846   5.138   4.336
11692TIP3    H135021   0.759   5.176   4.343
11692TIP3    H235022   0.833   5.045   4.356
11693TIP3   OH235023   0.484   6.228   1.133
11693TIP3    H135024   0.502   6.319   1.111
11693TIP3    H235025   0.423   6.233   1.207
11694TIP3   OH235026   0.412   6.045   1.547
11694TIP3    H135027   0.415   6.070   1.639
11694TIP3    H235028   0.319   6.033   1.528
11695TIP3   OH235029   2.404   6.063   1.412
11695TIP3    H135030   2.350   6.132   1.376
11695TIP3    H235031   2.341   6.003   1.453
11696TIP3   OH235032   3.956   3.560   2.044
11696TIP3    H135033   3.992   3.627   2.102
11696TIP3    H235034   3.862   3.572   2.049
11697TIP3   OH235035   3.980   3.526   0.366
11697TIP3    H135036   3.904   3.487   0.409
11697TIP3    H235037   4.021   3.454   0.319
11698TIP3   OH235038   6.938   2.516   1.772
11698TIP3    H135039   7.000   2.502   1.700
11698TIP3    H235040   6.956   2.604   1.803
11699TIP3   OH235041   5.155   5.556   4.392
11699TIP3    H135042   5.073   5.596   4.423
11699TIP3    H235043   5.219   5.627   4.399
11700TIP3   OH235044   4.224   7.163   4.894
11700TIP3    H135045   4.133   7.175   4.867
11700TIP3    H235046   4.264   7.250   4.884
11701TIP3   OH235047   7.159   4.701   6.483
11701TIP3    H135048   7.178   4.643   6.409
11701TIP3    H235049   7.136   4.641   6.554
11702TIP3   OH235050   8.068   6.549   4.120
11702TIP3    H135051   8.127   6.531   4.047
11702TIP3    H235052   8.119   6.529   4.199
11703TIP3   OH235053   5.829   1.198   2.624
11703TIP3    H135054   5.794   1.140   2.692
11703TIP3    H235055   5.762   1.197   2.555
11704TIP3   OH235056   7.106   6.561   0.119
11704TIP3    H135057   7.124   6.622   0.191
11704TIP3    H235058   7.027   6.515   0.147
11705TIP3   OH235059   0.342   0.188   2.329
11705TIP3    H135060   0.274   0.227   2.385
11705TIP3    H235061   0.307   0.102   2.305
11706TIP3   OH235062   2.005   5.302   4.183
11706TIP3    H135063   1.919   5.344   4.179
11706TIP3    H235064   1.996   5.224   4.129
11707TIP3   OH235065   1.254   5.579   3.736
11707TIP3    H135066   1.208   5.606   3.815
11707TIP3    H235067   1.241   5.651   3.674
11708TIP3   OH235068   8.241   4.957   5.159
11708TIP3    H135069   8.207   5.016   5.226
11708TIP3    H235070   8.241   5.010   5.079
11709TIP3   OH235071   5.194   1.427   3.237
11709TIP3    H135072   5.178   1.370   3.313
11709TIP3    H235073   5.161   1.377   3.162
11710TIP3   OH235074   8.119   0.135   6.295
11710TIP3    H135075   8.125   0.090   6.379
11710TIP3    H235076   8.161   0.220   6.310
11711TIP3   OH235077   3.907   0.982   5.442
11711TIP3    H135078   3.871   0.985   5.531
11711TIP3    H235079   3.914   0.889   5.422
11712TIP3   OH235080   0.065   7.683   2.559
11712TIP3    H135081  -0.012   7.721   2.601
11712TIP3    H235082   0.046   7.687   2.465
11713TIP3   OH235083   0.913   6.835   2.925
11713TIP3    H135084   0.905   6.892   2.849
11713TIP3    H235085   0.892   6.748   2.892
11714TIP3   OH235086   5.129   6.271   5.453
11714TIP3    H135087   5.183   6.331   5.400
11714TIP3    H235088   5.083   6.217   5.389
11715TIP3   OH235089   7.879   3.953   3.692
11715TIP3    H135090   7.784   3.955   3.706
11715TIP3    H235091   7.891   3.995   3.607
11716TIP3   OH235092   4.742   1.081   6.439
11716TIP3    H135093   4.698   0.996   6.431
11716TIP3    H235094   4.681   1.143   6.399
11717TIP3   OH235095   1.156   1.451   4.351
11717TIP3    H135096   1.123   1.506   4.279
11717TIP3    H235097   1.110   1.482   4.428
11718TIP3   OH235098   7.555   7.658   4.075
11718TIP3    H135099   7.522   7.691   3.992
11718TIP3    H235100   7.540   7.564   4.072
11719TIP3   OH235101   7.779   3.120   1.365
11719TIP3    H135102   7.743   3.033   1.384
11719TIP3    H235103   7.788   3.162   1.451
11720TIP3   OH235104   4.673   2.334   5.157
11720TIP3    H135105   4.666   2.399   5.087
11720TIP3    H235106   4.592   2.344   5.207
11721TIP3   OH235107   2.795   3.640   5.656
11721TIP3    H135108   2.712   3.649   5.701
11721TIP3    H235109   2.825   3.730   5.644
11722TIP3   OH235110   4.018   7.320   0.531
11722TIP3    H135111   4.023   7.283   0.619
11722TIP3    H235112   3.948   7.385   0.536
11723TIP3   OH235113   3.486   5.099   1.375
11723TIP3    H135114   3.400   5.135   1.354
11723TIP3    H235115   3.487   5.013   1.334
11724TIP3   OH235116   7.654   7.822   5.271
11724TIP3    H135117   7.602   7.742   5.271
11724TIP3    H235118   7.604   7.884   5.218
11725TIP3   OH235119   6.839   3.576   2.274
11725TIP3    H135120   6.873   3.648   2.328
11725TIP3    H235121   6.761   3.547   2.321
11726TIP3   OH235122   2.534   7.439   5.621
11726TIP3    H135123   2.590   7.460   5.696
11726TIP3    H235124   2.447   7.467   5.649
11727TIP3   OH235125   7.570   1.257   3.050
11727TIP3    H135126   7.537   1.339   3.087
11727TIP3    H235127   7.655   1.243   3.092
11728TIP3   OH235128   3.101   0.091   2.082
11728TIP3    H135129   3.196   0.100   2.096
11728TIP3    H235130   3.072   0.180   2.060
11729TIP3   OH235131   1.428   0.666   3.831
11729TIP3    H135132   1.380   0.664   3.748
11729TIP3    H235133   1.518   0.642   3.807
11730TIP3   OH235134   2.410   0.586   3.639
11730TIP3    H135135   2.441   0.546   3.557
11730TIP3    H235136   2.437   0.678   3.633
11731TIP3   OH235137   7.964   7.371   1.470
11731TIP3    H135138   7.874   7.354   1.443
11731TIP3    H235139   8.006   7.408   1.392
11732TIP3   OH235140   3.341   4.825   0.094
11732TIP3    H135141   3.427   4.856   0.065
11732TIP3    H235142   3.280   4.892   0.062
11733TIP3   OH235143   2.670   1.104   6.681
11733TIP3    H135144   2.640   1.191   6.709
11733TIP3    H235145   2.623   1.089   6.599
11734TIP3   OH235146   3.676   2.515   3.779
11734TIP3    H135147   3.606   2.468   3.734
11734TIP3    H235148   3.632   2.562   3.850
11735TIP3   OH235149   8.271   5.140   1.079
11735TIP3    H135150   8.252   5.085   1.004
11735TIP3    H235151   8.226   5.223   1.061
11736TIP3   OH235152   4.544   5.895   2.689
11736TIP3    H135153   4.598   5.919   2.765
11736TIP3    H235154   4.496   5.975   2.667
11737TIP3   OH235155   4.396   2.140   2.473
11737TIP3    H135156   4.300   2.148   2.469
11737TIP3    H235157   4.415   2.122   2.565
11738TIP3   OH235158   4.536   4.352   3.083
11738TIP3    H135159   4.593   4.426   3.105
11738TIP3    H235160   4.487   4.335   3.164
11739TIP3   OH235161   0.869   4.782   2.909
11739TIP3    H135162   0.904   4.703   2.950
11739TIP3    H235163   0.831   4.832   2.982
11740TIP3   OH235164   2.444   1.397   5.276
11740TIP3    H135165   2.501   1.448   5.333
11740TIP3    H235166   2.388   1.463   5.234
11741TIP3   OH235167   2.196   1.304   6.001
11741TIP3    H135168   2.154   1.218   6.009
11741TIP3    H235169   2.268   1.290   5.940
11742TIP3   OH235170   3.809   1.790   2.600
11742TIP3    H135171   3.804   1.819   2.691
11742TIP3    H235172   3.751   1.715   2.595
11743TIP3   OH235173   2.340   2.664   6.485
11743TIP3    H135174   2.313   2.755   6.496
11743TIP3    H235175   2.436   2.667   6.490
11744TIP3   OH235176   0.313   6.436   2.268
11744TIP3    H135177   0.304   6.509   2.207
11744TIP3    H235178   0.226   6.427   2.307
11745TIP3   OH235179   0.612   0.676   3.533
11745TIP3    H135180   0.684   0.708   3.588
11745TIP3    H235181   0.645   0.595   3.495
11746TIP3   OH235182   4.885   3.048   3.840
11746TIP3    H135183   4.885   3.110   3.767
11746TIP3    H235184   4.793   3.042   3.866
11747TIP3   OH235185   1.710   1.691   4.806
11747TIP3    H135186   1.738   1.613   4.757
11747TIP3    H235187   1.724   1.763   4.744
11748TIP3   OH235188   0.686   1.283   2.665
11748TIP3    H135189   0.691   1.285   2.761
11748TIP3    H235190   0.599   1.319   2.645
11749TIP3   OH235191   0.681   0.130   0.068
11749TIP3    H135192   0.701   0.213   0.111
11749TIP3    H235193   0.648   0.074   0.138
11750TIP3   OH235194   4.347   6.954   3.436
11750TIP3    H135195   4.333   6.979   3.345
11750TIP3    H235196   4.259   6.949   3.474
11751TIP3   OH235197   5.450   5.030   6.230
11751TIP3    H135198   5.435   5.110   6.281
11751TIP3    H235199   5.542   5.009   6.245
11752TIP3   OH235200   3.801   0.010   5.705
11752TIP3    H135201   3.786   0.054   5.622
11752TIP3    H235202   3.724  -0.045   5.718
11753TIP3   OH235203   0.475   4.080   5.936
11753TIP3    H135204   0.530   4.158   5.945
11753TIP3    H235205   0.535   4.011   5.908
11754TIP3   OH235206   6.861   1.982   2.935
11754TIP3    H135207   6.853   1.990   2.839
11754TIP3    H235208   6.812   1.902   2.956
11755TIP3   OH235209   7.939   3.766   0.887
11755TIP3    H135210   8.035   3.761   0.885
11755TIP3    H235211   7.911   3.717   0.809
11756TIP3   OH235212   6.025   7.697   5.427
11756TIP3    H135213   6.041   7.643   5.349
11756TIP3    H235214   6.095   7.762   5.426
11757TIP3   OH235215   2.939   5.355   3.439
11757TIP3    H135216   2.852   5.333   3.472
11757TIP3    H235217   2.985   5.270   3.436
11758TIP3   OH235218   6.340   1.533   0.505
11758TIP3    H135219   6.418   1.511   0.555
11758TIP3    H235220   6.275   1.466   0.528
11759TIP3   OH235221   2.287   2.342   5.818
11759TIP3    H135222   2.339   2.399   5.761
11759TIP3    H235223   2.208   2.323   5.768
11760TIP3   OH235224   5.216   7.080   3.422
11760TIP3    H135225   5.149   7.017   3.448
11760TIP3    H235226   5.273   7.087   3.498
11761TIP3   OH235227   2.740   6.682   1.209
11761TIP3    H135228   2.646   6.697   1.222
11761TIP3    H235229   2.751   6.679   1.114
11762TIP3   OH235230   4.571   3.455   5.828
11762TIP3    H135231   4.655   3.434   5.786
11762TIP3    H235232   4.532   3.523   5.773
11763TIP3   OH235233   3.378   5.937   4.433
11763TIP3    H135234   3.416   5.860   4.390
11763TIP3    H235235   3.290   5.910   4.458
11764TIP3   OH235236   4.852   4.476   3.929
11764TIP3    H135237   4.923   4.534   3.898
11764TIP3    H235238   4.816   4.438   3.849
11765TIP3   OH235239   2.134   5.158   2.357
11765TIP3    H135240   2.092   5.135   2.440
11765TIP3    H235241   2.065   5.202   2.306
11766TIP3   OH235242   7.450   5.411   5.128
11766TIP3    H135243   7.457   5.505   5.146
11766TIP3    H235244   7.428   5.406   5.035
11767TIP3   OH235245   4.053   7.530   1.991
11767TIP3    H135246   3.978   7.589   1.999
11767TIP3    H235247   4.038   7.483   1.909
11768TIP3   OH235248   4.299   2.824   2.538
11768TIP3    H135249   4.301   2.916   2.513
11768TIP3    H235250   4.314   2.823   2.632
11769TIP3   OH235251   1.415   7.103   4.538
11769TIP3    H135252   1.391   7.011   4.548
11769TIP3    H235253   1.489   7.115   4.597
11770TIP3   OH235254   7.880   4.898   1.586
11770TIP3    H135255   7.966   4.865   1.560
11770TIP3    H235256   7.898   4.954   1.661
11771TIP3   OH235257   7.590   3.350   6.414
11771TIP3    H135258   7.500   3.328   6.437
11771TIP3    H235259   7.612   3.423   6.472
11772TIP3   OH235260   3.988   2.491   0.577
11772TIP3    H135261   4.064   2.543   0.604
11772TIP3    H235262   4.018   2.442   0.500
11773TIP3   OH235263   8.227   0.377   5.358
11773TIP3    H135264   8.311   0.336   5.379
11773TIP3    H235265   8.229   0.388   5.263
11774TIP3   OH235266   4.145   5.733   2.893
11774TIP3    H135267   4.054   5.759   2.880
11774TIP3    H235268   4.157   5.659   2.834
11775TIP3   OH235269   6.412   0.779   5.361
11775TIP3    H135270   6.369   0.803   5.279
11775TIP3    H235271   6.497   0.822   5.357
11776TIP3   OH235272   7.696   4.315   0.070
11776TIP3    H135273   7.729   4.386   0.016
11776TIP3    H235274   7.649   4.359   0.141
11777TIP3   OH235275   3.825   0.675   0.351
11777TIP3    H135276   3.910   0.710   0.324
11777TIP3    H235277   3.812   0.599   0.295
11778TIP3   OH235278   2.854   6.434   2.266
11778TIP3    H135279   2.851   6.445   2.171
11778TIP3    H235280   2.927   6.488   2.294
11779TIP3   OH235281   4.427   7.236   5.201
11779TIP3    H135282   4.476   7.154   5.192
11779TIP3    H235283   4.470   7.296   5.140
11780TIP3   OH235284   4.327   7.589   1.816
11780TIP3    H135285   4.291   7.501   1.832
11780TIP3    H235286   4.337   7.594   1.721
11781TIP3   OH235287   7.809   5.942   6.816
11781TIP3    H135288   7.842   5.937   6.726
11781TIP3    H235289   7.734   5.883   6.816
11782TIP3   OH235290   1.600   6.961   1.554
11782TIP3    H135291   1.553   7.003   1.626
11782TIP3    H235292   1.687   6.944   1.589
11783TIP3   OH235293   6.676   6.365   0.987
11783TIP3    H135294   6.738   6.324   0.927
11783TIP3    H235295   6.592   6.361   0.942
11784TIP3   OH235296   7.685   7.782   6.470
11784TIP3    H135297   7.742   7.724   6.520
11784TIP3    H235298   7.604   7.733   6.460
11785TIP3   OH235299   4.045   2.558   6.476
11785TIP3    H135300   4.139   2.541   6.462
11785TIP3    H235301   4.031   2.645   6.439
11786TIP3   OH235302   2.484   3.192   5.990
11786TIP3    H135303   2.392   3.190   6.018
11786TIP3    H235304   2.521   3.110   6.022
11787TIP3   OH235305   2.594   3.682   6.724
11787TIP3    H135306   2.625   3.609   6.777
11787TIP3    H235307   2.500   3.666   6.714
11788TIP3   OH235308   7.746   4.893   0.916
11788TIP3    H135309   7.791   4.962   0.965
11788TIP3    H235310   7.690   4.940   0.854
11789TIP3   OH235311   3.036   2.930   4.959
11789TIP3    H135312   2.948   2.962   4.975
11789TIP3    H235313   3.059   2.883   5.039
11790TIP3   OH235314   6.448   5.552   2.633
11790TIP3    H135315   6.414   5.636   2.603
11790TIP3    H235316   6.456   5.500   2.553
11791TIP3   OH235317   0.889   1.298   0.749
11791TIP3    H135318   0.832   1.375   0.758
11791TIP3    H235319   0.832   1.223   0.767
11792TIP3   OH235320   3.019   3.872   3.168
11792TIP3    H135321   2.998   3.905   3.255
11792TIP3    H235322   2.978   3.786   3.163
11793TIP3   OH235323   7.121   4.349   0.911
11793TIP3    H135324   7.142   4.376   1.001
11793TIP3    H235325   7.037   4.304   0.919
11794TIP3   OH235326   3.243   5.200   1.294
11794TIP3    H135327   3.209   5.219   1.207
11794TIP3    H235328   3.220   5.275   1.347
11795TIP3   OH235329   4.493   0.532   3.372
11795TIP3    H135330   4.518   0.495   3.287
11795TIP3    H235331   4.560   0.500   3.432
11796TIP3   OH235332   0.796   1.552   5.706
11796TIP3    H135333   0.829   1.520   5.790
11796TIP3    H235334   0.758   1.638   5.727
11797TIP3   OH235335   0.406   6.894   4.808
11797TIP3    H135336   0.414   6.831   4.880
11797TIP3    H235337   0.484   6.878   4.755
11798TIP3   OH235338   1.640   2.747   0.088
11798TIP3    H135339   1.556   2.793   0.079
11798TIP3    H235340   1.697   2.787   0.023
11799TIP3   OH235341   6.303   1.708   5.333
11799TIP3    H135342   6.243   1.650   5.379
11799TIP3    H235343   6.260   1.725   5.249
11800TIP3   OH235344   3.287   3.290   1.713
11800TIP3    H135345   3.328   3.349   1.650
11800TIP3    H235346   3.359   3.257   1.766
11801TIP3   OH235347   5.591   6.019   2.376
11801TIP3    H135348   5.530   5.946   2.368
11801TIP3    H235349   5.604   6.050   2.286
11802TIP3   OH235350   4.854   4.584   1.628
11802TIP3    H135351   4.843   4.525   1.553
11802TIP3    H235352   4.765   4.598   1.661
11803TIP3   OH235353   7.144   0.263   4.347
11803TIP3    H135354   7.099   0.249   4.430
11803TIP3    H235355   7.124   0.354   4.324
11804TIP3   OH235356   0.055   3.256   2.842
11804TIP3    H135357   0.117   3.295   2.903
11804TIP3    H235358   0.102   3.253   2.759
11805TIP3   OH235359   7.724   0.683   6.132
11805TIP3    H135360   7.668   0.711   6.204
11805TIP3    H235361   7.798   0.640   6.174
11806TIP3   OH235362   5.336   7.666   2.636
11806TIP3    H135363   5.368   7.645   2.723
11806TIP3    H235364   5.339   7.762   2.631
11807TIP3   OH235365   5.926   2.811   4.524
11807TIP3    H135366   5.924   2.837   4.616
11807TIP3    H235367   5.844   2.843   4.488
11808TIP3   OH235368   1.918   5.096   6.065
11808TIP3    H135369   1.947   5.186   6.050
11808TIP3    H235370   2.000   5.046   6.071
11809TIP3   OH235371   3.892   3.642   4.247
11809TIP3    H135372   3.886   3.669   4.155
11809TIP3    H235373   3.938   3.714   4.290
11810TIP3   OH235374   4.429   0.000   2.632
11810TIP3    H135375   4.511   0.044   2.650
11810TIP3    H235376   4.379   0.062   2.579
11811TIP3   OH235377   1.844   2.427   1.300
11811TIP3    H135378   1.783   2.497   1.320
11811TIP3    H235379   1.927   2.456   1.338
11812TIP3   OH235380   0.023   2.550   3.871
11812TIP3    H135381   0.009   2.538   3.777
11812TIP3    H235382   0.060   2.467   3.900
11813TIP3   OH235383   0.714   3.611   5.839
11813TIP3    H135384   0.779   3.619   5.908
11813TIP3    H235385   0.764   3.599   5.758
11814TIP3   OH235386   4.793   0.205   5.640
11814TIP3    H135387   4.717   0.176   5.590
11814TIP3    H235388   4.868   0.187   5.583
11815TIP3   OH235389   3.385   3.978   2.922
11815TIP3    H135390   3.291   3.975   2.904
11815TIP3    H235391   3.413   4.062   2.886
11816TIP3   OH235392   4.839   5.486   6.610
11816TIP3    H135393   4.926   5.471   6.647
11816TIP3    H235394   4.781   5.493   6.686
11817TIP3   OH235395   3.817   2.684   3.074
11817TIP3    H135396   3.725   2.676   3.098
11817TIP3    H235397   3.852   2.595   3.084
11818TIP3   OH235398   7.020   6.973   2.661
11818TIP3    H135399   7.027   7.052   2.607
11818TIP3    H235400   6.945   6.990   2.718
11819TIP3   OH235401   5.658   6.164   4.911
11819TIP3    H135402   5.604   6.113   4.971
11819TIP3    H235403   5.705   6.225   4.968
11820TIP3   OH235404   2.471   3.967   5.013
11820TIP3    H135405   2.526   3.977   5.091
11820TIP3    H235406   2.382   3.981   5.044
11821TIP3   OH235407   5.104   5.711   2.293
11821TIP3    H135408   5.068   5.696   2.381
11821TIP3    H235409   5.187   5.755   2.309
11822TIP3   OH235410   6.797   6.851   0.357
11822TIP3    H135411   6.748   6.770   0.350
11822TIP3    H235412   6.840   6.846   0.443
11823TIP3   OH235413   3.547   3.692   4.447
11823TIP3    H135414   3.472   3.740   4.413
11823TIP3    H235415   3.618   3.712   4.386
11824TIP3   OH235416   5.671   3.445   6.511
11824TIP3    H135417   5.726   3.475   6.439
11824TIP3    H235418   5.685   3.509   6.581
11825TIP3   OH235419   3.735   4.705   4.979
11825TIP3    H135420   3.785   4.786   4.990
11825TIP3    H235421   3.759   4.673   4.892
11826TIP3   OH235422   0.766   2.719   4.844
11826TIP3    H135423   0.854   2.730   4.808
11826TIP3    H235424   0.778   2.726   4.938
11827TIP3   OH235425   7.640   6.252   3.144
11827TIP3    H135426   7.603   6.338   3.164
11827TIP3    H235427   7.713   6.242   3.205
11828TIP3   OH235428   7.238   1.076   4.767
11828TIP3    H135429   7.273   1.018   4.835
11828TIP3    H235430   7.272   1.039   4.685
11829TIP3   OH235431   1.991   2.961   0.646
11829TIP3    H135432   1.969   2.908   0.722
11829TIP3    H235433   2.042   2.903   0.589
11830TIP3   OH235434   2.460   4.929   2.327
11830TIP3    H135435   2.378   4.976   2.343
11830TIP3    H235436   2.449   4.890   2.240
11831TIP3   OH235437   4.674   4.371   3.364
11831TIP3    H135438   4.585   4.344   3.344
11831TIP3    H235439   4.721   4.290   3.383
11832TIP3   OH235440   3.391   5.296   4.866
11832TIP3    H135441   3.366   5.376   4.821
11832TIP3    H235442   3.392   5.320   4.959
11833TIP3   OH235443   6.640   5.972   5.331
11833TIP3    H135444   6.585   5.927   5.268
11833TIP3    H235445   6.588   5.973   5.412
11834TIP3   OH235446   7.286   6.842   1.991
11834TIP3    H135447   7.308   6.782   2.063
11834TIP3    H235448   7.356   6.829   1.927
11835TIP3   OH235449   0.146   0.488   5.916
11835TIP3    H135450   0.070   0.455   5.964
11835TIP3    H235451   0.199   0.411   5.897
11836TIP3   OH235452   6.599   5.880   4.319
11836TIP3    H135453   6.548   5.801   4.333
11836TIP3    H235454   6.552   5.928   4.250
11837TIP3   OH235455   2.856   7.435   1.668
11837TIP3    H135456   2.778   7.451   1.722
11837TIP3    H235457   2.822   7.417   1.581
11838TIP3   OH235458   7.728   1.221   4.764
11838TIP3    H135459   7.733   1.129   4.738
11838TIP3    H235460   7.819   1.251   4.760
11839TIP3   OH235461   0.663   6.579   5.925
11839TIP3    H135462   0.633   6.530   5.849
11839TIP3    H235463   0.726   6.642   5.890
11840TIP3   OH235464   0.707   0.278   1.539
11840TIP3    H135465   0.766   0.211   1.504
11840TIP3    H235466   0.741   0.296   1.627
11841TIP3   OH235467   4.616   3.227   3.067
11841TIP3    H135468   4.555   3.213   3.140
11841TIP3    H235469   4.616   3.321   3.054
11842TIP3   OH235470   4.107   3.913   0.292
11842TIP3    H135471   4.157   3.914   0.373
11842TIP3    H235472   4.019   3.887   0.318
11843TIP3   OH235473   5.617   6.409   4.670
11843TIP3    H135474   5.651   6.336   4.618
11843TIP3    H235475   5.532   6.430   4.629
11844TIP3   OH235476   5.413   1.102   2.048
11844TIP3    H135477   5.443   1.145   2.128
11844TIP3    H235478   5.366   1.171   2.001
11845TIP3   OH235479   7.003   4.380   5.787
11845TIP3    H135480   6.940   4.451   5.787
11845TIP3    H235481   6.984   4.332   5.868
11846TIP3   OH235482   2.771   0.305   4.391
11846TIP3    H135483   2.859   0.273   4.372
11846TIP3    H235484   2.712   0.240   4.352
11847TIP3   OH235485   8.118   0.420   1.728
11847TIP3    H135486   8.195   0.364   1.721
11847TIP3    H235487   8.043   0.360   1.721
11848TIP3   OH235488   4.187   2.339   2.697
11848TIP3    H135489   4.100   2.331   2.737
11848TIP3    H235490   4.211   2.431   2.709
11849TIP3   OH235491   0.568   0.442   4.075
11849TIP3    H135492   0.571   0.376   4.144
11849TIP3    H235493   0.555   0.525   4.121
11850TIP3   OH235494   5.116   4.525   2.025
11850TIP3    H135495   5.063   4.495   1.951
11850TIP3    H235496   5.138   4.446   2.073
11851TIP3   OH235497   0.241   1.860   5.469
11851TIP3    H135498   0.163   1.893   5.423
11851TIP3    H235499   0.241   1.906   5.553
11852TIP3   OH235500   3.732   6.872   3.407
11852TIP3    H135501   3.764   6.902   3.492
11852TIP3    H235502   3.698   6.784   3.424
11853TIP3   OH235503   5.085   3.845   4.382
11853TIP3    H135504   5.005   3.866   4.334
11853TIP3    H235505   5.156   3.870   4.322
11854TIP3   OH235506   5.808   1.532   6.184
11854TIP3    H135507   5.752   1.589   6.235
11854TIP3    H235508   5.801   1.447   6.227
11855TIP3   OH235509   5.739   0.206   4.033
11855TIP3    H135510   5.659   0.258   4.036
11855TIP3    H235511   5.728   0.149   3.957
11856TIP3   OH235512   2.138   1.350   2.689
11856TIP3    H135513   2.059   1.331   2.638
11856TIP3    H235514   2.112   1.419   2.750
11857TIP3   OH235515   5.004   7.610   3.093
11857TIP3    H135516   5.098   7.591   3.095
11857TIP3    H235517   4.963   7.525   3.078
11858TIP3   OH235518   0.427   3.326   6.112
11858TIP3    H135519   0.354   3.341   6.172
11858TIP3    H235520   0.385   3.294   6.032
11859TIP3   OH235521   4.850   7.117   5.577
11859TIP3    H135522   4.915   7.049   5.560
11859TIP3    H235523   4.780   7.099   5.514
11860TIP3   OH235524   0.390   5.761   1.662
11860TIP3    H135525   0.370   5.734   1.572
11860TIP3    H235526   0.362   5.852   1.667
11861TIP3   OH235527   3.992   2.135   5.721
11861TIP3    H135528   3.924   2.074   5.748
11861TIP3    H235529   3.966   2.219   5.759
11862TIP3   OH235530   4.215   5.554   0.494
11862TIP3    H135531   4.188   5.480   0.439
11862TIP3    H235532   4.297   5.585   0.455
11863TIP3   OH235533   4.033   6.049   4.289
11863TIP3    H135534   3.991   5.998   4.358
11863TIP3    H235535   3.961   6.091   4.243
11864TIP3   OH235536   0.512   1.812   4.779
11864TIP3    H135537   0.532   1.782   4.867
11864TIP3    H235538   0.416   1.820   4.777
11865TIP3   OH235539   3.038   3.253   0.106
11865TIP3    H135540   3.003   3.342   0.108
11865TIP3    H235541   2.961   3.197   0.107
11866TIP3   OH235542   3.429   5.478   1.155
11866TIP3    H135543   3.501   5.537   1.177
11866TIP3    H235544   3.471   5.404   1.111
11867TIP3   OH235545   5.336   0.508   5.579
11867TIP3    H135546   5.401   0.439   5.572
11867TIP3    H235547   5.349   0.561   5.500
11868TIP3   OH235548   2.394   5.484   5.230
11868TIP3    H135549   2.489   5.479   5.244
11868TIP3    H235550   2.361   5.533   5.305
11869TIP3   OH235551   3.099   0.151   6.368
11869TIP3    H135552   3.034   0.201   6.318
11869TIP3    H235553   3.183   0.182   6.336
11870TIP3   OH235554   3.776   1.454   3.139
11870TIP3    H135555   3.779   1.516   3.066
11870TIP3    H235556   3.694   1.474   3.184
11871TIP3   OH235557   0.113   3.863   4.252
11871TIP3    H135558   0.062   3.868   4.332
11871TIP3    H235559   0.163   3.944   4.250
11872TIP3   OH235560   3.311   2.395   4.894
11872TIP3    H135561   3.389   2.354   4.931
11872TIP3    H235562   3.297   2.472   4.948
11873TIP3   OH235563   0.589   2.052   4.673
11873TIP3    H135564   0.558   1.978   4.724
11873TIP3    H235565   0.556   2.129   4.720
11874TIP3   OH235566   5.525   3.172   4.488
11874TIP3    H135567   5.585   3.246   4.488
11874TIP3    H235568   5.580   3.096   4.473
11875TIP3   OH235569   5.379   7.097   2.575
11875TIP3    H135570   5.286   7.082   2.585
11875TIP3    H235571   5.398   7.170   2.634
11876TIP3   OH235572   6.200   3.843   4.253
11876TIP3    H135573   6.182   3.853   4.347
11876TIP3    H235574   6.160   3.759   4.229
11877TIP3   OH235575   5.408   5.397   1.066
11877TIP3    H135576   5.319   5.427   1.085
11877TIP3    H235577   5.403   5.302   1.076
11878TIP3   OH235578   6.815   4.310   0.405
11878TIP3    H135579   6.871   4.388   0.413
11878TIP3    H235580   6.804   4.299   0.310
11879TIP3   OH235581   6.989   7.014   4.252
11879TIP3    H135582   7.075   7.004   4.292
11879TIP3    H235583   6.945   6.930   4.266
11880TIP3   OH235584   8.311   2.026   5.435
11880TIP3    H135585   8.300   2.019   5.340
11880TIP3    H235586   8.234   1.983   5.472
11881TIP3   OH235587   3.010   4.065   0.272
11881TIP3    H135588   2.981   4.083   0.362
11881TIP3    H235589   3.083   4.004   0.283
11882TIP3   OH235590   4.975   1.866   5.454
11882TIP3    H135591   5.016   1.853   5.368
11882TIP3    H235592   4.989   1.784   5.501
11883TIP3   OH235593   4.738   0.689   2.475
11883TIP3    H135594   4.775   0.674   2.388
11883TIP3    H235595   4.798   0.642   2.534
11884TIP3   OH235596   0.700   2.219   1.794
11884TIP3    H135597   0.635   2.255   1.733
11884TIP3    H235598   0.687   2.269   1.875
11885TIP3   OH235599   5.095   3.188   4.393
11885TIP3    H135600   5.086   3.194   4.488
11885TIP3    H235601   5.132   3.102   4.377
11886TIP3   OH235602   2.780   4.227   5.283
11886TIP3    H135603   2.719   4.296   5.309
11886TIP3    H235604   2.848   4.227   5.350
11887TIP3   OH235605   1.152   0.173   5.668
11887TIP3    H135606   1.242   0.202   5.652
11887TIP3    H235607   1.132   0.116   5.593
11888TIP3   OH235608   3.530   6.950   5.581
11888TIP3    H135609   3.583   6.890   5.528
11888TIP3    H235610   3.514   6.902   5.662
11889TIP3   OH235611   0.286   6.572   4.055
11889TIP3    H135612   0.244   6.537   3.977
11889TIP3    H235613   0.215   6.583   4.118
11890TIP3   OH235614   0.415   4.969   6.405
11890TIP3    H135615   0.474   4.945   6.476
11890TIP3    H235616   0.361   5.039   6.441
11891TIP3   OH235617   4.595   2.579   0.166
11891TIP3    H135618   4.680   2.574   0.209
11891TIP3    H235619   4.593   2.667   0.127
11892TIP3   OH235620   1.466   5.482   5.340
11892TIP3    H135621   1.433   5.538   5.410
11892TIP3    H235622   1.513   5.411   5.386
11893TIP3   OH235623   3.105   7.025   4.695
11893TIP3    H135624   3.089   6.946   4.644
11893TIP3    H235625   3.198   7.045   4.682
11894TIP3   OH235626   2.649   3.192   4.242
11894TIP3    H135627   2.688   3.168   4.158
11894TIP3    H235628   2.717   3.241   4.287
11895TIP3   OH235629   6.690   6.153   3.622
11895TIP3    H135630   6.644   6.200   3.691
11895TIP3    H235631   6.778   6.190   3.622
11896TIP3   OH235632   1.221   3.373   2.831
11896TIP3    H135633   1.140   3.322   2.840
11896TIP3    H235634   1.192   3.464   2.837
11897TIP3   OH235635   4.583   2.497   2.712
11897TIP3    H135636   4.624   2.525   2.794
11897TIP3    H235637   4.639   2.426   2.680
11898TIP3   OH235638   2.970   6.247   3.427
11898TIP3    H135639   3.053   6.294   3.429
11898TIP3    H235640   2.909   6.304   3.474
11899TIP3   OH235641   0.502   3.115   1.735
11899TIP3    H135642   0.419   3.096   1.692
11899TIP3    H235643   0.556   3.156   1.667
11900TIP3   OH235644   5.603   4.531   5.452
11900TIP3    H135645   5.524   4.571   5.416
11900TIP3    H235646   5.588   4.530   5.547
11901TIP3   OH235647   2.829   4.581   4.401
11901TIP3    H135648   2.913   4.548   4.369
11901TIP3    H235649   2.852   4.628   4.481
11902TIP3   OH235650   4.706   0.312   1.013
11902TIP3    H135651   4.771   0.250   0.980
11902TIP3    H235652   4.707   0.383   0.949
11903TIP3   OH235653   6.201   0.090   1.562
11903TIP3    H135654   6.242   0.007   1.587
11903TIP3    H235655   6.173   0.129   1.644
11904TIP3   OH235656   0.613   4.932   6.599
11904TIP3    H135657   0.651   4.985   6.669
11904TIP3    H235658   0.676   4.939   6.527
11905TIP3   OH235659   6.831   0.623   4.408
11905TIP3    H135660   6.913   0.591   4.369
11905TIP3    H235661   6.776   0.545   4.416
11906TIP3   OH235662   4.701   7.204   0.383
11906TIP3    H135663   4.707   7.112   0.410
11906TIP3    H235664   4.627   7.206   0.323
11907TIP3   OH235665   7.305   6.632   1.451
11907TIP3    H135666   7.367   6.671   1.390
11907TIP3    H235667   7.358   6.573   1.505
11908TIP3   OH235668   7.482   4.218   1.102
11908TIP3    H135669   7.573   4.246   1.116
11908TIP3    H235670   7.486   4.122   1.108
11909TIP3   OH235671   5.372   5.609   0.725
11909TIP3    H135672   5.466   5.626   0.718
11909TIP3    H235673   5.334   5.646   0.646
11910TIP3   OH235674   4.146   0.636   6.385
11910TIP3    H135675   4.079   0.568   6.382
11910TIP3    H235676   4.193   0.620   6.467
11911TIP3   OH235677   4.607   3.445   1.122
11911TIP3    H135678   4.553   3.366   1.134
11911TIP3    H235679   4.576   3.483   1.040
11912TIP3   OH235680   3.316   3.412   2.416
11912TIP3    H135681   3.278   3.325   2.427
11912TIP3    H235682   3.244   3.467   2.386
11913TIP3   OH235683   5.229   4.773   0.430
11913TIP3    H135684   5.212   4.681   0.409
11913TIP3    H235685   5.184   4.787   0.514
11914TIP3   OH235686   0.629   4.209   3.731
11914TIP3    H135687   0.588   4.124   3.749
11914TIP3    H235688   0.656   4.241   3.817
11915TIP3   OH235689   7.320   1.144   3.546
11915TIP3    H135690   7.332   1.053   3.522
11915TIP3    H235691   7.237   1.146   3.593
11916TIP3   OH235692   5.760   7.326   5.346
11916TIP3    H135693   5.740   7.420   5.345
11916TIP3    H235694   5.794   7.310   5.434
11917TIP3   OH235695   7.175   1.181   2.555
11917TIP3    H135696   7.168   1.225   2.639
11917TIP3    H235697   7.183   1.252   2.491
11918TIP3   OH235698   0.436   6.785   5.179
11918TIP3    H135699   0.402   6.873   5.161
11918TIP3    H235700   0.423   6.738   5.097
11919TIP3   OH235701   1.101   1.917   3.198
11919TIP3    H135702   1.154   1.856   3.249
11919TIP3    H235703   1.080   1.869   3.118
11920TIP3   OH235704   5.026   2.498   1.178
11920TIP3    H135705   5.085   2.570   1.202
11920TIP3    H235706   5.073   2.419   1.205
11921TIP3   OH235707   0.533   2.359   5.845
11921TIP3    H135708   0.470   2.317   5.787
11921TIP3    H235709   0.480   2.418   5.899
11922TIP3   OH235710   2.467   2.042   6.692
11922TIP3    H135711   2.437   1.971   6.635
11922TIP3    H235712   2.537   2.084   6.643
11923TIP3   OH235713   0.837   3.223   3.607
11923TIP3    H135714   0.928   3.206   3.631
11923TIP3    H235715   0.835   3.317   3.586
11924TIP3   OH235716   6.564   0.998   0.370
11924TIP3    H135717   6.617   0.955   0.437
11924TIP3    H235718   6.627   1.025   0.303
11925TIP3   OH235719   3.770   4.258   2.934
11925TIP3    H135720   3.805   4.206   3.006
11925TIP3    H235721   3.826   4.237   2.859
11926TIP3   OH235722   6.457   1.327   5.077
11926TIP3    H135723   6.364   1.307   5.072
11926TIP3    H235724   6.491   1.305   4.990
11927TIP3   OH235725   8.215   4.255   1.972
11927TIP3    H135726   8.170   4.187   1.922
11927TIP3    H235727   8.257   4.209   2.045
11928TIP3   OH235728   6.112   2.905   5.584
11928TIP3    H135729   6.062   2.926   5.663
11928TIP3    H235730   6.165   2.982   5.567
11929TIP3   OH235731   4.522   2.310   2.943
11929TIP3    H135732   4.586   2.380   2.953
11929TIP3    H235733   4.558   2.237   2.993
11930TIP3   OH235734   7.526   5.956   2.037
11930TIP3    H135735   7.555   5.979   1.948
11930TIP3    H235736   7.465   5.883   2.024
11931TIP3   OH235737   7.370   3.275   1.538
11931TIP3    H135738   7.323   3.245   1.461
11931TIP3    H235739   7.309   3.260   1.611
11932TIP3   OH235740   7.553   1.247   4.410
11932TIP3    H135741   7.521   1.187   4.343
11932TIP3    H235742   7.632   1.205   4.444
11933TIP3   OH235743   6.729   1.728   1.865
11933TIP3    H135744   6.821   1.729   1.839
11933TIP3    H235745   6.680   1.735   1.783
11934TIP3   OH235746   6.331   6.137   6.265
11934TIP3    H135747   6.256   6.186   6.232
11934TIP3    H235748   6.336   6.159   6.358
11935TIP3   OH235749   0.508   6.623   0.738
11935TIP3    H135750   0.450   6.551   0.717
11935TIP3    H235751   0.498   6.685   0.666
11936TIP3   OH235752   6.585   4.395   5.492
11936TIP3    H135753   6.616   4.305   5.499
11936TIP3    H235754   6.641   4.445   5.551
11937TIP3   OH235755   2.575   6.802   3.916
11937TIP3    H135756   2.532   6.826   3.834
11937TIP3    H235757   2.506   6.806   3.982
11938TIP3   OH235758   6.726   6.101   0.627
11938TIP3    H135759   6.661   6.061   0.685
11938TIP3    H235760   6.674   6.136   0.555
11939TIP3   OH235761   4.029   4.861   5.738
11939TIP3    H135762   3.967   4.927   5.708
11939TIP3    H235763   4.108   4.910   5.761
11940TIP3   OH235764   3.075   6.805   6.152
11940TIP3    H135765   3.049   6.829   6.241
11940TIP3    H235766   3.170   6.814   6.152
11941TIP3   OH235767   6.510   7.197   4.175
11941TIP3    H135768   6.535   7.120   4.226
11941TIP3    H235769   6.485   7.262   4.241
11942TIP3   OH235770   4.722   4.233   2.310
11942TIP3    H135771   4.776   4.271   2.240
11942TIP3    H235772   4.763   4.149   2.330
11943TIP3   OH235773   0.962   6.515   6.230
11943TIP3    H135774   0.952   6.591   6.288
11943TIP3    H235775   0.894   6.455   6.259
11944TIP3   OH235776   7.977   2.358   2.669
11944TIP3    H135777   8.056   2.398   2.706
11944TIP3    H235778   7.978   2.269   2.704
11945TIP3   OH235779   6.246   2.024   2.104
11945TIP3    H135780   6.231   2.059   2.192
11945TIP3    H235781   6.164   1.980   2.082
11946TIP3   OH235782   1.139   0.608   4.237
11946TIP3    H135783   1.145   0.686   4.293
11946TIP3    H235784   1.191   0.630   4.160
11947TIP3   OH235785   6.536   1.106   0.970
11947TIP3    H135786   6.586   1.187   0.975
11947TIP3    H235787   6.445   1.134   0.958
11948TIP3   OH235788   0.414   3.029   0.794
11948TIP3    H135789   0.428   3.106   0.739
11948TIP3    H235790   0.499   2.985   0.796
11949TIP3   OH235791   0.797   5.862   4.567
11949TIP3    H135792   0.795   5.766   4.569
11949TIP3    H235793   0.780   5.887   4.658
11950TIP3   OH235794   8.084   2.312   2.120
11950TIP3    H135795   7.989   2.316   2.105
11950TIP3    H235796   8.116   2.252   2.053
11951TIP3   OH235797   1.628   3.356   4.275
11951TIP3    H135798   1.628   3.386   4.366
11951TIP3    H235799   1.601   3.264   4.279
11952TIP3   OH235800   0.765   3.003   1.471
11952TIP3    H135801   0.853   2.978   1.500
11952TIP3    H235802   0.780   3.070   1.404
11953TIP3   OH235803   7.551   0.173   1.057
11953TIP3    H135804   7.630   0.200   1.010
11953TIP3    H235805   7.584   0.141   1.141
11954TIP3   OH235806   6.825   3.086   5.236
11954TIP3    H135807   6.748   3.071   5.181
11954TIP3    H235808   6.899   3.053   5.183
11955TIP3   OH235809   4.017   2.937   1.498
11955TIP3    H135810   4.003   2.980   1.414
11955TIP3    H235811   3.938   2.886   1.512
11956TIP3   OH235812   8.135   4.727   2.106
11956TIP3    H135813   8.195   4.802   2.100
11956TIP3    H235814   8.115   4.719   2.199
11957TIP3   OH235815   7.015   5.767   0.108
11957TIP3    H135816   7.016   5.830   0.180
11957TIP3    H235817   6.961   5.809   0.040
11958TIP3   OH235818   1.259   7.068   3.802
11958TIP3    H135819   1.271   7.028   3.716
11958TIP3    H235820   1.164   7.076   3.811
11959TIP3   OH235821   0.802   4.254   3.977
11959TIP3    H135822   0.861   4.230   4.048
11959TIP3    H235823   0.858   4.256   3.899
11960TIP3   OH235824   0.095   3.493   0.271
11960TIP3    H135825   0.079   3.585   0.293
11960TIP3    H235826   0.015   3.465   0.226
11961TIP3   OH235827   1.395   0.413   3.511
11961TIP3    H135828   1.382   0.331   3.463
11961TIP3    H235829   1.343   0.478   3.464
11962TIP3   OH235830   0.619   6.399   5.456
11962TIP3    H135831   0.559   6.461   5.414
11962TIP3    H235832   0.658   6.351   5.383
11963TIP3   OH235833   4.907   5.381   2.897
11963TIP3    H135834   4.921   5.300   2.848
11963TIP3    H235835   4.916   5.355   2.989
11964TIP3   OH235836   1.463   1.679   0.544
11964TIP3    H135837   1.533   1.719   0.595
11964TIP3    H235838   1.427   1.751   0.492
11965TIP3   OH235839   1.032   3.378   4.544
11965TIP3    H135840   0.955   3.399   4.596
11965TIP3    H235841   0.998   3.362   4.456
11966TIP3   OH235842   7.626   0.629   3.696
11966TIP3    H135843   7.592   0.714   3.723
11966TIP3    H235844   7.698   0.650   3.637
11967TIP3   OH235845   5.377   7.580   3.262
11967TIP3    H135846   5.366   7.510   3.327
11967TIP3    H235847   5.419   7.538   3.188
11968TIP3   OH235848   3.440   7.428   2.121
11968TIP3    H135849   3.528   7.465   2.116
11968TIP3    H235850   3.382   7.503   2.127
11969TIP3   OH235851   1.697   6.609   2.572
11969TIP3    H135852   1.680   6.519   2.545
11969TIP3    H235853   1.758   6.642   2.505
11970TIP3   OH235854   6.838   6.705   5.118
11970TIP3    H135855   6.829   6.773   5.185
11970TIP3    H235856   6.849   6.624   5.166
11971TIP3   OH235857   3.499   0.387   1.089
11971TIP3    H135858   3.461   0.441   1.159
11971TIP3    H235859   3.532   0.451   1.025
11972TIP3   OH235860   4.326   5.804   4.815
11972TIP3    H135861   4.335   5.874   4.750
11972TIP3    H235862   4.254   5.750   4.783
11973TIP3   OH235863   1.060   3.612   5.585
11973TIP3    H135864   0.969   3.622   5.558
11973TIP3    H235865   1.084   3.525   5.554
11974TIP3   OH235866   0.414   1.893   1.760
11974TIP3    H135867   0.392   1.968   1.704
11974TIP3    H235868   0.421   1.819   1.699
11975TIP3   OH235869   4.733   2.174   1.302
11975TIP3    H135870   4.766   2.105   1.245
11975TIP3    H235871   4.713   2.246   1.242
11976TIP3   OH235872   3.379   3.987   2.555
11976TIP3    H135873   3.447   4.054   2.545
11976TIP3    H235874   3.316   4.006   2.486
11977TIP3   OH235875   5.374   2.643   6.594
11977TIP3    H135876   5.280   2.626   6.599
11977TIP3    H235877   5.380   2.727   6.547
11978TIP3   OH235878   6.144   6.960   3.335
11978TIP3    H135879   6.071   6.934   3.391
11978TIP3    H235880   6.216   6.902   3.361
11979TIP3   OH235881   7.788   6.792   2.973
11979TIP3    H135882   7.850   6.845   3.022
11979TIP3    H235883   7.703   6.808   3.015
11980TIP3   OH235884   1.276   5.439   5.857
11980TIP3    H135885   1.354   5.493   5.841
11980TIP3    H235886   1.205   5.486   5.812
11981TIP3   OH235887   4.528   2.813   2.177
11981TIP3    H135888   4.616   2.813   2.138
11981TIP3    H235889   4.529   2.889   2.237
11982TIP3   OH235890   1.901   0.482   4.628
11982TIP3    H135891   1.833   0.436   4.579
11982TIP3    H235892   1.866   0.488   4.717
11983TIP3   OH235893   6.431   1.819   2.024
11983TIP3    H135894   6.519   1.853   2.039
11983TIP3    H235895   6.373   1.893   2.043
11984TIP3   OH235896   0.093   0.130   4.232
11984TIP3    H135897   0.048   0.168   4.308
11984TIP3    H235898   0.028   0.133   4.162
11985TIP3   OH235899   7.430   6.999   0.880
11985TIP3    H135900   7.457   7.010   0.971
11985TIP3    H235901   7.349   6.949   0.884
11986TIP3   OH235902   6.873   1.359   5.143
11986TIP3    H135903   6.834   1.272   5.136
11986TIP3    H235904   6.798   1.419   5.146
11987TIP3   OH235905   5.889   4.146   5.941
11987TIP3    H135906   5.961   4.111   5.889
11987TIP3    H235907   5.919   4.142   6.031
11988TIP3   OH235908   6.397   3.830   5.088
11988TIP3    H135909   6.442   3.806   5.007
11988TIP3    H235910   6.449   3.902   5.124
11989TIP3   OH235911   6.612   6.726   0.738
11989TIP3    H135912   6.599   6.802   0.681
11989TIP3    H235913   6.652   6.762   0.817
11990TIP3   OH235914   8.200   5.659   3.173
11990TIP3    H135915   8.162   5.709   3.100
11990TIP3    H235916   8.291   5.687   3.175
11991TIP3   OH235917   1.357   1.308   2.350
11991TIP3    H135918   1.355   1.373   2.279
11991TIP3    H235919   1.392   1.357   2.425
11992TIP3   OH235920   6.941   6.183   0.387
11992TIP3    H135921   6.905   6.221   0.467
11992TIP3    H235922   6.941   6.256   0.324
11993TIP3   OH235923   2.134   2.581   1.409
11993TIP3    H135924   2.210   2.566   1.352
11993TIP3    H235925   2.110   2.494   1.440
11994TIP3   OH235926   8.102   5.439   4.873
11994TIP3    H135927   8.099   5.464   4.965
11994TIP3    H235928   8.195   5.424   4.855
11995TIP3   OH235929   1.721   2.971   4.449
11995TIP3    H135930   1.753   3.060   4.466
11995TIP3    H235931   1.795   2.926   4.409
11996TIP3   OH235932   5.802   2.945   5.556
11996TIP3    H135933   5.866   2.981   5.495
11996TIP3    H235934   5.717   2.965   5.517
11997TIP3   OH235935   1.136   5.917   6.368
11997TIP3    H135936   1.091   5.833   6.378
11997TIP3    H235937   1.204   5.915   6.435
11998TIP3   OH235938   2.385   3.120   4.150
11998TIP3    H135939   2.478   3.142   4.143
11998TIP3    H235940   2.363   3.138   4.241
11999TIP3   OH235941   5.224   6.510   2.942
11999TIP3    H135942   5.131   6.495   2.928
11999TIP3    H235943   5.258   6.539   2.857
12000TIP3   OH235944   2.342   3.491   1.997
12000TIP3    H135945   2.283   3.507   1.923
12000TIP3    H235946   2.428   3.481   1.957
12001TIP3   OH235947   1.037   7.255   5.858
12001TIP3    H135948   1.019   7.342   5.822
12001TIP3    H235949   1.045   7.269   5.952
12002TIP3   OH235950   0.168   3.717   5.771
12002TIP3    H135951   0.178   3.669   5.689
12002TIP3    H235952   0.203   3.804   5.753
12003TIP3   OH235953   4.106   6.045   1.110
12003TIP3    H135954   4.074   5.986   1.043
12003TIP3    H235955   4.082   6.003   1.193
12004TIP3   OH235956   1.437   5.724   1.762
12004TIP3    H135957   1.347   5.721   1.730
12004TIP3    H235958   1.428   5.715   1.857
12005TIP3   OH235959   4.993   3.602   6.392
12005TIP3    H135960   4.957   3.513   6.390
12005TIP3    H235961   4.959   3.643   6.312
12006TIP3   OH235962   4.131   7.220   2.441
12006TIP3    H135963   4.192   7.231   2.368
12006TIP3    H235964   4.181   7.248   2.518
12007TIP3   OH235965   3.624   1.607   2.458
12007TIP3    H135966   3.555   1.659   2.418
12007TIP3    H235967   3.588   1.518   2.462
12008TIP3   OH235968   7.377   0.070   6.171
12008TIP3    H135969   7.365   0.143   6.232
12008TIP3    H235970   7.401   0.111   6.088
12009TIP3   OH235971   6.172   0.987   5.618
12009TIP3    H135972   6.243   1.043   5.588
12009TIP3    H235973   6.094   1.021   5.574
12010TIP3   OH235974   5.466   7.815   3.556
12010TIP3    H135975   5.421   7.741   3.596
12010TIP3    H235976   5.548   7.778   3.524
12011TIP3   OH235977   0.415   0.214   5.742
12011TIP3    H135978   0.338   0.260   5.709
12011TIP3    H235979   0.469   0.284   5.780
12012TIP3   OH235980   1.395   0.249   2.196
12012TIP3    H135981   1.452   0.322   2.221
12012TIP3    H235982   1.383   0.259   2.102
12013TIP3   OH235983   1.550   6.987   5.938
12013TIP3    H135984   1.465   7.029   5.953
12013TIP3    H235985   1.592   7.041   5.871
12014TIP3   OH235986   3.759  -0.008   3.176
12014TIP3    H135987   3.786  -0.064   3.249
12014TIP3    H235988   3.695   0.053   3.215
12015TIP3   OH235989   4.957   0.053   3.327
12015TIP3    H135990   4.960   0.148   3.322
12015TIP3    H235991   4.874   0.033   3.369
12016TIP3   OH235992   1.793   0.170   5.806
12016TIP3    H135993   1.780   0.084   5.767
12016TIP3    H235994   1.721   0.223   5.774
12017TIP3   OH235995   7.777   1.681   1.241
12017TIP3    H135996   7.754   1.759   1.191
12017TIP3    H235997   7.845   1.638   1.189
12018TIP3   OH235998   1.632   3.995   3.375
12018TIP3    H135999   1.624   3.937   3.300
12018TIP3    H236000   1.542   4.005   3.407
12019TIP3   OH236001   2.775   7.612   0.391
12019TIP3    H136002   2.712   7.600   0.320
12019TIP3    H236003   2.856   7.571   0.359
12020TIP3   OH236004   6.057   0.428   3.711
12020TIP3    H136005   5.994   0.414   3.640
12020TIP3    H236006   6.007   0.474   3.779
12021TIP3   OH236007   5.647   5.420   5.026
12021TIP3    H136008   5.626   5.511   5.007
12021TIP3    H236009   5.697   5.424   5.107
12022TIP3   OH236010   0.943   2.705   1.734
12022TIP3    H136011   0.870   2.755   1.770
12022TIP3    H236012   0.922   2.696   1.641
12023TIP3   OH236013   0.396   1.323   4.496
12023TIP3    H136014   0.389   1.329   4.592
12023TIP3    H236015   0.412   1.413   4.468
12024TIP3   OH236016   3.743   2.463   4.237
12024TIP3    H136017   3.742   2.394   4.304
12024TIP3    H236018   3.723   2.543   4.286
12025TIP3   OH236019   3.740   4.245   3.791
12025TIP3    H136020   3.822   4.254   3.839
12025TIP3    H236021   3.719   4.334   3.763
12026TIP3   OH236022   1.010   1.077   1.692
12026TIP3    H136023   1.088   1.102   1.741
12026TIP3    H236024   1.012   1.133   1.614
12027TIP3   OH236025   7.950   6.113   2.560
12027TIP3    H136026   7.978   6.194   2.602
12027TIP3    H236027   7.893   6.141   2.489
12028TIP3   OH236028   7.327   7.558   2.616
12028TIP3    H136029   7.291   7.470   2.614
12028TIP3    H236030   7.366   7.570   2.529
12029TIP3   OH236031   0.421   3.192   0.576
12029TIP3    H136032   0.514   3.192   0.552
12029TIP3    H236033   0.375   3.206   0.494
12030TIP3   OH236034   7.323   5.031   0.907
12030TIP3    H136035   7.354   5.109   0.861
12030TIP3    H236036   7.249   5.000   0.854
12031TIP3   OH236037   5.964   0.027   2.570
12031TIP3    H136038   5.919  -0.017   2.498
12031TIP3    H236039   5.932  -0.017   2.649
12032TIP3   OH236040   7.330   6.059   0.265
12032TIP3    H136041   7.369   6.087   0.348
12032TIP3    H236042   7.244   6.100   0.265
12033TIP3   OH236043   7.712   6.990   5.544
12033TIP3    H136044   7.724   7.079   5.579
12033TIP3    H236045   7.631   6.959   5.584
12034TIP3   OH236046   1.406   1.510   2.537
12034TIP3    H136047   1.313   1.526   2.519
12034TIP3    H236048   1.434   1.585   2.590
12035TIP3   OH236049   3.576   2.575   4.042
12035TIP3    H136050   3.613   2.559   4.128
12035TIP3    H236051   3.521   2.653   4.054
12036TIP3   OH236052   7.600   6.086   2.276
12036TIP3    H136053   7.579   6.044   2.192
12036TIP3    H236054   7.554   6.033   2.341
12037TIP3   OH236055   2.872   4.693   4.650
12037TIP3    H136056   2.818   4.647   4.715
12037TIP3    H236057   2.957   4.702   4.692
12038TIP3   OH236058   2.934   6.150   6.189
12038TIP3    H136059   3.003   6.085   6.177
12038TIP3    H236060   2.969   6.210   6.255
12039TIP3   OH236061   4.850   1.986   3.204
12039TIP3    H136062   4.763   1.959   3.232
12039TIP3    H236063   4.909   1.941   3.265
12040TIP3   OH236064   6.373   7.497   0.501
12040TIP3    H136065   6.394   7.406   0.478
12040TIP3    H236066   6.456   7.534   0.532
12041TIP3   OH236067   0.043   5.071   3.391
12041TIP3    H136068   0.055   4.988   3.438
12041TIP3    H236069   0.065   5.050   3.300
12042TIP3   OH236070   4.165   2.365   3.762
12042TIP3    H136071   4.096   2.307   3.797
12042TIP3    H236072   4.188   2.421   3.836
12043TIP3   OH236073   7.221   7.684   4.819
12043TIP3    H136074   7.159   7.642   4.879
12043TIP3    H236075   7.193   7.656   4.732
12044TIP3   OH236076   0.341   0.374   1.960
12044TIP3    H136077   0.290   0.424   1.896
12044TIP3    H236078   0.431   0.378   1.927
12045TIP3   OH236079   3.421   6.976   4.826
12045TIP3    H136080   3.362   6.989   4.900
12045TIP3    H236081   3.481   6.907   4.853
12046TIP3   OH236082   4.956   1.552   3.477
12046TIP3    H136083   4.966   1.590   3.390
12046TIP3    H236084   5.041   1.511   3.495
12047TIP3   OH236085   7.151   6.966   6.645
12047TIP3    H136086   7.088   7.037   6.632
12047TIP3    H236087   7.236   7.010   6.650
12048TIP3   OH236088   6.471   5.903   0.705
12048TIP3    H136089   6.440   5.839   0.641
12048TIP3    H236090   6.406   5.973   0.702
12049TIP3   OH236091   7.493   5.686   5.101
12049TIP3    H136092   7.571   5.740   5.092
12049TIP3    H236093   7.420   5.749   5.106
12050TIP3   OH236094   1.556   7.403   2.660
12050TIP3    H136095   1.586   7.474   2.716
12050TIP3    H236096   1.602   7.326   2.692
12051TIP3   OH236097   4.906   7.128   2.075
12051TIP3    H136098   4.905   7.130   1.979
12051TIP3    H236099   4.814   7.116   2.100
12052TIP3   OH236100   7.293   0.539   3.007
12052TIP3    H136101   7.285   0.579   2.920
12052TIP3    H236102   7.385   0.515   3.015
12053TIP3   OH236103   3.960   3.776   5.584
12053TIP3    H136104   3.956   3.871   5.578
12053TIP3    H236105   4.040   3.752   5.537
12054TIP3   OH236106   1.460   3.665   4.116
12054TIP3    H136107   1.555   3.670   4.110
12054TIP3    H236108   1.443   3.612   4.194
12055TIP3   OH236109   0.034   7.699   4.724
12055TIP3    H136110  -0.002   7.713   4.636
12055TIP3    H236111   0.018   7.781   4.770
12056TIP3   OH236112   6.254   7.129   5.672
12056TIP3    H136113   6.165   7.108   5.644
12056TIP3    H236114   6.280   7.053   5.725
12057TIP3   OH236115   5.976   7.571   5.805
12057TIP3    H136116   6.067   7.576   5.774
12057TIP3    H236117   5.969   7.484   5.844
12058TIP3   OH236118   2.062   6.983   5.838
12058TIP3    H136119   2.126   6.915   5.859
12058TIP3    H236120   1.991   6.968   5.901
12059TIP3   OH236121   7.707   3.081   5.647
12059TIP3    H136122   7.662   3.144   5.703
12059TIP3    H236123   7.757   3.135   5.586
12060TIP3   OH236124   1.741   6.249   0.179
12060TIP3    H136125   1.806   6.190   0.216
12060TIP3    H236126   1.791   6.324   0.147
12061TIP3   OH236127   1.364   7.674   5.485
12061TIP3    H136128   1.287   7.617   5.489
12061TIP3    H236129   1.396   7.666   5.395
12062TIP3   OH236130   7.408   7.395  -0.012
12062TIP3    H136131   7.433   7.307   0.015
12062TIP3    H236132   7.490   7.443  -0.016
12063TIP3   OH236133   5.096   1.030   4.413
12063TIP3    H136134   5.066   1.117   4.440
12063TIP3    H236135   5.020   0.990   4.370
12064TIP3   OH236136   1.164   4.578   5.627
12064TIP3    H136137   1.122   4.502   5.586
12064TIP3    H236138   1.091   4.626   5.667
12065TIP3   OH236139   6.594   6.953   5.488
12065TIP3    H136140   6.605   6.959   5.583
12065TIP3    H236141   6.528   6.886   5.475
12066TIP3   OH236142   0.286   5.334   0.688
12066TIP3    H136143   0.258   5.423   0.707
12066TIP3    H236144   0.382   5.339   0.683
12067TIP3   OH236145   2.380   2.846   5.191
12067TIP3    H136146   2.370   2.941   5.190
12067TIP3    H236147   2.468   2.831   5.159
12068TIP3   OH236148   2.751   5.710   4.609
12068TIP3    H136149   2.724   5.799   4.585
12068TIP3    H236150   2.802   5.721   4.689
12069TIP3   OH236151   1.231   2.832   0.916
12069TIP3    H136152   1.169   2.778   0.965
12069TIP3    H236153   1.314   2.786   0.924
12070TIP3   OH236154   2.839   3.976   5.178
12070TIP3    H136155   2.766   3.921   5.207
12070TIP3    H236156   2.822   4.061   5.218
12071TIP3   OH236157   1.496   6.460   2.768
12071TIP3    H136158   1.525   6.514   2.695
12071TIP3    H236159   1.565   6.469   2.833
12072TIP3   OH236160   5.587   4.959   5.322
12072TIP3    H136161   5.515   4.910   5.283
12072TIP3    H236162   5.582   5.046   5.281
12073TIP3   OH236163   1.164   3.091   1.416
12073TIP3    H136164   1.211   3.046   1.487
12073TIP3    H236165   1.162   3.027   1.345
12074TIP3   OH236166   3.386   7.137   0.272
12074TIP3    H136167   3.457   7.167   0.214
12074TIP3    H236168   3.407   7.046   0.291
12075TIP3   OH236169   7.149   0.844   5.580
12075TIP3    H136170   7.190   0.863   5.496
12075TIP3    H236171   7.088   0.917   5.594
12076TIP3   OH236172   1.379   5.493   4.685
12076TIP3    H136173   1.338   5.455   4.607
12076TIP3    H236174   1.408   5.417   4.736
12077TIP3   OH236175   6.448   1.882   0.145
12077TIP3    H136176   6.476   1.849   0.230
12077TIP3    H236177   6.406   1.808   0.102
12078TIP3   OH236178   4.488   4.113   1.816
12078TIP3    H136179   4.481   4.104   1.721
12078TIP3    H236180   4.442   4.037   1.852
12079TIP3   OH236181   6.783   2.278   0.467
12079TIP3    H136182   6.764   2.306   0.377
12079TIP3    H236183   6.837   2.348   0.503
12080TIP3   OH236184   5.294   7.437   3.813
12080TIP3    H136185   5.308   7.494   3.888
12080TIP3    H236186   5.355   7.469   3.746
12081TIP3   OH236187   6.845   4.591   6.726
12081TIP3    H136188   6.876   4.603   6.636
12081TIP3    H236189   6.770   4.650   6.734
12082TIP3   OH236190   1.927   3.381   3.252
12082TIP3    H136191   1.863   3.378   3.323
12082TIP3    H236192   2.011   3.363   3.295
12083TIP3   OH236193   5.496   2.076   0.819
12083TIP3    H136194   5.540   1.993   0.837
12083TIP3    H236195   5.546   2.141   0.869
12084TIP3   OH236196   3.436   4.714   4.801
12084TIP3    H136197   3.470   4.742   4.885
12084TIP3    H236198   3.463   4.622   4.793
12085TIP3   OH236199   1.118   1.790   6.443
12085TIP3    H136200   1.117   1.884   6.424
12085TIP3    H236201   1.210   1.765   6.436
12086TIP3   OH236202   7.747   5.829   5.761
12086TIP3    H136203   7.806   5.875   5.821
12086TIP3    H236204   7.805   5.784   5.700
12087TIP3   OH236205   6.889   4.078   5.226
12087TIP3    H136206   6.875   4.122   5.310
12087TIP3    H236207   6.941   4.141   5.175
12088TIP3   OH236208   4.198   0.970   1.583
12088TIP3    H136209   4.200   1.064   1.603
12088TIP3    H236210   4.265   0.932   1.639
12089TIP3   OH236211   8.092   6.198   4.118
12089TIP3    H136212   8.145   6.122   4.141
12089TIP3    H236213   8.151   6.273   4.128
12090TIP3   OH236214   6.398   1.998   0.462
12090TIP3    H136215   6.423   1.920   0.413
12090TIP3    H236216   6.355   1.965   0.540
12091TIP3   OH236217   8.235   2.381   4.379
12091TIP3    H136218   8.253   2.416   4.466
12091TIP3    H236219   8.221   2.458   4.324
12092TIP3   OH236220   2.117   4.309   2.549
12092TIP3    H136221   2.046   4.322   2.487
12092TIP3    H236222   2.196   4.329   2.499
12093TIP3   OH236223   0.744   0.840   2.795
12093TIP3    H136224   0.695   0.853   2.714
12093TIP3    H236225   0.799   0.918   2.803
12094TIP3   OH236226   0.634   0.788   1.694
12094TIP3    H136227   0.653   0.834   1.612
12094TIP3    H236228   0.716   0.793   1.744
12095TIP3   OH236229   4.263   0.181   4.796
12095TIP3    H136230   4.324   0.253   4.808
12095TIP3    H236231   4.318   0.102   4.800
12096TIP3   OH236232   1.099   3.215   5.036
12096TIP3    H136233   1.110   3.228   4.942
12096TIP3    H236234   1.163   3.148   5.059
12097TIP3   OH236235   5.298   0.105   1.310
12097TIP3    H136236   5.230   0.173   1.305
12097TIP3    H236237   5.380   0.153   1.318
12098TIP3   OH236238   7.061   5.065   6.783
12098TIP3    H136239   7.009   5.103   6.713
12098TIP3    H236240   7.132   5.018   6.738
12099TIP3   OH236241   5.799   6.258   0.931
12099TIP3    H136242   5.723   6.288   0.981
12099TIP3    H236243   5.829   6.336   0.885
12100TIP3   OH236244   4.852   2.409   0.588
12100TIP3    H136245   4.888   2.410   0.499
12100TIP3    H236246   4.929   2.411   0.645
12101TIP3   OH236247   5.194   7.463   5.309
12101TIP3    H136248   5.235   7.511   5.380
12101TIP3    H236249   5.101   7.487   5.314
12102TIP3   OH236250   2.673   0.853   2.535
12102TIP3    H136251   2.702   0.872   2.446
12102TIP3    H236252   2.754   0.846   2.586
12103TIP3   OH236253   0.850   5.793   4.059
12103TIP3    H136254   0.887   5.828   4.141
12103TIP3    H236255   0.765   5.837   4.051
12104TIP3   OH236256   5.066   6.877   2.506
12104TIP3    H136257   5.039   6.920   2.425
12104TIP3    H236258   5.156   6.849   2.489
12105TIP3   OH236259   6.761   5.436   0.228
12105TIP3    H136260   6.719   5.397   0.305
12105TIP3    H236261   6.700   5.504   0.200
12106TIP3   OH236262   1.676   1.064   2.742
12106TIP3    H136263   1.705   1.078   2.832
12106TIP3    H236264   1.640   1.149   2.715
12107TIP3   OH236265   5.532   0.909   3.240
12107TIP3    H136266   5.516   0.922   3.333
12107TIP3    H236267   5.485   0.981   3.197
12108TIP3   OH236268   5.409   6.398   5.401
12108TIP3    H136269   5.497   6.425   5.376
12108TIP3    H236270   5.364   6.479   5.423
12109TIP3   OH236271   3.798   7.627   4.860
12109TIP3    H136272   3.881   7.636   4.813
12109TIP3    H236273   3.820   7.575   4.938
12110TIP3   OH236274   2.252   5.499   5.882
12110TIP3    H136275   2.322   5.554   5.916
12110TIP3    H236276   2.173   5.552   5.891
12111TIP3   OH236277   1.902   4.721   0.590
12111TIP3    H136278   1.847   4.668   0.532
12111TIP3    H236279   1.855   4.720   0.674
12112TIP3   OH236280   5.879   3.043   2.685
12112TIP3    H136281   5.952   2.988   2.714
12112TIP3    H236282   5.800   2.995   2.712
12113TIP3   OH236283   2.658   0.252   6.756
12113TIP3    H136284   2.714   0.302   6.815
12113TIP3    H236285   2.694   0.267   6.669
12114TIP3   OH236286   7.240   1.741   6.683
12114TIP3    H136287   7.291   1.820   6.703
12114TIP3    H236288   7.149   1.771   6.683
12115TIP3   OH236289   7.908   5.926   3.399
12115TIP3    H136290   7.907   5.848   3.454
12115TIP3    H236291   8.001   5.938   3.377
12116TIP3   OH236292   0.257   4.675   2.619
12116TIP3    H136293   0.255   4.715   2.533
12116TIP3    H236294   0.340   4.627   2.621
12117TIP3   OH236295   5.445   1.052   4.820
12117TIP3    H136296   5.427   1.125   4.762
12117TIP3    H236297   5.375   1.056   4.885
12118TIP3   OH236298   5.614   0.563   2.603
12118TIP3    H136299   5.653   0.592   2.686
12118TIP3    H236300   5.528   0.530   2.628
12119TIP3   OH236301   1.212   1.114   1.113
12119TIP3    H136302   1.179   1.130   1.201
12119TIP3    H236303   1.301   1.082   1.126
12120TIP3   OH236304   8.120   6.044   5.468
12120TIP3    H136305   8.062   6.079   5.536
12120TIP3    H236306   8.208   6.052   5.504
12121TIP3   OH236307   4.812   2.567   6.132
12121TIP3    H136308   4.859   2.589   6.051
12121TIP3    H236309   4.822   2.644   6.187
12122TIP3   OH236310   5.299   5.674   3.793
12122TIP3    H136311   5.390   5.702   3.791
12122TIP3    H236312   5.251   5.749   3.826
12123TIP3   OH236313   8.292   2.861   3.802
12123TIP3    H136314   8.287   2.956   3.815
12123TIP3    H236315   8.205   2.829   3.826
12124TIP3   OH236316   6.058   3.473   1.817
12124TIP3    H136317   6.031   3.536   1.750
12124TIP3    H236318   6.147   3.450   1.793
12125TIP3   OH236319   5.138   1.001   4.036
12125TIP3    H136320   5.212   1.051   4.070
12125TIP3    H236321   5.134   0.923   4.092
12126TIP3   OH236322   2.380   7.693   3.202
12126TIP3    H136323   2.320   7.743   3.257
12126TIP3    H236324   2.413   7.624   3.260
12127TIP3   OH236325   7.523   1.629   0.689
12127TIP3    H136326   7.604   1.607   0.736
12127TIP3    H236327   7.551   1.688   0.619
12128TIP3   OH236328   1.487   1.510   4.190
12128TIP3    H136329   1.535   1.561   4.256
12128TIP3    H236330   1.463   1.574   4.123
12129TIP3   OH236331   2.768   4.511   0.966
12129TIP3    H136332   2.711   4.587   0.975
12129TIP3    H236333   2.710   4.435   0.974
12130TIP3   OH236334   2.399   6.412   2.754
12130TIP3    H136335   2.342   6.355   2.702
12130TIP3    H236336   2.406   6.368   2.838
12131TIP3   OH236337   5.044   2.099   1.258
12131TIP3    H136338   5.002   2.127   1.340
12131TIP3    H236339   5.115   2.162   1.245
12132TIP3   OH236340   3.439   3.995   3.179
12132TIP3    H136341   3.425   3.949   3.096
12132TIP3    H236342   3.531   3.977   3.201
12133TIP3   OH236343   2.149   5.569   1.156
12133TIP3    H136344   2.085   5.616   1.102
12133TIP3    H236345   2.109   5.484   1.173
12134TIP3   OH236346   4.467   3.743   6.014
12134TIP3    H136347   4.521   3.818   5.989
12134TIP3    H236348   4.530   3.677   6.045
12135TIP3   OH236349   7.692   7.813   1.309
12135TIP3    H136350   7.687   7.906   1.334
12135TIP3    H236351   7.694   7.766   1.392
12136TIP3   OH236352   0.121   6.711   4.432
12136TIP3    H136353   0.156   6.729   4.520
12136TIP3    H236354   0.058   6.640   4.445
12137TIP3   OH236355   5.613   5.120   0.724
12137TIP3    H136356   5.533   5.155   0.762
12137TIP3    H236357   5.594   5.027   0.708
12138TIP3   OH236358   7.829   5.350   2.811
12138TIP3    H136359   7.913   5.381   2.843
12138TIP3    H236360   7.850   5.271   2.760
12139TIP3   OH236361   1.564   4.754   5.181
12139TIP3    H136362   1.631   4.702   5.226
12139TIP3    H236363   1.487   4.749   5.238
12140TIP3   OH236364   1.722   5.944   1.758
12140TIP3    H136365   1.634   5.980   1.762
12140TIP3    H236366   1.740   5.932   1.665
12141TIP3   OH236367   0.159   2.220   1.689
12141TIP3    H136368   0.089   2.285   1.679
12141TIP3    H236369   0.187   2.229   1.780
12142TIP3   OH236370   6.003   4.001   6.135
12142TIP3    H136371   6.067   3.944   6.177
12142TIP3    H236372   5.918   3.962   6.157
12143TIP3   OH236373   2.299   2.380   6.517
12143TIP3    H136374   2.384   2.349   6.484
12143TIP3    H236375   2.302   2.475   6.504
12144TIP3   OH236376   1.396   3.919   2.238
12144TIP3    H136377   1.349   3.983   2.185
12144TIP3    H236378   1.430   3.856   2.174
12145TIP3   OH236379   4.587   3.064   2.334
12145TIP3    H136380   4.584   3.115   2.253
12145TIP3    H236381   4.585   3.130   2.403
12146TIP3   OH236382   7.598   7.068   1.972
12146TIP3    H136383   7.683   7.032   1.946
12146TIP3    H236384   7.537   7.037   1.905
12147TIP3   OH236385   3.944   1.908   4.736
12147TIP3    H136386   3.991   1.920   4.653
12147TIP3    H236387   3.981   1.828   4.773
12148TIP3   OH236388   7.481   2.694   2.790
12148TIP3    H136389   7.536   2.647   2.727
12148TIP3    H236390   7.512   2.664   2.876
12149TIP3   OH236391   7.484   6.076   0.500
12149TIP3    H136392   7.565   6.120   0.526
12149TIP3    H236393   7.496   5.986   0.531
12150TIP3   OH236394   0.521   5.120   0.711
12150TIP3    H136395   0.485   5.064   0.780
12150TIP3    H236396   0.469   5.099   0.633
12151TIP3   OH236397   4.617   0.826   5.727
12151TIP3    H136398   4.547   0.892   5.726
12151TIP3    H236399   4.660   0.837   5.642
12152TIP3   OH236400   0.639   5.920   5.491
12152TIP3    H136401   0.620   5.866   5.414
12152TIP3    H236402   0.603   6.006   5.470
12153TIP3   OH236403   4.375   4.383   5.845
12153TIP3    H136404   4.326   4.460   5.818
12153TIP3    H236405   4.463   4.415   5.865
12154TIP3   OH236406   6.375   2.579   1.275
12154TIP3    H136407   6.460   2.608   1.310
12154TIP3    H236408   6.332   2.660   1.248
12155TIP3   OH236409   4.412   6.997   3.898
12155TIP3    H136410   4.387   6.910   3.865
12155TIP3    H236411   4.417   6.986   3.993
12156TIP3   OH236412   0.254   3.321   5.593
12156TIP3    H136413   0.225   3.237   5.627
12156TIP3    H236414   0.308   3.299   5.517
12157TIP3   OH236415   2.690   3.549   0.859
12157TIP3    H136416   2.615   3.512   0.813
12157TIP3    H236417   2.665   3.549   0.951
12158TIP3   OH236418   4.528   0.948   0.289
12158TIP3    H136419   4.497   0.907   0.369
12158TIP3    H236420   4.518   1.042   0.305
12159TIP3   OH236421   2.209   4.327   6.063
12159TIP3    H136422   2.250   4.404   6.102
12159TIP3    H236423   2.207   4.346   5.969
12160TIP3   OH236424   2.129   6.608   1.095
12160TIP3    H136425   2.039   6.577   1.107
12160TIP3    H236426   2.141   6.672   1.166
12161TIP3   OH236427   4.108   4.905   0.396
12161TIP3    H136428   4.044   4.920   0.465
12161TIP3    H236429   4.152   4.824   0.421
12162TIP3   OH236430   6.277   7.859   1.151
12162TIP3    H136431   6.299   7.818   1.235
12162TIP3    H236432   6.320   7.945   1.154
12163TIP3   OH236433   5.445   7.055   1.423
12163TIP3    H136434   5.465   6.989   1.489
12163TIP3    H236435   5.486   7.135   1.456
12164TIP3   OH236436   3.776   2.162   6.082
12164TIP3    H136437   3.765   2.127   5.994
12164TIP3    H236438   3.871   2.165   6.095
12165TIP3   OH236439   7.902   6.493   3.072
12165TIP3    H136440   7.941   6.581   3.079
12165TIP3    H236441   7.939   6.445   3.147
12166TIP3   OH236442   1.979   1.744   0.589
12166TIP3    H136443   2.052   1.682   0.588
12166TIP3    H236444   1.989   1.795   0.508
12167TIP3   OH236445   0.616   7.739   0.425
12167TIP3    H136446   0.529   7.729   0.463
12167TIP3    H236447   0.673   7.755   0.500
12168TIP3   OH236448   2.742   7.417   3.408
12168TIP3    H136449   2.721   7.339   3.459
12168TIP3    H236450   2.829   7.399   3.372
12169TIP3   OH236451   5.437   2.717   6.189
12169TIP3    H136452   5.386   2.750   6.116
12169TIP3    H236453   5.389   2.640   6.220
12170TIP3   OH236454   0.550   2.793   5.836
12170TIP3    H136455   0.458   2.773   5.820
12170TIP3    H236456   0.597   2.748   5.767
12171TIP3   OH236457   7.021   3.872   3.289
12171TIP3    H136458   6.945   3.869   3.231
12171TIP3    H236459   7.067   3.790   3.273
12172TIP3   OH236460   2.554   2.409   0.151
12172TIP3    H136461   2.600   2.344   0.203
12172TIP3    H236462   2.519   2.472   0.214
12173TIP3   OH236463   1.177   2.865   1.241
12173TIP3    H136464   1.180   2.769   1.245
12173TIP3    H236465   1.263   2.890   1.207
12174TIP3   OH236466   5.743   5.868   2.114
12174TIP3    H136467   5.666   5.902   2.070
12174TIP3    H236468   5.812   5.931   2.094
12175TIP3   OH236469   6.446   4.795   5.618
12175TIP3    H136470   6.523   4.823   5.668
12175TIP3    H236471   6.454   4.840   5.534
12176TIP3   OH236472   5.602   3.467   5.433
12176TIP3    H136473   5.509   3.445   5.444
12176TIP3    H236474   5.602   3.555   5.397
12177TIP3   OH236475   4.743   0.235   3.969
12177TIP3    H136476   4.830   0.258   3.937
12177TIP3    H236477   4.683   0.265   3.900
12178TIP3   OH236478   0.531   2.358   2.512
12178TIP3    H136479   0.453   2.369   2.458
12178TIP3    H236480   0.572   2.278   2.478
12179TIP3   OH236481   5.209   5.005   6.406
12179TIP3    H136482   5.159   5.085   6.425
12179TIP3    H236483   5.296   5.036   6.383
12180TIP3   OH236484   3.989   6.340   4.434
12180TIP3    H136485   4.013   6.414   4.378
12180TIP3    H236486   4.073   6.304   4.463
12181TIP3   OH236487   2.748   7.575   3.671
12181TIP3    H136488   2.761   7.497   3.618
12181TIP3    H236489   2.665   7.561   3.716
12182TIP3   OH236490   1.373   2.773   6.182
12182TIP3    H136491   1.297   2.775   6.240
12182TIP3    H236492   1.391   2.864   6.162
12183TIP3   OH236493   6.903   4.868   6.605
12183TIP3    H136494   6.942   4.947   6.570
12183TIP3    H236495   6.813   4.893   6.627
12184TIP3   OH236496   5.312   4.826   0.083
12184TIP3    H136497   5.363   4.810   0.162
12184TIP3    H236498   5.367   4.885   0.031
12185TIP3   OH236499   7.331   3.662   3.917
12185TIP3    H136500   7.355   3.622   3.833
12185TIP3    H236501   7.414   3.687   3.956
12186TIP3   OH236502   5.968   3.553   5.453
12186TIP3    H136503   5.929   3.470   5.480
12186TIP3    H236504   6.041   3.565   5.514
12187TIP3   OH236505   3.682   5.717   2.337
12187TIP3    H136506   3.625   5.763   2.275
12187TIP3    H236507   3.656   5.626   2.331
12188TIP3   OH236508   6.929   4.230   2.333
12188TIP3    H136509   6.942   4.190   2.419
12188TIP3    H236510   6.847   4.278   2.342
12189TIP3   OH236511   4.727   6.623   2.721
12189TIP3    H136512   4.720   6.584   2.808
12189TIP3    H236513   4.648   6.593   2.675
12190TIP3   OH236514   6.394   4.804   0.853
12190TIP3    H136515   6.419   4.748   0.779
12190TIP3    H236516   6.441   4.886   0.838
12191TIP3   OH236517   4.566   5.991   5.634
12191TIP3    H136518   4.660   5.975   5.630
12191TIP3    H236519   4.558   6.084   5.658
12192TIP3   OH236520   2.008   1.324   2.939
12192TIP3    H136521   1.970   1.339   3.025
12192TIP3    H236522   1.944   1.361   2.878
12193TIP3   OH236523   5.595   2.554   3.576
12193TIP3    H136524   5.573   2.577   3.486
12193TIP3    H236525   5.512   2.561   3.623
12194TIP3   OH236526   1.971   3.021   5.556
12194TIP3    H136527   1.962   3.038   5.650
12194TIP3    H236528   1.917   3.087   5.514
12195TIP3   OH236529   2.968   0.916   2.862
12195TIP3    H136530   2.902   0.846   2.866
12195TIP3    H236531   2.925   0.991   2.901
12196TIP3   OH236532   2.250   0.762   0.745
12196TIP3    H136533   2.223   0.852   0.724
12196TIP3    H236534   2.282   0.727   0.661
12197TIP3   OH236535   4.979   5.812   3.847
12197TIP3    H136536   5.045   5.848   3.906
12197TIP3    H236537   4.895   5.831   3.889
12198TIP3   OH236538   3.107   0.878   0.454
12198TIP3    H136539   3.047   0.840   0.389
12198TIP3    H236540   3.116   0.969   0.428
12199TIP3   OH236541   2.199   5.892   1.482
12199TIP3    H136542   2.170   5.904   1.392
12199TIP3    H236543   2.128   5.843   1.524
12200TIP3   OH236544   0.211   5.404   4.167
12200TIP3    H136545   0.256   5.415   4.083
12200TIP3    H236546   0.188   5.311   4.169
12201TIP3   OH236547   7.530   6.449   1.523
12201TIP3    H136548   7.618   6.445   1.562
12201TIP3    H236549   7.486   6.370   1.556
12202TIP3   OH236550   3.902   6.788   2.737
12202TIP3    H136551   3.928   6.753   2.652
12202TIP3    H236552   3.836   6.727   2.770
12203TIP3   OH236553   6.669   6.253   0.026
12203TIP3    H136554   6.660   6.164  -0.010
12203TIP3    H236555   6.764   6.267   0.031
12204TIP3   OH236556   6.716   6.418   3.077
12204TIP3    H136557   6.631   6.437   3.118
12204TIP3    H236558   6.770   6.386   3.149
12205TIP3   OH236559   7.259   2.807   5.085
12205TIP3    H136560   7.336   2.754   5.107
12205TIP3    H236561   7.249   2.797   4.991
12206TIP3   OH236562   1.384   4.791   6.284
12206TIP3    H136563   1.399   4.874   6.330
12206TIP3    H236564   1.469   4.746   6.288
12207TIP3   OH236565   0.796   1.732   1.456
12207TIP3    H136566   0.712   1.719   1.412
12207TIP3    H236567   0.856   1.757   1.386
12208TIP3   OH236568   4.040   7.399   1.728
12208TIP3    H136569   4.076   7.417   1.641
12208TIP3    H236570   4.081   7.318   1.755
12209TIP3   OH236571   1.234   7.736   5.214
12209TIP3    H136572   1.316   7.722   5.167
12209TIP3    H236573   1.249   7.812   5.269
12210TIP3   OH236574   0.206   5.358   1.491
12210TIP3    H136575   0.188   5.279   1.439
12210TIP3    H236576   0.187   5.431   1.431
12211TIP3   OH236577   5.473   3.242   6.260
12211TIP3    H136578   5.489   3.264   6.168
12211TIP3    H236579   5.547   3.281   6.307
12212TIP3   OH236580   3.742   3.781   1.254
12212TIP3    H136581   3.657   3.785   1.210
12212TIP3    H236582   3.742   3.857   1.312
12213TIP3   OH236583   5.271   6.317   5.745
12213TIP3    H136584   5.236   6.309   5.656
12213TIP3    H236585   5.338   6.384   5.739
12214TIP3   OH236586   2.499   5.491   1.570
12214TIP3    H136587   2.568   5.444   1.522
12214TIP3    H236588   2.419   5.474   1.520
12215TIP3   OH236589   3.867   2.281   3.220
12215TIP3    H136590   3.847   2.296   3.312
12215TIP3    H236591   3.866   2.186   3.211
12216TIP3   OH236592   1.974   1.385   0.806
12216TIP3    H136593   1.908   1.419   0.866
12216TIP3    H236594   1.932   1.385   0.720
12217TIP3   OH236595   5.628   6.626   3.225
12217TIP3    H136596   5.713   6.629   3.182
12217TIP3    H236597   5.634   6.551   3.285
12218TIP3   OH236598   3.772   3.916   6.085
12218TIP3    H136599   3.783   3.907   5.990
12218TIP3    H236600   3.847   3.869   6.122
12219TIP3   OH236601   7.223   3.176   2.721
12219TIP3    H136602   7.133   3.205   2.712
12219TIP3    H236603   7.274   3.240   2.672
12220TIP3   OH236604   7.386   4.936   5.135
12220TIP3    H136605   7.317   4.996   5.110
12220TIP3    H236606   7.433   4.981   5.206
12221TIP3   OH236607   5.692   2.222   0.961
12221TIP3    H136608   5.782   2.220   0.927
12221TIP3    H236609   5.701   2.259   1.049
12222TIP3   OH236610   2.268   1.593   3.948
12222TIP3    H136611   2.299   1.662   4.006
12222TIP3    H236612   2.222   1.640   3.878
12223TIP3   OH236613   3.324   5.164   4.091
12223TIP3    H136614   3.300   5.254   4.112
12223TIP3    H236615   3.415   5.169   4.061
12224TIP3   OH236616   0.249   4.209   4.289
12224TIP3    H136617   0.283   4.144   4.227
12224TIP3    H236618   0.241   4.289   4.237
12225TIP3   OH236619   7.345   2.069   4.320
12225TIP3    H136620   7.324   2.125   4.395
12225TIP3    H236621   7.267   2.014   4.309
12226TIP3   OH236622   8.087   3.573   5.785
12226TIP3    H136623   8.156   3.522   5.741
12226TIP3    H236624   8.101   3.663   5.755
12227TIP3   OH236625   8.076   1.325   1.181
12227TIP3    H136626   8.151   1.266   1.189
12227TIP3    H236627   8.002   1.275   1.216
12228TIP3   OH236628   6.021   7.801   3.426
12228TIP3    H136629   6.004   7.894   3.441
12228TIP3    H236630   6.056   7.769   3.509
12229TIP3   OH236631   6.624   0.033   5.789
12229TIP3    H136632   6.681   0.062   5.860
12229TIP3    H236633   6.666   0.067   5.710
12230TIP3   OH236634   2.444   3.444   2.724
12230TIP3    H136635   2.486   3.421   2.641
12230TIP3    H236636   2.435   3.360   2.770
12231TIP3   OH236637   0.506   7.527   5.754
12231TIP3    H136638   0.577   7.462   5.758
12231TIP3    H236639   0.541   7.603   5.800
12232TIP3   OH236640   1.682   5.341   5.823
12232TIP3    H136641   1.661   5.251   5.845
12232TIP3    H236642   1.695   5.340   5.728
12233TIP3   OH236643   0.992   6.856   2.473
12233TIP3    H136644   1.018   6.787   2.411
12233TIP3    H236645   1.033   6.936   2.439
12234TIP3   OH236646   7.357   6.996   6.292
12234TIP3    H136647   7.344   7.090   6.300
12234TIP3    H236648   7.269   6.960   6.281
12235TIP3   OH236649   3.707   3.769   0.616
12235TIP3    H136650   3.745   3.775   0.704
12235TIP3    H236651   3.614   3.754   0.631
12236TIP3   OH236652   5.224   4.846   2.352
12236TIP3    H136653   5.144   4.795   2.365
12236TIP3    H236654   5.280   4.822   2.426
12237TIP3   OH236655   7.564   0.570   3.119
12237TIP3    H136656   7.568   0.514   3.197
12237TIP3    H236657   7.656   0.585   3.096
12238TIP3   OH236658   6.164   4.779   4.614
12238TIP3    H136659   6.209   4.699   4.585
12238TIP3    H236660   6.181   4.784   4.708
12239TIP3   OH236661   6.212   5.298   4.550
12239TIP3    H136662   6.119   5.322   4.546
12239TIP3    H236663   6.254   5.356   4.486
12240TIP3   OH236664   6.939   2.196   6.070
12240TIP3    H136665   6.858   2.222   6.115
12240TIP3    H236666   6.923   2.221   5.978
12241TIP3   OH236667   4.662   6.244   4.910
12241TIP3    H136668   4.655   6.247   5.005
12241TIP3    H236669   4.720   6.317   4.888
12242TIP3   OH236670   0.486   1.925   1.426
12242TIP3    H136671   0.533   1.991   1.478
12242TIP3    H236672   0.393   1.946   1.439
12243TIP3   OH236673   1.818   5.949   5.259
12243TIP3    H136674   1.895   5.893   5.271
12243TIP3    H236675   1.744   5.895   5.285
12244TIP3   OH236676   6.292   4.269   5.408
12244TIP3    H136677   6.387   4.281   5.421
12244TIP3    H236678   6.265   4.216   5.483
12245TIP3   OH236679   5.555   6.918   1.622
12245TIP3    H136680   5.604   6.966   1.689
12245TIP3    H236681   5.475   6.890   1.667
12246TIP3   OH236682   7.939   5.214   4.074
12246TIP3    H136683   8.013   5.167   4.113
12246TIP3    H236684   7.972   5.246   3.990
12247TIP3   OH236685   8.288   7.009   1.172
12247TIP3    H136686   8.315   7.035   1.260
12247TIP3    H236687   8.285   6.913   1.175
12248TIP3   OH236688   7.571   3.327   5.430
12248TIP3    H136689   7.477   3.345   5.427
12248TIP3    H236690   7.588   3.299   5.520
12249TIP3   OH236691   1.213   2.096   0.218
12249TIP3    H136692   1.307   2.092   0.199
12249TIP3    H236693   1.176   2.148   0.147
12250TIP3   OH236694   2.040   7.301   0.299
12250TIP3    H136695   1.995   7.368   0.350
12250TIP3    H236696   2.133   7.320   0.311
12251TIP3   OH236697   2.535   0.573   0.850
12251TIP3    H136698   2.539   0.592   0.756
12251TIP3    H236699   2.502   0.654   0.889
12252TIP3   OH236700   0.060   6.050   6.147
12252TIP3    H136701   0.036   6.101   6.224
12252TIP3    H236702  -0.002   6.077   6.079
12253TIP3   OH236703   0.529   2.877   1.480
12253TIP3    H136704   0.491   2.923   1.555
12253TIP3    H236705   0.612   2.921   1.464
12254TIP3   OH236706   3.623   7.748   5.935
12254TIP3    H136707   3.640   7.673   5.992
12254TIP3    H236708   3.709   7.770   5.899
12255TIP3   OH236709   4.745   7.124   4.421
12255TIP3    H136710   4.706   7.065   4.486
12255TIP3    H236711   4.836   7.097   4.416
12256TIP3   OH236712   7.152   7.647   3.499
12256TIP3    H136713   7.221   7.581   3.488
12256TIP3    H236714   7.088   7.626   3.431
12257TIP3   OH236715   6.848   0.872   6.682
12257TIP3    H136716   6.889   0.839   6.762
12257TIP3    H236717   6.802   0.951   6.709
12258TIP3   OH236718   4.640   5.119   4.072
12258TIP3    H136719   4.547   5.138   4.075
12258TIP3    H236720   4.646   5.031   4.034
12259TIP3   OH236721   4.467   6.262   2.851
12259TIP3    H136722   4.528   6.237   2.781
12259TIP3    H236723   4.424   6.181   2.875
12260TIP3   OH236724   8.094   2.622   6.076
12260TIP3    H136725   8.155   2.580   6.138
12260TIP3    H236726   8.143   2.698   6.044
12261TIP3   OH236727   1.498   0.419   6.759
12261TIP3    H136728   1.425   0.458   6.712
12261TIP3    H236729   1.567   0.409   6.694
12262TIP3   OH236730   5.023   2.654   2.794
12262TIP3    H136731   4.997   2.725   2.852
12262TIP3    H236732   5.002   2.686   2.706
12263TIP3   OH236733   2.937   5.588   2.078
12263TIP3    H136734   2.976   5.638   2.150
12263TIP3    H236735   2.881   5.524   2.122
12264TIP3   OH236736   7.863   0.392   2.174
12264TIP3    H136737   7.948   0.396   2.217
12264TIP3    H236738   7.861   0.306   2.131
12265TIP3   OH236739   4.775   5.483   4.764
12265TIP3    H136740   4.834   5.557   4.781
12265TIP3    H236741   4.787   5.464   4.671
12266TIP3   OH236742   2.620   5.843   3.372
12266TIP3    H136743   2.533   5.876   3.396
12266TIP3    H236744   2.604   5.754   3.343
12267TIP3   OH236745   1.560   4.568   1.953
12267TIP3    H136746   1.552   4.516   1.873
12267TIP3    H236747   1.624   4.635   1.933
12268TIP3   OH236748   1.451   5.983   3.226
12268TIP3    H136749   1.393   6.018   3.158
12268TIP3    H236750   1.393   5.934   3.284
12269TIP3   OH236751   1.085   3.026   5.591
12269TIP3    H136752   0.991   3.008   5.590
12269TIP3    H236753   1.112   3.008   5.681
12270TIP3   OH236754   3.076   1.049   0.886
12270TIP3    H136755   2.986   1.069   0.859
12270TIP3    H236756   3.091   0.959   0.857
12271TIP3   OH236757   1.247   0.404   5.126
12271TIP3    H136758   1.182   0.411   5.056
12271TIP3    H236759   1.214   0.461   5.195
12272TIP3   OH236760   1.826   1.368   2.208
12272TIP3    H136761   1.768   1.296   2.235
12272TIP3    H236762   1.817   1.372   2.113
12273TIP3   OH236763   1.849   2.071   6.620
12273TIP3    H136764   1.933   2.096   6.582
12273TIP3    H236765   1.841   1.977   6.602
12274TIP3   OH236766   6.312   3.387   1.771
12274TIP3    H136767   6.328   3.423   1.684
12274TIP3    H236768   6.380   3.320   1.783
12275TIP3   OH236769   3.901   6.193   6.355
12275TIP3    H136770   3.827   6.141   6.327
12275TIP3    H236771   3.949   6.137   6.416
12276TIP3   OH236772   0.369   5.623   5.252
12276TIP3    H136773   0.389   5.707   5.294
12276TIP3    H236774   0.388   5.557   5.320
12277TIP3   OH236775   3.565   2.529   5.012
12277TIP3    H136776   3.515   2.586   5.070
12277TIP3    H236777   3.627   2.587   4.968
12278TIP3   OH236778   6.890   4.797   3.372
12278TIP3    H136779   6.965   4.741   3.348
12278TIP3    H236780   6.813   4.742   3.354
12279TIP3   OH236781   6.645   4.459   6.045
12279TIP3    H136782   6.611   4.547   6.065
12279TIP3    H236783   6.630   4.448   5.952
12280TIP3   OH236784   4.774   7.629   6.210
12280TIP3    H136785   4.694   7.678   6.188
12280TIP3    H236786   4.845   7.683   6.176
12281TIP3   OH236787   2.385   0.523   1.613
12281TIP3    H136788   2.442   0.446   1.614
12281TIP3    H236789   2.298   0.488   1.595
12282TIP3   OH236790   5.488   0.861   2.337
12282TIP3    H136791   5.547   0.917   2.387
12282TIP3    H236792   5.401   0.876   2.376
12283TIP3   OH236793   2.574   7.632   2.586
12283TIP3    H136794   2.667   7.635   2.562
12283TIP3    H236795   2.564   7.549   2.632
12284TIP3   OH236796   6.438   0.297   5.313
12284TIP3    H136797   6.506   0.230   5.323
12284TIP3    H236798   6.471   0.371   5.365
12285TIP3   OH236799   4.772   7.180   2.361
12285TIP3    H136800   4.773   7.275   2.348
12285TIP3    H236801   4.808   7.167   2.449
12286TIP3   OH236802   6.710   7.034   5.135
12286TIP3    H136803   6.615   7.024   5.133
12286TIP3    H236804   6.739   6.979   5.208
12287TIP3   OH236805   7.849   0.895   3.773
12287TIP3    H136806   7.784   0.948   3.726
12287TIP3    H236807   7.929   0.947   3.767
12288TIP3   OH236808   3.775   0.794   0.846
12288TIP3    H136809   3.844   0.833   0.791
12288TIP3    H236810   3.695   0.837   0.817
12289TIP3   OH236811   0.883   1.915   0.921
12289TIP3    H136812   0.900   1.999   0.879
12289TIP3    H236813   0.792   1.920   0.951
12290TIP3   OH236814   1.738   5.354   4.183
12290TIP3    H136815   1.710   5.272   4.224
12290TIP3    H236816   1.662   5.412   4.188
12291TIP3   OH236817   6.077   4.939   1.896
12291TIP3    H136818   6.044   5.011   1.950
12291TIP3    H236819   6.026   4.945   1.815
12292TIP3   OH236820   1.408   3.921   0.896
12292TIP3    H136821   1.464   3.964   0.960
12292TIP3    H236822   1.422   3.827   0.910
12293TIP3   OH236823   0.157   7.756   6.456
12293TIP3    H136824   0.221   7.826   6.442
12293TIP3    H236825   0.074   7.793   6.426
12294TIP3   OH236826   3.168   0.694   2.107
12294TIP3    H136827   3.232   0.705   2.036
12294TIP3    H236828   3.092   0.747   2.079
12295TIP3   OH236829   4.973   5.671   0.111
12295TIP3    H136830   5.063   5.686   0.083
12295TIP3    H236831   4.968   5.577   0.126
12296TIP3   OH236832   2.325   6.939   5.419
12296TIP3    H136833   2.237   6.920   5.453
12296TIP3    H236834   2.334   7.034   5.428
12297TIP3   OH236835   8.190   7.027   0.181
12297TIP3    H136836   8.263   7.009   0.240
12297TIP3    H236837   8.226   7.087   0.115
12298TIP3   OH236838   4.776   2.171   4.360
12298TIP3    H136839   4.743   2.242   4.414
12298TIP3    H236840   4.708   2.104   4.366
12299TIP3   OH236841   4.986   0.257   0.304
12299TIP3    H136842   5.004   0.166   0.281
12299TIP3    H236843   4.944   0.294   0.226
12300TIP3   OH236844   4.243   7.101   4.370
12300TIP3    H136845   4.253   7.065   4.459
12300TIP3    H236846   4.191   7.036   4.324
12301TIP3   OH236847   2.809   2.588   5.781
12301TIP3    H136848   2.740   2.563   5.842
12301TIP3    H236849   2.802   2.524   5.709
12302TIP3   OH236850   3.480   4.767   0.658
12302TIP3    H136851   3.529   4.791   0.737
12302TIP3    H236852   3.541   4.782   0.586
12303TIP3   OH236853   6.852   1.293   3.947
12303TIP3    H136854   6.889   1.325   4.029
12303TIP3    H236855   6.780   1.354   3.928
12304TIP3   OH236856   8.064   2.514   0.313
12304TIP3    H136857   8.077   2.584   0.377
12304TIP3    H236858   7.998   2.457   0.353
12305TIP3   OH236859   7.263   7.811   2.694
12305TIP3    H136860   7.315   7.743   2.650
12305TIP3    H236861   7.185   7.820   2.640
12306TIP3   OH236862   0.609   2.865   2.807
12306TIP3    H136863   0.549   2.833   2.739
12306TIP3    H236864   0.578   2.953   2.827
12307TIP3   OH236865   3.802   4.643   1.842
12307TIP3    H136866   3.728   4.703   1.828
12307TIP3    H236867   3.843   4.636   1.756
12308TIP3   OH236868   6.386   0.758   0.477
12308TIP3    H136869   6.436   0.837   0.458
12308TIP3    H236870   6.329   0.747   0.400
12309TIP3   OH236871   8.224   4.407   6.135
12309TIP3    H136872   8.259   4.321   6.157
12309TIP3    H236873   8.221   4.408   6.039
12310TIP3   OH236874   7.793   6.941   0.840
12310TIP3    H136875   7.758   7.024   0.810
12310TIP3    H236876   7.800   6.951   0.935
12311TIP3   OH236877   4.622   0.894   2.615
12311TIP3    H136878   4.661   0.808   2.602
12311TIP3    H236879   4.583   0.890   2.702
12312TIP3   OH236880   2.871   4.867   1.004
12312TIP3    H136881   2.899   4.849   0.914
12312TIP3    H236882   2.851   4.781   1.040
12313TIP3   OH236883   1.857   0.692   3.675
12313TIP3    H136884   1.945   0.676   3.640
12313TIP3    H236885   1.856   0.786   3.694
12314TIP3   OH236886   3.351   7.036   3.398
12314TIP3    H136887   3.363   7.124   3.363
12314TIP3    H236888   3.384   6.978   3.329
12315TIP3   OH236889   4.594  -0.013   0.989
12315TIP3    H136890   4.531   0.047   0.948
12315TIP3    H236891   4.560  -0.026   1.078
12316TIP3   OH236892   1.567   0.366   1.931
12316TIP3    H136893   1.479   0.364   1.892
12316TIP3    H236894   1.597   0.455   1.916
12317TIP3   OH236895   3.146   0.354   2.452
12317TIP3    H136896   3.065   0.380   2.495
12317TIP3    H236897   3.125   0.354   2.359
12318TIP3   OH236898   0.170   4.460   1.648
12318TIP3    H136899   0.196   4.398   1.580
12318TIP3    H236900   0.076   4.470   1.637
12319TIP3   OH236901   0.980   7.209   0.146
12319TIP3    H136902   0.953   7.299   0.128
12319TIP3    H236903   0.922   7.180   0.217
12320TIP3   OH236904   6.546   7.288   3.412
12320TIP3    H136905   6.486   7.283   3.486
12320TIP3    H236906   6.575   7.380   3.411
12321TIP3   OH236907   6.983   7.051   3.189
12321TIP3    H136908   6.996   6.975   3.132
12321TIP3    H236909   7.065   7.058   3.238
12322TIP3   OH236910   2.316   2.212   5.220
12322TIP3    H136911   2.227   2.189   5.245
12322TIP3    H236912   2.372   2.161   5.279
12323TIP3   OH236913   0.487   5.085   3.805
12323TIP3    H136914   0.502   5.108   3.897
12323TIP3    H236915   0.541   5.008   3.790
12324TIP3   OH236916   1.764   1.003   3.435
12324TIP3    H136917   1.771   0.908   3.428
12324TIP3    H236918   1.681   1.024   3.392
12325TIP3   OH236919   0.445   7.256   4.230
12325TIP3    H136920   0.392   7.186   4.191
12325TIP3    H236921   0.382   7.325   4.249
12326TIP3   OH236922   2.711   0.808   2.960
12326TIP3    H136923   2.679   0.810   3.050
12326TIP3    H236924   2.692   0.719   2.930
12327TIP3   OH236925   1.079   1.974   4.753
12327TIP3    H136926   1.019   1.911   4.714
12327TIP3    H236927   1.164   1.931   4.751
12328TIP3   OH236928   2.532   2.879   5.649
12328TIP3    H136929   2.452   2.852   5.695
12328TIP3    H236930   2.541   2.817   5.576
12329TIP3   OH236931   4.878   2.673   5.455
12329TIP3    H136932   4.916   2.751   5.413
12329TIP3    H236933   4.929   2.600   5.421
12330TIP3   OH236934   2.607   6.211   3.069
12330TIP3    H136935   2.691   6.219   3.114
12330TIP3    H236936   2.577   6.122   3.090
12331TIP3   OH236937   1.667   6.761   0.162
12331TIP3    H136938   1.652   6.855   0.175
12331TIP3    H236939   1.631   6.721   0.241
12332TIP3   OH236940   3.170   1.723   2.215
12332TIP3    H136941   3.168   1.642   2.164
12332TIP3    H236942   3.091   1.770   2.189
12333TIP3   OH236943   7.226   0.930   5.303
12333TIP3    H136944   7.162   0.989   5.263
12333TIP3    H236945   7.311   0.966   5.277
12334TIP3   OH236946   6.153   0.400   5.824
12334TIP3    H136947   6.175   0.403   5.731
12334TIP3    H236948   6.204   0.328   5.859
12335TIP3   OH236949   4.619   2.080   1.526
12335TIP3    H136950   4.528   2.099   1.502
12335TIP3    H236951   4.671   2.129   1.461
12336TIP3   OH236952   5.613   0.405   6.086
12336TIP3    H136953   5.671   0.348   6.138
12336TIP3    H236954   5.549   0.346   6.048
12337TIP3   OH236955   3.750   0.175   1.722
12337TIP3    H136956   3.818   0.163   1.788
12337TIP3    H236957   3.790   0.145   1.640
12338TIP3   OH236958   1.002   0.112   2.731
12338TIP3    H136959   0.951   0.095   2.651
12338TIP3    H236960   1.093   0.108   2.702
12339TIP3   OH236961   6.778   0.510   4.872
12339TIP3    H136962   6.865   0.479   4.895
12339TIP3    H236963   6.733   0.520   4.956
12340TIP3   OH236964   1.925   5.855   4.648
12340TIP3    H136965   1.900   5.947   4.634
12340TIP3    H236966   1.888   5.833   4.733
12341TIP3   OH236967   3.554   6.849   5.916
12341TIP3    H136968   3.505   6.930   5.902
12341TIP3    H236969   3.632   6.877   5.965
12342TIP3   OH236970   0.467   6.989   1.222
12342TIP3    H136971   0.532   6.933   1.265
12342TIP3    H236972   0.462   7.067   1.277
12343TIP3   OH236973   4.064   2.113   6.045
12343TIP3    H136974   4.079   2.158   5.962
12343TIP3    H236975   4.146   2.123   6.093
12344TIP3   OH236976   5.275   4.995   4.476
12344TIP3    H136977   5.369   5.014   4.482
12344TIP3    H236978   5.270   4.899   4.472
12345TIP3   OH236979   2.695   5.387   1.905
12345TIP3    H136980   2.750   5.312   1.883
12345TIP3    H236981   2.746   5.463   1.877
12346TIP3   OH236982   5.515   3.030   5.853
12346TIP3    H136983   5.602   3.005   5.884
12346TIP3    H236984   5.530   3.104   5.795
12347TIP3   OH236985   4.590   0.796   3.497
12347TIP3    H136986   4.685   0.788   3.486
12347TIP3    H236987   4.575   0.781   3.590
12348TIP3   OH236988   6.926   7.122   1.801
12348TIP3    H136989   6.838   7.085   1.807
12348TIP3    H236990   6.979   7.066   1.858
12349TIP3   OH236991   6.136   3.403   5.738
12349TIP3    H136992   6.098   3.331   5.688
12349TIP3    H236993   6.225   3.375   5.758
12350TIP3   OH236994   3.321   1.771   6.090
12350TIP3    H136995   3.263   1.730   6.026
12350TIP3    H236996   3.405   1.726   6.079
12351TIP3   OH236997   3.700   1.900   1.473
12351TIP3    H136998   3.666   1.814   1.447
12351TIP3    H236999   3.671   1.959   1.404
12352TIP3   OH237000   4.995   6.032   1.626
12352TIP3    H137001   5.006   6.089   1.550
12352TIP3    H237002   5.082   6.025   1.665
12353TIP3   OH237003   1.273   3.822   1.505
12353TIP3    H137004   1.354   3.816   1.555
12353TIP3    H237005   1.230   3.737   1.519
12354TIP3   OH237006   8.022   3.847   3.906
12354TIP3    H137007   8.078   3.911   3.951
12354TIP3    H237008   8.012   3.882   3.818
12355TIP3   OH237009   0.478   2.706   0.393
12355TIP3    H137010   0.466   2.799   0.375
12355TIP3    H237011   0.449   2.662   0.313
12356TIP3   OH237012   0.917   2.293   4.572
12356TIP3    H137013   0.857   2.335   4.510
12356TIP3    H237014   0.877   2.308   4.657
12357TIP3   OH237015   7.742   7.520   5.555
12357TIP3    H137016   7.793   7.583   5.504
12357TIP3    H237017   7.783   7.435   5.535
12358TIP3   OH237018   5.895   5.834   1.474
12358TIP3    H137019   5.813   5.813   1.430
12358TIP3    H237020   5.923   5.752   1.514
12359TIP3   OH237021   0.718   6.524   3.780
12359TIP3    H137022   0.743   6.534   3.871
12359TIP3    H237023   0.759   6.442   3.752
12360TIP3   OH237024   5.519   0.300   5.250
12360TIP3    H137025   5.557   0.218   5.281
12360TIP3    H237026   5.438   0.275   5.206
12361TIP3   OH237027   8.110   3.424   4.049
12361TIP3    H137028   8.158   3.374   4.115
12361TIP3    H237029   8.151   3.511   4.052
12362TIP3   OH237030   4.323   0.585   1.394
12362TIP3    H137031   4.414   0.613   1.380
12362TIP3    H237032   4.331   0.501   1.439
12363TIP3   OH237033   4.649   3.381   2.791
12363TIP3    H137034   4.617   3.294   2.816
12363TIP3    H237035   4.728   3.393   2.843
12364TIP3   OH237036   0.053   2.896   6.746
12364TIP3    H137037  -0.015   2.829   6.756
12364TIP3    H237038   0.114   2.859   6.683
12365TIP3   OH237039   0.437   2.428   0.882
12365TIP3    H137040   0.377   2.356   0.863
12365TIP3    H237041   0.439   2.434   0.977
12366TIP3   OH237042   7.795   5.822   2.857
12366TIP3    H137043   7.765   5.912   2.873
12366TIP3    H237044   7.728   5.785   2.801
12367TIP3   OH237045   7.613   0.241   2.528
12367TIP3    H137046   7.618   0.333   2.501
12367TIP3    H237047   7.702   0.208   2.515
12368TIP3   OH237048   3.171   7.372   1.951
12368TIP3    H137049   3.110   7.423   2.006
12368TIP3    H237050   3.162   7.411   1.864
12369TIP3   OH237051   2.555   5.597   3.312
12369TIP3    H137052   2.624   5.560   3.257
12369TIP3    H237053   2.490   5.527   3.319
12370TIP3   OH237054   7.787   0.948   0.644
12370TIP3    H137055   7.810   0.946   0.551
12370TIP3    H237056   7.815   0.862   0.677
12371TIP3   OH237057   3.370   0.157   1.168
12371TIP3    H137058   3.412   0.101   1.103
12371TIP3    H237059   3.402   0.245   1.149
12372TIP3   OH237060   4.320   5.021   6.563
12372TIP3    H137061   4.357   4.936   6.586
12372TIP3    H237062   4.258   5.041   6.633
12373TIP3   OH237063   3.175   6.815   4.090
12373TIP3    H137064   3.142   6.835   4.177
12373TIP3    H237065   3.103   6.766   4.049
12374TIP3   OH237066   2.304   4.891   1.482
12374TIP3    H137067   2.372   4.955   1.503
12374TIP3    H237068   2.237   4.941   1.436
12375TIP3   OH237069   6.881   0.030   3.683
12375TIP3    H137070   6.926   0.000   3.604
12375TIP3    H237071   6.941   0.009   3.754
12376TIP3   OH237072   5.839   6.210   2.959
12376TIP3    H137073   5.836   6.128   2.910
12376TIP3    H237074   5.867   6.184   3.047
12377TIP3   OH237075   6.149   1.907   3.354
12377TIP3    H137076   6.108   1.918   3.440
12377TIP3    H237077   6.211   1.979   3.347
12378TIP3   OH237078   6.010   6.053   1.324
12378TIP3    H137079   5.982   5.976   1.374
12378TIP3    H237080   5.956   6.124   1.358
12379TIP3   OH237081   1.136   5.790   3.592
12379TIP3    H137082   1.097   5.869   3.629
12379TIP3    H237083   1.062   5.735   3.568
12380TIP3   OH237084   6.923   0.963   4.790
12380TIP3    H137085   6.867   0.912   4.732
12380TIP3    H237086   6.958   0.899   4.852
12381TIP3   OH237087   2.623   2.385   3.833
12381TIP3    H137088   2.707   2.352   3.801
12381TIP3    H237089   2.640   2.476   3.858
12382TIP3   OH237090   3.280   6.267   4.727
12382TIP3    H137091   3.196   6.231   4.700
12382TIP3    H237092   3.344   6.224   4.672
12383TIP3   OH237093   0.873   7.493   4.356
12383TIP3    H137094   0.782   7.471   4.380
12383TIP3    H237095   0.916   7.408   4.347
12384TIP3   OH237096   5.169   3.906   5.287
12384TIP3    H137097   5.227   3.935   5.217
12384TIP3    H237098   5.150   3.815   5.265
12385TIP3   OH237099   6.066   4.443   6.169
12385TIP3    H137100   6.009   4.417   6.096
12385TIP3    H237101   6.136   4.378   6.169
12386TIP3   OH237102   4.718   5.340   4.994
12386TIP3    H137103   4.732   5.396   4.918
12386TIP3    H237104   4.791   5.361   5.053
12387TIP3   OH237105   7.629   1.561   1.557
12387TIP3    H137106   7.578   1.635   1.523
12387TIP3    H237107   7.659   1.591   1.642
12388TIP3   OH237108   6.099   5.068   4.301
12388TIP3    H137109   6.189   5.036   4.304
12388TIP3    H237110   6.098   5.130   4.228
12389TIP3   OH237111   5.486   4.556   2.080
12389TIP3    H137112   5.439   4.481   2.043
12389TIP3    H237113   5.424   4.595   2.142
12390TIP3   OH237114   5.360   6.423   6.026
12390TIP3    H137115   5.348   6.394   6.117
12390TIP3    H237116   5.374   6.342   5.977
12391TIP3   OH237117   5.611   2.513   2.803
12391TIP3    H137118   5.573   2.519   2.715
12391TIP3    H237119   5.552   2.565   2.858
12392TIP3   OH237120   6.776   0.034   5.539
12392TIP3    H137121   6.834   0.106   5.559
12392TIP3    H237122   6.726   0.064   5.463
12393TIP3   OH237123   7.469   4.697   5.021
12393TIP3    H137124   7.443   4.767   5.082
12393TIP3    H237125   7.500   4.743   4.943
12394TIP3   OH237126   2.791   6.578   0.627
12394TIP3    H137127   2.750   6.494   0.650
12394TIP3    H237128   2.851   6.556   0.556
12395TIP3   OH237129   0.047   6.306   4.152
12395TIP3    H137130   0.020   6.358   4.228
12395TIP3    H237131   0.061   6.371   4.083
12396TIP3   OH237132   6.782   1.923   3.876
12396TIP3    H137133   6.841   1.920   3.951
12396TIP3    H237134   6.840   1.912   3.800
12397TIP3   OH237135   6.173   5.429   6.486
12397TIP3    H137136   6.151   5.470   6.403
12397TIP3    H237137   6.107   5.360   6.498
12398TIP3   OH237138   3.083   2.041   2.927
12398TIP3    H137139   3.020   2.054   2.856
12398TIP3    H237140   3.091   2.127   2.969
12399TIP3   OH237141   5.062   3.054   1.464
12399TIP3    H137142   5.099   3.135   1.431
12399TIP3    H237143   4.967   3.063   1.450
12400TIP3   OH237144   4.142   1.441   2.840
12400TIP3    H137145   4.068   1.449   2.900
12400TIP3    H237146   4.112   1.482   2.759
12401TIP3   OH237147   0.411   1.396   2.672
12401TIP3    H137148   0.414   1.383   2.767
12401TIP3    H237149   0.360   1.322   2.639
12402TIP3   OH237150   3.277   5.211   5.754
12402TIP3    H137151   3.308   5.140   5.698
12402TIP3    H237152   3.257   5.169   5.837
12403TIP3   OH237153   0.482   4.592   0.489
12403TIP3    H137154   0.568   4.552   0.494
12403TIP3    H237155   0.483   4.640   0.406
12404TIP3   OH237156   7.150   4.844   2.296
12404TIP3    H137157   7.141   4.877   2.385
12404TIP3    H237158   7.222   4.781   2.301
12405TIP3   OH237159   2.939   2.999   4.299
12405TIP3    H137160   2.877   2.950   4.353
12405TIP3    H237161   2.904   2.994   4.211
12406TIP3   OH237162   4.714   0.022   5.907
12406TIP3    H137163   4.696   0.096   5.964
12406TIP3    H237164   4.740   0.061   5.824
12407TIP3   OH237165   5.459   7.524   3.607
12407TIP3    H137166   5.552   7.544   3.595
12407TIP3    H237167   5.438   7.465   3.535
12408TIP3   OH237168   2.486   4.242   1.352
12408TIP3    H137169   2.441   4.312   1.398
12408TIP3    H237170   2.506   4.177   1.420
12409TIP3   OH237171   5.148   6.290   1.045
12409TIP3    H137172   5.171   6.351   0.975
12409TIP3    H237173   5.218   6.299   1.110
12410TIP3   OH237174   2.355   6.086   4.035
12410TIP3    H137175   2.277   6.042   4.000
12410TIP3    H237176   2.417   6.087   3.962
12411TIP3   OH237177   2.116   6.977   3.133
12411TIP3    H137178   2.179   6.929   3.187
12411TIP3    H237179   2.151   7.066   3.128
12412TIP3   OH237180   1.294  -0.031   4.889
12412TIP3    H137181   1.253   0.042   4.935
12412TIP3    H237182   1.291  -0.104   4.952
12413TIP3   OH237183   0.635   5.380   3.401
12413TIP3    H137184   0.595   5.338   3.478
12413TIP3    H237185   0.636   5.474   3.423
12414TIP3   OH237186   5.862   3.084   3.550
12414TIP3    H137187   5.882   3.172   3.518
12414TIP3    H237188   5.798   3.097   3.619
12415TIP3   OH237189   4.526   6.552   2.532
12415TIP3    H137190   4.450   6.610   2.532
12415TIP3    H237191   4.490   6.465   2.542
12416TIP3   OH237192   6.648   3.629   3.042
12416TIP3    H137193   6.566   3.675   3.060
12416TIP3    H237194   6.650   3.557   3.105
12417TIP3   OH237195   2.401   0.587   5.928
12417TIP3    H137196   2.318   0.555   5.965
12417TIP3    H237197   2.380   0.673   5.893
12418TIP3   OH237198   5.781   1.475   1.315
12418TIP3    H137199   5.710   1.433   1.362
12418TIP3    H237200   5.853   1.412   1.317
12419TIP3   OH237201   4.090   3.887   4.952
12419TIP3    H137202   4.028   3.942   4.903
12419TIP3    H237203   4.084   3.801   4.909
12420TIP3   OH237204   5.819   4.359   0.690
12420TIP3    H137205   5.846   4.421   0.622
12420TIP3    H237206   5.729   4.385   0.712
12421TIP3   OH237207   0.664   2.134   2.432
12421TIP3    H137208   0.660   2.069   2.502
12421TIP3    H237209   0.670   2.083   2.351
12422TIP3   OH237210   1.315   2.503   6.133
12422TIP3    H137211   1.339   2.595   6.140
12422TIP3    H237212   1.224   2.499   6.166
12423TIP3   OH237213   0.654   2.862   1.129
12423TIP3    H137214   0.631   2.893   1.216
12423TIP3    H237215   0.639   2.938   1.072
12424TIP3   OH237216   0.735   7.222   4.816
12424TIP3    H137217   0.787   7.170   4.877
12424TIP3    H237218   0.748   7.180   4.731
12425TIP3   OH237219   3.410   2.482   1.419
12425TIP3    H137220   3.431   2.538   1.344
12425TIP3    H237221   3.347   2.533   1.469
12426TIP3   OH237222   3.104   6.345   5.110
12426TIP3    H137223   3.113   6.250   5.100
12426TIP3    H237224   3.022   6.357   5.157
12427TIP3   OH237225   0.933   2.400   1.104
12427TIP3    H137226   1.021   2.362   1.104
12427TIP3    H237227   0.898   2.378   1.017
12428TIP3   OH237228   5.789   2.353   2.514
12428TIP3    H137229   5.852   2.359   2.586
12428TIP3    H237230   5.818   2.420   2.452
12429TIP3   OH237231   1.780   5.377   3.918
12429TIP3    H137232   1.769   5.384   4.013
12429TIP3    H237233   1.739   5.294   3.895
12430TIP3   OH237234   1.153   0.553   3.408
12430TIP3    H137235   1.070   0.540   3.453
12430TIP3    H237236   1.137   0.526   3.318
12431TIP3   OH237237   8.311   4.333   4.810
12431TIP3    H137238   8.297   4.382   4.729
12431TIP3    H237239   8.237   4.357   4.866
12432TIP3   OH237240   3.754   4.463   1.429
12432TIP3    H137241   3.726   4.549   1.461
12432TIP3    H237242   3.674   4.421   1.397
12433TIP3   OH237243   2.051   5.516   2.534
12433TIP3    H137244   2.146   5.522   2.532
12433TIP3    H237245   2.024   5.579   2.601
12434TIP3   OH237246   1.278   7.189   6.378
12434TIP3    H137247   1.209   7.245   6.413
12434TIP3    H237248   1.238   7.102   6.374
12435TIP3   OH237249   7.133   2.854   0.175
12435TIP3    H137250   7.147   2.882   0.084
12435TIP3    H237251   7.221   2.840   0.209
12436TIP3   OH237252   6.718   5.916   0.840
12436TIP3    H137253   6.631   5.881   0.818
12436TIP3    H237254   6.702   5.977   0.912
12437TIP3   OH237255   2.401   1.801   0.134
12437TIP3    H137256   2.395   1.781   0.041
12437TIP3    H237257   2.311   1.814   0.163
12438TIP3   OH237258   6.095   7.215   5.067
12438TIP3    H137259   6.042   7.251   4.996
12438TIP3    H237260   6.185   7.218   5.033
12439TIP3   OH237261   6.550   2.132   1.941
12439TIP3    H137262   6.484   2.146   2.008
12439TIP3    H237263   6.616   2.076   1.983
12440TIP3   OH237264   7.985   1.348   5.815
12440TIP3    H137265   7.916   1.327   5.878
12440TIP3    H237266   7.962   1.435   5.783
12441TIP3   OH237267   5.100   6.626   0.196
12441TIP3    H137268   5.068   6.691   0.134
12441TIP3    H237269   5.118   6.675   0.276
12442TIP3   OH237270   0.441   6.831   6.272
12442TIP3    H137271   0.421   6.858   6.361
12442TIP3    H237272   0.521   6.779   6.280
12443TIP3   OH237273   2.627   2.419   4.874
12443TIP3    H137274   2.653   2.346   4.817
12443TIP3    H237275   2.657   2.497   4.827
12444TIP3   OH237276   0.869   5.622   2.895
12444TIP3    H137277   0.774   5.622   2.905
12444TIP3    H237278   0.900   5.562   2.963
12445TIP3   OH237279   7.694   1.596   2.675
12445TIP3    H137280   7.702   1.511   2.631
12445TIP3    H237281   7.616   1.588   2.729
12446TIP3   OH237282   5.091   3.006   2.113
12446TIP3    H137283   5.065   3.097   2.098
12446TIP3    H237284   5.147   3.010   2.191
12447TIP3   OH237285   8.254   6.769   3.320
12447TIP3    H137286   8.287   6.839   3.376
12447TIP3    H237287   8.159   6.779   3.322
12448TIP3   OH237288   6.085   1.514   6.099
12448TIP3    H137289   5.993   1.543   6.103
12448TIP3    H237290   6.081   1.430   6.054
12449TIP3   OH237291   4.548   4.047   3.245
12449TIP3    H137292   4.489   3.989   3.198
12449TIP3    H237293   4.525   4.036   3.337
12450TIP3   OH237294   7.749   4.033   0.581
12450TIP3    H137295   7.796   4.107   0.620
12450TIP3    H237296   7.814   3.988   0.527
12451TIP3   OH237297   1.745   1.308   0.215
12451TIP3    H137298   1.690   1.386   0.208
12451TIP3    H237299   1.822   1.327   0.162
12452TIP3   OH237300   1.324   5.580   6.122
12452TIP3    H137301   1.235   5.597   6.154
12452TIP3    H237302   1.311   5.551   6.031
12453TIP3   OH237303   6.436   0.869   4.290
12453TIP3    H137304   6.510   0.812   4.309
12453TIP3    H237305   6.456   0.907   4.205
12454TIP3   OH237306   5.190   5.030   5.482
12454TIP3    H137307   5.256   4.961   5.479
12454TIP3    H237308   5.194   5.063   5.572
12455TIP3   OH237309   2.669   5.555   6.143
12455TIP3    H137310   2.758   5.555   6.178
12455TIP3    H237311   2.672   5.616   6.070
12456TIP3   OH237312   7.499   2.245   0.394
12456TIP3    H137313   7.476   2.273   0.483
12456TIP3    H237314   7.480   2.151   0.393
12457TIP3   OH237315   2.064   5.388   3.308
12457TIP3    H137316   1.993   5.380   3.244
12457TIP3    H237317   2.048   5.472   3.352
12458TIP3   OH237318   1.976   0.413   3.651
12458TIP3    H137319   2.061   0.400   3.608
12458TIP3    H237320   1.991   0.485   3.713
12459TIP3   OH237321   3.381   1.163   1.583
12459TIP3    H137322   3.389   1.071   1.610
12459TIP3    H237323   3.461   1.204   1.616
12460TIP3   OH237324   0.813   2.030   5.606
12460TIP3    H137325   0.830   2.063   5.694
12460TIP3    H237326   0.717   2.023   5.601
12461TIP3   OH237327   7.396   5.494   0.246
12461TIP3    H137328   7.427   5.571   0.198
12461TIP3    H237329   7.357   5.439   0.179
12462TIP3   OH237330   5.766   1.785   1.901
12462TIP3    H137331   5.764   1.805   1.994
12462TIP3    H237332   5.686   1.825   1.867
12463TIP3   OH237333   8.052   6.315   0.063
12463TIP3    H137334   8.043   6.236   0.116
12463TIP3    H237335   8.143   6.340   0.073
12464TIP3   OH237336   6.454   5.714   3.917
12464TIP3    H137337   6.528   5.771   3.895
12464TIP3    H237338   6.483   5.665   3.994
12465TIP3   OH237339   8.254   5.928   4.128
12465TIP3    H137340   8.318   5.979   4.077
12465TIP3    H237341   8.233   5.854   4.071
12466TIP3   OH237342   1.816   6.408   6.259
12466TIP3    H137343   1.729   6.448   6.258
12466TIP3    H237344   1.815   6.348   6.333
12467TIP3   OH237345   1.919   3.049   1.694
12467TIP3    H137346   1.918   2.977   1.756
12467TIP3    H237347   1.863   3.021   1.622
12468TIP3   OH237348   7.759   3.749   2.584
12468TIP3    H137349   7.782   3.822   2.641
12468TIP3    H237350   7.809   3.675   2.619
12469TIP3   OH237351   7.470   4.169   4.181
12469TIP3    H137352   7.404   4.164   4.250
12469TIP3    H237353   7.436   4.236   4.121
12470TIP3   OH237354   1.696   5.071   5.873
12470TIP3    H137355   1.766   5.083   5.936
12470TIP3    H237356   1.709   4.982   5.840
12471TIP3   OH237357   7.178   3.801   6.047
12471TIP3    H137358   7.235   3.876   6.064
12471TIP3    H237359   7.100   3.818   6.101
12472TIP3   OH237360   1.755   3.363   2.539
12472TIP3    H137361   1.793   3.434   2.591
12472TIP3    H237362   1.691   3.323   2.597
12473TIP3   OH237363   3.443   2.865   4.478
12473TIP3    H137364   3.370   2.886   4.419
12473TIP3    H237365   3.480   2.951   4.500
12474TIP3   OH237366   2.306   1.584   5.156
12474TIP3    H137367   2.350   1.626   5.082
12474TIP3    H237368   2.226   1.549   5.119
12475TIP3   OH237369   6.166   1.313   0.526
12475TIP3    H137370   6.136   1.307   0.617
12475TIP3    H237371   6.239   1.251   0.521
12476TIP3   OH237372   0.219   3.972   2.427
12476TIP3    H137373   0.208   3.878   2.438
12476TIP3    H237374   0.242   4.005   2.514
12477TIP3   OH237375   5.326   3.197   2.727
12477TIP3    H137376   5.300   3.221   2.638
12477TIP3    H237377   5.245   3.201   2.777
12478TIP3   OH237378   3.556   1.538   0.148
12478TIP3    H137379   3.536   1.619   0.101
12478TIP3    H237380   3.541   1.469   0.084
12479TIP3   OH237381   2.069   5.966   1.226
12479TIP3    H137382   2.035   6.040   1.275
12479TIP3    H237383   2.126   6.005   1.160
12480TIP3   OH237384   3.862   5.020   0.607
12480TIP3    H137385   3.920   5.006   0.683
12480TIP3    H237386   3.790   5.073   0.642
12481TIP3   OH237387   3.444   7.444   4.224
12481TIP3    H137388   3.361   7.480   4.192
12481TIP3    H237389   3.424   7.353   4.245
12482TIP3   OH237390   2.893   2.586   0.226
12482TIP3    H137391   2.810   2.621   0.259
12482TIP3    H237392   2.959   2.645   0.262
12483TIP3   OH237393   0.687   0.811   3.214
12483TIP3    H137394   0.642   0.732   3.242
12483TIP3    H237395   0.630   0.850   3.148
12484TIP3   OH237396   1.497   6.149   4.757
12484TIP3    H137397   1.536   6.087   4.819
12484TIP3    H237398   1.448   6.094   4.696
12485TIP3   OH237399   3.893   2.213   4.911
12485TIP3    H137400   3.989   2.211   4.918
12485TIP3    H237401   3.875   2.188   4.820
12486TIP3   OH237402   0.068   0.996   0.935
12486TIP3    H137403   0.089   0.906   0.911
12486TIP3    H237404  -0.012   0.990   0.987
12487TIP3   OH237405   1.818   3.109   0.923
12487TIP3    H137406   1.904   3.067   0.910
12487TIP3    H237407   1.812   3.174   0.854
12488TIP3   OH237408   4.749   6.902   0.375
12488TIP3    H137409   4.816   6.949   0.326
12488TIP3    H237410   4.792   6.881   0.459
12489TIP3   OH237411   7.110   0.052   0.739
12489TIP3    H137412   7.064   0.064   0.821
12489TIP3    H237413   7.042   0.059   0.672
12490TIP3   OH237414   6.643   2.436   1.788
12490TIP3    H137415   6.680   2.479   1.711
12490TIP3    H237416   6.704   2.457   1.859
12491TIP3   OH237417   6.778   0.659   2.706
12491TIP3    H137418   6.798   0.621   2.620
12491TIP3    H237419   6.838   0.733   2.713
12492TIP3   OH237420   7.295   7.293   4.176
12492TIP3    H137421   7.230   7.231   4.212
12492TIP3    H237422   7.313   7.353   4.249
12493TIP3   OH237423   2.864   7.057   1.409
12493TIP3    H137424   2.886   6.973   1.368
12493TIP3    H237425   2.769   7.062   1.402
12494TIP3   OH237426   5.347   2.844   0.259
12494TIP3    H137427   5.332   2.757   0.296
12494TIP3    H237428   5.426   2.834   0.206
12495TIP3   OH237429   4.374   1.772   2.145
12495TIP3    H137430   4.402   1.863   2.149
12495TIP3    H237431   4.282   1.774   2.173
12496TIP3   OH237432   0.801   4.185   3.513
12496TIP3    H137433   0.750   4.211   3.436
12496TIP3    H237434   0.740   4.193   3.586
12497TIP3   OH237435   1.948   0.121   4.476
12497TIP3    H137436   2.013   0.187   4.500
12497TIP3    H237437   1.864   0.166   4.482
12498TIP3   OH237438   4.486   5.734   1.167
12498TIP3    H137439   4.426   5.715   1.239
12498TIP3    H237440   4.494   5.829   1.167
12499TIP3   OH237441   0.517   0.299   0.661
12499TIP3    H137442   0.462   0.258   0.728
12499TIP3    H237443   0.586   0.343   0.710
12500TIP3   OH237444   2.702   6.311   6.154
12500TIP3    H137445   2.704   6.382   6.090
12500TIP3    H237446   2.770   6.250   6.124
12501TIP3   OH237447   7.170   7.223   2.213
12501TIP3    H137448   7.195   7.186   2.298
12501TIP3    H237449   7.243   7.203   2.155
12502TIP3   OH237450   7.047   6.566   5.411
12502TIP3    H137451   7.072   6.534   5.325
12502TIP3    H237452   6.961   6.527   5.428
12503TIP3   OH237453   3.802   4.426   0.598
12503TIP3    H137454   3.854   4.374   0.659
12503TIP3    H237455   3.817   4.517   0.625
12504TIP3   OH237456   5.610   5.148   3.726
12504TIP3    H137457   5.573   5.124   3.811
12504TIP3    H237458   5.672   5.077   3.706
12505TIP3   OH237459   5.967   7.050   5.871
12505TIP3    H137460   5.892   7.001   5.904
12505TIP3    H237461   6.039   6.987   5.869
12506TIP3   OH237462   8.003   4.276   0.069
12506TIP3    H137463   7.985   4.260   0.162
12506TIP3    H237464   7.921   4.310   0.034
12507TIP3   OH237465   5.268   4.371   6.248
12507TIP3    H137466   5.270   4.305   6.317
12507TIP3    H237467   5.215   4.442   6.283
12508TIP3   OH237468   3.246   4.646   0.294
12508TIP3    H137469   3.169   4.639   0.238
12508TIP3    H237470   3.253   4.740   0.313
12509TIP3   OH237471   5.960   0.608   5.586
12509TIP3    H137472   6.053   0.631   5.579
12509TIP3    H237473   5.925   0.625   5.498
12510TIP3   OH237474   6.628   3.511   3.718
12510TIP3    H137475   6.592   3.493   3.805
12510TIP3    H237476   6.601   3.600   3.699
12511TIP3   OH237477   7.254   7.640   5.132
12511TIP3    H137478   7.216   7.582   5.066
12511TIP3    H237479   7.280   7.718   5.083
12512TIP3   OH237480   6.130   3.228   5.212
12512TIP3    H137481   6.147   3.202   5.122
12512TIP3    H237482   6.169   3.315   5.221
12513TIP3   OH237483   6.235   3.515   0.451
12513TIP3    H137484   6.173   3.554   0.513
12513TIP3    H237485   6.319   3.554   0.473
12514TIP3   OH237486   3.782   2.276   5.448
12514TIP3    H137487   3.790   2.366   5.481
12514TIP3    H237488   3.871   2.250   5.428
12515TIP3   OH237489   7.639   6.011   1.425
12515TIP3    H137490   7.653   5.924   1.462
12515TIP3    H237491   7.660   6.001   1.332
12516TIP3   OH237492   3.157   0.744   1.097
12516TIP3    H137493   3.185   0.831   1.125
12516TIP3    H237494   3.062   0.752   1.086
12517TIP3   OH237495   6.885   2.970   0.504
12517TIP3    H137496   6.874   3.049   0.451
12517TIP3    H237497   6.979   2.955   0.506
12518TIP3   OH237498   2.501   4.777   5.108
12518TIP3    H137499   2.548   4.860   5.115
12518TIP3    H237500   2.545   4.730   5.037
12519TIP3   OH237501   7.969   0.920   6.262
12519TIP3    H137502   7.979   0.852   6.196
12519TIP3    H237503   8.042   0.907   6.322
12520TIP3   OH237504   6.013   2.049   2.393
12520TIP3    H137505   6.007   1.958   2.423
12520TIP3    H237506   6.080   2.088   2.449
12521TIP3   OH237507   3.757   5.863   1.348
12521TIP3    H137508   3.672   5.896   1.377
12521TIP3    H237509   3.819   5.900   1.410
12522TIP3   OH237510   1.573   4.332   4.527
12522TIP3    H137511   1.585   4.349   4.621
12522TIP3    H237512   1.654   4.365   4.487
12523TIP3   OH237513   3.579   1.731   1.325
12523TIP3    H137514   3.580   1.731   1.229
12523TIP3    H237515   3.569   1.639   1.349
12524TIP3   OH237516   6.732   0.220   5.987
12524TIP3    H137517   6.646   0.260   5.978
12524TIP3    H237518   6.741   0.203   6.080
12525TIP3   OH237519   6.109   6.299   5.207
12525TIP3    H137520   6.042   6.236   5.234
12525TIP3    H237521   6.166   6.250   5.147
12526TIP3   OH237522   4.113   7.849   0.158
12526TIP3    H137523   4.155   7.849   0.071
12526TIP3    H237524   4.115   7.757   0.185
12527TIP3   OH237525   5.701   4.991   3.151
12527TIP3    H137526   5.724   5.080   3.177
12527TIP3    H237527   5.774   4.964   3.096
12528TIP3   OH237528   1.833   4.236   4.986
12528TIP3    H137529   1.822   4.168   4.920
12528TIP3    H237530   1.779   4.207   5.060
12529TIP3   OH237531   1.015   2.668   4.731
12529TIP3    H137532   1.057   2.582   4.737
12529TIP3    H237533   1.072   2.725   4.783
12530TIP3   OH237534   0.266   4.889   0.435
12530TIP3    H137535   0.253   4.975   0.397
12530TIP3    H237536   0.354   4.893   0.474
12531TIP3   OH237537   3.768   6.182   4.484
12531TIP3    H137538   3.746   6.126   4.410
12531TIP3    H237539   3.850   6.225   4.459
12532TIP3   OH237540   6.359   5.713   4.277
12532TIP3    H137541   6.402   5.641   4.232
12532TIP3    H237542   6.298   5.749   4.212
12533TIP3   OH237543   5.642   2.557   1.556
12533TIP3    H137544   5.704   2.536   1.486
12533TIP3    H237545   5.686   2.530   1.636
12534TIP3   OH237546   1.893   6.089   5.717
12534TIP3    H137547   1.826   6.073   5.651
12534TIP3    H237548   1.960   6.140   5.671
12535TIP3   OH237549   5.315   5.123   1.023
12535TIP3    H137550   5.271   5.042   0.995
12535TIP3    H237551   5.298   5.185   0.953
12536TIP3   OH237552   7.785   0.587   2.855
12536TIP3    H137553   7.845   0.556   2.787
12536TIP3    H237554   7.700   0.552   2.831
12537TIP3   OH237555   2.957   4.885   1.426
12537TIP3    H137556   2.876   4.880   1.376
12537TIP3    H237557   2.936   4.847   1.511
12538TIP3   OH237558   8.067   5.430   1.404
12538TIP3    H137559   8.101   5.341   1.398
12538TIP3    H237560   8.084   5.456   1.494
12539TIP3   OH237561   3.498   3.561   5.379
12539TIP3    H137562   3.563   3.611   5.330
12539TIP3    H237563   3.422   3.620   5.386
12540TIP3   OH237564   2.770   3.234   3.331
12540TIP3    H137565   2.862   3.222   3.354
12540TIP3    H237566   2.759   3.328   3.323
12541TIP3   OH237567   6.111   4.189   1.928
12541TIP3    H137568   6.107   4.111   1.872
12541TIP3    H237569   6.022   4.200   1.961
12542TIP3   OH237570   4.666   4.507   5.284
12542TIP3    H137571   4.724   4.431   5.282
12542TIP3    H237572   4.697   4.563   5.212
12543TIP3   OH237573   1.040   3.693   4.843
12543TIP3    H137574   1.053   3.695   4.748
12543TIP3    H237575   0.945   3.698   4.854
12544TIP3   OH237576   0.834   5.329   0.965
12544TIP3    H137577   0.870   5.380   0.892
12544TIP3    H237578   0.758   5.378   0.994
12545TIP3   OH237579   4.818   7.667   1.110
12545TIP3    H137580   4.876   7.743   1.105
12545TIP3    H237581   4.767   7.671   1.029
12546TIP3   OH237582   0.916   6.536   4.414
12546TIP3    H137583   0.889   6.445   4.403
12546TIP3    H237584   0.874   6.564   4.495
12547TIP3   OH237585   0.355   0.248   2.747
12547TIP3    H137586   0.425   0.182   2.751
12547TIP3    H237587   0.400   0.330   2.727
12548TIP3   OH237588   5.342   4.033   1.983
12548TIP3    H137589   5.321   4.020   2.076
12548TIP3    H237590   5.259   4.020   1.938
12549TIP3   OH237591   2.075   3.445   6.428
12549TIP3    H137592   2.114   3.524   6.391
12549TIP3    H237593   1.991   3.474   6.464
12550TIP3   OH237594   3.699   6.021   0.318
12550TIP3    H137595   3.640   5.951   0.346
12550TIP3    H237596   3.709   6.076   0.396
12551TIP3   OH237597   4.436   4.197   0.686
12551TIP3    H137598   4.435   4.106   0.654
12551TIP3    H237599   4.518   4.204   0.735
12552TIP3   OH237600   7.054   5.539   6.198
12552TIP3    H137601   6.984   5.515   6.259
12552TIP3    H237602   7.044   5.479   6.125
12553TIP3   OH237603   5.083   5.137   1.259
12553TIP3    H137604   5.013   5.091   1.212
12553TIP3    H237605   5.144   5.163   1.190
12554TIP3   OH237606   0.167   3.420   1.920
12554TIP3    H137607   0.211   3.450   1.841
12554TIP3    H237608   0.231   3.430   1.990
12555TIP3   OH237609   2.694   1.968   6.164
12555TIP3    H137610   2.728   1.918   6.089
12555TIP3    H237611   2.701   2.059   6.136
12556TIP3   OH237612   0.784   4.761   6.137
12556TIP3    H137613   0.826   4.737   6.220
12556TIP3    H237614   0.710   4.816   6.163
12557TIP3   OH237615   7.063   4.685   1.298
12557TIP3    H137616   7.066   4.607   1.354
12557TIP3    H237617   7.005   4.745   1.345
12558TIP3   OH237618   3.981   1.001   5.778
12558TIP3    H137619   3.978   0.906   5.790
12558TIP3    H237620   4.048   1.030   5.840
12559TIP3   OH237621   5.663   3.243   4.101
12559TIP3    H137622   5.735   3.199   4.056
12559TIP3    H237623   5.691   3.334   4.107
12560TIP3   OH237624   7.896   3.969   2.443
12560TIP3    H137625   7.863   3.944   2.357
12560TIP3    H237626   7.959   3.901   2.465
12561TIP3   OH237627   1.027   6.277   4.019
12561TIP3    H137628   1.043   6.228   3.939
12561TIP3    H237629   1.000   6.364   3.989
12562TIP3   OH237630   1.947   1.460   5.986
12562TIP3    H137631   2.020   1.404   5.961
12562TIP3    H237632   1.874   1.399   6.001
12563TIP3   OH237633   4.263   1.297   4.014
12563TIP3    H137634   4.267   1.235   4.087
12563TIP3    H237635   4.171   1.297   3.988
12564TIP3   OH237636   1.623   3.623   2.326
12564TIP3    H137637   1.532   3.603   2.347
12564TIP3    H237638   1.668   3.623   2.410
12565TIP3   OH237639   4.915   4.771   6.159
12565TIP3    H137640   4.868   4.725   6.229
12565TIP3    H237641   4.862   4.848   6.141
12566TIP3   OH237642   7.485   2.503   3.738
12566TIP3    H137643   7.551   2.539   3.679
12566TIP3    H237644   7.486   2.561   3.814
12567TIP3   OH237645   0.700   2.923   5.150
12567TIP3    H137646   0.667   2.834   5.158
12567TIP3    H237647   0.624   2.974   5.123
12568TIP3   OH237648   5.857   7.525   5.559
12568TIP3    H137649   5.887   7.558   5.644
12568TIP3    H237650   5.889   7.591   5.496
12569TIP3   OH237651   3.864   4.237   5.144
12569TIP3    H137652   3.867   4.154   5.193
12569TIP3    H237653   3.954   4.249   5.115
12570TIP3   OH237654   0.553   0.672   1.346
12570TIP3    H137655   0.574   0.698   1.257
12570TIP3    H237656   0.542   0.755   1.393
12571TIP3   OH237657   7.168   0.516   3.257
12571TIP3    H137658   7.074   0.511   3.244
12571TIP3    H237659   7.201   0.554   3.175
12572TIP3   OH237660   8.176   3.547   5.119
12572TIP3    H137661   8.145   3.459   5.101
12572TIP3    H237662   8.190   3.549   5.214
12573TIP3   OH237663   0.574   1.704   4.525
12573TIP3    H137664   0.580   1.724   4.618
12573TIP3    H237665   0.588   1.788   4.481
12574TIP3   OH237666   4.819   3.064   5.407
12574TIP3    H137667   4.844   3.034   5.494
12574TIP3    H237668   4.760   2.996   5.374
12575TIP3   OH237669   2.421   6.858   0.344
12575TIP3    H137670   2.334   6.882   0.373
12575TIP3    H237671   2.452   6.795   0.410
12576TIP3   OH237672   4.264   5.151   3.264
12576TIP3    H137673   4.302   5.066   3.241
12576TIP3    H237674   4.339   5.208   3.281
12577TIP3   OH237675   5.128   6.576   3.188
12577TIP3    H137676   5.203   6.607   3.238
12577TIP3    H237677   5.166   6.530   3.113
12578TIP3   OH237678   4.453   2.530   3.585
12578TIP3    H137679   4.543   2.547   3.616
12578TIP3    H237680   4.398   2.554   3.660
12579TIP3   OH237681   1.235   6.573   4.915
12579TIP3    H137682   1.303   6.511   4.891
12579TIP3    H237683   1.164   6.558   4.852
12580TIP3   OH237684   6.623   5.027   2.433
12580TIP3    H137685   6.562   4.982   2.375
12580TIP3    H237686   6.568   5.061   2.504
12581TIP3   OH237687   8.034   6.107   3.851
12581TIP3    H137688   8.092   6.160   3.797
12581TIP3    H237689   8.055   6.133   3.941
12582TIP3   OH237690   3.507   2.880   3.508
12582TIP3    H137691   3.513   2.820   3.582
12582TIP3    H237692   3.417   2.871   3.476
12583TIP3   OH237693   2.773   3.615   2.613
12583TIP3    H137694   2.865   3.589   2.617
12583TIP3    H237695   2.743   3.616   2.704
12584TIP3   OH237696   0.612   7.490   1.150
12584TIP3    H137697   0.524   7.502   1.114
12584TIP3    H237698   0.655   7.574   1.138
12585TIP3   OH237699   3.893   3.391   6.079
12585TIP3    H137700   3.944   3.325   6.032
12585TIP3    H237701   3.950   3.418   6.152
12586TIP3   OH237702   6.095   1.134   3.107
12586TIP3    H137703   6.147   1.168   3.033
12586TIP3    H237704   6.010   1.177   3.098
12587TIP3   OH237705   7.643   3.330   4.776
12587TIP3    H137706   7.553   3.358   4.791
12587TIP3    H237707   7.659   3.345   4.683
12588TIP3   OH237708   4.768   7.057   3.077
12588TIP3    H137709   4.822   7.136   3.075
12588TIP3    H237710   4.757   7.033   2.985
12589TIP3   OH237711   2.244   5.181   4.849
12589TIP3    H137712   2.151   5.185   4.827
12589TIP3    H237713   2.249   5.215   4.938
12590TIP3   OH237714   1.295   3.514   4.274
12590TIP3    H137715   1.217   3.465   4.249
12590TIP3    H237716   1.302   3.502   4.369
12591TIP3   OH237717   1.418   2.940   1.142
12591TIP3    H137718   1.377   3.025   1.125
12591TIP3    H237719   1.501   2.943   1.095
12592TIP3   OH237720   3.821   1.124   0.283
12592TIP3    H137721   3.805   1.142   0.376
12592TIP3    H237722   3.788   1.035   0.270
12593TIP3   OH237723   4.314   5.613   3.826
12593TIP3    H137724   4.224   5.587   3.846
12593TIP3    H237725   4.365   5.532   3.833
12594TIP3   OH237726   7.393   3.638   4.456
12594TIP3    H137727   7.440   3.663   4.536
12594TIP3    H237728   7.391   3.717   4.403
12595TIP3   OH237729   6.628   1.728   5.715
12595TIP3    H137730   6.670   1.646   5.692
12595TIP3    H237731   6.671   1.793   5.659
12596TIP3   OH237732   1.587   2.922   5.523
12596TIP3    H137733   1.523   2.993   5.517
12596TIP3    H237734   1.617   2.909   5.433
12597TIP3   OH237735   7.552   5.081   6.011
12597TIP3    H137736   7.552   4.985   6.019
12597TIP3    H237737   7.645   5.104   6.002
12598TIP3   OH237738   8.081   4.490   4.811
12598TIP3    H137739   7.987   4.492   4.827
12598TIP3    H237740   8.104   4.580   4.790
12599TIP3   OH237741   5.385   6.101   4.540
12599TIP3    H137742   5.460   6.042   4.545
12599TIP3    H237743   5.325   6.069   4.607
12600TIP3   OH237744   4.342   3.234   0.762
12600TIP3    H137745   4.438   3.238   0.762
12600TIP3    H237746   4.318   3.221   0.671
12601TIP3   OH237747   0.260   2.813   5.303
12601TIP3    H137748   0.353   2.804   5.325
12601TIP3    H237749   0.241   2.738   5.247
12602TIP3   OH237750   1.669   2.725   1.635
12602TIP3    H137751   1.763   2.738   1.619
12602TIP3    H237752   1.649   2.641   1.594
12603TIP3   OH237753   2.388   2.351   3.684
12603TIP3    H137754   2.436   2.310   3.612
12603TIP3    H237755   2.456   2.375   3.747
12604TIP3   OH237756   5.247   2.218   1.842
12604TIP3    H137757   5.240   2.299   1.791
12604TIP3    H237758   5.158   2.182   1.842
12605TIP3   OH237759   5.275   5.061   4.770
12605TIP3    H137760   5.329   5.110   4.708
12605TIP3    H237761   5.245   4.985   4.720
12606TIP3   OH237762   6.625   4.257   4.938
12606TIP3    H137763   6.547   4.310   4.920
12606TIP3    H237764   6.596   4.192   5.002
12607TIP3   OH237765   4.089   6.008   0.096
12607TIP3    H137766   4.136   6.010   0.180
12607TIP3    H237767   3.997   6.010   0.121
12608TIP3   OH237768   0.871   5.712   1.475
12608TIP3    H137769   0.812   5.786   1.485
12608TIP3    H237770   0.830   5.658   1.407
12609TIP3   OH237771   4.598   1.610   0.758
12609TIP3    H137772   4.643   1.546   0.703
12609TIP3    H237773   4.505   1.593   0.744
12610TIP3   OH237774   1.701   0.687   6.621
12610TIP3    H137775   1.680   0.738   6.700
12610TIP3    H237776   1.797   0.678   6.624
12611TIP3   OH237777   8.207   0.118   4.679
12611TIP3    H137778   8.148   0.189   4.707
12611TIP3    H237779   8.160   0.038   4.702
12612TIP3   OH237780   2.720   6.497   5.949
12612TIP3    H137781   2.742   6.584   5.981
12612TIP3    H237782   2.659   6.512   5.877
12613TIP3   OH237783   7.599   1.805   0.496
12613TIP3    H137784   7.642   1.756   0.426
12613TIP3    H237785   7.548   1.872   0.451
12614TIP3   OH237786   4.843   1.581   0.373
12614TIP3    H137787   4.930   1.602   0.336
12614TIP3    H237788   4.841   1.628   0.456
12615TIP3   OH237789   7.446   3.316   3.049
12615TIP3    H137790   7.370   3.370   3.068
12615TIP3    H237791   7.516   3.356   3.101
12616TIP3   OH237792   7.359   3.565   0.680
12616TIP3    H137793   7.341   3.486   0.629
12616TIP3    H237794   7.454   3.575   0.675
12617TIP3   OH237795   2.210   2.109   1.059
12617TIP3    H137796   2.123   2.093   1.021
12617TIP3    H237797   2.219   2.042   1.127
12618TIP3   OH237798   5.019   0.776   5.343
12618TIP3    H137799   5.073   0.817   5.410
12618TIP3    H237800   4.933   0.818   5.352
12619TIP3   OH237801   0.998   0.737   5.022
12619TIP3    H137802   0.919   0.697   5.058
12619TIP3    H237803   1.042   0.775   5.098
12620TIP3   OH237804   2.574   3.826   2.649
12620TIP3    H137805   2.631   3.751   2.633
12620TIP3    H237806   2.499   3.791   2.695
12621TIP3   OH237807   2.788   2.418   0.792
12621TIP3    H137808   2.804   2.494   0.737
12621TIP3    H237809   2.747   2.354   0.734
12622TIP3   OH237810   5.867   5.613   1.634
12622TIP3    H137811   5.778   5.593   1.606
12622TIP3    H237812   5.860   5.634   1.727
12623TIP3   OH237813   6.540   7.804   5.469
12623TIP3    H137814   6.502   7.862   5.404
12623TIP3    H237815   6.616   7.765   5.425
12624TIP3   OH237816   5.326   0.028   0.113
12624TIP3    H137817   5.392  -0.039   0.096
12624TIP3    H237818   5.282   0.041   0.029
12625TIP3   OH237819   2.619   3.173   4.675
12625TIP3    H137820   2.709   3.173   4.706
12625TIP3    H237821   2.588   3.084   4.690
12626TIP3   OH237822   5.735   5.326   5.768
12626TIP3    H137823   5.714   5.319   5.675
12626TIP3    H237824   5.822   5.285   5.776
12627TIP3   OH237825   5.022   3.491   2.449
12627TIP3    H137826   4.991   3.503   2.360
12627TIP3    H237827   5.029   3.580   2.484
12628TIP3   OH237828   3.488   4.651   3.411
12628TIP3    H137829   3.490   4.676   3.504
12628TIP3    H237830   3.395   4.652   3.388
12629TIP3   OH237831   7.100   6.771   6.446
12629TIP3    H137832   7.101   6.682   6.479
12629TIP3    H237833   7.137   6.824   6.517
12630TIP3   OH237834   5.076   7.168   1.038
12630TIP3    H137835   5.152   7.219   1.010
12630TIP3    H237836   5.005   7.232   1.044
12631TIP3   OH237837   7.619   3.979   2.843
12631TIP3    H137838   7.636   3.997   2.751
12631TIP3    H237839   7.599   4.064   2.881
12632TIP3   OH237840   5.190   0.280   4.907
12632TIP3    H137841   5.210   0.253   4.996
12632TIP3    H237842   5.225   0.211   4.852
12633TIP3   OH237843   6.733   0.605   6.668
12633TIP3    H137844   6.686   0.623   6.749
12633TIP3    H237845   6.763   0.690   6.639
12634TIP3   OH237846   3.438   1.570   5.534
12634TIP3    H137847   3.473   1.559   5.622
12634TIP3    H237848   3.343   1.569   5.547
12635TIP3   OH237849   1.964  -0.002   3.852
12635TIP3    H137850   1.934  -0.012   3.762
12635TIP3    H237851   1.888   0.035   3.898
12636TIP3   OH237852   4.210   1.403   2.241
12636TIP3    H137853   4.149   1.383   2.311
12636TIP3    H237854   4.276   1.459   2.281
12637TIP3   OH237855   4.543   6.487   0.633
12637TIP3    H137856   4.632   6.520   0.630
12637TIP3    H237857   4.545   6.415   0.696
12638TIP3   OH237858   0.359   1.994   0.215
12638TIP3    H137859   0.288   1.935   0.187
12638TIP3    H237860   0.316   2.078   0.229
12639TIP3   OH237861   0.409   6.077   2.249
12639TIP3    H137862   0.334   6.090   2.191
12639TIP3    H237863   0.476   6.137   2.215
12640TIP3   OH237864   3.794   3.189   4.933
12640TIP3    H137865   3.750   3.153   5.010
12640TIP3    H237866   3.798   3.283   4.949
12641TIP3   OH237867   0.076   2.160   5.028
12641TIP3    H137868   0.047   2.187   4.941
12641TIP3    H237869   0.078   2.240   5.079
12642TIP3   OH237870   6.466   4.054   6.167
12642TIP3    H137871   6.412   3.981   6.198
12642TIP3    H237872   6.544   4.051   6.223
12643TIP3   OH237873   6.986   3.840   1.419
12643TIP3    H137874   7.015   3.910   1.478
12643TIP3    H237875   7.053   3.837   1.351
12644TIP3   OH237876   1.247   5.208   6.009
12644TIP3    H137877   1.258   5.277   5.943
12644TIP3    H237878   1.271   5.127   5.964
12645TIP3   OH237879   6.817   0.046   0.775
12645TIP3    H137880   6.734   0.006   0.800
12645TIP3    H237881   6.834   0.012   0.687
12646TIP3   OH237882   0.372   4.554   2.899
12646TIP3    H137883   0.456   4.552   2.853
12646TIP3    H237884   0.338   4.464   2.892
12647TIP3   OH237885   1.931   1.554   0.070
12647TIP3    H137886   1.994   1.506   0.124
12647TIP3    H237887   1.935   1.644   0.104
12648TIP3   OH237888   1.760   5.372   0.941
12648TIP3    H137889   1.739   5.457   0.980
12648TIP3    H237890   1.761   5.311   1.015
12649TIP3   OH237891   2.843   5.457   6.654
12649TIP3    H137892   2.825   5.368   6.683
12649TIP3    H237893   2.905   5.492   6.719
12650TIP3   OH237894   5.806   1.010   1.291
12650TIP3    H137895   5.884   0.958   1.311
12650TIP3    H237896   5.754   1.007   1.372
12651TIP3   OH237897   1.935   4.193   2.928
12651TIP3    H137898   2.010   4.144   2.893
12651TIP3    H237899   1.954   4.284   2.907
12652TIP3   OH237900   0.776   0.101   0.839
12652TIP3    H137901   0.772   0.086   0.933
12652TIP3    H237902   0.687   0.081   0.808
12653TIP3   OH237903   2.191   5.250   5.198
12653TIP3    H137904   2.103   5.278   5.172
12653TIP3    H237905   2.231   5.330   5.232
12654TIP3   OH237906   6.307   1.748   6.534
12654TIP3    H137907   6.319   1.653   6.525
12654TIP3    H237908   6.395   1.784   6.531
12655TIP3   OH237909   3.390   0.761   0.928
12655TIP3    H137910   3.366   0.775   0.837
12655TIP3    H237911   3.306   0.757   0.975
12656TIP3   OH237912   4.052   2.504   5.643
12656TIP3    H137913   4.005   2.445   5.702
12656TIP3    H237914   3.983   2.554   5.600
12657TIP3   OH237915   5.371   7.596   2.090
12657TIP3    H137916   5.435   7.565   2.026
12657TIP3    H237917   5.353   7.520   2.145
12658TIP3   OH237918   8.024   1.649   5.804
12658TIP3    H137919   7.949   1.628   5.860
12658TIP3    H237920   8.067   1.722   5.848
12659TIP3   OH237921   2.713   0.599   0.408
12659TIP3    H137922   2.623   0.576   0.431
12659TIP3    H237923   2.767   0.541   0.462
12660TIP3   OH237924   2.387   4.829   5.964
12660TIP3    H137925   2.363   4.893   5.897
12660TIP3    H237926   2.450   4.875   6.020
12661TIP3   OH237927   7.981   3.597   2.707
12661TIP3    H137928   7.980   3.504   2.731
12661TIP3    H237929   8.048   3.636   2.764
12662TIP3   OH237930   8.015   2.597   0.711
12662TIP3    H137931   7.984   2.571   0.798
12662TIP3    H237932   8.071   2.672   0.727
12663TIP3   OH237933   0.142   2.214   2.481
12663TIP3    H137934   0.177   2.253   2.561
12663TIP3    H237935   0.056   2.182   2.505
12664TIP3   OH237936   0.445   3.638   6.346
12664TIP3    H137937   0.355   3.639   6.313
12664TIP3    H237938   0.496   3.599   6.275
12665TIP3   OH237939   0.993   7.494   5.669
12665TIP3    H137940   1.020   7.426   5.607
12665TIP3    H237941   0.935   7.551   5.618
12666TIP3   OH237942   0.121   1.831   4.343
12666TIP3    H137943   0.215   1.817   4.329
12666TIP3    H237944   0.111   1.832   4.438
12667TIP3   OH237945   1.800   6.088   4.584
12667TIP3    H137946   1.756   6.169   4.611
12667TIP3    H237947   1.742   6.050   4.519
12668TIP3   OH237948   3.684   7.567   6.632
12668TIP3    H137949   3.691   7.625   6.708
12668TIP3    H237950   3.605   7.516   6.648
12669TIP3   OH237951   5.555   0.177   4.983
12669TIP3    H137952   5.589   0.266   4.992
12669TIP3    H237953   5.581   0.151   4.894
12670TIP3   OH237954   5.243   5.637   3.538
12670TIP3    H137955   5.274   5.634   3.628
12670TIP3    H237956   5.148   5.636   3.545
12671TIP3   OH237957   6.980   2.945   2.672
12671TIP3    H137958   6.989   3.037   2.696
12671TIP3    H237959   7.004   2.941   2.580
12672TIP3   OH237960   0.682   3.128   3.038
12672TIP3    H137961   0.630   3.082   3.104
12672TIP3    H237962   0.771   3.094   3.049
12673TIP3   OH237963   0.097   6.580   3.182
12673TIP3    H137964   0.063   6.656   3.228
12673TIP3    H237965   0.144   6.530   3.249
12674TIP3   OH237966   6.876   7.267   4.287
12674TIP3    H137967   6.894   7.174   4.270
12674TIP3    H237968   6.943   7.293   4.350
12675TIP3   OH237969   2.689   1.479   2.856
12675TIP3    H137970   2.613   1.429   2.826
12675TIP3    H237971   2.739   1.496   2.777
12676TIP3   OH237972   1.443   0.541   4.966
12676TIP3    H137973   1.385   0.485   5.017
12676TIP3    H237974   1.385   0.609   4.930
12677TIP3   OH237975   0.958   5.366   5.167
12677TIP3    H137976   0.985   5.432   5.103
12677TIP3    H237977   0.917   5.415   5.238
12678TIP3   OH237978   1.311   5.887   5.427
12678TIP3    H137979   1.241   5.893   5.363
12678TIP3    H237980   1.380   5.945   5.394
12679TIP3   OH237981   7.335   3.548   1.465
12679TIP3    H137982   7.425   3.566   1.435
12679TIP3    H237983   7.342   3.466   1.513
12680TIP3   OH237984   5.795   1.407   4.952
12680TIP3    H137985   5.810   1.336   5.014
12680TIP3    H237986   5.782   1.484   5.006
12681TIP3   OH237987   1.984   2.545   4.229
12681TIP3    H137988   1.930   2.466   4.230
12681TIP3    H237989   1.950   2.595   4.154
12682TIP3   OH237990   5.023   1.269   1.845
12682TIP3    H137991   4.990   1.207   1.780
12682TIP3    H237992   4.944   1.297   1.893
12683TIP3   OH237993   2.527   5.172   4.668
12683TIP3    H137994   2.593   5.102   4.676
12683TIP3    H237995   2.569   5.237   4.611
12684TIP3   OH237996   2.599   4.979   3.264
12684TIP3    H137997   2.645   4.895   3.270
12684TIP3    H237998   2.506   4.956   3.265
12685TIP3   OH237999   2.610   4.768   0.656
12685TIP3    H138000   2.586   4.676   0.670
12685TIP3    H238001   2.671   4.766   0.582
12686TIP3   OH238002   1.658   3.447   5.875
12686TIP3    H138003   1.707   3.519   5.835
12686TIP3    H238004   1.639   3.388   5.802
12687TIP3   OH238005   3.485   1.955   5.984
12687TIP3    H138006   3.413   1.930   6.042
12687TIP3    H238007   3.553   1.988   6.043
12688TIP3   OH238008   7.452   2.160   3.008
12688TIP3    H138009   7.464   2.080   3.060
12688TIP3    H238010   7.362   2.153   2.975
12689TIP3   OH238011   1.314   7.065   4.116
12689TIP3    H138012   1.337   6.994   4.056
12689TIP3    H238013   1.219   7.058   4.126
12690TIP3   OH238014   5.638   4.097   0.520
12690TIP3    H138015   5.728   4.100   0.552
12690TIP3    H238016   5.585   4.127   0.594
12691TIP3   OH238017   2.146   5.631   4.103
12691TIP3    H138018   2.127   5.586   4.021
12691TIP3    H238019   2.060   5.651   4.140
12692TIP3   OH238020   7.133   3.949   3.562
12692TIP3    H138021   7.074   3.931   3.635
12692TIP3    H238022   7.087   3.915   3.485
12693TIP3   OH238023   1.525   3.982   5.055
12693TIP3    H138024   1.461   3.992   5.126
12693TIP3    H238025   1.604   3.951   5.099
12694TIP3   OH238026   3.882   4.088   0.588
12694TIP3    H138027   3.795   4.107   0.623
12694TIP3    H238028   3.873   4.005   0.543
12695TIP3   OH238029   6.853   3.603   6.437
12695TIP3    H138030   6.795   3.601   6.361
12695TIP3    H238031   6.915   3.674   6.418
12696TIP3   OH238032   3.840   4.575   2.935
12696TIP3    H138033   3.893   4.628   2.876
12696TIP3    H238034   3.898   4.556   3.009
12697TIP3   OH238035   5.842   0.073   6.320
12697TIP3    H138036   5.815   0.031   6.238
12697TIP3    H238037   5.796   0.024   6.388
12698TIP3   OH238038   4.726   4.305   4.731
12698TIP3    H138039   4.675   4.376   4.692
12698TIP3    H238040   4.681   4.225   4.702
12699TIP3   OH238041   2.333   2.555   1.709
12699TIP3    H138042   2.313   2.478   1.763
12699TIP3    H238043   2.252   2.571   1.661
12700TIP3   OH238044   7.129   3.991   2.238
12700TIP3    H138045   7.050   4.012   2.189
12700TIP3    H238046   7.114   4.027   2.325
12701TIP3   OH238047   3.292   6.725   3.248
12701TIP3    H138048   3.351   6.781   3.198
12701TIP3    H238049   3.348   6.685   3.314
12702TIP3   OH238050   5.215   0.153   5.143
12702TIP3    H138051   5.207   0.212   5.217
12702TIP3    H238052   5.180   0.070   5.175
12703TIP3   OH238053   6.844   3.878   0.286
12703TIP3    H138054   6.784   3.907   0.354
12703TIP3    H238055   6.906   3.950   0.275
12704TIP3   OH238056   7.002   1.296   3.090
12704TIP3    H138057   7.015   1.391   3.089
12704TIP3    H238058   6.928   1.282   3.031
12705TIP3   OH238059   5.352   1.627   1.971
12705TIP3    H138060   5.427   1.574   1.947
12705TIP3    H238061   5.364   1.644   2.065
12706TIP3   OH238062   0.889   4.419   6.409
12706TIP3    H138063   0.974   4.462   6.423
12706TIP3    H238064   0.826   4.491   6.406
12707TIP3   OH238065   3.172   7.280   4.904
12707TIP3    H138066   3.231   7.297   4.830
12707TIP3    H238067   3.221   7.311   4.980
12708TIP3   OH238068   6.554   1.348   3.962
12708TIP3    H138069   6.488   1.371   4.028
12708TIP3    H238070   6.525   1.265   3.926
12709TIP3   OH238071   5.008   1.633   4.192
12709TIP3    H138072   4.971   1.704   4.244
12709TIP3    H238073   5.009   1.558   4.252
12710TIP3   OH238074   4.464   4.905   0.959
12710TIP3    H138075   4.555   4.917   0.934
12710TIP3    H238076   4.421   4.988   0.937
12711TIP3   OH238077   3.140   6.753   5.442
12711TIP3    H138078   3.212   6.691   5.451
12711TIP3    H238079   3.174   6.834   5.480
12712TIP3   OH238080   6.588   0.513   2.870
12712TIP3    H138081   6.660   0.575   2.866
12712TIP3    H238082   6.629   0.427   2.864
12713TIP3   OH238083   8.070   4.005  -0.010
12713TIP3    H138084   8.000   3.954   0.030
12713TIP3    H238085   8.057   4.094   0.024
12714TIP3   OH238086   0.479   2.412   1.682
12714TIP3    H138087   0.539   2.485   1.662
12714TIP3    H238088   0.403   2.428   1.627
12715TIP3   OH238089   4.178   2.763   1.871
12715TIP3    H138090   4.254   2.819   1.854
12715TIP3    H238091   4.185   2.741   1.963
12716TIP3   OH238092   1.422   3.598   2.568
12716TIP3    H138093   1.341   3.623   2.524
12716TIP3    H238094   1.434   3.506   2.545
12717TIP3   OH238095   5.301   3.059   4.591
12717TIP3    H138096   5.377   3.109   4.560
12717TIP3    H238097   5.291   2.989   4.526
12718TIP3   OH238098   3.816   2.093   4.581
12718TIP3    H138099   3.723   2.103   4.566
12718TIP3    H238100   3.823   2.015   4.636
12719TIP3   OH238101   1.205   4.085   2.110
12719TIP3    H138102   1.164   4.170   2.128
12719TIP3    H238103   1.261   4.100   2.034
12720TIP3   OH238104   2.005   4.092   0.112
12720TIP3    H138105   2.097   4.098   0.136
12720TIP3    H238106   1.982   4.000   0.127
12721TIP3   OH238107   3.291   5.254   0.658
12721TIP3    H138108   3.308   5.261   0.564
12721TIP3    H238109   3.294   5.345   0.689
12722TIP3   OH238110   4.648   0.449   2.704
12722TIP3    H138111   4.725   0.398   2.677
12722TIP3    H238112   4.683   0.534   2.730
12723TIP3   OH238113   3.140   7.634   1.223
12723TIP3    H138114   3.201   7.566   1.251
12723TIP3    H238115   3.160   7.709   1.279
12724TIP3   OH238116   1.889   1.944   0.313
12724TIP3    H138117   1.835   1.998   0.371
12724TIP3    H238118   1.968   1.995   0.298
12725TIP3   OH238119   4.188   3.315   5.196
12725TIP3    H138120   4.274   3.314   5.153
12725TIP3    H238121   4.188   3.237   5.252
12726TIP3   OH238122   3.738   5.423   5.955
12726TIP3    H138123   3.781   5.349   5.912
12726TIP3    H238124   3.807   5.489   5.963
12727TIP3   OH238125   3.287   6.319   5.495
12727TIP3    H138126   3.312   6.279   5.412
12727TIP3    H238127   3.195   6.296   5.506
12728TIP3   OH238128   2.395   5.322   0.986
12728TIP3    H138129   2.399   5.400   0.932
12728TIP3    H238130   2.302   5.299   0.989
12729TIP3   OH238131   1.507   5.727   3.517
12729TIP3    H138132   1.436   5.761   3.464
12729TIP3    H238133   1.488   5.758   3.606
12730TIP3   OH238134   7.211   5.346   3.326
12730TIP3    H138135   7.291   5.395   3.344
12730TIP3    H238136   7.236   5.280   3.262
12731TIP3   OH238137   4.899   4.592   0.483
12731TIP3    H138138   4.873   4.622   0.396
12731TIP3    H238139   4.951   4.514   0.468
12732TIP3   OH238140   0.078   2.296   5.885
12732TIP3    H138141   0.168   2.279   5.857
12732TIP3    H238142   0.045   2.361   5.823
12733TIP3   OH238143   5.197   0.120   4.334
12733TIP3    H138144   5.277   0.136   4.284
12733TIP3    H238145   5.196   0.025   4.347
12734TIP3   OH238146   7.803   1.865   5.996
12734TIP3    H138147   7.722   1.872   6.046
12734TIP3    H238148   7.838   1.779   6.020
12735TIP3   OH238149   6.905   0.368   1.761
12735TIP3    H138150   6.868   0.431   1.699
12735TIP3    H238151   6.941   0.299   1.707
12736TIP3   OH238152   1.147   6.855   6.065
12736TIP3    H138153   1.084   6.846   5.993
12736TIP3    H238154   1.214   6.789   6.047
12737TIP3   OH238155   8.020   4.027   1.516
12737TIP3    H138156   7.979   4.109   1.543
12737TIP3    H238157   7.947   3.968   1.498
12738TIP3   OH238158   5.434   3.363   0.527
12738TIP3    H138159   5.415   3.455   0.546
12738TIP3    H238160   5.501   3.366   0.459
12739TIP3   OH238161   6.833   4.146   6.337
12739TIP3    H138162   6.774   4.222   6.341
12739TIP3    H238163   6.850   4.124   6.429
12740TIP3   OH238164   1.844   2.224   6.358
12740TIP3    H138165   1.925   2.236   6.408
12740TIP3    H238166   1.826   2.310   6.321
12741TIP3   OH238167   0.516   1.280   1.497
12741TIP3    H138168   0.573   1.214   1.536
12741TIP3    H238169   0.556   1.364   1.521
12742TIP3   OH238170   6.652   2.899   3.104
12742TIP3    H138171   6.558   2.896   3.086
12742TIP3    H238172   6.692   2.870   3.022
12743TIP3   OH238173   6.764   0.214   0.391
12743TIP3    H138174   6.699   0.250   0.331
12743TIP3    H238175   6.848   0.248   0.358
12744TIP3   OH238176   0.042   0.171   5.652
12744TIP3    H138177   0.097   0.158   5.729
12744TIP3    H238178   0.065   0.258   5.620
12745TIP3   OH238179   1.290   4.703   0.225
12745TIP3    H138180   1.228   4.750   0.170
12745TIP3    H238181   1.240   4.681   0.304
12746TIP3   OH238182   2.365   6.198   0.216
12746TIP3    H138183   2.312   6.119   0.207
12746TIP3    H238184   2.321   6.263   0.161
12747TIP3   OH238185   4.009   5.156   2.120
12747TIP3    H138186   3.944   5.125   2.057
12747TIP3    H238187   4.092   5.119   2.089
12748TIP3   OH238188   5.705   5.914   5.344
12748TIP3    H138189   5.757   5.839   5.314
12748TIP3    H238190   5.652   5.879   5.415
12749TIP3   OH238191   4.530   0.238   2.473
12749TIP3    H138192   4.467   0.298   2.513
12749TIP3    H238193   4.589   0.295   2.424
12750TIP3   OH238194   6.412   6.991   5.108
12750TIP3    H138195   6.378   6.924   5.168
12750TIP3    H238196   6.386   6.960   5.021
12751TIP3   OH238197   0.952   6.023   5.859
12751TIP3    H138198   0.943   5.931   5.882
12751TIP3    H238199   0.926   6.028   5.767
12752TIP3   OH238200   4.500   6.115   4.089
12752TIP3    H138201   4.444   6.185   4.123
12752TIP3    H238202   4.482   6.112   3.995
12753TIP3   OH238203   1.794   6.686   1.348
12753TIP3    H138204   1.861   6.753   1.336
12753TIP3    H238205   1.724   6.710   1.287
12754TIP3   OH238206   5.606   7.154   3.402
12754TIP3    H138207   5.611   7.082   3.339
12754TIP3    H238208   5.684   7.207   3.386
12755TIP3   OH238209   1.015   4.327   5.805
12755TIP3    H138210   1.004   4.247   5.858
12755TIP3    H238211   0.966   4.394   5.852
12756TIP3   OH238212   5.417   4.029   3.960
12756TIP3    H138213   5.402   3.985   4.043
12756TIP3    H238214   5.511   4.019   3.944
12757TIP3   OH238215   0.151   6.011   1.434
12757TIP3    H138216   0.165   5.945   1.367
12757TIP3    H238217   0.081   5.975   1.489
12758TIP3   OH238218   1.315   2.567   1.049
12758TIP3    H138219   1.339   2.551   0.957
12758TIP3    H238220   1.281   2.483   1.080
12759TIP3   OH238221   7.580   6.516   4.619
12759TIP3    H138222   7.577   6.563   4.535
12759TIP3    H238223   7.654   6.554   4.665
12760TIP3   OH238224   3.194   3.341   0.553
12760TIP3    H138225   3.275   3.292   0.562
12760TIP3    H238226   3.169   3.362   0.643
12761TIP3   OH238227   5.917   5.523   4.214
12761TIP3    H138228   5.973   5.600   4.207
12761TIP3    H238229   5.837   5.547   4.167
12762TIP3   OH238230   6.276   5.055   5.326
12762TIP3    H138231   6.263   5.016   5.239
12762TIP3    H238232   6.242   5.144   5.318
12763TIP3   OH238233   4.463   0.591   4.168
12763TIP3    H138234   4.468   0.687   4.172
12763TIP3    H238235   4.418   0.566   4.249
12764TIP3   OH238236   0.372   7.647   1.076
12764TIP3    H138237   0.407   7.684   0.995
12764TIP3    H238238   0.302   7.589   1.047
12765TIP3   OH238239   6.113   2.735   4.099
12765TIP3    H138240   6.178   2.805   4.108
12765TIP3    H238241   6.102   2.701   4.188
12766TIP3   OH238242   7.362   1.100   0.408
12766TIP3    H138243   7.417   1.178   0.410
12766TIP3    H238244   7.277   1.129   0.443
12767TIP3   OH238245   0.650   6.664   6.201
12767TIP3    H138246   0.688   6.642   6.116
12767TIP3    H238247   0.689   6.602   6.262
12768TIP3   OH238248   0.377   3.423   0.699
12768TIP3    H138249   0.390   3.486   0.628
12768TIP3    H238250   0.378   3.338   0.656
12769TIP3   OH238251   5.573   7.533   4.975
12769TIP3    H138252   5.580   7.617   4.930
12769TIP3    H238253   5.494   7.540   5.029
12770TIP3   OH238254   2.428   5.150   3.506
12770TIP3    H138255   2.338   5.177   3.523
12770TIP3    H238256   2.442   5.075   3.564
12771TIP3   OH238257   7.769   4.017   0.947
12771TIP3    H138258   7.799   4.067   1.023
12771TIP3    H238259   7.849   3.986   0.905
12772TIP3   OH238260   3.993   1.829   6.697
12772TIP3    H138261   3.977   1.735   6.690
12772TIP3    H238262   4.003   1.858   6.607
12773TIP3   OH238263   7.467   2.501   2.377
12773TIP3    H138264   7.439   2.508   2.285
12773TIP3    H238265   7.412   2.563   2.424
12774TIP3   OH238266   0.008   2.487   6.156
12774TIP3    H138267   0.049   2.422   6.099
12774TIP3    H238268   0.063   2.488   6.234
12775TIP3   OH238269   5.014   6.897   5.263
12775TIP3    H138270   4.979   6.863   5.345
12775TIP3    H238271   4.951   6.869   5.196
12776TIP3   OH238272   7.879   7.331   6.148
12776TIP3    H138273   7.884   7.363   6.057
12776TIP3    H238274   7.969   7.337   6.180
12777TIP3   OH238275   2.786   6.188   1.458
12777TIP3    H138276   2.839   6.242   1.399
12777TIP3    H238277   2.842   6.173   1.534
12778TIP3   OH238278   0.897   2.617   1.477
12778TIP3    H138279   0.891   2.680   1.405
12778TIP3    H238280   0.927   2.536   1.436
12779TIP3   OH238281   6.803   0.065   5.097
12779TIP3    H138282   6.827   0.034   5.010
12779TIP3    H238283   6.798  -0.014   5.150
12780TIP3   OH238284   0.874   4.749   1.279
12780TIP3    H138285   0.851   4.658   1.296
12780TIP3    H238286   0.803   4.799   1.320
12781TIP3   OH238287   8.067   4.703   1.501
12781TIP3    H138288   8.107   4.634   1.554
12781TIP3    H238289   8.120   4.706   1.421
12782TIP3   OH238290   2.952   3.656   4.743
12782TIP3    H138291   2.994   3.628   4.662
12782TIP3    H238292   2.982   3.746   4.757
12783TIP3   OH238293   7.997   0.339   4.778
12783TIP3    H138294   7.993   0.371   4.687
12783TIP3    H238295   7.910   0.358   4.814
12784TIP3   OH238296   5.991   6.665   2.009
12784TIP3    H138297   6.041   6.598   1.962
12784TIP3    H238298   5.906   6.666   1.966
12785TIP3   OH238299   0.739   3.160   3.856
12785TIP3    H138300   0.769   3.143   3.767
12785TIP3    H238301   0.685   3.238   3.849
12786TIP3   OH238302   2.346   0.484   0.320
12786TIP3    H138303   2.376   0.407   0.273
12786TIP3    H238304   2.313   0.543   0.252
12787TIP3   OH238305   5.307   1.771   1.180
12787TIP3    H138306   5.251   1.698   1.153
12787TIP3    H238307   5.263   1.808   1.256
12788TIP3   OH238308   7.407   6.165   5.686
12788TIP3    H138309   7.476   6.160   5.621
12788TIP3    H238310   7.437   6.110   5.758
12789TIP3   OH238311   7.637   4.811   2.008
12789TIP3    H138312   7.608   4.720   2.001
12789TIP3    H238313   7.702   4.820   1.938
12790TIP3   OH238314   3.642   4.805   0.442
12790TIP3    H138315   3.604   4.757   0.369
12790TIP3    H238316   3.723   4.843   0.407
12791TIP3   OH238317   5.422   3.257   5.439
12791TIP3    H138318   5.453   3.257   5.348
12791TIP3    H238319   5.327   3.258   5.432
12792TIP3   OH238320   0.568   3.902   4.636
12792TIP3    H138321   0.659   3.921   4.615
12792TIP3    H238322   0.529   3.988   4.654
12793TIP3   OH238323   3.702   6.396   5.033
12793TIP3    H138324   3.785   6.384   5.081
12793TIP3    H238325   3.635   6.396   5.102
12794TIP3   OH238326   4.653   2.870   5.782
12794TIP3    H138327   4.639   2.796   5.723
12794TIP3    H238328   4.579   2.928   5.765
12795TIP3   OH238329   2.229   6.205   5.894
12795TIP3    H138330   2.226   6.196   5.989
12795TIP3    H238331   2.242   6.298   5.879
12796TIP3   OH238332   6.879   0.727   1.619
12796TIP3    H138333   6.883   0.819   1.594
12796TIP3    H238334   6.968   0.694   1.605
12797TIP3   OH238335   6.693   1.258   1.617
12797TIP3    H138336   6.714   1.322   1.685
12797TIP3    H238337   6.638   1.305   1.555
12798TIP3   OH238338   5.619   7.555   5.255
12798TIP3    H138339   5.645   7.539   5.164
12798TIP3    H238340   5.668   7.634   5.281
12799TIP3   OH238341   4.003   6.358   4.860
12799TIP3    H138342   3.983   6.336   4.951
12799TIP3    H238343   3.925   6.331   4.812
12800TIP3   OH238344   8.138   3.671   4.283
12800TIP3    H138345   8.073   3.705   4.345
12800TIP3    H238346   8.188   3.748   4.257
12801TIP3   OH238347   7.357   0.747   4.350
12801TIP3    H138348   7.422   0.698   4.399
12801TIP3    H238349   7.289   0.682   4.329
12802TIP3   OH238350   2.316   4.942   6.457
12802TIP3    H138351   2.330   5.025   6.503
12802TIP3    H238352   2.363   4.877   6.509
12803TIP3   OH238353   2.635   4.641   4.204
12803TIP3    H138354   2.559   4.631   4.262
12803TIP3    H238355   2.707   4.661   4.264
12804TIP3   OH238356   1.446   6.325   0.178
12804TIP3    H138357   1.385   6.362   0.243
12804TIP3    H238358   1.528   6.373   0.193
12805TIP3   OH238359   5.558   2.432   5.801
12805TIP3    H138360   5.502   2.387   5.863
12805TIP3    H238361   5.502   2.499   5.762
12806TIP3   OH238362   5.161   6.968   4.855
12806TIP3    H138363   5.138   7.054   4.892
12806TIP3    H238364   5.083   6.915   4.870
12807TIP3   OH238365   0.251   4.468   0.553
12807TIP3    H138366   0.210   4.541   0.600
12807TIP3    H238367   0.325   4.508   0.506
12808TIP3   OH238368   1.514   4.780   2.203
12808TIP3    H138369   1.459   4.766   2.126
12808TIP3    H238370   1.591   4.724   2.188
12809TIP3   OH238371   4.381   5.828   6.095
12809TIP3    H138372   4.315   5.764   6.068
12809TIP3    H238373   4.333   5.910   6.105
12810TIP3   OH238374   7.185   4.252   3.487
12810TIP3    H138375   7.280   4.261   3.495
12810TIP3    H238376   7.168   4.160   3.504
12811TIP3   OH238377   1.539   5.230   2.543
12811TIP3    H138378   1.558   5.192   2.458
12811TIP3    H238379   1.444   5.221   2.553
12812TIP3   OH238380   1.536   1.785   3.004
12812TIP3    H138381   1.584   1.862   3.033
12812TIP3    H238382   1.509   1.741   3.085
12813TIP3   OH238383   0.631   6.947   0.739
12813TIP3    H138384   0.596   6.890   0.809
12813TIP3    H238385   0.680   7.014   0.786
12814TIP3   OH238386   4.871   4.765   6.423
12814TIP3    H138387   4.789   4.773   6.472
12814TIP3    H238388   4.924   4.838   6.454
12815TIP3   OH238389   8.045   1.423   0.586
12815TIP3    H138390   7.998   1.429   0.669
12815TIP3    H238391   7.982   1.452   0.520
12816TIP3   OH238392   4.438   3.683   5.742
12816TIP3    H138393   4.441   3.691   5.837
12816TIP3    H238394   4.350   3.650   5.723
12817TIP3   OH238395   0.239   0.271   6.276
12817TIP3    H138396   0.281   0.311   6.200
12817TIP3    H238397   0.259   0.178   6.269
12818TIP3   OH238398   0.975   0.723   6.341
12818TIP3    H138399   1.040   0.743   6.273
12818TIP3    H238400   0.993   0.632   6.365
12819TIP3   OH238401   1.580   6.580   0.741
12819TIP3    H138402   1.490   6.565   0.769
12819TIP3    H238403   1.574   6.591   0.646
12820TIP3   OH238404   1.475   4.242   0.051
12820TIP3    H138405   1.400   4.243  -0.009
12820TIP3    H238406   1.446   4.294   0.126
12821TIP3   OH238407   4.335   4.027   4.952
12821TIP3    H138408   4.382   4.034   5.035
12821TIP3    H238409   4.250   3.991   4.976
12822TIP3   OH238410   4.340   5.016   4.948
12822TIP3    H138411   4.272   4.981   5.004
12822TIP3    H238412   4.293   5.062   4.878
12823TIP3   OH238413   6.782   3.930   0.626
12823TIP3    H138414   6.853   3.988   0.599
12823TIP3    H238415   6.704   3.963   0.580
12824TIP3   OH238416   8.090   5.623   1.185
12824TIP3    H138417   8.143   5.701   1.201
12824TIP3    H238418   8.130   5.555   1.239
12825TIP3   OH238419   3.210   3.153   5.093
12825TIP3    H138420   3.233   3.245   5.083
12825TIP3    H238421   3.114   3.151   5.083
12826TIP3   OH238422   7.348   1.115   6.714
12826TIP3    H138423   7.305   1.035   6.684
12826TIP3    H238424   7.283   1.184   6.700
12827TIP3   OH238425   7.318   5.066   4.439
12827TIP3    H138426   7.398   5.055   4.491
12827TIP3    H238427   7.350   5.080   4.350
12828TIP3   OH238428   1.144   3.116   2.298
12828TIP3    H138429   1.213   3.107   2.232
12828TIP3    H238430   1.121   3.209   2.296
12829TIP3   OH238431   2.759   4.025   0.483
12829TIP3    H138432   2.851   4.050   0.493
12829TIP3    H238433   2.729   4.008   0.573
12830TIP3   OH238434   6.055   6.001   1.624
12830TIP3    H138435   5.976   5.972   1.579
12830TIP3    H238436   6.071   5.934   1.691
12831TIP3   OH238437   5.918   7.296   0.241
12831TIP3    H138438   5.922   7.247   0.323
12831TIP3    H238439   6.007   7.329   0.230
12832TIP3   OH238440   3.988   2.135   4.371
12832TIP3    H138441   4.048   2.069   4.403
12832TIP3    H238442   3.911   2.127   4.428
12833TIP3   OH238443   7.846   5.866   0.590
12833TIP3    H138444   7.901   5.910   0.655
12833TIP3    H238445   7.908   5.830   0.527
12834TIP3   OH238446   6.727   6.541   0.025
12834TIP3    H138447   6.751   6.532   0.117
12834TIP3    H238448   6.676   6.462   0.006
12835TIP3   OH238449   2.905   1.276   2.456
12835TIP3    H138450   2.844   1.303   2.387
12835TIP3    H238451   2.849   1.252   2.529
12836TIP3   OH238452   2.921   3.487   2.257
12836TIP3    H138453   2.981   3.537   2.313
12836TIP3    H238454   2.907   3.405   2.304
12837TIP3   OH238455   5.109   0.886   1.653
12837TIP3    H138456   5.150   0.864   1.737
12837TIP3    H238457   5.015   0.870   1.667
12838TIP3   OH238458   6.216   2.141   0.289
12838TIP3    H138459   6.176   2.054   0.292
12838TIP3    H238460   6.295   2.133   0.343
12839TIP3   OH238461   1.660   5.343   5.548
12839TIP3    H138462   1.659   5.287   5.471
12839TIP3    H238463   1.725   5.410   5.528
12840TIP3   OH238464   8.020   0.194   0.648
12840TIP3    H138465   8.065   0.201   0.563
12840TIP3    H238466   8.065   0.257   0.704
12841TIP3   OH238467   4.183   7.597   6.505
12841TIP3    H138468   4.193   7.650   6.584
12841TIP3    H238469   4.090   7.602   6.484
12842TIP3   OH238470   0.213   0.233   5.307
12842TIP3    H138471   0.256   0.304   5.354
12842TIP3    H238472   0.277   0.205   5.242
12843TIP3   OH238473   4.745   6.278   1.870
12843TIP3    H138474   4.677   6.219   1.839
12843TIP3    H238475   4.740   6.273   1.965
12844TIP3   OH238476   4.735   4.731   3.708
12844TIP3    H138477   4.821   4.690   3.718
12844TIP3    H238478   4.680   4.664   3.670
12845TIP3   OH238479   5.655   7.061   5.299
12845TIP3    H138480   5.708   7.140   5.310
12845TIP3    H238481   5.669   7.036   5.207
12846TIP3   OH238482   7.383   5.588   1.453
12846TIP3    H138483   7.331   5.587   1.534
12846TIP3    H238484   7.348   5.662   1.404
12847TIP3   OH238485   0.025   1.502   2.736
12847TIP3    H138486  -0.050   1.559   2.717
12847TIP3    H238487   0.009   1.424   2.682
12848TIP3   OH238488   2.279   6.131   3.718
12848TIP3    H138489   2.277   6.062   3.652
12848TIP3    H238490   2.366   6.124   3.757
12849TIP3   OH238491   1.074   4.000   6.148
12849TIP3    H138492   1.009   4.018   6.079
12849TIP3    H238493   1.157   3.996   6.102
12850TIP3   OH238494   1.032   1.992   3.940
12850TIP3    H138495   0.991   1.992   4.026
12850TIP3    H238496   1.123   2.016   3.956
12851TIP3   OH238497   6.491   3.320   1.438
12851TIP3    H138498   6.489   3.413   1.460
12851TIP3    H238499   6.582   3.304   1.412
12852TIP3   OH238500   7.418   4.320   5.959
12852TIP3    H138501   7.326   4.311   5.932
12852TIP3    H238502   7.420   4.282   6.048
12853TIP3   OH238503   6.982   6.510   3.482
12853TIP3    H138504   6.964   6.598   3.450
12853TIP3    H238505   7.071   6.491   3.452
12854TIP3   OH238506   0.680   3.768   0.468
12854TIP3    H138507   0.713   3.855   0.493
12854TIP3    H238508   0.669   3.773   0.373
12855TIP3   OH238509   7.166   0.732   6.115
12855TIP3    H138510   7.185   0.708   6.025
12855TIP3    H238511   7.080   0.694   6.132
12856TIP3   OH238512   6.787   3.205   4.397
12856TIP3    H138513   6.818   3.152   4.324
12856TIP3    H238514   6.691   3.199   4.392
12857TIP3   OH238515   3.029   6.062   6.515
12857TIP3    H138516   3.059   6.152   6.517
12857TIP3    H238517   3.082   6.018   6.582
12858TIP3   OH238518   4.082   0.564   5.515
12858TIP3    H138519   3.994   0.596   5.496
12858TIP3    H238520   4.087   0.480   5.469
12859TIP3   OH238521   5.929   7.321   5.875
12859TIP3    H138522   5.856   7.339   5.935
12859TIP3    H238523   5.933   7.226   5.868
12860TIP3   OH238524   1.350   0.539   1.218
12860TIP3    H138525   1.361   0.445   1.232
12860TIP3    H238526   1.410   0.559   1.145
12861TIP3   OH238527   4.686   1.577   6.449
12861TIP3    H138528   4.763   1.587   6.506
12861TIP3    H238529   4.628   1.518   6.498
12862TIP3   OH238530   0.955   6.972   4.664
12862TIP3    H138531   0.974   7.063   4.686
12862TIP3    H238532   0.954   6.971   4.568
12863TIP3   OH238533   6.431   3.677   3.264
12863TIP3    H138534   6.418   3.593   3.308
12863TIP3    H238535   6.343   3.716   3.262
12864TIP3   OH238536   4.008   3.608   0.106
12864TIP3    H138537   4.059   3.580   0.030
12864TIP3    H238538   4.069   3.660   0.158
12865TIP3   OH238539   4.318   6.671   2.870
12865TIP3    H138540   4.277   6.602   2.922
12865TIP3    H238541   4.312   6.639   2.780
12866TIP3   OH238542   6.214   3.359   0.744
12866TIP3    H138543   6.139   3.415   0.725
12866TIP3    H238544   6.287   3.420   0.755
12867TIP3   OH238545   6.338   2.570   4.781
12867TIP3    H138546   6.392   2.555   4.859
12867TIP3    H238547   6.400   2.566   4.709
12868TIP3   OH238548   8.087   3.427   3.608
12868TIP3    H138549   8.147   3.502   3.618
12868TIP3    H238550   8.083   3.389   3.696
12869TIP3   OH238551   6.892   7.305   4.737
12869TIP3    H138552   6.816   7.251   4.758
12869TIP3    H238553   6.864   7.395   4.756
12870TIP3   OH238554   0.517   2.692   6.402
12870TIP3    H138555   0.592   2.677   6.459
12870TIP3    H238556   0.553   2.688   6.314
12871TIP3   OH238557   7.979   0.959   1.681
12871TIP3    H138558   8.018   1.011   1.751
12871TIP3    H238559   7.885   0.962   1.700
12872TIP3   OH238560   6.803   5.309   5.554
12872TIP3    H138561   6.785   5.215   5.546
12872TIP3    H238562   6.892   5.319   5.521
12873TIP3   OH238563   2.026   5.061   4.042
12873TIP3    H138564   2.089   5.011   3.990
12873TIP3    H238565   2.019   5.013   4.124
12874TIP3   OH238566   4.975   6.822   0.065
12874TIP3    H138567   4.900   6.841   0.009
12874TIP3    H238568   5.043   6.883   0.036
12875TIP3   OH238569   3.864   3.286   1.581
12875TIP3    H138570   3.830   3.311   1.667
12875TIP3    H238571   3.926   3.355   1.559
12876TIP3   OH238572   6.846   7.680   6.287
12876TIP3    H138573   6.786   7.699   6.215
12876TIP3    H238574   6.876   7.767   6.316
12877TIP3   OH238575   3.942   1.348   1.651
12877TIP3    H138576   3.903   1.273   1.606
12877TIP3    H238577   4.029   1.316   1.678
12878TIP3   OH238578   7.175   7.473   3.191
12878TIP3    H138579   7.210   7.390   3.159
12878TIP3    H238580   7.097   7.449   3.240
12879TIP3   OH238581   3.036   5.958   1.730
12879TIP3    H138582   3.046   5.932   1.822
12879TIP3    H238583   3.014   6.051   1.734
12880TIP3   OH238584   6.807   7.245   5.344
12880TIP3    H138585   6.717   7.239   5.312
12880TIP3    H238586   6.804   7.314   5.411
12881TIP3   OH238587   2.086   2.436   2.804
12881TIP3    H138588   2.124   2.472   2.884
12881TIP3    H238589   2.160   2.401   2.756
12882TIP3   OH238590   7.784   2.951   1.685
12882TIP3    H138591   7.716   3.018   1.674
12882TIP3    H238592   7.867   2.999   1.674
12883TIP3   OH238593   2.799   2.989   2.449
12883TIP3    H138594   2.718   2.943   2.428
12883TIP3    H238595   2.864   2.920   2.460
12884TIP3   OH238596   7.620   0.165   0.319
12884TIP3    H138597   7.602   0.257   0.300
12884TIP3    H238598   7.707   0.164   0.358
12885TIP3   OH238599   5.759   5.259   4.457
12885TIP3    H138600   5.819   5.333   4.470
12885TIP3    H238601   5.677   5.300   4.429
12886TIP3   OH238602   6.299   0.410   2.220
12886TIP3    H138603   6.333   0.500   2.220
12886TIP3    H238604   6.218   0.416   2.271
12887TIP3   OH238605   4.834   3.822   1.058
12887TIP3    H138606   4.919   3.844   1.095
12887TIP3    H238607   4.794   3.763   1.123
12888TIP3   OH238608   0.471   6.776   6.569
12888TIP3    H138609   0.541   6.728   6.526
12888TIP3    H238610   0.511   6.809   6.650
12889TIP3   OH238611   3.136   6.547   4.701
12889TIP3    H138612   3.134   6.549   4.796
12889TIP3    H238613   3.189   6.469   4.680
12890TIP3   OH238614   0.338   0.030   4.934
12890TIP3    H138615   0.383   0.050   5.016
12890TIP3    H238616   0.263  -0.023   4.959
12891TIP3   OH238617   1.035   0.317   2.473
12891TIP3    H138618   1.046   0.336   2.380
12891TIP3    H238619   1.029   0.402   2.515
12892TIP3   OH238620   8.210   2.026   0.790
12892TIP3    H138621   8.247   2.096   0.843
12892TIP3    H238622   8.129   2.062   0.755
12893TIP3   OH238623   2.213   0.256   1.404
12893TIP3    H138624   2.306   0.235   1.415
12893TIP3    H238625   2.213   0.346   1.372
12894TIP3   OH238626   5.946   5.413   2.032
12894TIP3    H138627   5.922   5.494   1.988
12894TIP3    H238628   5.865   5.383   2.074
12895TIP3   OH238629   2.794   5.448   5.526
12895TIP3    H138630   2.798   5.542   5.508
12895TIP3    H238631   2.778   5.442   5.620
12896TIP3   OH238632   6.600   7.671   4.261
12896TIP3    H138633   6.541   7.646   4.189
12896TIP3    H238634   6.634   7.587   4.293
12897TIP3   OH238635   4.052   7.433   3.218
12897TIP3    H138636   4.026   7.424   3.310
12897TIP3    H238637   4.146   7.417   3.218
12898TIP3   OH238638   5.044   6.804   1.537
12898TIP3    H138639   5.112   6.737   1.525
12898TIP3    H238640   5.050   6.858   1.458
12899TIP3   OH238641   7.260   4.992   6.044
12899TIP3    H138642   7.264   5.053   6.117
12899TIP3    H238643   7.290   5.042   5.968
12900TIP3   OH238644   3.678   4.257   6.324
12900TIP3    H138645   3.766   4.275   6.288
12900TIP3    H238646   3.668   4.162   6.315
12901TIP3   OH238647   8.274   7.315   3.715
12901TIP3    H138648   8.324   7.235   3.733
12901TIP3    H238649   8.340   7.381   3.693
12902TIP3   OH238650   5.436   1.413   3.904
12902TIP3    H138651   5.493   1.378   3.972
12902TIP3    H238652   5.489   1.478   3.858
12903TIP3   OH238653   3.667   6.835   5.354
12903TIP3    H138654   3.623   6.781   5.289
12903TIP3    H238655   3.675   6.921   5.313
12904TIP3   OH238656   0.109   1.501   6.464
12904TIP3    H138657   0.153   1.416   6.474
12904TIP3    H238658   0.177   1.566   6.485
12905TIP3   OH238659   2.315   6.542   2.079
12905TIP3    H138660   2.376   6.470   2.096
12905TIP3    H238661   2.301   6.583   2.164
12906TIP3   OH238662   7.132   3.889   5.489
12906TIP3    H138663   7.154   3.857   5.401
12906TIP3    H238664   7.216   3.902   5.532
12907TIP3   OH238665   4.545   7.232   3.139
12907TIP3    H138666   4.489   7.270   3.070
12907TIP3    H238667   4.601   7.170   3.093
12908TIP3   OH238668   6.650   3.729   6.077
12908TIP3    H138669   6.706   3.652   6.089
12908TIP3    H238670   6.703   3.789   6.025
12909TIP3   OH238671   2.672   2.662   1.765
12909TIP3    H138672   2.746   2.640   1.708
12909TIP3    H238673   2.602   2.688   1.704
12910TIP3   OH238674   4.210   0.323   5.495
12910TIP3    H138675   4.157   0.265   5.550
12910TIP3    H238676   4.263   0.263   5.442
12911TIP3   OH238677   3.862   2.985   5.159
12911TIP3    H138678   3.778   2.951   5.128
12911TIP3    H238679   3.877   2.940   5.242
12912TIP3   OH238680   3.690   0.172   5.443
12912TIP3    H138681   3.669   0.091   5.395
12912TIP3    H238682   3.613   0.227   5.431
12913TIP3   OH238683   6.916   2.110   0.642
12913TIP3    H138684   6.846   2.102   0.707
12913TIP3    H238685   6.871   2.138   0.562
12914TIP3   OH238686   0.813   0.740   4.489
12914TIP3    H138687   0.761   0.809   4.447
12914TIP3    H238688   0.749   0.672   4.512
12915TIP3   OH238689   5.493   7.473   1.882
12915TIP3    H138690   5.561   7.482   1.814
12915TIP3    H238691   5.411   7.479   1.834
12916TIP3   OH238692   0.273   3.781   3.470
12916TIP3    H138693   0.287   3.817   3.557
12916TIP3    H238694   0.306   3.849   3.411
12917TIP3   OH238695   0.251   7.708   1.804
12917TIP3    H138696   0.251   7.700   1.709
12917TIP3    H238697   0.226   7.799   1.820
12918TIP3   OH238698   6.045   7.019   1.471
12918TIP3    H138699   5.967   7.043   1.521
12918TIP3    H238700   6.021   7.033   1.380
12919TIP3   OH238701   6.807   4.844   2.489
12919TIP3    H138702   6.719   4.883   2.487
12919TIP3    H238703   6.809   4.787   2.412
12920TIP3   OH238704   6.227   5.320   5.308
12920TIP3    H138705   6.286   5.354   5.374
12920TIP3    H238706   6.140   5.326   5.347
12921TIP3   OH238707   5.368   0.771   0.602
12921TIP3    H138708   5.371   0.737   0.512
12921TIP3    H238709   5.386   0.695   0.657
12922TIP3   OH238710   8.110   5.434   6.709
12922TIP3    H138711   8.184   5.474   6.756
12922TIP3    H238712   8.078   5.366   6.768
12923TIP3   OH238713   6.543   3.585   1.990
12923TIP3    H138714   6.557   3.545   1.904
12923TIP3    H238715   6.543   3.511   2.051
12924TIP3   OH238716   5.812   3.800   2.918
12924TIP3    H138717   5.816   3.705   2.904
12924TIP3    H238718   5.832   3.811   3.011
12925TIP3   OH238719   7.343   6.509   2.445
12925TIP3    H138720   7.428   6.546   2.467
12925TIP3    H238721   7.279   6.569   2.483
12926TIP3   OH238722   8.029   6.110   6.552
12926TIP3    H138723   7.973   6.146   6.483
12926TIP3    H238724   7.991   6.143   6.633
12927TIP3   OH238725   3.076   3.901   5.339
12927TIP3    H138726   3.122   3.984   5.326
12927TIP3    H238727   2.998   3.909   5.284
12928TIP3   OH238728   5.850   6.139   5.278
12928TIP3    H138729   5.808   6.055   5.296
12928TIP3    H238730   5.780   6.195   5.244
12929TIP3   OH238731   3.800   3.261   4.631
12929TIP3    H138732   3.873   3.300   4.583
12929TIP3    H238733   3.842   3.210   4.700
12930TIP3   OH238734   5.110   5.995   3.653
12930TIP3    H138735   5.036   6.047   3.684
12930TIP3    H238736   5.131   5.937   3.726
12931TIP3   OH238737   0.300   4.636   4.910
12931TIP3    H138738   0.269   4.637   5.000
12931TIP3    H238739   0.316   4.544   4.891
12932TIP3   OH238740   4.650   1.087   2.051
12932TIP3    H138741   4.607   1.145   2.113
12932TIP3    H238742   4.743   1.111   2.057
12933TIP3   OH238743   8.208   3.706   2.893
12933TIP3    H138744   8.181   3.785   2.939
12933TIP3    H238745   8.244   3.650   2.961
12934TIP3   OH238746   3.415   3.991   5.612
12934TIP3    H138747   3.486   3.939   5.575
12934TIP3    H238748   3.400   4.060   5.548
12935TIP3   OH238749   4.171   0.304   2.318
12935TIP3    H138750   4.245   0.363   2.300
12935TIP3    H238751   4.127   0.345   2.393
12936TIP3   OH238752   3.983   2.054   1.438
12936TIP3    H138753   3.908   2.084   1.387
12936TIP3    H238754   3.988   2.115   1.512
12937TIP3   OH238755   8.194   0.610   1.448
12937TIP3    H138756   8.099   0.612   1.458
12937TIP3    H238757   8.209   0.637   1.357
12938TIP3   OH238758   7.574   6.029   3.534
12938TIP3    H138759   7.666   6.051   3.549
12938TIP3    H238760   7.567   6.021   3.439
12939TIP3   OH238761   0.638   4.363   4.836
12939TIP3    H138762   0.692   4.375   4.915
12939TIP3    H238763   0.698   4.382   4.763
12940TIP3   OH238764   2.938   7.554   1.073
12940TIP3    H138765   3.013   7.590   1.120
12940TIP3    H238766   2.915   7.475   1.121
12941TIP3   OH238767   3.644   5.002   5.061
12941TIP3    H138768   3.582   5.034   4.995
12941TIP3    H238769   3.717   4.967   5.010
12942TIP3   OH238770   1.691   1.539   5.736
12942TIP3    H138771   1.624   1.586   5.785
12942TIP3    H238772   1.701   1.456   5.783
12943TIP3   OH238773   0.434   2.217   0.600
12943TIP3    H138774   0.451   2.311   0.604
12943TIP3    H238775   0.338   2.210   0.603
12944TIP3   OH238776   4.467   2.852   3.426
12944TIP3    H138777   4.437   2.772   3.470
12944TIP3    H238778   4.522   2.820   3.354
12945TIP3   OH238779   2.401   6.781   6.134
12945TIP3    H138780   2.390   6.864   6.179
12945TIP3    H238781   2.467   6.798   6.067
12946TIP3   OH238782   5.019   2.908   6.123
12946TIP3    H138783   4.995   2.984   6.177
12946TIP3    H238784   5.082   2.860   6.176
12947TIP3   OH238785   4.537   5.554   6.178
12947TIP3    H138786   4.599   5.585   6.244
12947TIP3    H238787   4.457   5.604   6.196
12948TIP3   OH238788   7.230   2.026   6.354
12948TIP3    H138789   7.275   2.110   6.364
12948TIP3    H238790   7.146   2.038   6.399
12949TIP3   OH238791   4.797   3.453   5.714
12949TIP3    H138792   4.832   3.445   5.625
12949TIP3    H238793   4.873   3.453   5.771
12950TIP3   OH238794   5.781   6.974   2.511
12950TIP3    H138795   5.742   7.033   2.446
12950TIP3    H238796   5.706   6.938   2.559
12951TIP3   OH238797   2.927   7.265   0.103
12951TIP3    H138798   2.929   7.342   0.159
12951TIP3    H238799   2.834   7.242   0.097
12952TIP3   OH238800   7.485   7.592   2.369
12952TIP3    H138801   7.506   7.517   2.314
12952TIP3    H238802   7.471   7.664   2.307
12953TIP3   OH238803   2.199   6.121   6.299
12953TIP3    H138804   2.141   6.068   6.244
12953TIP3    H238805   2.191   6.083   6.386
12954TIP3   OH238806   6.125   0.614   4.510
12954TIP3    H138807   6.031   0.627   4.526
12954TIP3    H238808   6.141   0.523   4.534
12955TIP3   OH238809   2.998   1.910   2.117
12955TIP3    H138810   2.966   1.907   2.027
12955TIP3    H238811   3.037   1.997   2.126
12956TIP3   OH238812   1.618   7.414   5.402
12956TIP3    H138813   1.698   7.391   5.355
12956TIP3    H238814   1.565   7.461   5.337
12957TIP3   OH238815   1.251   5.045   1.157
12957TIP3    H138816   1.212   4.960   1.181
12957TIP3    H238817   1.183   5.088   1.105
12958TIP3   OH238818   7.298   7.234   3.084
12958TIP3    H138819   7.292   7.146   3.120
12958TIP3    H238820   7.254   7.229   2.999
12959TIP3   OH238821   6.103   7.538   3.689
12959TIP3    H138822   6.051   7.555   3.768
12959TIP3    H238823   6.071   7.453   3.658
12960TIP3   OH238824   2.233   5.410   1.447
12960TIP3    H138825   2.198   5.338   1.395
12960TIP3    H238826   2.185   5.488   1.418
12961TIP3   OH238827   5.966   1.660   1.016
12961TIP3    H138828   5.977   1.682   1.109
12961TIP3    H238829   5.998   1.569   1.010
12962TIP3   OH238830   6.113   5.967   4.344
12962TIP3    H138831   6.084   5.881   4.314
12962TIP3    H238832   6.190   5.950   4.398
12963TIP3   OH238833   6.549   7.522   5.575
12963TIP3    H138834   6.497   7.587   5.527
12963TIP3    H238835   6.494   7.444   5.577
12964TIP3   OH238836   0.565   3.631   3.207
12964TIP3    H138837   0.483   3.586   3.228
12964TIP3    H238838   0.541   3.690   3.135
12965TIP3   OH238839   7.735   4.738   4.084
12965TIP3    H138840   7.660   4.738   4.025
12965TIP3    H238841   7.704   4.780   4.164
12966TIP3   OH238842   4.002   0.208   2.721
12966TIP3    H138843   4.008   0.269   2.794
12966TIP3    H238844   4.014   0.122   2.760
12967TIP3   OH238845   1.640   4.807   5.774
12967TIP3    H138846   1.663   4.744   5.842
12967TIP3    H238847   1.545   4.799   5.765
12968TIP3   OH238848   3.896   6.059   4.707
12968TIP3    H138849   3.823   6.118   4.687
12968TIP3    H238850   3.909   6.009   4.627
12969TIP3   OH238851   7.771   6.391   3.677
12969TIP3    H138852   7.804   6.451   3.744
12969TIP3    H238853   7.707   6.443   3.628
12970TIP3   OH238854   3.353   6.890   2.596
12970TIP3    H138855   3.333   6.889   2.690
12970TIP3    H238856   3.292   6.954   2.560
12971TIP3   OH238857   3.811   6.054   0.070
12971TIP3    H138858   3.765   6.136   0.050
12971TIP3    H238859   3.791   6.037   0.162
12972TIP3   OH238860   5.962   7.576   0.387
12972TIP3    H138861   5.943   7.502   0.329
12972TIP3    H238862   5.880   7.590   0.435
12973TIP3   OH238863   0.630   3.445   0.278
12973TIP3    H138864   0.661   3.523   0.323
12973TIP3    H238865   0.542   3.467   0.249
12974TIP3   OH238866   6.246   2.166   6.446
12974TIP3    H138867   6.151   2.168   6.461
12974TIP3    H238868   6.273   2.257   6.451
12975TIP3   OH238869   6.660   6.476   0.615
12975TIP3    H138870   6.598   6.429   0.672
12975TIP3    H238871   6.669   6.562   0.655
12976TIP3   OH238872   5.524   0.306   5.526
12976TIP3    H138873   5.581   0.305   5.603
12976TIP3    H238874   5.579   0.340   5.456
12977TIP3   OH238875   5.101   1.149   4.735
12977TIP3    H138876   5.176   1.184   4.687
12977TIP3    H238877   5.102   1.056   4.716
12978TIP3   OH238878   0.773   1.548   1.139
12978TIP3    H138879   0.711   1.608   1.182
12978TIP3    H238880   0.733   1.462   1.148
12979TIP3   OH238881   1.451   6.410   6.053
12979TIP3    H138882   1.505   6.476   6.097
12979TIP3    H238883   1.373   6.458   6.026
12980TIP3   OH238884   3.945   0.029   6.540
12980TIP3    H138885   3.973   0.071   6.622
12980TIP3    H238886   4.026  -0.005   6.502
12981TIP3   OH238887   1.035   3.253   6.039
12981TIP3    H138888   1.010   3.275   6.128
12981TIP3    H238889   0.980   3.179   6.015
12982TIP3   OH238890   7.435   1.304   0.783
12982TIP3    H138891   7.471   1.220   0.755
12982TIP3    H238892   7.484   1.325   0.863
12983TIP3   OH238893   4.689   1.811   2.034
12983TIP3    H138894   4.669   1.721   2.061
12983TIP3    H238895   4.609   1.841   1.991
12984TIP3   OH238896   3.201   4.097   3.234
12984TIP3    H138897   3.157   4.018   3.201
12984TIP3    H238898   3.293   4.072   3.238
12985TIP3   OH238899   7.035   7.218   6.633
12985TIP3    H138900   6.951   7.264   6.640
12985TIP3    H238901   7.084   7.269   6.568
12986TIP3   OH238902   5.010   1.678   4.858
12986TIP3    H138903   5.081   1.694   4.920
12986TIP3    H238904   5.019   1.747   4.793
12987TIP3   OH238905   2.485   3.106   5.114
12987TIP3    H138906   2.545   3.109   5.190
12987TIP3    H238907   2.487   3.194   5.079
12988TIP3   OH238908   0.417   2.446   5.210
12988TIP3    H138909   0.328   2.426   5.182
12988TIP3    H238910   0.462   2.361   5.206
12989TIP3   OH238911   1.424   2.121   0.515
12989TIP3    H138912   1.473   2.072   0.449
12989TIP3    H238913   1.428   2.212   0.486
12990TIP3   OH238914   6.884   1.509   0.749
12990TIP3    H138915   6.891   1.584   0.809
12990TIP3    H238916   6.973   1.494   0.719
12991TIP3   OH238917   1.060   6.872   5.125
12991TIP3    H138918   1.020   6.843   5.043
12991TIP3    H238919   1.116   6.945   5.100
12992TIP3   OH238920   7.415   1.284   2.332
12992TIP3    H138921   7.437   1.372   2.361
12992TIP3    H238922   7.428   1.229   2.409
12993TIP3   OH238923   0.404   0.335   6.511
12993TIP3    H138924   0.474   0.376   6.460
12993TIP3    H238925   0.342   0.302   6.445
12994TIP3   OH238926   7.626   0.955   4.734
12994TIP3    H138927   7.598   0.935   4.645
12994TIP3    H238928   7.548   0.942   4.788
12995TIP3   OH238929   2.092   2.709   1.754
12995TIP3    H138930   2.145   2.670   1.823
12995TIP3    H238931   2.020   2.752   1.801
12996TIP3   OH238932   1.649   1.741   5.083
12996TIP3    H138933   1.685   1.807   5.024
12996TIP3    H238934   1.684   1.658   5.052
12997TIP3   OH238935   5.384   7.340   3.416
12997TIP3    H138936   5.456   7.281   3.390
12997TIP3    H238937   5.315   7.322   3.353
12998TIP3   OH238938   2.487   7.431   4.603
12998TIP3    H138939   2.490   7.378   4.683
12998TIP3    H238940   2.416   7.391   4.552
12999TIP3   OH238941   4.307   1.312   1.970
12999TIP3    H138942   4.268   1.367   2.038
12999TIP3    H238943   4.390   1.356   1.949
13000TIP3   OH238944   7.800   4.512   4.834
13000TIP3    H138945   7.788   4.505   4.929
13000TIP3    H238946   7.721   4.472   4.797
13001TIP3   OH238947   7.931   4.728   0.791
13001TIP3    H138948   7.860   4.787   0.816
13001TIP3    H238949   7.890   4.658   0.741
13002TIP3   OH238950   2.026   7.655   6.630
13002TIP3    H138951   2.011   7.654   6.536
13002TIP3    H238952   2.102   7.712   6.642
13003TIP3   OH238953   6.395   3.697   5.964
13003TIP3    H138954   6.347   3.755   6.023
13003TIP3    H238955   6.483   3.692   6.003
13004TIP3   OH238956   6.493   5.214   4.199
13004TIP3    H138957   6.576   5.167   4.196
13004TIP3    H238958   6.505   5.279   4.269
13005TIP3   OH238959   2.459   5.196   6.223
13005TIP3    H138960   2.499   5.149   6.150
13005TIP3    H238961   2.492   5.152   6.301
13006TIP3   OH238962   3.340   6.896   0.550
13006TIP3    H138963   3.260   6.902   0.604
13006TIP3    H238964   3.411   6.910   0.612
13007TIP3   OH238965   5.855   5.721   5.203
13007TIP3    H138966   5.947   5.732   5.180
13007TIP3    H238967   5.851   5.633   5.241
13008TIP3   OH238968   1.916   0.616   2.767
13008TIP3    H138969   2.008   0.599   2.787
13008TIP3    H238970   1.868   0.550   2.817
13009TIP3   OH238971   4.001   1.743   2.962
13009TIP3    H138972   4.026   1.702   2.880
13009TIP3    H238973   3.999   1.671   3.026
13010TIP3   OH238974   7.469   4.845   1.664
13010TIP3    H138975   7.383   4.838   1.621
13010TIP3    H238976   7.476   4.765   1.716
13011TIP3   OH238977   8.310   7.545   4.320
13011TIP3    H138978   8.237   7.607   4.327
13011TIP3    H238979   8.270   7.460   4.337
13012TIP3   OH238980   0.564   0.107   2.704
13012TIP3    H138981   0.611   0.107   2.621
13012TIP3    H238982   0.627   0.141   2.767
13013TIP3   OH238983   5.796   5.529   5.980
13013TIP3    H138984   5.874   5.584   5.975
13013TIP3    H238985   5.804   5.469   5.906
13014TIP3   OH238986   0.747   4.225   1.355
13014TIP3    H138987   0.675   4.195   1.411
13014TIP3    H238988   0.707   4.239   1.269
13015TIP3   OH238989   5.703   1.324   4.696
13015TIP3    H138990   5.713   1.359   4.784
13015TIP3    H238991   5.757   1.245   4.695
13016TIP3   OH238992   1.597   2.011   6.770
13016TIP3    H138993   1.522   1.963   6.734
13016TIP3    H238994   1.652   2.029   6.694
13017TIP3   OH238995   7.028   7.307   4.493
13017TIP3    H138996   6.992   7.267   4.572
13017TIP3    H238997   7.074   7.384   4.524
13018TIP3   OH238998   3.087   0.200   2.867
13018TIP3    H138999   3.171   0.161   2.841
13018TIP3    H239000   3.111   0.264   2.934
13019TIP3   OH239001   3.005   1.093   3.936
13019TIP3    H139002   2.912   1.072   3.931
13019TIP3    H239003   3.039   1.075   3.849
13020TIP3   OH239004   8.301   7.889   1.308
13020TIP3    H139005   8.262   7.802   1.315
13020TIP3    H239006   8.235   7.942   1.264
13021TIP3   OH239007   1.940   5.370   2.308
13021TIP3    H139008   1.995   5.411   2.241
13021TIP3    H239009   1.979   5.398   2.391
13022TIP3   OH239010   2.071   6.715   6.790
13022TIP3    H139011   2.138   6.703   6.723
13022TIP3    H239012   2.005   6.771   6.748
13023TIP3   OH239013   2.537   2.693   5.422
13023TIP3    H139014   2.581   2.744   5.353
13023TIP3    H239015   2.445   2.689   5.394
13024TIP3   OH239016   5.654   2.934   4.443
13024TIP3    H139017   5.629   2.910   4.354
13024TIP3    H239018   5.595   2.883   4.499
13025TIP3   OH239019   3.708   3.610   0.962
13025TIP3    H139020   3.712   3.674   0.891
13025TIP3    H239021   3.789   3.622   1.011
13026TIP3   OH239022   1.043   7.516   3.002
13026TIP3    H139023   0.949   7.532   3.010
13026TIP3    H239024   1.082   7.559   3.078
13027TIP3   OH239025   6.195   3.484   0.182
13027TIP3    H139026   6.182   3.578   0.194
13027TIP3    H239027   6.211   3.451   0.271
13028TIP3   OH239028   2.525   3.064   1.123
13028TIP3    H139029   2.503   3.061   1.216
13028TIP3    H239030   2.469   2.997   1.083
13029TIP3   OH239031   6.297   3.193   3.271
13029TIP3    H139032   6.375   3.138   3.277
13029TIP3    H239033   6.225   3.131   3.260
13030TIP3   OH239034   7.194   2.363   2.440
13030TIP3    H139035   7.131   2.343   2.509
13030TIP3    H239036   7.233   2.446   2.466
13031TIP3   OH239037   3.789   7.125   2.561
13031TIP3    H139038   3.713   7.146   2.616
13031TIP3    H239039   3.803   7.032   2.576
13032TIP3   OH239040   5.800   4.713   0.758
13032TIP3    H139041   5.719   4.690   0.714
13032TIP3    H239042   5.773   4.744   0.844
13033TIP3   OH239043   2.894   2.600   4.442
13033TIP3    H139044   2.983   2.635   4.450
13033TIP3    H239045   2.838   2.678   4.437
13034TIP3   OH239046   6.966   2.222   5.034
13034TIP3    H139047   6.989   2.138   5.074
13034TIP3    H239048   7.041   2.279   5.051
13035TIP3   OH239049   1.580   6.156   6.002
13035TIP3    H139050   1.492   6.131   6.028
13035TIP3    H239051   1.577   6.251   5.992
13036TIP3   OH239052   5.059   6.360   3.781
13036TIP3    H139053   5.063   6.416   3.704
13036TIP3    H239054   5.064   6.420   3.855
13037TIP3   OH239055   6.958   5.180   0.116
13037TIP3    H139056   6.915   5.183   0.030
13037TIP3    H239057   6.887   5.194   0.179
13038TIP3   OH239058   5.461   0.616   0.140
13038TIP3    H139059   5.490   0.629   0.230
13038TIP3    H239060   5.403   0.540   0.143
13039TIP3   OH239061   4.818   1.166   4.701
13039TIP3    H139062   4.914   1.168   4.705
13039TIP3    H239063   4.791   1.250   4.738
13040TIP3   OH239064   3.594   2.055   2.176
13040TIP3    H139065   3.522   1.993   2.158
13040TIP3    H239066   3.670   1.999   2.192
13041TIP3   OH239067   5.308   4.052   2.253
13041TIP3    H139068   5.319   4.120   2.320
13041TIP3    H239069   5.214   4.034   2.254
13042TIP3   OH239070   5.152   1.310   4.992
13042TIP3    H139071   5.109   1.280   4.912
13042TIP3    H239072   5.234   1.348   4.963
13043TIP3   OH239073   6.977   4.424   5.336
13043TIP3    H139074   7.021   4.345   5.370
13043TIP3    H239075   6.947   4.399   5.249
13044TIP3   OH239076   5.969   5.051   0.505
13044TIP3    H139077   6.039   5.078   0.564
13044TIP3    H239078   6.013   5.031   0.423
13045TIP3   OH239079   6.718   1.072   1.919
13045TIP3    H139080   6.697   1.165   1.923
13045TIP3    H239081   6.643   1.032   1.874
13046TIP3   OH239082   8.207   4.347   2.680
13046TIP3    H139083   8.270   4.383   2.618
13046TIP3    H239084   8.257   4.330   2.759
13047TIP3   OH239085   1.716   3.028   0.635
13047TIP3    H139086   1.810   3.048   0.627
13047TIP3    H239087   1.673   3.114   0.632
13048TIP3   OH239088   0.262   4.357   6.319
13048TIP3    H139089   0.216   4.398   6.393
13048TIP3    H239090   0.352   4.349   6.350
13049TIP3   OH239091   1.431   3.646   0.945
13049TIP3    H139092   1.395   3.605   1.024
13049TIP3    H239093   1.393   3.597   0.873
13050TIP3   OH239094   7.313   0.503   5.463
13050TIP3    H139095   7.317   0.576   5.400
13050TIP3    H239096   7.360   0.535   5.540
13051TIP3   OH239097   6.825   3.196   2.348
13051TIP3    H139098   6.841   3.272   2.404
13051TIP3    H239099   6.734   3.206   2.319
13052TIP3   OH239100   0.342   2.047   2.731
13052TIP3    H139101   0.301   1.991   2.665
13052TIP3    H239102   0.424   2.076   2.690
13053TIP3   OH239103   3.915   4.601   3.974
13053TIP3    H139104   3.910   4.506   3.979
13053TIP3    H239105   3.919   4.620   3.880
13054TIP3   OH239106   4.949   1.025   0.724
13054TIP3    H139107   4.961   1.058   0.635
13054TIP3    H239108   4.915   1.100   0.773
13055TIP3   OH239109   0.127   1.386   3.189
13055TIP3    H139110   0.133   1.468   3.140
13055TIP3    H239111   0.105   1.413   3.278
13056TIP3   OH239112   6.028   3.988   1.668
13056TIP3    H139113   5.992   3.924   1.607
13056TIP3    H239114   5.952   4.036   1.699
13057TIP3   OH239115   0.999   0.343   4.280
13057TIP3    H139116   1.068   0.407   4.264
13057TIP3    H239117   1.038   0.259   4.254
13058TIP3   OH239118   0.774   2.369   3.047
13058TIP3    H139119   0.724   2.446   3.074
13058TIP3    H239120   0.837   2.355   3.118
13059TIP3   OH239121   6.678   1.260   5.977
13059TIP3    H139122   6.588   1.230   5.970
13059TIP3    H239123   6.673   1.340   6.030
13060TIP3   OH239124   2.499   7.635   0.848
13060TIP3    H139125   2.415   7.598   0.824
13060TIP3    H239126   2.478   7.701   0.915
13061TIP3   OH239127   4.396   2.811   2.802
13061TIP3    H139128   4.491   2.805   2.799
13061TIP3    H239129   4.378   2.881   2.864
13062TIP3   OH239130   6.389   2.928   3.047
13062TIP3    H139131   6.317   2.942   3.109
13062TIP3    H239132   6.356   2.862   2.986
13063TIP3   OH239133   4.640   5.127   2.891
13063TIP3    H139134   4.639   5.200   2.829
13063TIP3    H239135   4.563   5.074   2.867
13064TIP3   OH239136   0.510   1.817   6.224
13064TIP3    H139137   0.426   1.863   6.216
13064TIP3    H239138   0.537   1.832   6.315
13065TIP3   OH239139   7.058   2.736   1.448
13065TIP3    H139140   7.041   2.670   1.381
13065TIP3    H239141   7.129   2.789   1.413
13066TIP3   OH239142   8.229   1.017   1.562
13066TIP3    H139143   8.146   1.001   1.606
13066TIP3    H239144   8.281   0.938   1.578
13067TIP3   OH239145   6.405   5.060   4.844
13067TIP3    H139146   6.388   5.047   4.751
13067TIP3    H239147   6.496   5.031   4.855
13068TIP3   OH239148   5.029   0.696   1.276
13068TIP3    H139149   5.023   0.783   1.315
13068TIP3    H239150   4.943   0.682   1.235
13069TIP3   OH239151   2.990   3.729   6.534
13069TIP3    H139152   2.901   3.721   6.500
13069TIP3    H239153   3.046   3.727   6.456
13070TIP3   OH239154   1.086   5.657   4.351
13070TIP3    H139155   1.016   5.718   4.375
13070TIP3    H239156   1.162   5.713   4.334
13071TIP3   OH239157   6.847   2.297   5.823
13071TIP3    H139158   6.908   2.265   5.757
13071TIP3    H239159   6.824   2.385   5.794
13072TIP3   OH239160   3.256   2.898   2.273
13072TIP3    H139161   3.318   2.894   2.347
13072TIP3    H239162   3.297   2.845   2.205
13073TIP3   OH239163   1.262   1.929   6.247
13073TIP3    H139164   1.269   1.848   6.197
13073TIP3    H239165   1.171   1.957   6.235
13074TIP3   OH239166   1.969   2.774   6.379
13074TIP3    H139167   1.937   2.685   6.395
13074TIP3    H239168   2.064   2.766   6.388
13075TIP3   OH239169   5.870   3.711   0.062
13075TIP3    H139170   5.898   3.686  -0.026
13075TIP3    H239171   5.780   3.742   0.050
13076TIP3   OH239172   5.714   5.953   3.052
13076TIP3    H139173   5.734   5.998   3.135
13076TIP3    H239174   5.792   5.900   3.034
13077TIP3   OH239175   0.805   4.036   3.208
13077TIP3    H139176   0.787   3.974   3.137
13077TIP3    H239177   0.728   4.030   3.264
13078TIP3   OH239178   3.917   4.475   6.550
13078TIP3    H139179   3.855   4.424   6.603
13078TIP3    H239180   3.964   4.410   6.498
13079TIP3   OH239181   1.895   3.850   0.143
13079TIP3    H139182   1.949   3.772   0.128
13079TIP3    H239183   1.815   3.817   0.182
13080TIP3   OH239184   7.326   3.366   0.508
13080TIP3    H139185   7.246   3.414   0.485
13080TIP3    H239186   7.345   3.311   0.432
13081TIP3   OH239187   5.255   0.234   0.711
13081TIP3    H139188   5.222   0.266   0.794
13081TIP3    H239189   5.339   0.193   0.733
13082TIP3   OH239190   5.590   5.588   3.532
13082TIP3    H139191   5.580   5.557   3.622
13082TIP3    H239192   5.557   5.678   3.534
13083TIP3   OH239193   5.349   4.110   1.465
13083TIP3    H139194   5.301   4.041   1.510
13083TIP3    H239195   5.335   4.188   1.518
13084TIP3   OH239196   0.911   7.414   1.611
13084TIP3    H139197   0.941   7.389   1.523
13084TIP3    H239198   0.989   7.445   1.655
13085TIP3   OH239199   7.187   2.014   2.661
13085TIP3    H139200   7.214   1.942   2.604
13085TIP3    H239201   7.198   2.093   2.607
13086TIP3   OH239202   6.334   0.177   4.720
13086TIP3    H139203   6.411   0.163   4.775
13086TIP3    H239204   6.261   0.185   4.781
13087TIP3   OH239205   1.268   5.220   1.380
13087TIP3    H139206   1.301   5.160   1.313
13087TIP3    H239207   1.179   5.241   1.352
13088TIP3   OH239208   2.048   1.225   1.604
13088TIP3    H139209   2.115   1.158   1.620
13088TIP3    H239210   1.987   1.216   1.678
13089TIP3   OH239211   3.984   6.586   3.598
13089TIP3    H139212   3.896   6.564   3.569
13089TIP3    H239213   4.021   6.503   3.628
13090TIP3   OH239214   5.942   0.649   5.282
13090TIP3    H139215   5.848   0.657   5.268
13090TIP3    H239216   5.979   0.730   5.248
13091TIP3   OH239217   4.794   4.262   5.243
13091TIP3    H139218   4.780   4.250   5.149
13091TIP3    H239219   4.844   4.184   5.269
13092TIP3   OH239220   1.524   5.474   3.360
13092TIP3    H139221   1.504   5.529   3.284
13092TIP3    H239222   1.499   5.385   3.333
13093TIP3   OH239223   3.105   4.576   1.450
13093TIP3    H139224   3.127   4.546   1.362
13093TIP3    H239225   3.010   4.565   1.456
13094TIP3   OH239226   0.834   0.912   6.219
13094TIP3    H139227   0.839   0.993   6.270
13094TIP3    H239228   0.892   0.851   6.266
13095TIP3   OH239229   3.232   6.196   0.776
13095TIP3    H139230   3.308   6.139   0.767
13095TIP3    H239231   3.218   6.203   0.870
13096TIP3   OH239232   0.644   1.130   6.529
13096TIP3    H139233   0.691   1.168   6.455
13096TIP3    H239234   0.588   1.063   6.490
13097TIP3   OH239235   4.502   4.853   6.360
13097TIP3    H139236   4.508   4.912   6.436
13097TIP3    H239237   4.530   4.768   6.393
13098TIP3   OH239238   0.063   2.240   4.202
13098TIP3    H139239   0.008   2.287   4.264
13098TIP3    H239240   0.130   2.303   4.176
13099TIP3   OH239241   0.107   1.605   6.127
13099TIP3    H139242   0.046   1.536   6.154
13099TIP3    H239243   0.137   1.577   6.041
13100TIP3   OH239244   4.984   4.358   4.462
13100TIP3    H139245   4.948   4.433   4.508
13100TIP3    H239246   4.951   4.366   4.373
13101TIP3   OH239247   4.990   2.777   3.201
13101TIP3    H139248   4.997   2.682   3.195
13101TIP3    H239249   5.062   2.810   3.147
13102TIP3   OH239250   7.990   6.082   0.188
13102TIP3    H139251   7.906   6.035   0.185
13102TIP3    H239252   8.043   6.039   0.120
13103TIP3   OH239253   5.940   6.890   2.716
13103TIP3    H139254   5.863   6.858   2.764
13103TIP3    H239255   5.903   6.929   2.637
13104TIP3   OH239256   5.644   3.992   2.069
13104TIP3    H139257   5.569   3.979   2.011
13104TIP3    H239258   5.608   3.991   2.157
13105TIP3   OH239259   5.123   5.897   6.390
13105TIP3    H139260   5.046   5.903   6.333
13105TIP3    H239261   5.096   5.940   6.471
13106TIP3   OH239262   1.873   2.066   3.358
13106TIP3    H139263   1.939   1.997   3.358
13106TIP3    H239264   1.789   2.019   3.354
13107TIP3   OH239265   3.092   0.254   4.590
13107TIP3    H139266   3.058   0.251   4.500
13107TIP3    H239267   3.016   0.275   4.644
13108TIP3   OH239268   5.851   6.537   4.652
13108TIP3    H139269   5.879   6.483   4.726
13108TIP3    H239270   5.757   6.522   4.646
13109TIP3   OH239271   0.827   0.128   5.306
13109TIP3    H139272   0.858   0.208   5.263
13109TIP3    H239273   0.762   0.158   5.369
13110TIP3   OH239274   0.501   1.332   4.038
13110TIP3    H139275   0.484   1.320   3.945
13110TIP3    H239276   0.427   1.384   4.069
13111TIP3   OH239277   8.239   2.443   3.185
13111TIP3    H139278   8.263   2.514   3.125
13111TIP3    H239279   8.239   2.483   3.272
13112TIP3   OH239280   3.577   0.116   3.326
13112TIP3    H139281   3.543   0.140   3.413
13112TIP3    H239282   3.512   0.150   3.265
13113TIP3   OH239283   6.989   5.017   1.686
13113TIP3    H139284   6.972   5.030   1.592
13113TIP3    H239285   6.936   4.941   1.710
13114TIP3   OH239286   3.296   1.860   5.721
13114TIP3    H139287   3.247   1.839   5.641
13114TIP3    H239288   3.254   1.939   5.755
13115TIP3   OH239289   4.791   3.083   1.564
13115TIP3    H139290   4.741   3.011   1.602
13115TIP3    H239291   4.779   3.074   1.469
13116TIP3   OH239292   5.456   4.539   3.034
13116TIP3    H139293   5.508   4.459   3.028
13116TIP3    H239294   5.440   4.550   3.128
13117TIP3   OH239295   6.777   6.825   3.226
13117TIP3    H139296   6.789   6.917   3.250
13117TIP3    H239297   6.864   6.787   3.232
13118TIP3   OH239298   6.952   0.472   4.016
13118TIP3    H139299   6.857   0.483   4.010
13118TIP3    H239300   6.976   0.509   4.101
13119TIP3   OH239301   4.208   5.104   4.711
13119TIP3    H139302   4.121   5.102   4.670
13119TIP3    H239303   4.221   5.196   4.735
13120TIP3   OH239304   3.876   0.799   1.647
13120TIP3    H139305   3.886   0.786   1.553
13120TIP3    H239306   3.966   0.798   1.681
13121TIP3   OH239307   2.426   7.672   2.088
13121TIP3    H139308   2.432   7.578   2.071
13121TIP3    H239309   2.365   7.680   2.161
13122TIP3   OH239310   4.548   7.270   1.746
13122TIP3    H139311   4.529   7.326   1.671
13122TIP3    H239312   4.544   7.181   1.711
13123TIP3   OH239313   5.091   4.459   0.844
13123TIP3    H139314   5.121   4.526   0.906
13123TIP3    H239315   5.168   4.443   0.789
13124TIP3   OH239316   2.941   1.075   6.583
13124TIP3    H139317   2.848   1.089   6.599
13124TIP3    H239318   2.963   0.997   6.634
13125TIP3   OH239319   2.550   1.580   5.463
13125TIP3    H139320   2.556   1.561   5.557
13125TIP3    H239321   2.484   1.648   5.456
13126TIP3   OH239322   4.364   5.661   5.412
13126TIP3    H139323   4.335   5.752   5.421
13126TIP3    H239324   4.451   5.667   5.373
13127TIP3   OH239325   4.718   6.108   4.505
13127TIP3    H139326   4.667   6.162   4.565
13127TIP3    H239327   4.654   6.049   4.465
13128TIP3   OH239328   8.112   0.979   1.030
13128TIP3    H139329   8.098   1.025   0.948
13128TIP3    H239330   8.048   1.017   1.090
13129TIP3   OH239331   7.092   1.339   2.774
13129TIP3    H139332   6.997   1.333   2.784
13129TIP3    H239333   7.107   1.430   2.746
13130TIP3   OH239334  -0.001   5.770   6.678
13130TIP3    H139335  -0.074   5.801   6.732
13130TIP3    H239336   0.074   5.821   6.708
13131TIP3   OH239337   2.943   4.361   2.052
13131TIP3    H139338   2.981   4.274   2.045
13131TIP3    H239339   2.858   4.353   2.009
13132TIP3   OH239340   3.105   1.457   3.919
13132TIP3    H139341   3.021   1.495   3.947
13132TIP3    H239342   3.136   1.409   3.996
13133TIP3   OH239343   4.059   3.280   0.300
13133TIP3    H139344   3.993   3.252   0.236
13133TIP3    H239345   4.111   3.201   0.316
13134TIP3   OH239346   0.963   6.690   4.193
13134TIP3    H139347   0.933   6.662   4.279
13134TIP3    H239348   1.054   6.716   4.206
13135TIP3   OH239349   3.777   3.292   1.089
13135TIP3    H139350   3.779   3.351   1.164
13135TIP3    H239351   3.793   3.349   1.014
13136TIP3   OH239352   1.296   3.724   3.305
13136TIP3    H139353   1.215   3.681   3.330
13136TIP3    H239354   1.365   3.668   3.339
13137TIP3   OH239355   0.336   2.792   4.630
13137TIP3    H139356   0.293   2.768   4.548
13137TIP3    H239357   0.413   2.735   4.633
13138TIP3   OH239358   1.066   3.458   6.731
13138TIP3    H139359   1.138   3.515   6.760
13138TIP3    H239360   0.994   3.519   6.715
13139TIP3   OH239361   2.550   3.302   0.452
13139TIP3    H139362   2.529   3.333   0.540
13139TIP3    H239363   2.564   3.382   0.401
13140TIP3   OH239364   1.798   1.753   3.271
13140TIP3    H139365   1.887   1.751   3.237
13140TIP3    H239366   1.753   1.817   3.216
13141TIP3   OH239367   7.161   5.631   0.871
13141TIP3    H139368   7.164   5.563   0.804
13141TIP3    H239369   7.084   5.683   0.849
13142TIP3   OH239370   2.914   0.771   0.281
13142TIP3    H139371   2.834   0.720   0.296
13142TIP3    H239372   2.913   0.791   0.188
13143TIP3   OH239373   2.291   4.036   6.550
13143TIP3    H139374   2.363   4.079   6.596
13143TIP3    H239375   2.334   3.967   6.499
13144TIP3   OH239376  -0.002   1.958   2.794
13144TIP3    H139377   0.066   1.949   2.728
13144TIP3    H239378   0.000   2.051   2.818
13145TIP3   OH239379   3.103   5.525   2.538
13145TIP3    H139380   3.097   5.619   2.520
13145TIP3    H239381   3.091   5.483   2.453
13146TIP3   OH239382   3.288   0.113   6.691
13146TIP3    H139383   3.194   0.111   6.674
13146TIP3    H239384   3.295   0.101   6.786
13147TIP3   OH239385   2.082   1.854   1.888
13147TIP3    H139386   2.066   1.776   1.941
13147TIP3    H239387   2.163   1.890   1.922
13148TIP3   OH239388   0.397   2.829   2.095
13148TIP3    H139389   0.314   2.791   2.069
13148TIP3    H239390   0.456   2.811   2.021
13149TIP3   OH239391   4.858   4.595   2.392
13149TIP3    H139392   4.849   4.683   2.430
13149TIP3    H239393   4.908   4.609   2.311
13150TIP3   OH239394   1.650   2.152   5.262
13150TIP3    H139395   1.633   2.059   5.275
13150TIP3    H239396   1.580   2.196   5.311
13151TIP3   OH239397   1.331   3.097   2.100
13151TIP3    H139398   1.415   3.137   2.123
13151TIP3    H239399   1.354   3.008   2.074
13152TIP3   OH239400   0.992   2.313   0.627
13152TIP3    H139401   1.051   2.383   0.651
13152TIP3    H239402   0.981   2.322   0.532
13153TIP3   OH239403   4.924   3.747   1.650
13153TIP3    H139404   4.942   3.656   1.626
13153TIP3    H239405   4.847   3.743   1.706
13154TIP3   OH239406   7.963   2.088   3.562
13154TIP3    H139407   7.940   2.013   3.617
13154TIP3    H239408   7.912   2.075   3.482
13155TIP3   OH239409   3.267   1.330   6.051
13155TIP3    H139410   3.320   1.330   6.132
13155TIP3    H239411   3.180   1.357   6.080
13156TIP3   OH239412   5.602   3.259   6.770
13156TIP3    H139413   5.634   3.284   6.857
13156TIP3    H239414   5.682   3.246   6.719
13157TIP3   OH239415   5.998   3.858   1.338
13157TIP3    H139416   6.086   3.833   1.310
13157TIP3    H239417   5.978   3.800   1.411
13158TIP3   OH239418   6.813   1.009   1.565
13158TIP3    H139419   6.839   1.021   1.656
13158TIP3    H239420   6.765   1.089   1.542
13159TIP3   OH239421   0.804   2.012   4.907
13159TIP3    H139422   0.771   2.086   4.856
13159TIP3    H239423   0.896   2.031   4.921
13160TIP3   OH239424   5.022   4.838   4.919
13160TIP3    H139425   5.092   4.807   4.862
13160TIP3    H239426   5.064   4.903   4.976
13161TIP3   OH239427   3.390   0.722   0.392
13161TIP3    H139428   3.418   0.793   0.335
13161TIP3    H239429   3.318   0.679   0.345
13162TIP3   OH239430   6.045   4.515   3.573
13162TIP3    H139431   5.981   4.553   3.513
13162TIP3    H239432   6.033   4.420   3.566
13163TIP3   OH239433   4.666   7.464   4.432
13163TIP3    H139434   4.679   7.512   4.514
13163TIP3    H239435   4.582   7.420   4.443
13164TIP3   OH239436   6.593   1.996   1.691
13164TIP3    H139437   6.553   2.064   1.745
13164TIP3    H239438   6.682   2.027   1.676
13165TIP3   OH239439   2.026   1.172   3.839
13165TIP3    H139440   1.995   1.225   3.766
13165TIP3    H239441   2.121   1.167   3.826
13166TIP3   OH239442   3.153   4.912   1.265
13166TIP3    H139443   3.087   4.866   1.316
13166TIP3    H239444   3.152   5.002   1.299
13167TIP3   OH239445   4.373   4.583   3.064
13167TIP3    H139446   4.370   4.488   3.075
13167TIP3    H239447   4.456   4.599   3.018
13168TIP3   OH239448   7.787   1.084   2.091
13168TIP3    H139449   7.850   1.133   2.038
13168TIP3    H239450   7.783   1.134   2.173
13169TIP3   OH239451   6.536   3.916   1.302
13169TIP3    H139452   6.534   3.900   1.396
13169TIP3    H239453   6.601   3.855   1.268
13170TIP3   OH239454   3.870   1.477   4.749
13170TIP3    H139455   3.945   1.533   4.727
13170TIP3    H239456   3.853   1.496   4.841
13171TIP3   OH239457   1.266   4.319   4.929
13171TIP3    H139458   1.198   4.285   4.987
13171TIP3    H239459   1.283   4.408   4.961
13172TIP3   OH239460   4.189   1.549   6.603
13172TIP3    H139461   4.214   1.595   6.522
13172TIP3    H239462   4.237   1.595   6.672
13173TIP3   OH239463   0.806   6.492   6.514
13173TIP3    H139464   0.810   6.588   6.520
13173TIP3    H239465   0.834   6.462   6.600
13174TIP3   OH239466   3.227   3.392   2.656
13174TIP3    H139467   3.276   3.427   2.582
13174TIP3    H239468   3.235   3.297   2.647
13175TIP3   OH239469   2.641   6.253   5.064
13175TIP3    H139470   2.664   6.160   5.061
13175TIP3    H239471   2.576   6.263   4.993
13176TIP3   OH239472   8.242   5.649   1.768
13176TIP3    H139473   8.253   5.635   1.862
13176TIP3    H239474   8.309   5.594   1.728
13177TIP3   OH239475   8.036   2.855   1.778
13177TIP3    H139476   7.944   2.851   1.751
13177TIP3    H239477   8.039   2.927   1.842
13178TIP3   OH239478   2.852   1.219   0.038
13178TIP3    H139479   2.773   1.166   0.048
13178TIP3    H239480   2.902   1.203   0.117
13179TIP3   OH239481   7.052   6.586   2.782
13179TIP3    H139482   7.119   6.635   2.736
13179TIP3    H239483   6.976   6.589   2.724
13180TIP3   OH239484   5.924   0.166   4.389
13180TIP3    H139485   6.016   0.141   4.381
13180TIP3    H239486   5.885   0.098   4.443
13181TIP3   OH239487   3.846   5.715   4.738
13181TIP3    H139488   3.816   5.779   4.802
13181TIP3    H239489   3.765   5.683   4.697
13182TIP3   OH239490   5.007   1.861   1.114
13182TIP3    H139491   5.078   1.864   1.049
13182TIP3    H239492   5.030   1.929   1.178
13183TIP3   OH239493   0.167   5.438   5.483
13183TIP3    H139494   0.220   5.409   5.409
13183TIP3    H239495   0.217   5.412   5.560
13184TIP3   OH239496   0.670   2.816   4.296
13184TIP3    H139497   0.727   2.882   4.257
13184TIP3    H239498   0.616   2.865   4.358
13185TIP3   OH239499   4.349   1.705   4.886
13185TIP3    H139500   4.343   1.789   4.933
13185TIP3    H239501   4.334   1.728   4.794
13186TIP3   OH239502   4.144   1.303   5.592
13186TIP3    H139503   4.195   1.375   5.556
13186TIP3    H239504   4.150   1.234   5.525
13187TIP3   OH239505   0.219   7.114   4.148
13187TIP3    H139506   0.172   7.182   4.100
13187TIP3    H239507   0.159   7.086   4.217
13188TIP3   OH239508   1.510   2.500   6.470
13188TIP3    H139509   1.542   2.424   6.518
13188TIP3    H239510   1.418   2.507   6.494
13189TIP3   OH239511   4.036   4.961   3.744
13189TIP3    H139512   4.035   5.024   3.672
13189TIP3    H239513   4.006   4.879   3.705
13190TIP3   OH239514   3.208   2.936   4.375
13190TIP3    H139515   3.253   3.020   4.363
13190TIP3    H239516   3.115   2.959   4.373
13191TIP3   OH239517   7.926   3.833   4.353
13191TIP3    H139518   7.835   3.838   4.381
13191TIP3    H239519   7.977   3.860   4.429
13192TIP3   OH239520   2.299   1.375   0.950
13192TIP3    H139521   2.222   1.416   0.911
13192TIP3    H239522   2.265   1.298   0.996
13193TIP3   OH239523   4.291   3.866   3.250
13193TIP3    H139524   4.216   3.819   3.215
13193TIP3    H239525   4.307   3.826   3.336
13194TIP3   OH239526   4.279   4.907   0.735
13194TIP3    H139527   4.261   4.830   0.681
13194TIP3    H239528   4.344   4.877   0.799
13195TIP3   OH239529   8.086   4.199   5.933
13195TIP3    H139530   8.126   4.198   5.846
13195TIP3    H239531   8.048   4.111   5.942
13196TIP3   OH239532   2.079   3.958   0.641
13196TIP3    H139533   2.152   4.017   0.626
13196TIP3    H239534   2.100   3.880   0.590
13197TIP3   OH239535   7.070   7.598   4.603
13197TIP3    H139536   6.985   7.563   4.628
13197TIP3    H239537   7.055   7.692   4.590
13198TIP3   OH239538   5.745   3.615   4.770
13198TIP3    H139539   5.651   3.627   4.753
13198TIP3    H239540   5.771   3.696   4.815
13199TIP3   OH239541   2.434   4.709   5.366
13199TIP3    H139542   2.341   4.731   5.356
13199TIP3    H239543   2.474   4.738   5.284
13200TIP3   OH239544   5.978   0.066   0.893
13200TIP3    H139545   5.926   0.058   0.973
13200TIP3    H239546   6.026   0.148   0.904
13201TIP3   OH239547   7.966   0.188   4.064
13201TIP3    H139548   7.987   0.124   4.132
13201TIP3    H239549   7.911   0.253   4.107
13202TIP3   OH239550   7.121   4.063   3.092
13202TIP3    H139551   7.163   4.040   3.009
13202TIP3    H239552   7.128   3.985   3.146
13203TIP3   OH239553   6.742   0.850   5.232
13203TIP3    H139554   6.720   0.936   5.268
13203TIP3    H239555   6.820   0.823   5.280
13204TIP3   OH239556   1.543   2.648   3.323
13204TIP3    H139557   1.627   2.616   3.289
13204TIP3    H239558   1.518   2.717   3.261
13205TIP3   OH239559   0.577   1.525   3.109
13205TIP3    H139560   0.521   1.602   3.113
13205TIP3    H239561   0.622   1.524   3.193
13206TIP3   OH239562   1.583   5.588   4.184
13206TIP3    H139563   1.559   5.585   4.277
13206TIP3    H239564   1.511   5.634   4.142
13207TIP3   OH239565   5.059   5.675   3.171
13207TIP3    H139566   5.045   5.747   3.233
13207TIP3    H239567   5.141   5.697   3.127
13208TIP3   OH239568   8.300   2.111   3.201
13208TIP3    H139569   8.209   2.080   3.209
13208TIP3    H239570   8.338   2.096   3.288
13209TIP3   OH239571   6.832   6.577   4.723
13209TIP3    H139572   6.866   6.554   4.810
13209TIP3    H239573   6.813   6.493   4.682
13210TIP3   OH239574   2.447   5.359   4.036
13210TIP3    H139575   2.453   5.385   4.128
13210TIP3    H239576   2.537   5.364   4.005
13211TIP3   OH239577   6.475   1.567   1.929
13211TIP3    H139578   6.457   1.648   1.977
13211TIP3    H239579   6.468   1.593   1.837
13212TIP3   OH239580   7.915   3.050   3.473
13212TIP3    H139581   7.959   3.054   3.557
13212TIP3    H239582   7.975   3.094   3.412
13213TIP3   OH239583   3.737   7.413   0.554
13213TIP3    H139584   3.761   7.504   0.568
13213TIP3    H239585   3.690   7.413   0.471
13214TIP3   OH239586   2.838   2.169   4.905
13214TIP3    H139587   2.811   2.115   4.979
13214TIP3    H239588   2.908   2.225   4.940
13215TIP3   OH239589   3.474   7.504   0.411
13215TIP3    H139590   3.469   7.599   0.398
13215TIP3    H239591   3.450   7.491   0.503
13216TIP3   OH239592   2.928   0.596   0.834
13216TIP3    H139593   2.869   0.523   0.852
13216TIP3    H239594   3.014   0.564   0.861
13217TIP3   OH239595   1.819   7.249   3.934
13217TIP3    H139596   1.766   7.204   3.868
13217TIP3    H239597   1.775   7.232   4.017
13218TIP3   OH239598   6.138   5.521   5.588
13218TIP3    H139599   6.099   5.452   5.535
13218TIP3    H239600   6.204   5.477   5.641
13219TIP3   OH239601   4.054   0.744   1.446
13219TIP3    H139602   4.108   0.815   1.481
13219TIP3    H239603   4.116   0.677   1.420
13220TIP3   OH239604   0.666   1.198   5.006
13220TIP3    H139605   0.699   1.223   5.093
13220TIP3    H239606   0.745   1.187   4.953
13221TIP3   OH239607   1.242   5.194   2.430
13221TIP3    H139608   1.221   5.256   2.360
13221TIP3    H239609   1.322   5.151   2.401
13222TIP3   OH239610   8.119   2.570   5.429
13222TIP3    H139611   8.137   2.554   5.336
13222TIP3    H239612   8.068   2.651   5.430
13223TIP3   OH239613   7.743   6.357   2.869
13223TIP3    H139614   7.807   6.392   2.931
13223TIP3    H239615   7.664   6.409   2.884
13224TIP3   OH239616   8.176   1.819   2.081
13224TIP3    H139617   8.194   1.882   2.011
13224TIP3    H239618   8.173   1.734   2.036
13225TIP3   OH239619   4.963   2.219   1.849
13225TIP3    H139620   4.916   2.261   1.776
13225TIP3    H239621   4.935   2.267   1.927
13226TIP3   OH239622   0.677   0.885   0.075
13226TIP3    H139623   0.622   0.873  -0.003
13226TIP3    H239624   0.659   0.975   0.104
13227TIP3   OH239625   1.709   7.533   6.354
13227TIP3    H139626   1.683   7.548   6.445
13227TIP3    H239627   1.726   7.620   6.319
13228TIP3   OH239628   0.002   5.153   5.665
13228TIP3    H139629  -0.034   5.188   5.746
13228TIP3    H239630   0.095   5.174   5.669
13229TIP3   OH239631   3.095   4.376   2.282
13229TIP3    H139632   3.019   4.366   2.224
13229TIP3    H239633   3.059   4.412   2.363
13230TIP3   OH239634   4.576   6.988   2.261
13230TIP3    H139635   4.501   6.989   2.321
13230TIP3    H239636   4.638   7.050   2.300
13231TIP3   OH239637   3.913   5.203   5.909
13231TIP3    H139638   3.947   5.213   5.998
13231TIP3    H239639   3.858   5.125   5.913
13232TIP3   OH239640   2.790   2.801   5.302
13232TIP3    H139641   2.884   2.797   5.286
13232TIP3    H239642   2.780   2.861   5.376
13233TIP3   OH239643   4.774   7.863   5.673
13233TIP3    H139644   4.729   7.906   5.601
13233TIP3    H239645   4.852   7.825   5.633
13234TIP3   OH239646   3.415   6.884   4.565
13234TIP3    H139647   3.400   6.792   4.586
13234TIP3    H239648   3.419   6.927   4.650
13235TIP3   OH239649   6.013   5.257   5.466
13235TIP3    H139650   5.920   5.249   5.485
13235TIP3    H239651   6.055   5.187   5.516
13236TIP3   OH239652   5.099   2.711   6.341
13236TIP3    H139653   5.147   2.635   6.309
13236TIP3    H239654   5.086   2.693   6.435
13237TIP3   OH239655   0.757   0.883   1.206
13237TIP3    H139656   0.843   0.895   1.166
13237TIP3    H239657   0.695   0.902   1.136
13238TIP3   OH239658   5.275   7.259   4.074
13238TIP3    H139659   5.185   7.230   4.057
13238TIP3    H239660   5.323   7.234   3.995
13239TIP3   OH239661   3.159   5.510   4.528
13239TIP3    H139662   3.090   5.510   4.595
13239TIP3    H239663   3.240   5.507   4.577
13240TIP3   OH239664   7.569   1.851   4.515
13240TIP3    H139665   7.540   1.784   4.578
13240TIP3    H239666   7.662   1.863   4.534
13241TIP3   OH239667   6.876   1.389   3.670
13241TIP3    H139668   6.950   1.449   3.655
13241TIP3    H239669   6.890   1.355   3.758
13242TIP3   OH239670   7.994   6.542   5.945
13242TIP3    H139671   7.949   6.587   6.017
13242TIP3    H239672   8.014   6.612   5.883
13243TIP3   OH239673   7.256   2.013   4.057
13243TIP3    H139674   7.267   1.923   4.086
13243TIP3    H239675   7.328   2.028   3.996
13244TIP3   OH239676   7.405   6.180   0.772
13244TIP3    H139677   7.464   6.158   0.843
13244TIP3    H239678   7.428   6.121   0.701
13245TIP3   OH239679   5.723   0.198   5.700
13245TIP3    H139680   5.754   0.288   5.713
13245TIP3    H239681   5.787   0.159   5.640
13246TIP3   OH239682   4.688   1.852   1.342
13246TIP3    H139683   4.610   1.900   1.370
13246TIP3    H239684   4.713   1.893   1.259
13247TIP3   OH239685   6.303   6.045   0.540
13247TIP3    H139686   6.308   5.954   0.511
13247TIP3    H239687   6.336   6.097   0.467
13248TIP3   OH239688   3.658   1.316   2.751
13248TIP3    H139689   3.678   1.312   2.658
13248TIP3    H239690   3.578   1.265   2.760
13249TIP3   OH239691   6.863   0.949   0.996
13249TIP3    H139692   6.909   0.901   1.065
13249TIP3    H239693   6.932   0.995   0.949
13250TIP3   OH239694   5.538   6.639   4.103
13250TIP3    H139695   5.530   6.615   4.196
13250TIP3    H239696   5.481   6.715   4.093
13251TIP3   OH239697   2.626   5.946   1.536
13251TIP3    H139698   2.540   5.962   1.497
13251TIP3    H239699   2.671   6.030   1.530
13252TIP3   OH239700   0.965   2.868   6.586
13252TIP3    H139701   1.052   2.854   6.624
13252TIP3    H239702   0.935   2.950   6.626
13253TIP3   OH239703   1.923   0.012   2.244
13253TIP3    H139704   1.968   0.085   2.286
13253TIP3    H239705   1.830   0.032   2.255
13254TIP3   OH239706   7.565   6.991   2.255
13254TIP3    H139707   7.474   6.996   2.282
13254TIP3    H239708   7.571   7.046   2.177
13255TIP3   OH239709   5.851   0.134   6.676
13255TIP3    H139710   5.780   0.186   6.640
13255TIP3    H239711   5.808   0.074   6.738
13256TIP3   OH239712   4.969   4.785   1.511
13256TIP3    H139713   4.924   4.868   1.527
13256TIP3    H239714   4.909   4.719   1.544
13257TIP3   OH239715   7.820   1.519   0.421
13257TIP3    H139716   7.772   1.477   0.350
13257TIP3    H239717   7.828   1.611   0.394
13258TIP3   OH239718   2.207   7.240   1.964
13258TIP3    H139719   2.259   7.312   1.928
13258TIP3    H239720   2.271   7.180   2.001
13259TIP3   OH239721   4.752   4.484   0.210
13259TIP3    H139722   4.783   4.563   0.166
13259TIP3    H239723   4.791   4.412   0.160
13260TIP3   OH239724   7.395   6.275   5.345
13260TIP3    H139725   7.349   6.313   5.420
13260TIP3    H239726   7.478   6.322   5.341
13261TIP3   OH239727   1.124   6.188   3.762
13261TIP3    H139728   1.154   6.254   3.699
13261TIP3    H239729   1.117   6.108   3.711
13262TIP3   OH239730   0.076   3.396   3.752
13262TIP3    H139731   0.065   3.312   3.708
13262TIP3    H239732   0.099   3.374   3.842
13263TIP3   OH239733   6.962   5.944   2.679
13263TIP3    H139734   6.998   5.910   2.761
13263TIP3    H239735   6.983   6.037   2.681
13264TIP3   OH239736   7.923   4.875   6.748
13264TIP3    H139737   7.994   4.921   6.704
13264TIP3    H239738   7.954   4.784   6.754
13265TIP3   OH239739   5.812   3.600   6.349
13265TIP3    H139740   5.842   3.654   6.421
13265TIP3    H239741   5.806   3.661   6.275
13266TIP3   OH239742   6.097   6.146   0.329
13266TIP3    H139743   6.123   6.152   0.237
13266TIP3    H239744   6.102   6.053   0.350
13267TIP3   OH239745   0.173   2.344   5.275
13267TIP3    H139746   0.081   2.341   5.248
13267TIP3    H239747   0.173   2.397   5.354
13268TIP3   OH239748   6.549   0.530   0.473
13268TIP3    H139749   6.605   0.535   0.396
13268TIP3    H239750   6.488   0.603   0.462
13269TIP3   OH239751   4.352   1.220   1.315
13269TIP3    H139752   4.390   1.137   1.343
13269TIP3    H239753   4.266   1.222   1.358
13270TIP3   OH239754   5.114   2.085   6.200
13270TIP3    H139755   5.112   2.124   6.288
13270TIP3    H239756   5.145   2.156   6.143
13271TIP3   OH239757   0.980   4.016   0.827
13271TIP3    H139758   0.944   4.073   0.895
13271TIP3    H239759   0.941   4.049   0.746
13272TIP3   OH239760   5.270   2.293   1.180
13272TIP3    H139761   5.287   2.245   1.099
13272TIP3    H239762   5.342   2.269   1.238
13273TIP3   OH239763   5.873   7.445   5.089
13273TIP3    H139764   5.913   7.371   5.135
13273TIP3    H239765   5.824   7.405   5.017
13274TIP3   OH239766   2.674   5.362   4.530
13274TIP3    H139767   2.760   5.389   4.497
13274TIP3    H239768   2.652   5.428   4.596
13275TIP3   OH239769   3.930   6.403   0.244
13275TIP3    H139770   3.988   6.334   0.213
13275TIP3    H239771   3.969   6.433   0.326
13276TIP3   OH239772   4.333   6.418   1.511
13276TIP3    H139773   4.339   6.444   1.419
13276TIP3    H239774   4.391   6.479   1.557
13277TIP3   OH239775   4.793   1.859   3.833
13277TIP3    H139776   4.838   1.787   3.877
13277TIP3    H239777   4.823   1.854   3.742
13278TIP3   OH239778   7.505   0.597   1.014
13278TIP3    H139779   7.464   0.675   0.977
13278TIP3    H239780   7.465   0.524   0.967
13279TIP3   OH239781   5.947   7.510   4.160
13279TIP3    H139782   5.883   7.580   4.178
13279TIP3    H239783   5.914   7.435   4.209
13280TIP3   OH239784   7.382   4.580   0.881
13280TIP3    H139785   7.320   4.605   0.949
13280TIP3    H239786   7.395   4.659   0.829
13281TIP3   OH239787   5.553   3.056   1.139
13281TIP3    H139788   5.463   3.040   1.111
13281TIP3    H239789   5.578   2.977   1.187
13282TIP3   OH239790   4.395   3.041   5.366
13282TIP3    H139791   4.420   3.128   5.397
13282TIP3    H239792   4.302   3.050   5.343
13283TIP3   OH239793   0.711   2.271   5.151
13283TIP3    H139794   0.799   2.307   5.140
13283TIP3    H239795   0.680   2.308   5.234
13284TIP3   OH239796   6.545   7.772   0.265
13284TIP3    H139797   6.522   7.865   0.263
13284TIP3    H239798   6.462   7.727   0.277
13285TIP3   OH239799   1.380   4.428   2.120
13285TIP3    H139800   1.443   4.475   2.066
13285TIP3    H239801   1.311   4.402   2.060
13286TIP3   OH239802   8.035   6.069   2.215
13286TIP3    H139803   7.963   6.112   2.262
13286TIP3    H239804   8.013   5.976   2.218
13287TIP3   OH239805   6.055   7.731   4.719
13287TIP3    H139806   5.996   7.788   4.768
13287TIP3    H239807   6.093   7.673   4.785
13288TIP3   OH239808   2.371   1.172   6.613
13288TIP3    H139809   2.386   1.247   6.555
13288TIP3    H239810   2.311   1.115   6.564
13289TIP3   OH239811   7.408   4.114   2.603
13289TIP3    H139812   7.391   4.022   2.584
13289TIP3    H239813   7.501   4.126   2.587
13290TIP3   OH239814   1.675   5.704   1.615
13290TIP3    H139815   1.588   5.707   1.654
13290TIP3    H239816   1.735   5.704   1.690
13291TIP3   OH239817   1.826   5.288   6.287
13291TIP3    H139818   1.755   5.224   6.278
13291TIP3    H239819   1.878   5.278   6.208
13292TIP3   OH239820   0.480   2.775   0.108
13292TIP3    H139821   0.502   2.798   0.017
13292TIP3    H239822   0.412   2.838   0.132
13293TIP3   OH239823   3.950   0.667   3.860
13293TIP3    H139824   4.005   0.739   3.890
13293TIP3    H239825   3.950   0.605   3.933
13294TIP3   OH239826   6.960   6.671   0.730
13294TIP3    H139827   6.968   6.748   0.673
13294TIP3    H239828   6.965   6.706   0.819
13295TIP3   OH239829   3.694   6.091   0.706
13295TIP3    H139830   3.773   6.139   0.685
13295TIP3    H239831   3.725   6.011   0.748
13296TIP3   OH239832   1.980   5.679   0.919
13296TIP3    H139833   1.909   5.742   0.932
13296TIP3    H239834   1.944   5.615   0.858
13297TIP3   OH239835   5.496   5.380   4.413
13297TIP3    H139836   5.513   5.330   4.333
13297TIP3    H239837   5.425   5.333   4.456
13298TIP3   OH239838   3.835   6.877   4.599
13298TIP3    H139839   3.799   6.874   4.687
13298TIP3    H239840   3.826   6.969   4.573
13299TIP3   OH239841   7.796   1.938   1.876
13299TIP3    H139842   7.835   1.936   1.789
13299TIP3    H239843   7.866   1.908   1.934
13300TIP3   OH239844   6.347   5.749   0.522
13300TIP3    H139845   6.283   5.719   0.457
13300TIP3    H239846   6.420   5.688   0.513
13301TIP3   OH239847   4.730   1.443   3.888
13301TIP3    H139848   4.684   1.407   3.811
13301TIP3    H239849   4.659   1.476   3.943
13302TIP3   OH239850   7.736   7.300   1.313
13302TIP3    H139851   7.646   7.277   1.337
13302TIP3    H239852   7.729   7.335   1.225
13303TIP3   OH239853   3.453   6.915   3.149
13303TIP3    H139854   3.414   6.969   3.081
13303TIP3    H239855   3.534   6.882   3.110
13304TIP3   OH239856   4.567   1.519   5.913
13304TIP3    H139857   4.501   1.579   5.877
13304TIP3    H239858   4.553   1.437   5.865
13305TIP3   OH239859   2.506   7.094   4.777
13305TIP3    H139860   2.541   7.018   4.824
13305TIP3    H239861   2.419   7.107   4.815
13306TIP3   OH239862   2.152   0.342   4.562
13306TIP3    H139863   2.190   0.405   4.501
13306TIP3    H239864   2.077   0.388   4.599
13307TIP3   OH239865   2.293   3.760   2.470
13307TIP3    H139866   2.280   3.772   2.564
13307TIP3    H239867   2.229   3.819   2.429
13308TIP3   OH239868   5.449   6.051   6.519
13308TIP3    H139869   5.441   6.106   6.597
13308TIP3    H239870   5.486   5.969   6.552
13309TIP3   OH239871   6.000   5.234   5.840
13309TIP3    H139872   5.998   5.173   5.766
13309TIP3    H239873   6.086   5.219   5.881
13310TIP3   OH239874   0.663   7.290   2.405
13310TIP3    H139875   0.720   7.292   2.328
13310TIP3    H239876   0.689   7.366   2.456
13311TIP3   OH239877   3.718   1.273   5.095
13311TIP3    H139878   3.665   1.196   5.078
13311TIP3    H239879   3.763   1.254   5.177
13312TIP3   OH239880   7.954   1.764   3.472
13312TIP3    H139881   8.006   1.693   3.436
13312TIP3    H239882   7.959   1.751   3.567
13313TIP3   OH239883   3.350   3.696   4.818
13313TIP3    H139884   3.425   3.732   4.771
13313TIP3    H239885   3.312   3.633   4.757
13314TIP3   OH239886   2.852   0.737   4.589
13314TIP3    H139887   2.790   0.693   4.531
13314TIP3    H239888   2.905   0.791   4.530
13315TIP3   OH239889   6.376   5.443   0.328
13315TIP3    H139890   6.338   5.422   0.414
13315TIP3    H239891   6.470   5.449   0.344
13316TIP3   OH239892   4.984   2.784   2.289
13316TIP3    H139893   5.018   2.843   2.222
13316TIP3    H239894   4.904   2.825   2.320
13317TIP3   OH239895   2.574   3.453   2.455
13317TIP3    H139896   2.540   3.518   2.394
13317TIP3    H239897   2.656   3.491   2.487
13318TIP3   OH239898   0.600   5.548   0.718
13318TIP3    H139899   0.686   5.588   0.729
13318TIP3    H239900   0.587   5.544   0.623
13319TIP3   OH239901   3.149   2.001   6.093
13319TIP3    H139902   3.223   1.942   6.076
13319TIP3    H239903   3.086   1.947   6.140
13320TIP3   OH239904   3.543   0.495   0.351
13320TIP3    H139905   3.508   0.576   0.388
13320TIP3    H239906   3.485   0.427   0.385
13321TIP3   OH239907   5.827   2.358   5.837
13321TIP3    H139908   5.742   2.403   5.829
13321TIP3    H239909   5.813   2.294   5.906
13322TIP3   OH239910   3.645   6.672   0.347
13322TIP3    H139911   3.655   6.645   0.438
13322TIP3    H239912   3.734   6.685   0.316
13323TIP3   OH239913   8.030   7.522   0.616
13323TIP3    H139914   8.001   7.578   0.543
13323TIP3    H239915   7.993   7.436   0.596
13324TIP3   OH239916   3.411   4.875   2.000
13324TIP3    H139917   3.445   4.962   1.979
13324TIP3    H239918   3.354   4.888   2.076
13325TIP3   OH239919   4.628   6.074   0.859
13325TIP3    H139920   4.706   6.131   0.860
13325TIP3    H239921   4.621   6.045   0.768
13326TIP3   OH239922   5.734   1.698   3.270
13326TIP3    H139923   5.822   1.731   3.249
13326TIP3    H239924   5.728   1.614   3.225
13327TIP3   OH239925   6.347   3.547   1.561
13327TIP3    H139926   6.381   3.598   1.488
13327TIP3    H239927   6.333   3.611   1.631
13328TIP3   OH239928   2.389   2.251   1.587
13328TIP3    H139929   2.454   2.320   1.575
13328TIP3    H239930   2.430   2.172   1.553
13329TIP3   OH239931   1.414   0.083   6.409
13329TIP3    H139932   1.506   0.065   6.430
13329TIP3    H239933   1.402   0.175   6.431
13330TIP3   OH239934   5.995   4.811   4.012
13330TIP3    H139935   6.054   4.826   4.086
13330TIP3    H239936   6.048   4.766   3.947
13331TIP3   OH239937   1.538   6.189   3.496
13331TIP3    H139938   1.471   6.182   3.429
13331TIP3    H239939   1.545   6.283   3.514
13332TIP3   OH239940   2.716   5.992   6.624
13332TIP3    H139941   2.753   5.906   6.604
13332TIP3    H239942   2.765   6.022   6.701
13333TIP3   OH239943   0.826   1.405   4.281
13333TIP3    H139944   0.845   1.455   4.360
13333TIP3    H239945   0.876   1.324   4.291
13334TIP3   OH239946   3.656   6.311   5.558
13334TIP3    H139947   3.727   6.313   5.623
13334TIP3    H239948   3.595   6.245   5.591
13335TIP3   OH239949   1.808   3.517   4.664
13335TIP3    H139950   1.848   3.451   4.608
13335TIP3    H239951   1.872   3.532   4.733
13336TIP3   OH239952   7.633   1.389   2.121
13336TIP3    H139953   7.703   1.433   2.170
13336TIP3    H239954   7.613   1.449   2.049
13337TIP3   OH239955   3.351   2.212   0.663
13337TIP3    H139956   3.447   2.209   0.663
13337TIP3    H239957   3.329   2.237   0.573
13338TIP3   OH239958   3.594   1.298   1.621
13338TIP3    H139959   3.616   1.304   1.714
13338TIP3    H239960   3.669   1.338   1.577
13339TIP3   OH239961   3.211   5.248   2.757
13339TIP3    H139962   3.292   5.269   2.710
13339TIP3    H239963   3.186   5.331   2.798
13340TIP3   OH239964   5.135   1.624   5.522
13340TIP3    H139965   5.128   1.614   5.427
13340TIP3    H239966   5.065   1.569   5.558
13341TIP3   OH239967   5.472   0.067   4.211
13341TIP3    H139968   5.499  -0.013   4.256
13341TIP3    H239969   5.487   0.048   4.118
13342TIP3   OH239970   0.726   7.269   1.324
13342TIP3    H139971   0.681   7.344   1.285
13342TIP3    H239972   0.725   7.201   1.256
13343TIP3   OH239973   7.596   0.459   3.396
13343TIP3    H139974   7.583   0.478   3.489
13343TIP3    H239975   7.691   0.461   3.384
13344TIP3   OH239976   7.196   5.378   0.752
13344TIP3    H139977   7.159   5.330   0.826
13344TIP3    H239978   7.263   5.319   0.716
13345TIP3   OH239979   6.536   1.737   4.472
13345TIP3    H139980   6.609   1.762   4.528
13345TIP3    H239981   6.537   1.641   4.472
13346TIP3   OH239982   6.953   1.680   2.858
13346TIP3    H139983   6.990   1.660   2.771
13346TIP3    H239984   7.015   1.641   2.920
13347TIP3   OH239985   4.493   4.510   6.206
13347TIP3    H139986   4.543   4.478   6.131
13347TIP3    H239987   4.426   4.567   6.169
13348TIP3   OH239988   4.591   5.364   2.770
13348TIP3    H139989   4.529   5.376   2.841
13348TIP3    H239990   4.650   5.440   2.777
13349TIP3   OH239991   3.118   4.670   2.660
13349TIP3    H139992   3.102   4.596   2.601
13349TIP3    H239993   3.032   4.710   2.672
13350TIP3   OH239994   2.001   6.148   0.233
13350TIP3    H139995   2.037   6.063   0.258
13350TIP3    H239996   2.005   6.148   0.138
13351TIP3   OH239997   5.750   6.713   2.279
13351TIP3    H139998   5.688   6.784   2.295
13351TIP3    H239999   5.826   6.756   2.240
13352TIP3   OH240000   2.340   6.421   3.258
13352TIP3    H140001   2.308   6.454   3.342
13352TIP3    H240002   2.285   6.345   3.240
13353TIP3   OH240003   8.104   1.140   6.166
13353TIP3    H140004   8.032   1.081   6.188
13353TIP3    H240005   8.129   1.179   6.250
13354TIP3   OH240006   7.700   3.045   6.774
13354TIP3    H140007   7.715   3.066   6.681
13354TIP3    H240008   7.614   3.083   6.793
13355TIP3   OH240009   5.974   7.701   1.541
13355TIP3    H140010   6.032   7.716   1.616
13355TIP3    H240011   5.954   7.607   1.544
13356TIP3   OH240012   7.609   0.810   5.913
13356TIP3    H140013   7.537   0.864   5.945
13356TIP3    H240014   7.660   0.789   5.991
13357TIP3   OH240015   3.172   1.149   0.023
13357TIP3    H140016   3.101   1.090  -0.001
13357TIP3    H240017   3.142   1.236  -0.003
13358TIP3   OH240018   4.279   0.880   2.397
13358TIP3    H140019   4.206   0.835   2.354
13358TIP3    H240020   4.239   0.923   2.473
13359TIP3   OH240021   2.070   4.300   3.416
13359TIP3    H140022   2.072   4.386   3.374
13359TIP3    H240023   1.988   4.261   3.386
13360TIP3   OH240024   1.182   3.464   3.787
13360TIP3    H140025   1.234   3.538   3.818
13360TIP3    H240026   1.213   3.389   3.838
13361TIP3   OH240027   2.529   1.947   5.176
13361TIP3    H140028   2.451   1.892   5.187
13361TIP3    H240029   2.510   2.000   5.099
13362TIP3   OH240030   3.844   0.076   6.108
13362TIP3    H140031   3.859  -0.015   6.081
13362TIP3    H240032   3.749   0.083   6.116
13363TIP3   OH240033   7.795   2.546   2.657
13363TIP3    H140034   7.762   2.568   2.569
13363TIP3    H240035   7.857   2.475   2.642
13364TIP3   OH240036   5.037   1.759   6.512
13364TIP3    H140037   5.023   1.673   6.553
13364TIP3    H240038   5.017   1.822   6.582
13365TIP3   OH240039  -0.057   2.786   4.539
13365TIP3    H140040  -0.059   2.695   4.567
13365TIP3    H240041   0.020   2.793   4.483
13366TIP3   OH240042   1.472   0.691   3.192
13366TIP3    H140043   1.563   0.692   3.221
13366TIP3    H240044   1.469   0.755   3.120
13367TIP3   OH240045   0.394   2.744   0.752
13367TIP3    H140046   0.385   2.674   0.816
13367TIP3    H240047   0.420   2.821   0.803
13368TIP3   OH240048   2.539   0.288   5.651
13368TIP3    H140049   2.581   0.369   5.682
13368TIP3    H240050   2.461   0.318   5.604
13369TIP3   OH240051   2.360   3.065   4.880
13369TIP3    H140052   2.398   3.062   4.968
13369TIP3    H240053   2.417   3.009   4.828
13370TIP3   OH240054   0.185   7.495   1.500
13370TIP3    H140055   0.181   7.504   1.404
13370TIP3    H240056   0.093   7.495   1.527
13371TIP3   OH240057   0.196   0.180   1.878
13371TIP3    H140058   0.104   0.206   1.886
13371TIP3    H240059   0.243   0.247   1.928
13372TIP3   OH240060   3.363   2.092   3.933
13372TIP3    H140061   3.383   2.186   3.935
13372TIP3    H240062   3.328   2.073   4.020
13373TIP3   OH240063   4.030   2.821   1.132
13373TIP3    H140064   4.059   2.848   1.045
13373TIP3    H240065   4.027   2.903   1.182
13374TIP3   OH240066   2.199   0.076   3.781
13374TIP3    H140067   2.212   0.026   3.701
13374TIP3    H240068   2.108   0.059   3.806
13375TIP3   OH240069   4.698   5.268   6.135
13375TIP3    H140070   4.771   5.248   6.194
13375TIP3    H240071   4.636   5.316   6.190
13376TIP3   OH240072   3.224   2.607   1.572
13376TIP3    H140073   3.154   2.550   1.543
13376TIP3    H240074   3.180   2.687   1.600
13377TIP3   OH240075   0.804   2.641   0.440
13377TIP3    H140076   0.776   2.718   0.391
13377TIP3    H240077   0.815   2.573   0.374
13378TIP3   OH240078   5.789   3.330   4.552
13378TIP3    H140079   5.824   3.314   4.639
13378TIP3    H240080   5.803   3.423   4.536
13379TIP3   OH240081   2.492   6.508   5.778
13379TIP3    H140082   2.454   6.486   5.693
13379TIP3    H240083   2.418   6.507   5.838
13380TIP3   OH240084   3.933   2.338   2.804
13380TIP3    H140085   3.843   2.313   2.782
13380TIP3    H240086   3.924   2.393   2.882
13381TIP3   OH240087   0.307   2.584   6.786
13381TIP3    H140088   0.300   2.635   6.706
13381TIP3    H240089   0.336   2.647   6.852
13382TIP3   OH240090   2.910   4.574   0.622
13382TIP3    H140091   2.969   4.625   0.677
13382TIP3    H240092   2.877   4.637   0.558
13383TIP3   OH240093   4.017   2.528   4.214
13383TIP3    H140094   4.025   2.566   4.126
13383TIP3    H240095   3.928   2.494   4.218
13384TIP3   OH240096   6.552   1.322   1.367
13384TIP3    H140097   6.462   1.340   1.396
13384TIP3    H240098   6.543   1.250   1.306
13385TIP3   OH240099   3.394   3.490   2.899
13385TIP3    H140100   3.408   3.585   2.893
13385TIP3    H240101   3.335   3.470   2.827
13386TIP3   OH240102   7.630   5.847   3.112
13386TIP3    H140103   7.582   5.831   3.031
13386TIP3    H240104   7.720   5.822   3.092
13387TIP3   OH240105   1.675   0.190   4.774
13387TIP3    H140106   1.715   0.103   4.781
13387TIP3    H240107   1.591   0.174   4.730
13388TIP3   OH240108   1.065   7.685   4.428
13388TIP3    H140109   0.990   7.625   4.425
13388TIP3    H240110   1.121   7.657   4.355
13389TIP3   OH240111   6.418   1.411   5.599
13389TIP3    H140112   6.365   1.487   5.624
13389TIP3    H240113   6.476   1.444   5.531
13390TIP3   OH240114   6.403   7.455   4.676
13390TIP3    H140115   6.311   7.429   4.686
13390TIP3    H240116   6.453   7.376   4.697
13391TIP3   OH240117   5.984   0.223   2.329
13391TIP3    H140118   5.985   0.192   2.419
13391TIP3    H240119   6.007   0.316   2.335
13392TIP3   OH240120   6.808   4.153   3.445
13392TIP3    H140121   6.885   4.185   3.397
13392TIP3    H240122   6.771   4.085   3.388
13393TIP3   OH240123   5.106   3.461   1.161
13393TIP3    H140124   5.160   3.530   1.123
13393TIP3    H240125   5.103   3.393   1.093
13394TIP3   OH240126   6.828   1.733   5.152
13394TIP3    H140127   6.755   1.704   5.097
13394TIP3    H240128   6.797   1.721   5.242
13395TIP3   OH240129   2.438   2.630   4.474
13395TIP3    H140130   2.354   2.600   4.439
13395TIP3    H240131   2.492   2.551   4.478
13396TIP3   OH240132   7.215   3.175   1.748
13396TIP3    H140133   7.128   3.136   1.756
13396TIP3    H240134   7.235   3.207   1.837
13397TIP3   OH240135   2.410   3.637   4.756
13397TIP3    H140136   2.344   3.639   4.826
13397TIP3    H240137   2.491   3.665   4.800
13398TIP3   OH240138   1.655   5.074   6.176
13398TIP3    H140139   1.716   5.001   6.189
13398TIP3    H240140   1.640   5.076   6.081
13399TIP3   OH240141   3.422   6.291   2.808
13399TIP3    H140142   3.330   6.283   2.783
13399TIP3    H240143   3.428   6.378   2.849
13400TIP3   OH240144   5.455   5.439   2.395
13400TIP3    H140145   5.472   5.527   2.360
13400TIP3    H240146   5.529   5.386   2.366
13401TIP3   OH240147   5.264   3.048   1.847
13401TIP3    H140148   5.176   3.027   1.877
13401TIP3    H240149   5.252   3.121   1.787
13402TIP3   OH240150   0.792   7.829   2.936
13402TIP3    H140151   0.870   7.830   2.992
13402TIP3    H240152   0.784   7.737   2.909
13403TIP3   OH240153   0.997   2.003   2.867
13403TIP3    H140154   0.921   2.045   2.908
13403TIP3    H240155   0.991   2.028   2.775
13404TIP3   OH240156   4.249   4.167   4.713
13404TIP3    H140157   4.251   4.085   4.762
13404TIP3    H240158   4.281   4.145   4.626
13405TIP3   OH240159   2.634   0.524   5.782
13405TIP3    H140160   2.639   0.607   5.735
13405TIP3    H240161   2.573   0.540   5.853
13406TIP3   OH240162   6.565   0.788   3.423
13406TIP3    H140163   6.658   0.781   3.443
13406TIP3    H240164   6.553   0.737   3.343
13407TIP3   OH240165   5.148   1.686   3.279
13407TIP3    H140166   5.166   1.599   3.243
13407TIP3    H240167   5.231   1.713   3.320
13408TIP3   OH240168   6.964   0.155   4.150
13408TIP3    H140169   7.022   0.192   4.217
13408TIP3    H240170   6.906   0.228   4.126
13409TIP3   OH240171   3.867   2.258   4.054
13409TIP3    H140172   3.817   2.335   4.079
13409TIP3    H240173   3.818   2.184   4.090
13410TIP3   OH240174   0.938   1.122   6.357
13410TIP3    H140175   0.912   1.199   6.408
13410TIP3    H240176   0.971   1.060   6.422
13411TIP3   OH240177   0.410   6.098   6.637
13411TIP3    H140178   0.477   6.043   6.597
13411TIP3    H240179   0.427   6.186   6.602
13412TIP3   OH240180   4.382   2.596   2.111
13412TIP3    H140181   4.371   2.561   2.199
13412TIP3    H240182   4.433   2.677   2.123
13413TIP3   OH240183   7.374   7.139   6.748
13413TIP3    H140184   7.369   7.231   6.723
13413TIP3    H240185   7.433   7.099   6.684
13414TIP3   OH240186   2.321   6.669   2.685
13414TIP3    H140187   2.319   6.575   2.669
13414TIP3    H240188   2.342   6.678   2.778
13415TIP3   OH240189   4.534   0.341   3.765
13415TIP3    H140190   4.592   0.375   3.696
13415TIP3    H240191   4.498   0.419   3.807
13416TIP3   OH240192   5.382   0.751   3.564
13416TIP3    H140193   5.432   0.832   3.556
13416TIP3    H240194   5.376   0.718   3.474
13417TIP3   OH240195   4.633   2.391   4.773
13417TIP3    H140196   4.538   2.392   4.770
13417TIP3    H240197   4.657   2.465   4.829
13418TIP3   OH240198   4.454   1.266   3.358
13418TIP3    H140199   4.512   1.219   3.418
13418TIP3    H240200   4.490   1.354   3.352
13419TIP3   OH240201   4.221   4.797   3.420
13419TIP3    H140202   4.284   4.863   3.447
13419TIP3    H240203   4.227   4.795   3.324
13420TIP3   OH240204   0.547   6.248   3.985
13420TIP3    H140205   0.550   6.216   3.895
13420TIP3    H240206   0.464   6.215   4.020
13421TIP3   OH240207   6.797   1.633   1.065
13421TIP3    H140208   6.800   1.589   1.150
13421TIP3    H240209   6.802   1.726   1.085
13422TIP3   OH240210   2.953   2.702   6.611
13422TIP3    H140211   2.952   2.790   6.573
13422TIP3    H240212   3.041   2.693   6.648
13423TIP3   OH240213   5.163   6.538   5.071
13423TIP3    H140214   5.185   6.445   5.077
13423TIP3    H240215   5.183   6.561   4.981
13424TIP3   OH240216   2.943   4.967   0.746
13424TIP3    H140217   3.014   5.001   0.800
13424TIP3    H240218   2.984   4.896   0.696
13425TIP3   OH240219   0.980   2.267   2.064
13425TIP3    H140220   0.998   2.179   2.030
13425TIP3    H240221   0.888   2.265   2.090
13426TIP3   OH240222   0.003   0.508   0.808
13426TIP3    H140223  -0.049   0.499   0.728
13426TIP3    H240224   0.094   0.501   0.778
13427TIP3   OH240225   1.056   3.146   2.764
13427TIP3    H140226   1.068   3.087   2.838
13427TIP3    H240227   1.098   3.101   2.691
13428TIP3   OH240228   5.957   2.883   0.485
13428TIP3    H140229   6.044   2.867   0.449
13428TIP3    H240230   5.957   2.977   0.506
13429TIP3   OH240231   0.642   6.000   4.817
13429TIP3    H140232   0.598   6.067   4.765
13429TIP3    H240233   0.702   6.049   4.874
13430TIP3   OH240234   1.789   4.559   1.163
13430TIP3    H140235   1.881   4.557   1.138
13430TIP3    H240236   1.772   4.650   1.187
13431TIP3   OH240237   5.756   6.053   6.344
13431TIP3    H140238   5.750   6.130   6.401
13431TIP3    H240239   5.693   5.991   6.381
13432TIP3   OH240240   6.615   4.696   4.210
13432TIP3    H140241   6.568   4.749   4.274
13432TIP3    H240242   6.707   4.702   4.237
13433TIP3   OH240243   7.557   6.660   2.411
13433TIP3    H140244   7.564   6.646   2.317
13433TIP3    H240245   7.642   6.634   2.446
13434TIP3   OH240246   6.315   5.494   3.817
13434TIP3    H140247   6.345   5.580   3.843
13434TIP3    H240248   6.291   5.451   3.899
13435TIP3   OH240249   1.051   5.907   3.847
13435TIP3    H140250   1.115   5.943   3.909
13435TIP3    H240251   0.966   5.933   3.882
13436TIP3   OH240252   4.230   7.288   0.356
13436TIP3    H140253   4.246   7.277   0.450
13436TIP3    H240254   4.138   7.262   0.345
13437TIP3   OH240255   1.269   0.770   5.504
13437TIP3    H140256   1.181   0.759   5.541
13437TIP3    H240257   1.319   0.810   5.574
13438TIP3   OH240258   6.623   4.574   5.245
13438TIP3    H140259   6.670   4.637   5.299
13438TIP3    H240260   6.638   4.490   5.287
13439TIP3   OH240261   5.984   6.909   4.810
13439TIP3    H140262   6.043   6.944   4.742
13439TIP3    H240263   6.038   6.848   4.859
13440TIP3   OH240264   8.189   6.472   5.187
13440TIP3    H140265   8.133   6.449   5.113
13440TIP3    H240266   8.209   6.565   5.174
13441TIP3   OH240267   7.442   1.636   5.020
13441TIP3    H140268   7.476   1.717   5.057
13441TIP3    H240269   7.520   1.584   5.000
13442TIP3   OH240270   6.555   5.384   3.049
13442TIP3    H140271   6.603   5.341   3.120
13442TIP3    H240272   6.535   5.471   3.084
13443TIP3   OH240273   7.882   4.632   1.044
13443TIP3    H140274   7.884   4.691   1.120
13443TIP3    H240275   7.863   4.690   0.970
13444TIP3   OH240276   8.209   0.296   3.367
13444TIP3    H140277   8.187   0.251   3.449
13444TIP3    H240278   8.285   0.250   3.334
13445TIP3   OH240279   1.072   1.351   6.124
13445TIP3    H140280   0.989   1.306   6.108
13445TIP3    H240281   1.047   1.430   6.171
13446TIP3   OH240282   0.697   7.170   4.557
13446TIP3    H140283   0.688   7.246   4.499
13446TIP3    H240284   0.614   7.123   4.548
13447TIP3   OH240285   0.096   2.284   3.825
13447TIP3    H140286   0.029   2.296   3.759
13447TIP3    H240287   0.121   2.192   3.817
13448TIP3   OH240288   7.222   4.065   6.326
13448TIP3    H140289   7.191   4.028   6.409
13448TIP3    H240290   7.219   4.159   6.339
13449TIP3   OH240291   7.521   6.817   3.048
13449TIP3    H140292   7.446   6.758   3.037
13449TIP3    H240293   7.522   6.838   3.141
13450TIP3   OH240294   8.142   3.434   6.437
13450TIP3    H140295   8.178   3.466   6.355
13450TIP3    H240296   8.123   3.342   6.421
13451TIP3   OH240297   0.736   1.935   2.259
13451TIP3    H140298   0.796   1.916   2.187
13451TIP3    H240299   0.649   1.931   2.219
13452TIP3   OH240300   0.919   4.016   5.508
13452TIP3    H140301   0.966   3.992   5.427
13452TIP3    H240302   0.836   4.053   5.477
13453TIP3   OH240303   4.169   4.439   6.331
13453TIP3    H140304   4.206   4.526   6.314
13453TIP3    H240305   4.241   4.378   6.316
13454TIP3   OH240306   6.413   0.129   3.132
13454TIP3    H140307   6.347   0.199   3.131
13454TIP3    H240308   6.495   0.175   3.147
13455TIP3   OH240309   5.959   7.167   0.470
13455TIP3    H140310   6.040   7.216   0.486
13455TIP3    H240311   5.957   7.102   0.541
13456TIP3   OH240312   7.020   0.055   5.341
13456TIP3    H140313   7.063   0.046   5.426
13456TIP3    H240314   6.957   0.126   5.352
13457TIP3   OH240315   2.535   6.493   4.544
13457TIP3    H140316   2.616   6.467   4.500
13457TIP3    H240317   2.543   6.457   4.632
13458TIP3   OH240318   2.665   0.999   5.839
13458TIP3    H140319   2.605   0.991   5.914
13458TIP3    H240320   2.668   1.093   5.821
13459TIP3   OH240321   2.084   3.028   1.418
13459TIP3    H140322   2.020   3.099   1.419
13459TIP3    H240323   2.100   3.009   1.510
13460TIP3   OH240324   5.742   1.920   3.884
13460TIP3    H140325   5.792   1.965   3.952
13460TIP3    H240326   5.685   1.988   3.848
13461TIP3   OH240327   3.989   2.692   5.910
13461TIP3    H140328   3.978   2.761   5.975
13461TIP3    H240329   4.065   2.720   5.858
13462TIP3   OH240330   6.986   0.817   2.755
13462TIP3    H140331   6.938   0.895   2.782
13462TIP3    H240332   7.061   0.813   2.814
13463TIP3   OH240333   4.536   0.183   4.310
13463TIP3    H140334   4.566   0.152   4.396
13463TIP3    H240335   4.615   0.187   4.257
13464TIP3   OH240336   4.807   7.429   3.259
13464TIP3    H140337   4.834   7.374   3.333
13464TIP3    H240338   4.820   7.374   3.182
13465TIP3   OH240339   5.921   5.351   3.167
13465TIP3    H140340   5.871   5.342   3.248
13465TIP3    H240341   5.854   5.350   3.098
13466TIP3   OH240342   4.747   2.299   0.059
13466TIP3    H140343   4.805   2.369   0.087
13466TIP3    H240344   4.757   2.231   0.126
13467TIP3   OH240345   1.761   0.985   1.200
13467TIP3    H140346   1.793   0.900   1.171
13467TIP3    H240347   1.827   1.047   1.169
13468TIP3   OH240348   3.049   1.266   5.787
13468TIP3    H140349   2.980   1.320   5.748
13468TIP3    H240350   3.131   1.310   5.763
13469TIP3   OH240351   6.491   2.935   3.631
13469TIP3    H140352   6.447   3.004   3.580
13469TIP3    H240353   6.427   2.909   3.697
13470TIP3   OH240354   0.564   1.402   5.999
13470TIP3    H140355   0.516   1.447   5.930
13470TIP3    H240356   0.600   1.324   5.957
13471TIP3   OH240357   5.464   1.262   1.682
13471TIP3    H140358   5.515   1.288   1.606
13471TIP3    H240359   5.445   1.169   1.667
13472TIP3   OH240360   4.275   3.443   2.419
13472TIP3    H140361   4.252   3.448   2.511
13472TIP3    H240362   4.267   3.350   2.397
13473TIP3   OH240363   6.998   4.453   3.620
13473TIP3    H140364   7.037   4.456   3.707
13473TIP3    H240365   7.051   4.390   3.572
13474TIP3   OH240366   4.272   0.405   5.739
13474TIP3    H140367   4.232   0.367   5.660
13474TIP3    H240368   4.342   0.461   5.706
13475TIP3   OH240369   5.116   2.862   5.315
13475TIP3    H140370   5.134   2.879   5.407
13475TIP3    H240371   5.068   2.939   5.285
13476TIP3   OH240372   0.359   7.050   5.185
13476TIP3    H140373   0.425   7.106   5.225
13476TIP3    H240374   0.356   7.076   5.094
13477TIP3   OH240375   6.497   3.818   2.120
13477TIP3    H140376   6.532   3.746   2.067
13477TIP3    H240377   6.575   3.869   2.145
13478TIP3   OH240378   3.616   0.648   5.084
13478TIP3    H140379   3.528   0.648   5.047
13478TIP3    H240380   3.660   0.722   5.043
13479TIP3   OH240381   5.292   4.313   4.758
13479TIP3    H140382   5.385   4.324   4.738
13479TIP3    H240383   5.262   4.248   4.694
13480TIP3   OH240384   8.117   3.162   3.278
13480TIP3    H140385   8.156   3.152   3.191
13480TIP3    H240386   8.048   3.226   3.266
13481TIP3   OH240387   6.048   5.451   1.127
13481TIP3    H140388   6.074   5.378   1.072
13481TIP3    H240389   5.972   5.419   1.176
13482TIP3   OH240390   0.043   0.996   6.558
13482TIP3    H140391   0.075   1.061   6.622
13482TIP3    H240392  -0.052   1.004   6.562
13483TIP3   OH240393   8.145   1.106   5.476
13483TIP3    H140394   8.055   1.137   5.475
13483TIP3    H240395   8.180   1.134   5.391
13484TIP3   OH240396   1.356   4.255   4.339
13484TIP3    H140397   1.337   4.163   4.323
13484TIP3    H240398   1.411   4.255   4.417
13485TIP3   OH240399   0.573   1.472   6.696
13485TIP3    H140400   0.587   1.396   6.752
13485TIP3    H240401   0.494   1.450   6.646
13486TIP3   OH240402   0.285   2.965   0.131
13486TIP3    H140403   0.252   2.997   0.047
13486TIP3    H240404   0.208   2.962   0.188
13487TIP3   OH240405   4.734   5.987   0.101
13487TIP3    H140406   4.795   6.059   0.119
13487TIP3    H240407   4.691   6.012   0.019
13488TIP3   OH240408   0.683   4.188   1.780
13488TIP3    H140409   0.716   4.135   1.708
13488TIP3    H240410   0.648   4.266   1.739
13489TIP3   OH240411   0.450   1.519   5.779
13489TIP3    H140412   0.430   1.530   5.686
13489TIP3    H240413   0.476   1.607   5.807
13490TIP3   OH240414   2.875   0.773   5.827
13490TIP3    H140415   2.938   0.702   5.821
13490TIP3    H240416   2.852   0.779   5.919
13491TIP3   OH240417   1.358   6.871   0.232
13491TIP3    H140418   1.409   6.821   0.295
13491TIP3    H240419   1.320   6.942   0.284
13492TIP3   OH240420   0.908   1.815   1.728
13492TIP3    H140421   0.884   1.762   1.652
13492TIP3    H240422   0.830   1.868   1.746
13493TIP3   OH240423   1.605   5.353   0.370
13493TIP3    H140424   1.647   5.429   0.329
13493TIP3    H240425   1.577   5.385   0.456
13494TIP3   OH240426   0.354   5.938   0.042
13494TIP3    H140427   0.431   5.908  -0.006
13494TIP3    H240428   0.348   5.879   0.117
13495TIP3   OH240429   0.552   2.730   1.880
13495TIP3    H140430   0.471   2.706   1.835
13495TIP3    H240431   0.613   2.752   1.810
13496TIP3   OH240432   3.969   3.717   5.873
13496TIP3    H140433   3.927   3.790   5.828
13496TIP3    H240434   3.901   3.680   5.929
13497TIP3   OH240435   3.034   3.717   3.703
13497TIP3    H140436   2.944   3.683   3.706
13497TIP3    H240437   3.054   3.721   3.609
13498TIP3   OH240438   1.786   4.734   1.933
13498TIP3    H140439   1.829   4.650   1.917
13498TIP3    H240440   1.851   4.786   1.979
13499TIP3   OH240441   0.385   5.484   3.079
13499TIP3    H140442   0.467   5.533   3.074
13499TIP3    H240443   0.374   5.446   2.992
13500TIP3   OH240444   4.754   7.710   3.231
13500TIP3    H140445   4.753   7.614   3.236
13500TIP3    H240446   4.846   7.733   3.235
13501TIP3   OH240447   1.867   4.758   5.635
13501TIP3    H140448   1.917   4.689   5.677
13501TIP3    H240449   1.789   4.768   5.690
13502TIP3   OH240450   7.190   3.995   3.955
13502TIP3    H140451   7.225   3.906   3.947
13502TIP3    H240452   7.265   4.049   3.978
13503TIP3   OH240453   4.991   4.989   4.004
13503TIP3    H140454   4.985   5.057   3.937
13503TIP3    H240455   5.006   5.036   4.085
13504TIP3   OH240456   0.828   3.525   3.225
13504TIP3    H140457   0.838   3.483   3.140
13504TIP3    H240458   0.737   3.555   3.225
13505TIP3   OH240459   4.060   5.784   0.583
13505TIP3    H140460   4.151   5.760   0.568
13505TIP3    H240461   4.022   5.708   0.627
13506TIP3   OH240462   7.778   0.066   1.172
13506TIP3    H140463   7.802   0.051   1.263
13506TIP3    H240464   7.809   0.154   1.153
13507TIP3   OH240465   7.877   0.209   1.951
13507TIP3    H140466   7.858   0.169   1.866
13507TIP3    H240467   7.915   0.138   2.003
13508TIP3   OH240468   7.810   0.551   4.890
13508TIP3    H140469   7.884   0.612   4.900
13508TIP3    H240470   7.806   0.535   4.795
13509TIP3   OH240471   5.880   1.349   0.428
13509TIP3    H140472   5.935   1.412   0.474
13509TIP3    H240473   5.797   1.351   0.476
13510TIP3   OH240474   3.158   2.091   3.718
13510TIP3    H140475   3.171   2.172   3.668
13510TIP3    H240476   3.242   2.075   3.760
13511TIP3   OH240477   3.285   5.552   4.783
13511TIP3    H140478   3.191   5.569   4.775
13511TIP3    H240479   3.308   5.586   4.870
13512TIP3   OH240480   7.575   3.420   3.653
13512TIP3    H140481   7.650   3.403   3.596
13512TIP3    H240482   7.501   3.380   3.608
13513TIP3   OH240483   6.413   1.623   6.259
13513TIP3    H140484   6.463   1.656   6.334
13513TIP3    H240485   6.331   1.591   6.298
13514TIP3   OH240486   8.047   1.982   2.927
13514TIP3    H140487   8.124   1.984   2.871
13514TIP3    H240488   8.070   1.922   2.998
13515TIP3   OH240489   0.798   4.290   5.073
13515TIP3    H140490   0.786   4.196   5.057
13515TIP3    H240491   0.880   4.311   5.029
13516TIP3   OH240492   0.747   6.368   1.715
13516TIP3    H140493   0.706   6.351   1.800
13516TIP3    H240494   0.706   6.449   1.685
13517TIP3   OH240495   5.670   6.514   2.721
13517TIP3    H140496   5.582   6.553   2.726
13517TIP3    H240497   5.711   6.537   2.805
13518TIP3   OH240498   1.518   5.316   0.647
13518TIP3    H140499   1.513   5.267   0.729
13518TIP3    H240500   1.563   5.397   0.670
13519TIP3   OH240501   3.876   6.010   5.556
13519TIP3    H140502   3.852   5.919   5.536
13519TIP3    H240503   3.807   6.040   5.615
13520TIP3   OH240504   1.158   1.520   1.332
13520TIP3    H140505   1.172   1.549   1.242
13520TIP3    H240506   1.156   1.425   1.326
13521TIP3   OH240507   7.530   3.441   4.153
13521TIP3    H140508   7.509   3.534   4.156
13521TIP3    H240509   7.590   3.431   4.079
13522TIP3   OH240510   6.728   5.931   2.146
13522TIP3    H140511   6.743   5.931   2.241
13522TIP3    H240512   6.792   5.994   2.112
13523TIP3   OH240513   6.498   3.388   2.187
13523TIP3    H140514   6.556   3.314   2.204
13523TIP3    H240515   6.414   3.362   2.225
13524TIP3   OH240516   6.206   3.100   4.320
13524TIP3    H140517   6.151   3.133   4.390
13524TIP3    H240518   6.193   3.005   4.320
13525TIP3   OH240519   0.238   3.210   4.202
13525TIP3    H140520   0.267   3.172   4.120
13525TIP3    H240521   0.156   3.166   4.222
13526TIP3   OH240522   0.168   6.616   1.658
13526TIP3    H140523   0.128   6.608   1.571
13526TIP3    H240524   0.171   6.526   1.691
13527TIP3   OH240525   0.503   0.768   2.559
13527TIP3    H140526   0.448   0.794   2.633
13527TIP3    H240527   0.462   0.810   2.483
13528TIP3   OH240528   6.414   4.505   4.108
13528TIP3    H140529   6.461   4.426   4.136
13528TIP3    H240530   6.478   4.576   4.119
13529TIP3   OH240531   2.309   0.757   2.849
13529TIP3    H140532   2.321   0.711   2.766
13529TIP3    H240533   2.335   0.848   2.830
13530TIP3   OH240534   7.137   4.719   1.809
13530TIP3    H140535   7.186   4.736   1.890
13530TIP3    H240536   7.079   4.795   1.800
13531TIP3   OH240537   1.932   3.154   2.522
13531TIP3    H140538   1.897   3.099   2.452
13531TIP3    H240539   1.881   3.235   2.518
13532TIP3   OH240540   7.953   3.298   3.866
13532TIP3    H140541   8.009   3.362   3.911
13532TIP3    H240542   7.906   3.254   3.936
13533TIP3   OH240543   0.538   5.514   2.716
13533TIP3    H140544   0.540   5.516   2.620
13533TIP3    H240545   0.454   5.472   2.736
13534TIP3   OH240546   0.008   7.073   6.672
13534TIP3    H140547   0.030   6.990   6.630
13534TIP3    H240548   0.092   7.105   6.707
13535TIP3   OH240549   7.833   7.827   4.745
13535TIP3    H140550   7.767   7.822   4.676
13535TIP3    H240551   7.859   7.736   4.759
13536TIP3   OH240552   2.943   1.819   3.309
13536TIP3    H140553   3.020   1.864   3.344
13536TIP3    H240554   2.967   1.794   3.220
13537TIP3   OH240555   3.019   0.149   0.065
13537TIP3    H140556   3.008   0.206   0.141
13537TIP3    H240557   3.106   0.171   0.031
13538TIP3   OH240558   1.054   7.259   2.948
13538TIP3    H140559   1.069   7.346   2.985
13538TIP3    H240560   0.971   7.266   2.902
13539TIP3   OH240561   4.682   1.573   5.216
13539TIP3    H140562   4.750   1.629   5.179
13539TIP3    H240563   4.602   1.626   5.210
13540TIP3   OH240564   5.778   5.722   1.263
13540TIP3    H140565   5.826   5.762   1.191
13540TIP3    H240566   5.701   5.683   1.222
13541TIP3   OH240567   0.941   6.974   4.385
13541TIP3    H140568   0.848   6.999   4.387
13541TIP3    H240569   0.952   6.933   4.299
13542TIP3   OH240570   6.501   1.659   3.246
13542TIP3    H140571   6.569   1.723   3.225
13542TIP3    H240572   6.421   1.711   3.252
13543TIP3   OH240573   6.211   4.218   4.878
13543TIP3    H140574   6.216   4.184   4.968
13543TIP3    H240575   6.240   4.144   4.824
13544TIP3   OH240576   7.939   6.311   5.296
13544TIP3    H140577   8.022   6.355   5.277
13544TIP3    H240578   7.960   6.218   5.288
13545TIP3   OH240579   1.486   4.337   5.834
13545TIP3    H140580   1.460   4.299   5.917
13545TIP3    H240581   1.580   4.317   5.826
13546TIP3   OH240582   0.018   7.682   2.297
13546TIP3    H140583   0.090   7.698   2.236
13546TIP3    H240584  -0.058   7.666   2.242
13547TIP3   OH240585   7.411   0.651   2.289
13547TIP3    H140586   7.388   0.588   2.221
13547TIP3    H240587   7.469   0.713   2.245
13548TIP3   OH240588   7.015   4.140   5.488
13548TIP3    H140589   7.083   4.196   5.524
13548TIP3    H240590   7.060   4.060   5.463
13549TIP3   OH240591   0.214   6.227   3.006
13549TIP3    H140592   0.305   6.251   2.989
13549TIP3    H240593   0.163   6.302   2.975
13550TIP3   OH240594   2.863   5.967   2.994
13550TIP3    H140595   2.864   5.877   3.026
13550TIP3    H240596   2.954   5.984   2.969
13551TIP3   OH240597   8.194   3.612   3.336
13551TIP3    H140598   8.130   3.669   3.292
13551TIP3    H240599   8.175   3.623   3.429
13552TIP3   OH240600   0.456   2.993   6.332
13552TIP3    H140601   0.483   3.070   6.282
13552TIP3    H240602   0.504   2.920   6.293
13553TIP3   OH240603   2.048   1.916   2.367
13553TIP3    H140604   2.073   1.998   2.324
13553TIP3    H240605   2.009   1.863   2.297
13554TIP3   OH240606   3.190   5.842   0.279
13554TIP3    H140607   3.157   5.849   0.189
13554TIP3    H240608   3.201   5.748   0.293
13555TIP3   OH240609   5.637   1.299   6.559
13555TIP3    H140610   5.678   1.267   6.640
13555TIP3    H240611   5.570   1.360   6.590
13556TIP3   OH240612   0.874   4.711   4.707
13556TIP3    H140613   0.919   4.787   4.668
13556TIP3    H240614   0.789   4.745   4.735
13557TIP3   OH240615   7.857   6.741   1.926
13557TIP3    H140616   7.950   6.748   1.948
13557TIP3    H240617   7.831   6.829   1.901
13558TIP3   OH240618   1.633   7.786   0.725
13558TIP3    H140619   1.658   7.862   0.778
13558TIP3    H240620   1.570   7.739   0.779
13559TIP3   OH240621   3.445   4.794   5.089
13559TIP3    H140622   3.530   4.835   5.106
13559TIP3    H240623   3.385   4.836   5.151
13560TIP3   OH240624   0.608   6.124   0.918
13560TIP3    H140625   0.573   6.178   0.988
13560TIP3    H240626   0.567   6.156   0.839
13561TIP3   OH240627   6.141   0.515   2.658
13561TIP3    H140628   6.217   0.548   2.706
13561TIP3    H240629   6.090   0.468   2.723
13562TIP3   OH240630   0.172   1.889   1.446
13562TIP3    H140631   0.125   1.949   1.504
13562TIP3    H240632   0.118   1.811   1.443
13563TIP3   OH240633   6.768   3.474   3.465
13563TIP3    H140634   6.704   3.525   3.514
13563TIP3    H240635   6.793   3.403   3.524
13564TIP3   OH240636   3.175   5.260   1.921
13564TIP3    H140637   3.205   5.334   1.869
13564TIP3    H240638   3.086   5.283   1.947
13565TIP3   OH240639   0.689   4.487   3.754
13565TIP3    H140640   0.680   4.409   3.698
13565TIP3    H240641   0.599   4.510   3.776
13566TIP3   OH240642   8.184   0.383   6.006
13566TIP3    H140643   8.236   0.346   6.077
13566TIP3    H240644   8.163   0.308   5.951
13567TIP3   OH240645   5.562   4.453   6.471
13567TIP3    H140646   5.558   4.536   6.424
13567TIP3    H240647   5.584   4.476   6.561
13568TIP3   OH240648   2.330   6.905   5.056
13568TIP3    H140649   2.257   6.865   5.104
13568TIP3    H240650   2.347   6.987   5.102
13569TIP3   OH240651   3.159   6.587   6.365
13569TIP3    H140652   3.076   6.621   6.399
13569TIP3    H240653   3.215   6.665   6.359
13570TIP3   OH240654   0.402   7.013   6.058
13570TIP3    H140655   0.435   6.962   6.132
13570TIP3    H240656   0.459   7.090   6.056
13571TIP3   OH240657   7.582   5.741   3.617
13571TIP3    H140658   7.526   5.818   3.622
13571TIP3    H240659   7.592   5.724   3.523
13572TIP3   OH240660   2.681   0.106   0.229
13572TIP3    H140661   2.742   0.050   0.181
13572TIP3    H240662   2.599   0.101   0.180
13573TIP3   OH240663   3.383   1.720   4.437
13573TIP3    H140664   3.293   1.752   4.433
13573TIP3    H240665   3.401   1.689   4.348
13574TIP3   OH240666   7.866   7.051   6.494
13574TIP3    H140667   7.926   7.121   6.520
13574TIP3    H240668   7.781   7.095   6.486
13575TIP3   OH240669   1.144   0.443   5.517
13575TIP3    H140670   1.068   0.419   5.571
13575TIP3    H240671   1.156   0.368   5.458
13576TIP3   OH240672   7.352   2.879   4.123
13576TIP3    H140673   7.390   2.903   4.207
13576TIP3    H240674   7.380   2.948   4.063
13577TIP3   OH240675   6.805   0.261   1.072
13577TIP3    H140676   6.875   0.240   1.011
13577TIP3    H240677   6.749   0.184   1.071
13578TIP3   OH240678   2.885   7.508   4.035
13578TIP3    H140679   2.918   7.566   4.103
13578TIP3    H240680   2.790   7.522   4.036
13579TIP3   OH240681   4.578   2.681   2.515
13579TIP3    H140682   4.599   2.624   2.589
13579TIP3    H240683   4.508   2.737   2.547
13580TIP3   OH240684   2.557   3.028   2.041
13580TIP3    H140685   2.492   3.066   2.100
13580TIP3    H240686   2.508   2.961   1.992
13581TIP3   OH240687   7.011   1.455   4.909
13581TIP3    H140688   6.952   1.437   4.982
13581TIP3    H240689   7.008   1.376   4.856
13582TIP3   OH240690   7.782   7.321   2.390
13582TIP3    H140691   7.833   7.401   2.380
13582TIP3    H240692   7.761   7.318   2.483
13583TIP3   OH240693   8.224   7.589   3.557
13583TIP3    H140694   8.142   7.540   3.562
13583TIP3    H240695   8.270   7.568   3.639
13584TIP3   OH240696   6.538   0.972   0.689
13584TIP3    H140697   6.564   1.020   0.768
13584TIP3    H240698   6.600   0.899   0.684
13585TIP3   OH240699   3.034   0.288   5.281
13585TIP3    H140700   3.044   0.382   5.265
13585TIP3    H240701   3.061   0.247   5.199
13586TIP3   OH240702   1.342   5.645   0.883
13586TIP3    H140703   1.369   5.569   0.935
13586TIP3    H240704   1.367   5.721   0.936
13587TIP3   OH240705   6.088   4.000   0.191
13587TIP3    H140706   6.172   3.955   0.185
13587TIP3    H240707   6.078   4.021   0.283
13588TIP3   OH240708   4.749   3.866   0.618
13588TIP3    H140709   4.823   3.805   0.621
13588TIP3    H240710   4.748   3.896   0.527
13589TIP3   OH240711   2.261   2.678   5.022
13589TIP3    H140712   2.305   2.686   4.937
13589TIP3    H240713   2.318   2.725   5.083
13590TIP3   OH240714   5.828   3.285   0.552
13590TIP3    H140715   5.895   3.340   0.510
13590TIP3    H240716   5.756   3.284   0.489
13591TIP3   OH240717   7.822   4.327   2.292
13591TIP3    H140718   7.860   4.254   2.243
13591TIP3    H240719   7.837   4.304   2.383
13592TIP3   OH240720   3.816   5.094   6.700
13592TIP3    H140721   3.873   5.017   6.701
13592TIP3    H240722   3.836   5.139   6.782
13593TIP3   OH240723   1.832   2.054   5.743
13593TIP3    H140724   1.800   1.964   5.754
13593TIP3    H240725   1.903   2.046   5.679
13594TIP3   OH240726   0.658   1.186   0.577
13594TIP3    H140727   0.678   1.098   0.543
13594TIP3    H240728   0.688   1.245   0.509
13595TIP3   OH240729   0.781   0.357   2.632
13595TIP3    H140730   0.821   0.388   2.713
13595TIP3    H240731   0.827   0.275   2.613
13596TIP3   OH240732   8.196   3.102   2.512
13596TIP3    H140733   8.201   3.193   2.544
13596TIP3    H240734   8.165   3.110   2.422
13597TIP3   OH240735   5.628   1.840   4.259
13597TIP3    H140736   5.539   1.862   4.233
13597TIP3    H240737   5.666   1.802   4.180
13598TIP3   OH240738   7.932   1.194   5.042
13598TIP3    H140739   7.901   1.129   5.105
13598TIP3    H240740   7.973   1.142   4.972
13599TIP3   OH240741   0.507   2.607   1.171
13599TIP3    H140742   0.589   2.649   1.143
13599TIP3    H240743   0.454   2.680   1.204
13600TIP3   OH240744   4.896   4.317   6.772
13600TIP3    H140745   4.957   4.390   6.782
13600TIP3    H240746   4.945   4.250   6.724
13601TIP3   OH240747   3.986   5.804   1.565
13601TIP3    H140748   4.034   5.847   1.494
13601TIP3    H240749   4.026   5.838   1.645
13602TIP3   OH240750   6.463   1.278   0.155
13602TIP3    H140751   6.502   1.305   0.238
13602TIP3    H240752   6.375   1.315   0.156
13603TIP3   OH240753   3.118   5.200   5.087
13603TIP3    H140754   3.104   5.135   5.018
13603TIP3    H240755   3.191   5.253   5.055
13604TIP3   OH240756   4.040   7.842   2.832
13604TIP3    H140757   4.052   7.766   2.889
13604TIP3    H240758   4.126   7.858   2.794
13605TIP3   OH240759   5.104   1.431   5.826
13605TIP3    H140760   5.127   1.381   5.748
13605TIP3    H240761   5.012   1.456   5.813
13606TIP3   OH240762   4.927   0.690   4.983
13606TIP3    H140763   4.834   0.682   4.963
13606TIP3    H240764   4.970   0.697   4.898
13607TIP3   OH240765   5.838   0.763   3.027
13607TIP3    H140766   5.924   0.747   2.990
13607TIP3    H240767   5.842   0.852   3.063
13608TIP3   OH240768   2.654   6.952   6.068
13608TIP3    H140769   2.728   7.011   6.082
13608TIP3    H240770   2.578   7.001   6.099
13609TIP3   OH240771   7.093   7.498   1.037
13609TIP3    H140772   7.117   7.561   0.969
13609TIP3    H240773   7.123   7.538   1.119
13610TIP3   OH240774   3.771   4.200   5.772
13610TIP3    H140775   3.751   4.206   5.679
13610TIP3    H240776   3.824   4.277   5.790
13611TIP3   OH240777   2.821   4.798   2.397
13611TIP3    H140778   2.833   4.711   2.435
13611TIP3    H240779   2.898   4.810   2.341
13612TIP3   OH240780   6.181   3.075   1.662
13612TIP3    H140781   6.241   3.020   1.713
13612TIP3    H240782   6.118   3.107   1.726
13613TIP3   OH240783   3.499   0.379   4.476
13613TIP3    H140784   3.455   0.296   4.459
13613TIP3    H240785   3.508   0.383   4.572
13614TIP3   OH240786   2.222   4.583   4.883
13614TIP3    H140787   2.180   4.659   4.922
13614TIP3    H240788   2.183   4.508   4.928
13615TIP3   OH240789   6.671   0.418   4.432
13615TIP3    H140790   6.716   0.384   4.510
13615TIP3    H240791   6.587   0.449   4.466
13616TIP3   OH240792   6.594   4.922   3.692
13616TIP3    H140793   6.552   4.857   3.637
13616TIP3    H240794   6.538   4.928   3.769
13617TIP3   OH240795   2.463   0.188   3.510
13617TIP3    H140796   2.526   0.159   3.443
13617TIP3    H240797   2.403   0.114   3.519
13618TIP3   OH240798   3.530   3.104   3.289
13618TIP3    H140799   3.435   3.107   3.293
13618TIP3    H240800   3.552   3.017   3.322
13619TIP3   OH240801   1.017   7.293   2.529
13619TIP3    H140802   1.112   7.291   2.537
13619TIP3    H240803   0.997   7.383   2.504
13620TIP3   OH240804   4.429   0.897   1.743
13620TIP3    H140805   4.395   0.867   1.827
13620TIP3    H240806   4.466   0.984   1.763
13621TIP3   OH240807   1.771   5.965   0.320
13621TIP3    H140808   1.829   5.957   0.396
13621TIP3    H240809   1.809   5.905   0.255
13622TIP3   OH240810   7.418   4.132   0.225
13622TIP3    H140811   7.345   4.097   0.175
13622TIP3    H240812   7.413   4.088   0.309
13623TIP3   OH240813   3.967   0.753   4.537
13623TIP3    H140814   3.970   0.720   4.627
13623TIP3    H240815   3.876   0.778   4.524
13624TIP3   OH240816   1.430   1.924   2.035
13624TIP3    H140817   1.449   1.868   1.960
13624TIP3    H240818   1.449   1.868   2.111
13625TIP3   OH240819   7.084   4.680   5.277
13625TIP3    H140820   7.098   4.586   5.287
13625TIP3    H240821   7.111   4.699   5.187
13626TIP3   OH240822   0.994   0.466   1.232
13626TIP3    H140823   1.057   0.529   1.195
13626TIP3    H240824   0.955   0.513   1.307
13627TIP3   OH240825   7.633   1.232   3.447
13627TIP3    H140826   7.543   1.232   3.416
13627TIP3    H240827   7.627   1.201   3.538
13628TIP3   OH240828   4.000   3.304   6.551
13628TIP3    H140829   3.939   3.285   6.479
13628TIP3    H240830   4.052   3.225   6.559
13629TIP3   OH240831   3.233   6.769   2.186
13629TIP3    H140832   3.193   6.817   2.114
13629TIP3    H240833   3.317   6.813   2.200
13630TIP3   OH240834   1.188   0.967   4.674
13630TIP3    H140835   1.196   1.022   4.752
13630TIP3    H240836   1.261   0.993   4.618
13631TIP3   OH240837   1.405   6.595   4.589
13631TIP3    H140838   1.320   6.571   4.553
13631TIP3    H240839   1.468   6.554   4.530
13632TIP3   OH240840   5.424   3.446   4.720
13632TIP3    H140841   5.342   3.455   4.767
13632TIP3    H240842   5.460   3.363   4.751
13633TIP3   OH240843   5.919   6.734   4.471
13633TIP3    H140844   5.918   6.671   4.543
13633TIP3    H240845   5.839   6.785   4.481
13634TIP3   OH240846   2.163   1.445   4.302
13634TIP3    H140847   2.254   1.475   4.304
13634TIP3    H240848   2.158   1.387   4.227
13635TIP3   OH240849   7.568   6.005   0.938
13635TIP3    H140850   7.655   6.039   0.920
13635TIP3    H240851   7.563   5.923   0.890
13636TIP3   OH240852   7.281   5.696   2.784
13636TIP3    H140853   7.252   5.654   2.865
13636TIP3    H240854   7.334   5.771   2.813
13637TIP3   OH240855   1.289   0.563   1.520
13637TIP3    H140856   1.311   0.574   1.427
13637TIP3    H240857   1.194   0.550   1.520
13638TIP3   OH240858   3.129   2.078   0.740
13638TIP3    H140859   3.208   2.131   0.741
13638TIP3    H240860   3.148   2.006   0.800
13639TIP3   OH240861   6.024   5.768   4.179
13639TIP3    H140862   6.082   5.800   4.109
13639TIP3    H240863   5.938   5.802   4.157
13640TIP3   OH240864   0.202   4.719   5.763
13640TIP3    H140865   0.143   4.779   5.809
13640TIP3    H240866   0.257   4.776   5.710
13641TIP3   OH240867   6.702   6.878   4.015
13641TIP3    H140868   6.612   6.911   4.017
13641TIP3    H240869   6.694   6.788   3.983
13642TIP3   OH240870   8.229   6.001   2.553
13642TIP3    H140871   8.142   6.036   2.572
13642TIP3    H240872   8.289   6.064   2.594
13643TIP3   OH240873   5.629   3.990   1.513
13643TIP3    H140874   5.557   4.051   1.527
13643TIP3    H240875   5.708   4.043   1.520
13644TIP3   OH240876   5.550   5.411   0.397
13644TIP3    H140877   5.612   5.353   0.442
13644TIP3    H240878   5.466   5.392   0.437
13645TIP3   OH240879   7.778   2.464   0.077
13645TIP3    H140880   7.853   2.523   0.072
13645TIP3    H240881   7.706   2.520   0.108
13646TIP3   OH240882   4.882   2.424   5.849
13646TIP3    H140883   4.928   2.440   5.766
13646TIP3    H240884   4.846   2.509   5.874
13647TIP3   OH240885   8.160   3.729   1.495
13647TIP3    H140886   8.212   3.755   1.571
13647TIP3    H240887   8.070   3.752   1.519
13648TIP3   OH240888   7.189   0.320   1.397
13648TIP3    H140889   7.218   0.354   1.312
13648TIP3    H240890   7.231   0.377   1.461
13649TIP3   OH240891   1.216   7.120   0.245
13649TIP3    H140892   1.165   7.170   0.182
13649TIP3    H240893   1.305   7.154   0.237
13650TIP3   OH240894   0.325   3.627   0.924
13650TIP3    H140895   0.362   3.558   0.869
13650TIP3    H240896   0.261   3.670   0.869
13651TIP3   OH240897   4.069   6.329   3.698
13651TIP3    H140898   4.028   6.344   3.783
13651TIP3    H240899   4.159   6.358   3.709
13652TIP3   OH240900   4.444   4.649   4.479
13652TIP3    H140901   4.364   4.647   4.426
13652TIP3    H240902   4.436   4.727   4.533
13653TIP3   OH240903   1.657   5.544   4.563
13653TIP3    H140904   1.642   5.571   4.653
13653TIP3    H240905   1.716   5.469   4.570
13654TIP3   OH240906   0.800   3.609   2.200
13654TIP3    H140907   0.878   3.646   2.159
13654TIP3    H240908   0.764   3.681   2.251
13655TIP3   OH240909   2.773   6.224   3.794
13655TIP3    H140910   2.786   6.273   3.713
13655TIP3    H240911   2.845   6.253   3.851
13656TIP3   OH240912   7.245   6.790   3.678
13656TIP3    H140913   7.294   6.759   3.754
13656TIP3    H240914   7.189   6.860   3.713
13657TIP3   OH240915   5.863   6.909   6.284
13657TIP3    H140916   5.931   6.974   6.304
13657TIP3    H240917   5.790   6.932   6.342
13658TIP3   OH240918   2.407   7.431   1.875
13658TIP3    H140919   2.500   7.443   1.895
13658TIP3    H240920   2.385   7.506   1.820
13659TIP3   OH240921   2.542   0.505  -0.009
13659TIP3    H140922   2.517   0.450  -0.083
13659TIP3    H240923   2.509   0.459   0.068
13660TIP3   OH240924   5.541   4.126   1.060
13660TIP3    H140925   5.622   4.170   1.083
13660TIP3    H240926   5.511   4.170   0.980
13661TIP3   OH240927   7.248   3.671   1.071
13661TIP3    H140928   7.233   3.600   1.133
13661TIP3    H240929   7.218   3.750   1.118
13662TIP3   OH240930   5.264   4.219   2.468
13662TIP3    H140931   5.331   4.221   2.537
13662TIP3    H240932   5.195   4.278   2.499
13663TIP3   OH240933   4.296   5.480   3.260
13663TIP3    H140934   4.251   5.563   3.276
13663TIP3    H240935   4.246   5.415   3.310
13664TIP3   OH240936   6.457   7.263   0.791
13664TIP3    H140937   6.515   7.281   0.718
13664TIP3    H240938   6.457   7.343   0.843
13665TIP3   OH240939   2.440   2.660   2.969
13665TIP3    H140940   2.447   2.622   3.056
13665TIP3    H240941   2.346   2.665   2.952
13666TIP3   OH240942   5.558   5.847   3.588
13666TIP3    H140943   5.599   5.893   3.661
13666TIP3    H240944   5.507   5.914   3.543
13667TIP3   OH240945   1.024   4.301   0.187
13667TIP3    H140946   1.057   4.271   0.272
13667TIP3    H240947   0.929   4.304   0.198
13668TIP3   OH240948   7.594   4.198   5.241
13668TIP3    H140949   7.518   4.200   5.300
13668TIP3    H240950   7.669   4.182   5.299
13669TIP3   OH240951   5.452   4.797   4.631
13669TIP3    H140952   5.451   4.712   4.586
13669TIP3    H240953   5.545   4.818   4.639
13670TIP3   OH240954   6.714   2.857   2.564
13670TIP3    H140955   6.798   2.895   2.586
13670TIP3    H240956   6.736   2.777   2.516
13671TIP3   OH240957   8.181   6.818   4.959
13671TIP3    H140958   8.148   6.821   5.049
13671TIP3    H240959   8.181   6.726   4.936
13672TIP3   OH240960   5.599   4.429   6.760
13672TIP3    H140961   5.505   4.446   6.769
13672TIP3    H240962   5.617   4.358   6.822
13673TIP3   OH240963   2.879   2.644   0.680
13673TIP3    H140964   2.926   2.676   0.603
13673TIP3    H240965   2.911   2.699   0.752
13674TIP3   OH240966   6.839   3.688   2.852
13674TIP3    H140967   6.762   3.640   2.884
13674TIP3    H240968   6.913   3.638   2.887
13675TIP3   OH240969   3.733   7.333   0.816
13675TIP3    H140970   3.736   7.361   0.725
13675TIP3    H240971   3.796   7.390   0.861
13676TIP3   OH240972   7.990   1.485   2.438
13676TIP3    H140973   8.004   1.424   2.510
13676TIP3    H240974   8.070   1.538   2.435
13677TIP3   OH240975   2.374   7.571   1.154
13677TIP3    H140976   2.461   7.575   1.193
13677TIP3    H240977   2.354   7.661   1.129
13678TIP3   OH240978   7.720   0.288   4.367
13678TIP3    H140979   7.661   0.283   4.293
13678TIP3    H240980   7.663   0.299   4.443
13679TIP3   OH240981   3.985   6.224   2.522
13679TIP3    H140982   3.893   6.210   2.500
13679TIP3    H240983   4.004   6.313   2.493
13680TIP3   OH240984   7.580   4.490   4.207
13680TIP3    H140985   7.507   4.544   4.237
13680TIP3    H240986   7.641   4.551   4.167
13681TIP3   OH240987   4.185   2.452   6.715
13681TIP3    H140988   4.238   2.415   6.644
13681TIP3    H240989   4.115   2.501   6.670
13682TIP3   OH240990   3.542   4.906   3.279
13682TIP3    H140991   3.533   4.881   3.187
13682TIP3    H240992   3.502   4.833   3.327
13683TIP3   OH240993   3.921   3.825   3.671
13683TIP3    H140994   3.975   3.825   3.592
13683TIP3    H240995   3.956   3.753   3.724
13684TIP3   OH240996   1.243   4.232   3.428
13684TIP3    H140997   1.214   4.173   3.359
13684TIP3    H240998   1.336   4.212   3.439
13685TIP3   OH240999   2.983   2.764   5.683
13685TIP3    H141000   2.928   2.722   5.749
13685TIP3    H241001   2.921   2.811   5.627
13686TIP3   OH241002   5.877   1.411   3.828
13686TIP3    H141003   5.827   1.480   3.872
13686TIP3    H241004   5.871   1.432   3.735
13687TIP3   OH241005   0.865   2.224   0.316
13687TIP3    H141006   0.922   2.247   0.242
13687TIP3    H241007   0.802   2.296   0.321
13688TIP3   OH241008   0.480   5.666   4.559
13688TIP3    H141009   0.505   5.741   4.506
13688TIP3    H241010   0.445   5.602   4.497
13689TIP3   OH241011   4.993   2.842   4.015
13689TIP3    H141012   5.063   2.876   4.070
13689TIP3    H241013   4.984   2.906   3.945
13690TIP3   OH241014   1.321   6.133   6.489
13690TIP3    H141015   1.415   6.113   6.488
13690TIP3    H241016   1.295   6.119   6.580
13691TIP3   OH241017   8.224   6.944   2.392
13691TIP3    H141018   8.239   7.031   2.430
13691TIP3    H241019   8.144   6.913   2.435
13692TIP3   OH241020   6.926   5.231   3.073
13692TIP3    H141021   6.990   5.240   3.002
13692TIP3    H241022   6.918   5.136   3.086
13693TIP3   OH241023   4.894   4.290   5.865
13693TIP3    H141024   4.957   4.358   5.886
13693TIP3    H241025   4.857   4.316   5.781
13694TIP3   OH241026   4.967   0.363   1.741
13694TIP3    H141027   5.053   0.320   1.744
13694TIP3    H241028   4.982   0.445   1.695
13695TIP3   OH241029   8.159   2.769   3.234
13695TIP3    H141030   8.200   2.848   3.199
13695TIP3    H241031   8.227   2.727   3.286
13696TIP3   OH241032   4.039   3.394   5.611
13696TIP3    H141033   4.052   3.323   5.674
13696TIP3    H241034   3.945   3.393   5.594
13697TIP3   OH241035   6.306   6.496   2.638
13697TIP3    H141036   6.382   6.529   2.687
13697TIP3    H241037   6.231   6.530   2.686
13698TIP3   OH241038   1.307   5.828   6.610
13698TIP3    H141039   1.251   5.785   6.673
13698TIP3    H241040   1.312   5.919   6.640
13699TIP3   OH241041   8.163   1.430   1.471
13699TIP3    H141042   8.070   1.433   1.448
13699TIP3    H241043   8.193   1.344   1.440
13700TIP3   OH241044   5.683   1.147   5.178
13700TIP3    H141045   5.618   1.199   5.226
13700TIP3    H241046   5.634   1.068   5.151
13701TIP3   OH241047   4.078   1.573   0.901
13701TIP3    H141048   4.059   1.665   0.921
13701TIP3    H241049   4.166   1.558   0.936
13702TIP3   OH241050   4.760   0.580   1.472
13702TIP3    H141051   4.727   0.588   1.382
13702TIP3    H241052   4.685   0.599   1.527
13703TIP3   OH241053   4.884   4.986   2.966
13703TIP3    H141054   4.838   4.910   3.002
13703TIP3    H241055   4.814   5.047   2.941
13704TIP3   OH241056   3.661   7.512   6.162
13704TIP3    H141057   3.737   7.562   6.191
13704TIP3    H241058   3.587   7.552   6.208
13705TIP3   OH241059   6.492   6.596   2.799
13705TIP3    H141060   6.473   6.667   2.860
13705TIP3    H241061   6.560   6.630   2.741
13706TIP3   OH241062   2.208   3.496   0.373
13706TIP3    H141063   2.164   3.463   0.451
13706TIP3    H241064   2.299   3.508   0.400
13707TIP3   OH241065   6.979   2.011   0.932
13707TIP3    H141066   6.963   2.093   0.884
13707TIP3    H241067   6.945   2.028   1.020
13708TIP3   OH241068   2.323   1.627   1.999
13708TIP3    H141069   2.313   1.720   1.980
13708TIP3    H241070   2.236   1.600   2.031
13709TIP3   OH241071   3.334   3.458   4.114
13709TIP3    H141072   3.298   3.444   4.027
13709TIP3    H241073   3.264   3.501   4.163
13710TIP3   OH241074   5.174   6.409   4.762
13710TIP3    H141075   5.194   6.500   4.783
13710TIP3    H241076   5.240   6.359   4.809
13711TIP3   OH241077   0.622   0.927   1.433
13711TIP3    H141078   0.648   1.011   1.472
13711TIP3    H241079   0.681   0.918   1.357
13712TIP3   OH241080   1.220   5.262   5.434
13712TIP3    H141081   1.163   5.339   5.439
13712TIP3    H241082   1.268   5.262   5.517
13713TIP3   OH241083   8.235   7.295   1.994
13713TIP3    H141084   8.241   7.234   2.068
13713TIP3    H241085   8.164   7.259   1.940
13714TIP3   OH241086   6.232   0.703   5.569
13714TIP3    H141087   6.297   0.702   5.499
13714TIP3    H241088   6.203   0.794   5.573
13715TIP3   OH241089   2.979   6.218   1.699
13715TIP3    H141090   3.053   6.235   1.641
13715TIP3    H241091   2.976   6.294   1.757
13716TIP3   OH241092   6.524   7.488   2.055
13716TIP3    H141093   6.437   7.452   2.073
13716TIP3    H241094   6.584   7.415   2.070
13717TIP3   OH241095   0.530   5.961   2.987
13717TIP3    H141096   0.581   6.025   2.936
13717TIP3    H241097   0.543   5.987   3.078
13718TIP3   OH241098   6.808   5.849   5.021
13718TIP3    H141099   6.803   5.823   5.113
13718TIP3    H241100   6.844   5.771   4.977
13719TIP3   OH241101   4.366   7.201   1.015
13719TIP3    H141102   4.271   7.198   1.024
13719TIP3    H241103   4.387   7.294   1.013
13720TIP3   OH241104   6.077   5.342   6.109
13720TIP3    H141105   6.048   5.265   6.159
13720TIP3    H241106   6.172   5.340   6.117
13721TIP3   OH241107   7.903   1.218   0.128
13721TIP3    H141108   7.973   1.194   0.189
13721TIP3    H241109   7.833   1.155   0.146
13722TIP3   OH241110   5.028   5.061   2.424
13722TIP3    H141111   5.107   5.007   2.428
13722TIP3    H241112   5.013   5.088   2.515
13723TIP3   OH241113   2.451   4.243   2.911
13723TIP3    H141114   2.471   4.159   2.951
13723TIP3    H241115   2.509   4.249   2.836
13724TIP3   OH241116   3.196   4.508   5.785
13724TIP3    H141117   3.216   4.598   5.760
13724TIP3    H241118   3.100   4.502   5.779
13725TIP3   OH241119   7.890   3.109   0.097
13725TIP3    H141120   7.938   3.027   0.086
13725TIP3    H241121   7.930   3.169   0.034
13726TIP3   OH241122   2.871   5.813   3.515
13726TIP3    H141123   2.877   5.893   3.567
13726TIP3    H241124   2.778   5.807   3.491
13727TIP3   OH241125   4.390   0.228   5.917
13727TIP3    H141126   4.356   0.293   5.856
13727TIP3    H241127   4.349   0.250   6.001
13728TIP3   OH241128   1.941   0.098   0.858
13728TIP3    H141129   2.021   0.146   0.838
13728TIP3    H241130   1.925   0.114   0.951
13729TIP3   OH241131   2.519   6.357   0.602
13729TIP3    H141132   2.575   6.339   0.527
13729TIP3    H241133   2.430   6.343   0.570
13730TIP3   OH241134   7.746   3.030   2.767
13730TIP3    H141135   7.759   2.947   2.813
13730TIP3    H241136   7.808   3.090   2.809
13731TIP3   OH241137   7.214   1.312   5.056
13731TIP3    H141138   7.175   1.387   5.011
13731TIP3    H241139   7.169   1.309   5.140
13732TIP3   OH241140   0.608   7.832   5.184
13732TIP3    H141141   0.605   7.793   5.097
13732TIP3    H241142   0.562   7.769   5.240
13733TIP3   OH241143   0.354   2.018   5.996
13733TIP3    H141144   0.448   2.034   6.002
13733TIP3    H241145   0.322   2.034   6.085
13734TIP3   OH241146   5.540   2.353   3.913
13734TIP3    H141147   5.629   2.362   3.878
13734TIP3    H241148   5.495   2.431   3.881
13735TIP3   OH241149   3.193   5.501   1.760
13735TIP3    H141150   3.270   5.541   1.799
13735TIP3    H241151   3.197   5.526   1.668
13736TIP3   OH241152   4.621   3.384   5.083
13736TIP3    H141153   4.587   3.463   5.124
13736TIP3    H241154   4.648   3.413   4.995
13737TIP3   OH241155   1.904   7.055   0.281
13737TIP3    H141156   1.969   7.122   0.301
13737TIP3    H241157   1.886   7.065   0.188
13738TIP3   OH241158   7.856   1.660   4.031
13738TIP3    H141159   7.949   1.683   4.027
13738TIP3    H241160   7.845   1.593   3.963
13739TIP3   OH241161   4.509   4.728   1.188
13739TIP3    H141162   4.478   4.807   1.143
13739TIP3    H241163   4.429   4.687   1.221
13740TIP3   OH241164   1.073   3.893   5.042
13740TIP3    H141165   1.023   3.851   5.112
13740TIP3    H241166   1.066   3.833   4.969
13741TIP3   OH241167   2.512   1.541   1.313
13741TIP3    H141168   2.510   1.503   1.225
13741TIP3    H241169   2.578   1.490   1.360
13742TIP3   OH241170   7.535   4.582   5.647
13742TIP3    H141171   7.489   4.658   5.612
13742TIP3    H241172   7.628   4.607   5.643
13743TIP3   OH241173   7.978   3.415   3.248
13743TIP3    H141174   7.933   3.469   3.313
13743TIP3    H241175   8.053   3.468   3.220
13744TIP3   OH241176   3.514   5.868   4.981
13744TIP3    H141177   3.608   5.887   4.986
13744TIP3    H241178   3.477   5.944   4.937
13745TIP3   OH241179   0.540   0.218   4.313
13745TIP3    H141180   0.537   0.261   4.398
13745TIP3    H241181   0.450   0.223   4.280
13746TIP3   OH241182   5.666   6.847   4.531
13746TIP3    H141183   5.609   6.829   4.606
13746TIP3    H241184   5.631   6.794   4.460
13747TIP3   OH241185   4.457   2.426   0.354
13747TIP3    H141186   4.496   2.446   0.269
13747TIP3    H241187   4.402   2.501   0.375
13748TIP3   OH241188   2.657   6.326   2.422
13748TIP3    H141189   2.672   6.315   2.515
13748TIP3    H241190   2.738   6.362   2.388
13749TIP3   OH241191   1.346   0.469   0.411
13749TIP3    H141192   1.250   0.471   0.410
13749TIP3    H241193   1.370   0.523   0.486
13750TIP3   OH241194   4.286   1.749   0.592
13750TIP3    H141195   4.214   1.727   0.534
13750TIP3    H241196   4.302   1.668   0.642
13751TIP3   OH241197   4.920   6.930   1.747
13751TIP3    H141198   4.968   6.889   1.675
13751TIP3    H241199   4.930   7.024   1.732
13752TIP3   OH241200   4.598   1.079   3.469
13752TIP3    H141201   4.692   1.079   3.449
13752TIP3    H241202   4.575   0.987   3.478
13753TIP3   OH241203   1.453   1.798   4.477
13753TIP3    H141204   1.377   1.827   4.426
13753TIP3    H241205   1.526   1.800   4.414
13754TIP3   OH241206   2.047   6.887   4.891
13754TIP3    H141207   2.085   6.842   4.815
13754TIP3    H241208   1.977   6.829   4.920
13755TIP3   OH241209   1.754   7.052   1.324
13755TIP3    H141210   1.752   7.091   1.236
13755TIP3    H241211   1.669   7.076   1.362
13756TIP3   OH241212   0.119   2.561   5.439
13756TIP3    H141213   0.025   2.559   5.456
13756TIP3    H241214   0.130   2.635   5.378
13757TIP3   OH241215   5.762   2.590   6.573
13757TIP3    H141216   5.809   2.571   6.654
13757TIP3    H241217   5.715   2.672   6.592
13758TIP3   OH241218   2.874   7.570   1.390
13758TIP3    H141219   2.969   7.572   1.374
13758TIP3    H241220   2.852   7.476   1.391
13759TIP3   OH241221   2.635   1.787   5.786
13759TIP3    H141222   2.544   1.761   5.778
13759TIP3    H241223   2.685   1.712   5.753
13760TIP3   OH241224   0.739   1.625   5.978
13760TIP3    H141225   0.673   1.693   5.993
13760TIP3    H241226   0.694   1.543   5.998
13761TIP3   OH241227   0.318   2.117   5.295
13761TIP3    H141228   0.252   2.048   5.286
13761TIP3    H241229   0.267   2.198   5.302
13762TIP3   OH241230   1.726   4.159   6.690
13762TIP3    H141231   1.810   4.131   6.728
13762TIP3    H241232   1.675   4.189   6.765
13763TIP3   OH241233   5.952   0.971   3.381
13763TIP3    H141234   6.041   0.964   3.347
13763TIP3    H241235   5.953   0.918   3.461
13764TIP3   OH241236   3.635   4.412   4.052
13764TIP3    H141237   3.587   4.336   4.020
13764TIP3    H241238   3.727   4.393   4.032
13765TIP3   OH241239   4.584   4.575   3.528
13765TIP3    H141240   4.613   4.491   3.493
13765TIP3    H241241   4.493   4.582   3.499
13766TIP3   OH241242   3.235   3.557   0.062
13766TIP3    H141243   3.250   3.477   0.113
13766TIP3    H241244   3.144   3.582   0.081
13767TIP3   OH241245   5.386   3.301   6.546
13767TIP3    H141246   5.463   3.286   6.600
13767TIP3    H241247   5.393   3.237   6.475
13768TIP3   OH241248   2.518   2.472   5.599
13768TIP3    H141249   2.596   2.438   5.643
13768TIP3    H241250   2.540   2.562   5.576
13769TIP3   OH241251   6.482   0.543   5.446
13769TIP3    H141252   6.464   0.626   5.402
13769TIP3    H241253   6.554   0.562   5.506
13770TIP3   OH241254   2.382   3.447   6.089
13770TIP3    H141255   2.372   3.454   5.994
13770TIP3    H241256   2.352   3.531   6.122
13771TIP3   OH241257   5.565   5.957   3.933
13771TIP3    H141258   5.572   5.862   3.941
13771TIP3    H241259   5.471   5.974   3.924
13772TIP3   OH241260   6.603   5.999   1.112
13772TIP3    H141261   6.543   6.033   1.178
13772TIP3    H241262   6.690   6.019   1.146
13773TIP3   OH241263   3.877   5.217   1.875
13773TIP3    H141264   3.892   5.293   1.819
13773TIP3    H241265   3.824   5.250   1.947
13774TIP3   OH241266   1.446   2.287   5.395
13774TIP3    H141267   1.399   2.225   5.451
13774TIP3    H241268   1.379   2.350   5.368
13775TIP3   OH241269   5.705   2.413   0.033
13775TIP3    H141270   5.641   2.380  -0.030
13775TIP3    H241271   5.666   2.398   0.119
13776TIP3   OH241272   1.313   0.138   3.383
13776TIP3    H141273   1.254   0.147   3.308
13776TIP3    H241274   1.388   0.091   3.348
13777TIP3   OH241275   1.864   7.036   5.318
13777TIP3    H141276   1.801   6.964   5.310
13777TIP3    H241277   1.869   7.074   5.230
13778TIP3   OH241278   3.950   2.992   0.902
13778TIP3    H141279   3.964   2.998   0.807
13778TIP3    H241280   3.991   3.071   0.938
13779TIP3   OH241281  -0.011   0.350   6.258
13779TIP3    H141282  -0.033   0.416   6.323
13779TIP3    H241283   0.081   0.328   6.275
13780TIP3   OH241284   2.652   1.743   1.756
13780TIP3    H141285   2.568   1.782   1.732
13780TIP3    H241286   2.632   1.691   1.835
13781TIP3   OH241287   4.940   2.077   2.125
13781TIP3    H141288   4.872   2.140   2.101
13781TIP3    H241289   5.022   2.118   2.097
13782TIP3   OH241290   8.129   6.029   4.424
13782TIP3    H141291   8.185   5.966   4.470
13782TIP3    H241292   8.156   6.022   4.333
13783TIP3   OH241293   4.815   1.422   2.024
13783TIP3    H141294   4.833   1.345   2.077
13783TIP3    H241295   4.901   1.460   2.005
13784TIP3   OH241296   7.436   2.953   6.584
13784TIP3    H141297   7.497   2.879   6.587
13784TIP3    H241298   7.437   2.982   6.492
13785TIP3   OH241299   0.377   4.389   4.828
13785TIP3    H141300   0.471   4.379   4.837
13785TIP3    H241301   0.361   4.382   4.734
13786TIP3   OH241302   1.286   6.083   6.757
13786TIP3    H141303   1.229   6.155   6.781
13786TIP3    H241304   1.335   6.063   6.836
13787TIP3   OH241305   5.735   4.874   6.523
13787TIP3    H141306   5.762   4.928   6.448
13787TIP3    H241307   5.641   4.860   6.509
13788TIP3   OH241308   3.549   3.943   0.918
13788TIP3    H141309   3.469   3.894   0.903
13788TIP3    H241310   3.519   4.030   0.947
13789TIP3   OH241311   1.672   0.108   6.545
13789TIP3    H141312   1.683   0.203   6.548
13789TIP3    H241313   1.674   0.080   6.636
13790TIP3   OH241314   8.147   3.861   6.284
13790TIP3    H141315   8.195   3.847   6.365
13790TIP3    H241316   8.118   3.952   6.288
13791TIP3   OH241317   7.443   0.862   0.909
13791TIP3    H141318   7.425   0.909   0.828
13791TIP3    H241319   7.523   0.902   0.944
13792TIP3   OH241320   1.895   0.529   3.924
13792TIP3    H141321   1.825   0.531   3.858
13792TIP3    H241322   1.849   0.514   4.006
13793TIP3   OH241323   1.194   6.199   2.385
13793TIP3    H141324   1.202   6.288   2.418
13793TIP3    H241325   1.143   6.153   2.452
13794TIP3   OH241326   0.153   0.922   6.276
13794TIP3    H141327   0.085   0.913   6.209
13794TIP3    H241328   0.137   1.008   6.315
13795TIP3   OH241329   4.245   2.419   1.960
13795TIP3    H141330   4.308   2.485   1.989
13795TIP3    H241331   4.200   2.393   2.041
13796TIP3   OH241332   6.406   7.807   4.946
13796TIP3    H141333   6.473   7.853   4.995
13796TIP3    H241334   6.386   7.730   4.999
13797TIP3   OH241335   1.540   2.942   1.764
13797TIP3    H141336   1.594   2.870   1.734
13797TIP3    H241337   1.461   2.938   1.709
13798TIP3   OH241338   2.969   7.411   2.986
13798TIP3    H141339   3.040   7.474   2.995
13798TIP3    H241340   2.907   7.435   3.055
13799TIP3   OH241341   4.550   6.593   0.036
13799TIP3    H141342   4.524   6.596   0.128
13799TIP3    H241343   4.586   6.505   0.024
13800TIP3   OH241344   1.775   1.965   6.282
13800TIP3    H141345   1.760   2.053   6.317
13800TIP3    H241346   1.862   1.942   6.313
13801TIP3   OH241347   0.502   4.736   3.833
13801TIP3    H141348   0.427   4.707   3.781
13801TIP3    H241349   0.497   4.685   3.914
13802TIP3   OH241350   2.010   5.952   6.218
13802TIP3    H141351   1.998   5.879   6.277
13802TIP3    H241352   1.929   5.956   6.167
13803TIP3   OH241353   1.496   4.261   3.680
13803TIP3    H141354   1.407   4.263   3.715
13803TIP3    H241355   1.527   4.172   3.699
13804TIP3   OH241356   3.339   1.925   2.885
13804TIP3    H141357   3.357   1.883   2.969
13804TIP3    H241358   3.252   1.964   2.895
13805TIP3   OH241359   8.057   5.070   5.989
13805TIP3    H141360   8.123   5.137   5.969
13805TIP3    H241361   7.979   5.097   5.940
13806TIP3   OH241362   7.001   0.733   4.902
13806TIP3    H141363   7.081   0.712   4.950
13806TIP3    H241364   6.946   0.655   4.911
13807TIP3   OH241365   1.051   6.266   6.740
13807TIP3    H141366   0.986   6.199   6.762
13807TIP3    H241367   1.052   6.269   6.645
13808TIP3   OH241368   3.891   1.182   2.168
13808TIP3    H141369   3.965   1.213   2.115
13808TIP3    H241370   3.838   1.130   2.108
13809TIP3   OH241371   0.837   0.895   4.868
13809TIP3    H141372   0.780   0.823   4.842
13809TIP3    H241373   0.901   0.855   4.927
13810TIP3   OH241374   7.464   6.585   0.906
13810TIP3    H141375   7.377   6.557   0.878
13810TIP3    H241376   7.497   6.636   0.832
13811TIP3   OH241377   4.700   7.440   2.788
13811TIP3    H141378   4.790   7.465   2.770
13811TIP3    H241379   4.662   7.423   2.701
13812TIP3   OH241380   2.479   7.388   2.696
13812TIP3    H141381   2.406   7.358   2.642
13812TIP3    H241382   2.505   7.311   2.746
13813TIP3   OH241383   7.283   4.709   4.731
13813TIP3    H141384   7.269   4.795   4.691
13813TIP3    H241385   7.287   4.649   4.657
13814TIP3   OH241386   3.404   0.841   2.620
13814TIP3    H141387   3.309   0.853   2.624
13814TIP3    H241388   3.422   0.821   2.528
13815TIP3   OH241389   0.447   2.350   4.738
13815TIP3    H141390   0.375   2.312   4.687
13815TIP3    H241391   0.426   2.329   4.829
13816TIP3   OH241392   2.019   4.420   4.345
13816TIP3    H141393   2.101   4.399   4.389
13816TIP3    H241394   2.046   4.451   4.258
13817TIP3   OH241395   0.717   6.649   5.365
13817TIP3    H141396   0.787   6.604   5.412
13817TIP3    H241397   0.650   6.665   5.431
13818TIP3   OH241398   7.524   3.239   1.925
13818TIP3    H141399   7.436   3.266   1.951
13818TIP3    H241400   7.574   3.320   1.917
13819TIP3   OH241401   0.808   3.503   0.932
13819TIP3    H141402   0.868   3.428   0.938
13819TIP3    H241403   0.833   3.559   1.005
13820TIP3   OH241404   4.790   0.679   1.141
13820TIP3    H141405   4.756   0.764   1.112
13820TIP3    H241406   4.713   0.623   1.146
13821TIP3   OH241407   7.494   2.723   3.891
13821TIP3    H141408   7.402   2.731   3.916
13821TIP3    H241409   7.514   2.805   3.846
13822TIP3   OH241410   6.049   6.963   2.044
13822TIP3    H141411   6.116   6.934   1.982
13822TIP3    H241412   6.002   6.883   2.068
13823TIP3   OH241413   1.622   6.089   2.374
13823TIP3    H141414   1.546   6.093   2.316
13823TIP3    H241415   1.601   6.020   2.437
13824TIP3   OH241416   2.804   6.689   4.434
13824TIP3    H141417   2.766   6.648   4.356
13824TIP3    H241418   2.878   6.632   4.457
13825TIP3   OH241419   2.529   5.589  -0.051
13825TIP3    H141420   2.472   5.533   0.001
13825TIP3    H241421   2.560   5.656   0.009
13826TIP3   OH241422   2.341   5.711   1.678
13826TIP3    H141423   2.304   5.729   1.591
13826TIP3    H241424   2.394   5.632   1.665
13827TIP3   OH241425   2.884   2.100   0.332
13827TIP3    H141426   2.941   2.173   0.307
13827TIP3    H241427   2.919   2.024   0.286
13828TIP3   OH241428   6.374   1.157   5.572
13828TIP3    H141429   6.367   1.252   5.575
13828TIP3    H241430   6.419   1.138   5.490
13829TIP3   OH241431   3.303   1.272   1.974
13829TIP3    H141432   3.387   1.299   1.937
13829TIP3    H241433   3.289   1.183   1.941
13830TIP3   OH241434   8.200   7.376   5.315
13830TIP3    H141435   8.151   7.347   5.392
13830TIP3    H241436   8.134   7.416   5.258
13831TIP3   OH241437   7.433   7.332   5.086
13831TIP3    H141438   7.363   7.275   5.055
13831TIP3    H241439   7.447   7.306   5.177
13832TIP3   OH241440   8.299   2.964   1.643
13832TIP3    H141441   8.248   3.034   1.602
13832TIP3    H241442   8.236   2.895   1.662
13833TIP3   OH241443   2.268   5.877   4.396
13833TIP3    H141444   2.285   5.787   4.424
13833TIP3    H241445   2.354   5.915   4.379
13834TIP3   OH241446   5.842   4.104   0.733
13834TIP3    H141447   5.830   4.197   0.713
13834TIP3    H241448   5.916   4.101   0.793
13835TIP3   OH241449   2.476   3.406   0.689
13835TIP3    H141450   2.440   3.345   0.753
13835TIP3    H241451   2.417   3.482   0.693
13836TIP3   OH241452   0.705   0.036   6.371
13836TIP3    H141453   0.768  -0.022   6.327
13836TIP3    H241454   0.635   0.047   6.307
13837TIP3   OH241455   4.542   2.058   3.538
13837TIP3    H141456   4.473   2.109   3.579
13837TIP3    H241457   4.623   2.105   3.558
13838TIP3   OH241458   2.285   2.745   6.062
13838TIP3    H141459   2.297   2.824   6.115
13838TIP3    H241460   2.252   2.680   6.123
13839TIP3   OH241461   0.974   7.251   4.271
13839TIP3    H141462   1.058   7.231   4.313
13839TIP3    H241463   0.921   7.172   4.284
13840TIP3   OH241464   4.205   5.456   6.214
13840TIP3    H141465   4.192   5.518   6.142
13840TIP3    H241466   4.179   5.504   6.292
13841TIP3   OH241467   7.659   3.894   4.452
13841TIP3    H141468   7.654   3.979   4.495
13841TIP3    H241469   7.574   3.885   4.408
13842TIP3   OH241470   5.800   5.819   0.779
13842TIP3    H141471   5.777   5.733   0.745
13842TIP3    H241472   5.805   5.807   0.874
13843TIP3   OH241473   1.717   3.713   1.968
13843TIP3    H141474   1.795   3.738   1.918
13843TIP3    H241475   1.717   3.617   1.965
13844TIP3   OH241476   7.061   4.518   4.265
13844TIP3    H141477   7.149   4.550   4.283
13844TIP3    H241478   7.005   4.595   4.273
13845TIP3   OH241479   1.051   6.335   6.486
13845TIP3    H141480   0.975   6.392   6.495
13845TIP3    H241481   1.024   6.267   6.424
13846TIP3   OH241482   1.269   1.516   1.071
13846TIP3    H141483   1.291   1.579   1.002
13846TIP3    H241484   1.232   1.441   1.024
13847TIP3   OH241485   1.486   2.757   3.717
13847TIP3    H141486   1.418   2.777   3.782
13847TIP3    H241487   1.495   2.837   3.666
13848TIP3   OH241488   4.524   7.513   3.199
13848TIP3    H141489   4.609   7.470   3.200
13848TIP3    H241490   4.526   7.567   3.119
13849TIP3   OH241491   1.192   7.017   6.660
13849TIP3    H141492   1.134   6.952   6.619
13849TIP3    H241493   1.259   6.965   6.704
13850TIP3   OH241494   5.106   4.556   1.123
13850TIP3    H141495   5.162   4.561   1.200
13850TIP3    H241496   5.029   4.608   1.145
13851TIP3   OH241497   1.550   6.555   6.625
13851TIP3    H141498   1.587   6.641   6.605
13851TIP3    H241499   1.625   6.502   6.652
13852TIP3   OH241500   1.014   0.741   1.113
13852TIP3    H141501   1.027   0.773   1.203
13852TIP3    H241502   1.101   0.748   1.073
13853TIP3   OH241503   7.165   4.744   5.993
13853TIP3    H141504   7.187   4.837   5.983
13853TIP3    H241505   7.246   4.698   5.970
13854TIP3   OH241506   5.547   4.283   4.668
13854TIP3    H141507   5.622   4.341   4.661
13854TIP3    H241508   5.584   4.195   4.657
13855TIP3   OH241509   0.204   5.691   5.577
13855TIP3    H141510   0.162   5.630   5.516
13855TIP3    H241511   0.258   5.636   5.633
13856TIP3   OH241512   5.013   4.707   5.929
13856TIP3    H141513   5.023   4.612   5.932
13856TIP3    H241514   4.965   4.728   6.009
13857TIP3   OH241515   1.195   3.897   2.415
13857TIP3    H141516   1.277   3.892   2.366
13857TIP3    H241517   1.175   3.990   2.420
13858TIP3   OH241518   6.708   4.833   0.480
13858TIP3    H141519   6.673   4.891   0.547
13858TIP3    H241520   6.793   4.872   0.457
13859TIP3   OH241521   4.515   6.216   4.701
13859TIP3    H141522   4.585   6.208   4.766
13859TIP3    H241523   4.446   6.159   4.734
13860TIP3   OH241524   4.722   3.073   1.272
13860TIP3    H141525   4.660   3.132   1.230
13860TIP3    H241526   4.684   2.986   1.260
13861TIP3   OH241527   1.065   6.620   4.697
13861TIP3    H141528   0.984   6.606   4.648
13861TIP3    H241529   1.132   6.572   4.647
13862TIP3   OH241530   2.342   7.561   4.098
13862TIP3    H141531   2.258   7.515   4.101
13862TIP3    H241532   2.325   7.640   4.046
13863TIP3   OH241533   8.205   5.729   4.513
13863TIP3    H141534   8.291   5.715   4.474
13863TIP3    H241535   8.164   5.643   4.516
13864TIP3   OH241536   6.327   2.525   0.995
13864TIP3    H141537   6.405   2.507   0.943
13864TIP3    H241538   6.354   2.510   1.086
13865TIP3   OH241539   4.658   5.069   6.700
13865TIP3    H141540   4.570   5.030   6.701
13865TIP3    H241541   4.647   5.152   6.652
13866TIP3   OH241542   4.962   5.158   3.375
13866TIP3    H141543   4.900   5.159   3.447
13866TIP3    H241544   4.909   5.143   3.297
13867TIP3   OH241545   8.284   3.455   1.534
13867TIP3    H141546   8.356   3.493   1.585
13867TIP3    H241547   8.214   3.521   1.539
13868TIP3   OH241548   2.039   5.292   4.472
13868TIP3    H141549   2.033   5.307   4.378
13868TIP3    H241550   2.126   5.322   4.496
13869TIP3   OH241551   0.532   0.063   5.138
13869TIP3    H141552   0.614   0.105   5.168
13869TIP3    H241553   0.555  -0.030   5.130
13870TIP3   OH241554   6.194   2.477   3.990
13870TIP3    H141555   6.170   2.567   4.013
13870TIP3    H241556   6.274   2.460   4.039
13871TIP3   OH241557   3.778   5.388   3.186
13871TIP3    H141558   3.759   5.324   3.117
13871TIP3    H241559   3.780   5.336   3.266
13872TIP3   OH241560   5.841   2.449   4.234
13872TIP3    H141561   5.782   2.377   4.256
13872TIP3    H241562   5.792   2.501   4.169
13873TIP3   OH241563   7.198   6.821   5.994
13873TIP3    H141564   7.278   6.871   5.976
13873TIP3    H241565   7.209   6.740   5.944
13874TIP3   OH241566   3.899   1.737   0.736
13874TIP3    H141567   3.818   1.686   0.724
13874TIP3    H241568   3.958   1.677   0.782
13875TIP3   OH241569   4.255   5.243   3.780
13875TIP3    H141570   4.213   5.175   3.833
13875TIP3    H241571   4.217   5.233   3.693
13876TIP3   OH241572   4.910   1.601   6.708
13876TIP3    H141573   4.834   1.658   6.715
13876TIP3    H241574   4.917   1.559   6.794
13877TIP3   OH241575   5.599   7.518   0.748
13877TIP3    H141576   5.669   7.486   0.692
13877TIP3    H241577   5.643   7.544   0.829
13878TIP3   OH241578   6.793   7.018   2.824
13878TIP3    H141579   6.780   7.109   2.797
13878TIP3    H241580   6.707   6.978   2.814
13879TIP3   OH241581   6.267   4.286   4.320
13879TIP3    H141582   6.263   4.218   4.388
13879TIP3    H241583   6.354   4.276   4.281
13880TIP3   OH241584   6.418   0.270   2.698
13880TIP3    H141585   6.406   0.332   2.627
13880TIP3    H241586   6.513   0.257   2.704
13881TIP3   OH241587   6.415   0.682   3.962
13881TIP3    H141588   6.411   0.655   4.054
13881TIP3    H241589   6.341   0.638   3.921
13882TIP3   OH241590   2.243   4.389   2.138
13882TIP3    H141591   2.242   4.454   2.208
13882TIP3    H241592   2.266   4.307   2.182
13883TIP3   OH241593   0.290   0.622   2.161
13883TIP3    H141594   0.285   0.532   2.128
13883TIP3    H241595   0.199   0.652   2.160
13884TIP3   OH241596   1.765   5.526   5.297
13884TIP3    H141597   1.793   5.448   5.248
13884TIP3    H241598   1.670   5.528   5.284
13885TIP3   OH241599   0.885   0.371   3.085
13885TIP3    H141600   0.882   0.455   3.039
13885TIP3    H241601   0.871   0.393   3.177
13886TIP3   OH241602   6.128   5.177   3.678
13886TIP3    H141603   6.205   5.221   3.643
13886TIP3    H241604   6.095   5.125   3.605
13887TIP3   OH241605   1.938   4.553   0.144
13887TIP3    H141606   1.980   4.523   0.064
13887TIP3    H241607   1.874   4.484   0.164
13888TIP3   OH241608   7.469   2.727   6.114
13888TIP3    H141609   7.514   2.649   6.081
13888TIP3    H241610   7.425   2.763   6.037
13889TIP3   OH241611   0.341   3.845   0.497
13889TIP3    H141612   0.319   3.863   0.406
13889TIP3    H241613   0.403   3.914   0.522
13890TIP3   OH241614   3.773   3.325   5.202
13890TIP3    H141615   3.746   3.388   5.135
13890TIP3    H241616   3.811   3.379   5.271
13891TIP3   OH241617   8.097   3.594   4.664
13891TIP3    H141618   8.054   3.568   4.746
13891TIP3    H241619   8.077   3.687   4.655
13892TIP3   OH241620   2.765   0.260   3.349
13892TIP3    H141621   2.839   0.276   3.408
13892TIP3    H241622   2.703   0.330   3.367
13893TIP3   OH241623   0.953   4.811   5.613
13893TIP3    H141624   0.948   4.889   5.558
13893TIP3    H241625   0.947   4.844   5.702
13894TIP3   OH241626   6.364   0.046   3.768
13894TIP3    H141627   6.317  -0.030   3.734
13894TIP3    H241628   6.382   0.100   3.690
13895TIP3   OH241629   2.808   0.768   6.107
13895TIP3    H141630   2.723   0.724   6.116
13895TIP3    H241631   2.869   0.711   6.154
13896TIP3   OH241632   7.410   5.307   4.858
13896TIP3    H141633   7.480   5.243   4.868
13896TIP3    H241634   7.447   5.373   4.799
13897TIP3   OH241635   1.232   5.788   1.306
13897TIP3    H141636   1.203   5.875   1.281
13897TIP3    H241637   1.240   5.791   1.401
13898TIP3   OH241638   5.704   5.577   5.576
13898TIP3    H141639   5.642   5.565   5.648
13898TIP3    H241640   5.664   5.644   5.521
13899TIP3   OH241641   2.039   4.237   0.481
13899TIP3    H141642   1.944   4.239   0.496
13899TIP3    H241643   2.048   4.197   0.394
13900TIP3   OH241644   0.754   3.812   6.577
13900TIP3    H141645   0.735   3.893   6.531
13900TIP3    H241646   0.668   3.772   6.592
13901TIP3   OH241647   3.976   5.267   2.895
13901TIP3    H141648   3.881   5.280   2.902
13901TIP3    H241649   4.001   5.229   2.980
13902TIP3   OH241650   3.210   2.684   2.055
13902TIP3    H141651   3.134   2.700   1.998
13902TIP3    H241652   3.282   2.665   1.995
13903TIP3   OH241653   1.220   2.596   1.367
13903TIP3    H141654   1.280   2.522   1.357
13903TIP3    H241655   1.139   2.557   1.400
13904TIP3   OH241656   3.032   2.003   5.508
13904TIP3    H141657   2.981   2.067   5.558
13904TIP3    H241658   3.057   2.049   5.428
13905TIP3   OH241659   2.392   4.338   5.461
13905TIP3    H141660   2.313   4.391   5.464
13905TIP3    H241661   2.369   4.263   5.406
13906TIP3   OH241662   2.465   5.345   4.347
13906TIP3    H141663   2.453   5.435   4.316
13906TIP3    H241664   2.552   5.345   4.387
13907TIP3   OH241665   6.718   7.286   6.171
13907TIP3    H141666   6.638   7.334   6.150
13907TIP3    H241667   6.756   7.332   6.245
13908TIP3   OH241668   4.596   4.836   3.339
13908TIP3    H141669   4.575   4.801   3.426
13908TIP3    H241670   4.654   4.910   3.356
13909TIP3   OH241671   6.268   6.203   4.332
13909TIP3    H141672   6.314   6.211   4.248
13909TIP3    H241673   6.226   6.117   4.329
13910TIP3   OH241674   8.105   4.199   6.374
13910TIP3    H141675   8.036   4.196   6.308
13910TIP3    H241676   8.105   4.289   6.406
13911TIP3   OH241677   2.878   0.349   5.589
13911TIP3    H141678   2.901   0.362   5.497
13911TIP3    H241679   2.877   0.254   5.601
13912TIP3   OH241680   3.668   0.410   5.197
13912TIP3    H141681   3.602   0.410   5.267
13912TIP3    H241682   3.656   0.494   5.153
13913TIP3   OH241683   6.204   0.874   0.143
13913TIP3    H141684   6.189   0.934   0.217
13913TIP3    H241685   6.195   0.787   0.182
13914TIP3   OH241686   4.621   0.159   5.248
13914TIP3    H141687   4.538   0.195   5.279
13914TIP3    H241688   4.686   0.225   5.272
13915TIP3   OH241689   1.829   2.342   3.364
13915TIP3    H141690   1.823   2.307   3.453
13915TIP3    H241691   1.830   2.264   3.308
13916TIP3   OH241692   3.000   4.713   5.299
13916TIP3    H141693   2.972   4.802   5.318
13916TIP3    H241694   3.046   4.684   5.378
13917TIP3   OH241695   2.814   7.160   1.698
13917TIP3    H141696   2.867   7.239   1.692
13917TIP3    H241697   2.786   7.143   1.608
13918TIP3   OH241698   0.624   2.333   5.390
13918TIP3    H141699   0.675   2.327   5.471
13918TIP3    H241700   0.536   2.359   5.419
13919TIP3   OH241701   2.155   1.852   2.620
13919TIP3    H141702   2.071   1.896   2.607
13919TIP3    H241703   2.163   1.794   2.544
13920TIP3   OH241704   0.523   6.501   5.694
13920TIP3    H141705   0.549   6.464   5.610
13920TIP3    H241706   0.475   6.430   5.737
13921TIP3   OH241707   2.410   2.270   3.333
13921TIP3    H141708   2.408   2.175   3.343
13921TIP3    H241709   2.502   2.291   3.317
13922TIP3   OH241710   2.854   7.719   5.083
13922TIP3    H141711   2.824   7.804   5.049
13922TIP3    H241712   2.931   7.698   5.030
13923TIP3   OH241713   2.179   0.623   5.184
13923TIP3    H141714   2.124   0.609   5.108
13923TIP3    H241715   2.258   0.570   5.167
13924TIP3   OH241716   1.554   1.371   1.147
13924TIP3    H141717   1.601   1.387   1.229
13924TIP3    H241718   1.498   1.448   1.136
13925TIP3   OH241719   5.821   3.183  -0.013
13925TIP3    H141720   5.799   3.171   0.079
13925TIP3    H241721   5.887   3.252  -0.014
13926TIP3   OH241722   1.244   5.111   4.763
13926TIP3    H141723   1.169   5.163   4.736
13926TIP3    H241724   1.240   5.109   4.858
13927TIP3   OH241725   5.088   1.561   1.874
13927TIP3    H141726   5.113   1.470   1.860
13927TIP3    H241727   5.159   1.598   1.926
13928TIP3   OH241728   2.848   1.201   6.340
13928TIP3    H141729   2.931   1.199   6.387
13928TIP3    H241730   2.867   1.160   6.255
13929TIP3   OH241731   0.632   3.440   2.011
13929TIP3    H141732   0.709   3.384   2.018
13929TIP3    H241733   0.647   3.510   2.074
13930TIP3   OH241734   6.185   6.984   4.194
13930TIP3    H141735   6.131   6.905   4.196
13930TIP3    H241736   6.274   6.951   4.183
13931TIP3   OH241737   5.254   1.684   4.110
13931TIP3    H141738   5.253   1.703   4.016
13931TIP3    H241739   5.165   1.658   4.131
13932TIP3   OH241740   4.764   6.850   5.370
13932TIP3    H141741   4.731   6.936   5.394
13932TIP3    H241742   4.693   6.810   5.320
13933TIP3   OH241743   1.719   1.772   0.691
13933TIP3    H141744   1.715   1.867   0.695
13933TIP3    H241745   1.812   1.752   0.678
13934TIP3   OH241746   5.068   5.137   2.682
13934TIP3    H141747   5.103   5.116   2.768
13934TIP3    H241748   5.137   5.188   2.639
13935TIP3   OH241749   6.394   4.124   2.140
13935TIP3    H141750   6.443   4.128   2.058
13935TIP3    H241751   6.314   4.076   2.117
13936TIP3   OH241752   5.407   0.519   2.874
13936TIP3    H141753   5.500   0.533   2.892
13936TIP3    H241754   5.368   0.501   2.959
13937TIP3   OH241755   3.989   1.717   3.642
13937TIP3    H141756   4.062   1.730   3.582
13937TIP3    H241757   4.022   1.655   3.707
13938TIP3   OH241758   5.003   6.597   2.299
13938TIP3    H141759   5.009   6.533   2.227
13938TIP3    H241760   5.088   6.590   2.343
13939TIP3   OH241761   7.735   4.105   6.751
13939TIP3    H141762   7.741   4.191   6.794
13939TIP3    H241763   7.646   4.075   6.771
13940TIP3   OH241764   1.061   4.173   5.029
13940TIP3    H141765   1.070   4.174   5.125
13940TIP3    H241766   1.058   4.079   5.008
13941TIP3   OH241767   7.918   3.419   1.934
13941TIP3    H141768   7.940   3.454   1.848
13941TIP3    H241769   7.856   3.481   1.970
13942TIP3   OH241770   7.323   6.007   6.461
13942TIP3    H141771   7.282   6.014   6.547
13942TIP3    H241772   7.410   6.046   6.473
13943TIP3   OH241773   3.172   6.003   6.174
13943TIP3    H141774   3.185   5.935   6.240
13943TIP3    H241775   3.249   6.059   6.181
13944TIP3   OH241776   4.506   7.671   5.182
13944TIP3    H141777   4.511   7.674   5.086
13944TIP3    H241778   4.588   7.710   5.211
13945TIP3   OH241779   6.136   7.461   1.236
13945TIP3    H141780   6.045   7.453   1.263
13945TIP3    H241781   6.166   7.370   1.226
13946TIP3   OH241782   2.734   7.763   3.329
13946TIP3    H141783   2.818   7.724   3.305
13946TIP3    H241784   2.675   7.689   3.338
13947TIP3   OH241785   5.327   2.554   5.602
13947TIP3    H141786   5.237   2.522   5.595
13947TIP3    H241787   5.320   2.634   5.653
13948TIP3   OH241788   7.372   1.692   3.335
13948TIP3    H141789   7.336   1.606   3.357
13948TIP3    H241790   7.295   1.747   3.319
13949TIP3   OH241791   4.629   4.034   5.118
13949TIP3    H141792   4.697   4.026   5.052
13949TIP3    H241793   4.675   4.018   5.201
13950TIP3   OH241794   7.697   0.454   0.397
13950TIP3    H141795   7.707   0.421   0.487
13950TIP3    H241796   7.654   0.539   0.408
13951TIP3   OH241797   6.441   0.452   4.590
13951TIP3    H141798   6.393   0.395   4.650
13951TIP3    H241799   6.435   0.539   4.629
13952TIP3   OH241800   6.699   1.578   2.802
13952TIP3    H141801   6.768   1.637   2.834
13952TIP3    H241802   6.667   1.534   2.880
13953TIP3   OH241803   3.398   5.754   4.062
13953TIP3    H141804   3.380   5.843   4.031
13953TIP3    H241805   3.376   5.756   4.155
13954TIP3   OH241806   3.878   7.035   2.167
13954TIP3    H141807   3.908   6.983   2.242
13954TIP3    H241808   3.827   7.106   2.205
13955TIP3   OH241809   4.910   4.568   5.470
13955TIP3    H141810   4.940   4.536   5.385
13955TIP3    H241811   4.949   4.655   5.478
13956TIP3   OH241812   3.130   3.814   1.914
13956TIP3    H141813   3.053   3.821   1.858
13956TIP3    H241814   3.195   3.769   1.860
13957TIP3   OH241815   1.239   4.205   5.739
13957TIP3    H141816   1.320   4.254   5.756
13957TIP3    H241817   1.170   4.258   5.778
13958TIP3   OH241818   0.831   1.654   2.543
13958TIP3    H141819   0.861   1.568   2.513
13958TIP3    H241820   0.791   1.637   2.628
13959TIP3   OH241821   6.272   5.213   0.220
13959TIP3    H141822   6.295   5.296   0.263
13959TIP3    H241823   6.333   5.150   0.259
13960TIP3   OH241824   7.939   4.767   0.154
13960TIP3    H141825   7.974   4.779   0.066
13960TIP3    H241826   8.013   4.733   0.204
13961TIP3   OH241827   4.501   0.920   0.864
13961TIP3    H141828   4.453   0.887   0.940
13961TIP3    H241829   4.510   0.843   0.807
13962TIP3   OH241830   0.446   6.996   0.519
13962TIP3    H141831   0.473   6.913   0.479
13962TIP3    H241832   0.503   7.005   0.596
13963TIP3   OH241833   5.858   4.732   1.494
13963TIP3    H141834   5.890   4.674   1.425
13963TIP3    H241835   5.934   4.748   1.549
13964TIP3   OH241836   0.647   1.174   5.841
13964TIP3    H141837   0.638   1.193   5.748
13964TIP3    H241838   0.611   1.086   5.851
13965TIP3   OH241839   2.173   4.483   5.405
13965TIP3    H141840   2.087   4.453   5.376
13965TIP3    H241841   2.189   4.563   5.355
13966TIP3   OH241842   2.009   4.046   6.037
13966TIP3    H141843   2.006   3.974   6.099
13966TIP3    H241844   1.966   4.119   6.082
13967TIP3   OH241845   7.604   1.811   3.308
13967TIP3    H141846   7.651   1.735   3.343
13967TIP3    H241847   7.512   1.789   3.317
13968TIP3   OH241848   2.978   4.730   3.679
13968TIP3    H141849   2.893   4.758   3.644
13968TIP3    H241850   2.957   4.651   3.730
13969TIP3   OH241851   0.279   1.343   1.215
13969TIP3    H141852   0.291   1.255   1.251
13969TIP3    H241853   0.288   1.332   1.121
13970TIP3   OH241854   7.191   2.269   4.124
13970TIP3    H141855   7.177   2.257   4.030
13970TIP3    H241856   7.242   2.193   4.151
13971TIP3   OH241857   5.017   1.200   0.181
13971TIP3    H141858   5.026   1.155   0.265
13971TIP3    H241859   4.936   1.250   0.188
13972TIP3   OH241860   2.118   4.495   3.806
13972TIP3    H141861   2.056   4.442   3.856
13972TIP3    H241862   2.066   4.531   3.734
13973TIP3   OH241863   3.883   3.205   5.408
13973TIP3    H141864   3.847   3.201   5.320
13973TIP3    H241865   3.807   3.214   5.466
13974TIP3   OH241866   6.765   2.690   4.607
13974TIP3    H141867   6.673   2.716   4.620
13974TIP3    H241868   6.780   2.622   4.673
13975TIP3   OH241869   3.637   7.441   2.900
13975TIP3    H141870   3.723   7.403   2.920
13975TIP3    H241871   3.655   7.513   2.841
13976TIP3   OH241872   5.042   4.291   6.484
13976TIP3    H141873   4.957   4.247   6.484
13976TIP3    H241874   5.024   4.376   6.443
13977TIP3   OH241875   1.700   5.762   0.807
13977TIP3    H141876   1.681   5.774   0.900
13977TIP3    H241877   1.718   5.850   0.775
13978TIP3   OH241878   2.671   1.433   3.607
13978TIP3    H141879   2.722   1.500   3.653
13978TIP3    H241880   2.580   1.453   3.630
13979TIP3   OH241881   1.179   7.275   6.698
13979TIP3    H141882   1.196   7.183   6.674
13979TIP3    H241883   1.111   7.303   6.637
13980TIP3   OH241884   7.759   5.418   6.086
13980TIP3    H141885   7.807   5.472   6.024
13980TIP3    H241886   7.667   5.429   6.062
13981TIP3   OH241887   1.654   3.197   1.212
13981TIP3    H141888   1.689   3.277   1.175
13981TIP3    H241889   1.719   3.130   1.190
13982TIP3   OH241890   0.190   5.719   5.887
13982TIP3    H141891   0.277   5.745   5.858
13982TIP3    H241892   0.142   5.700   5.806
13983TIP3   OH241893   7.267   6.826   0.682
13983TIP3    H141894   7.242   6.899   0.625
13983TIP3    H241895   7.233   6.850   0.768
13984TIP3   OH241896   6.294   1.285   1.891
13984TIP3    H141897   6.331   1.367   1.859
13984TIP3    H241898   6.251   1.308   1.973
13985TIP3   OH241899   4.221   0.491   1.157
13985TIP3    H141900   4.148   0.443   1.196
13985TIP3    H241901   4.263   0.534   1.232
13986TIP3   OH241902   7.223   6.981   4.387
13986TIP3    H141903   7.187   6.997   4.475
13986TIP3    H241904   7.317   6.993   4.397
13987TIP3   OH241905   2.851   4.605   0.245
13987TIP3    H141906   2.931   4.593   0.194
13987TIP3    H241907   2.812   4.517   0.249
13988TIP3   OH241908   8.283   0.600   2.122
13988TIP3    H141909   8.277   0.599   2.026
13988TIP3    H241910   8.280   0.692   2.145
13989TIP3   OH241911   4.611   0.847   6.464
13989TIP3    H141912   4.630   0.778   6.528
13989TIP3    H241913   4.516   0.845   6.453
13990TIP3   OH241914   4.930   7.377   5.604
13990TIP3    H141915   5.023   7.367   5.626
13990TIP3    H241916   4.902   7.289   5.581
13991TIP3   OH241917   6.246   2.684   5.472
13991TIP3    H141918   6.177   2.745   5.500
13991TIP3    H241919   6.296   2.732   5.406
13992TIP3   OH241920   0.681   3.313   5.306
13992TIP3    H141921   0.614   3.346   5.247
13992TIP3    H241922   0.761   3.312   5.254
13993TIP3   OH241923   7.520   6.344   4.304
13993TIP3    H141924   7.580   6.345   4.378
13993TIP3    H241925   7.520   6.253   4.274
13994TIP3   OH241926   4.298   6.160   1.593
13994TIP3    H141927   4.323   6.249   1.566
13994TIP3    H241928   4.359   6.103   1.547
13995TIP3   OH241929   1.264   7.557   4.656
13995TIP3    H141930   1.324   7.517   4.594
13995TIP3    H241931   1.319   7.582   4.731
13996TIP3   OH241932   5.828   4.948   2.696
13996TIP3    H141933   5.854   4.861   2.725
13996TIP3    H241934   5.881   4.964   2.618
13997TIP3   OH241935   5.975   5.147   2.298
13997TIP3    H141936   5.944   5.114   2.383
13997TIP3    H241937   5.983   5.241   2.311
13998TIP3   OH241938   0.592   0.699   4.188
13998TIP3    H141939   0.566   0.791   4.194
13998TIP3    H241940   0.527   0.652   4.241
13999TIP3   OH241941   4.266   4.973   5.779
13999TIP3    H141942   4.256   5.067   5.761
13999TIP3    H241943   4.359   4.963   5.801
14000TIP3   OH241944   6.486   0.213   3.596
14000TIP3    H141945   6.559   0.252   3.644
14000TIP3    H241946   6.446   0.287   3.549
14001TIP3   OH241947   0.827   6.681   1.146
14001TIP3    H141948   0.827   6.772   1.174
14001TIP3    H241949   0.817   6.685   1.051
14002TIP3   OH241950   1.910   1.492   2.706
14002TIP3    H141951   1.884   1.441   2.630
14002TIP3    H241952   1.831   1.543   2.728
14003TIP3   OH241953   1.814   2.339   4.188
14003TIP3    H141954   1.742   2.394   4.158
14003TIP3    H241955   1.816   2.266   4.127
14004TIP3   OH241956   5.751   6.816   4.129
14004TIP3    H141957   5.829   6.770   4.161
14004TIP3    H241958   5.681   6.752   4.140
14005TIP3   OH241959   7.131   1.385   0.156
14005TIP3    H141960   7.136   1.457   0.093
14005TIP3    H241961   7.117   1.307   0.103
14006TIP3   OH241962   1.854   1.401   3.578
14006TIP3    H141963   1.804   1.477   3.551
14006TIP3    H241964   1.930   1.437   3.625
14007TIP3   OH241965   3.491   6.114   4.595
14007TIP3    H141966   3.473   6.047   4.529
14007TIP3    H241967   3.583   6.135   4.583
14008TIP3   OH241968   1.400   5.291   5.665
14008TIP3    H141969   1.482   5.338   5.650
14008TIP3    H241970   1.354   5.343   5.730
14009TIP3   OH241971   6.152   2.970   0.989
14009TIP3    H141972   6.173   3.030   0.918
14009TIP3    H241973   6.101   3.023   1.051
14010TIP3   OH241974   0.296   5.010   5.190
14010TIP3    H141975   0.212   4.998   5.233
14010TIP3    H241976   0.283   4.975   5.101
14011TIP3   OH241977   4.788   2.790   4.893
14011TIP3    H141978   4.756   2.853   4.828
14011TIP3    H241979   4.867   2.831   4.929
14012TIP3   OH241980   0.242   4.236   5.392
14012TIP3    H141981   0.333   4.207   5.386
14012TIP3    H241982   0.204   4.211   5.308
14013TIP3   OH241983   1.793   5.323   4.575
14013TIP3    H141984   1.801   5.276   4.658
14013TIP3    H241985   1.878   5.313   4.533
14014TIP3   OH241986   3.672   0.363   1.930
14014TIP3    H141987   3.586   0.398   1.905
14014TIP3    H241988   3.706   0.324   1.850
14015TIP3   OH241989   1.499   2.874   5.104
14015TIP3    H141990   1.410   2.899   5.078
14015TIP3    H241991   1.545   2.859   5.021
14016TIP3   OH241992   4.213   4.191   5.642
14016TIP3    H141993   4.272   4.235   5.703
14016TIP3    H241994   4.230   4.098   5.654
14017TIP3   OH241995   2.707   6.153   5.350
14017TIP3    H141996   2.779   6.093   5.369
14017TIP3    H241997   2.678   6.129   5.263
14018TIP3   OH241998   3.906   4.283   2.522
14018TIP3    H141999   3.961   4.349   2.565
14018TIP3    H242000   3.937   4.282   2.432
14019TIP3   OH242001   5.515   4.372   1.403
14019TIP3    H142002   5.468   4.304   1.356
14019TIP3    H242003   5.605   4.342   1.407
14020TIP3   OH242004   6.585   6.716   4.990
14020TIP3    H142005   6.681   6.717   4.994
14020TIP3    H242006   6.560   6.642   5.044
14021TIP3   OH242007   4.664   1.651   3.073
14021TIP3    H142008   4.700   1.714   3.011
14021TIP3    H242009   4.591   1.697   3.115
14022TIP3   OH242010   0.852   4.164   6.488
14022TIP3    H142011   0.865   4.256   6.466
14022TIP3    H242012   0.778   4.137   6.435
14023TIP3   OH242013   5.576   0.899   4.585
14023TIP3    H142014   5.545   0.921   4.673
14023TIP3    H242015   5.509   0.932   4.526
14024TIP3   OH242016   5.087   1.145   0.950
14024TIP3    H142017   4.997   1.174   0.966
14024TIP3    H242018   5.102   1.077   1.015
14025TIP3   OH242019   5.824   4.136   0.189
14025TIP3    H142020   5.874   4.155   0.109
14025TIP3    H242021   5.891   4.113   0.254
14026TIP3   OH242022   1.141   4.518   6.501
14026TIP3    H142023   1.237   4.517   6.505
14026TIP3    H242024   1.116   4.597   6.550
14027TIP3   OH242025   5.909   0.386   4.692
14027TIP3    H142026   5.960   0.388   4.611
14027TIP3    H242027   5.826   0.427   4.669
14028TIP3   OH242028   4.160   0.459   3.333
14028TIP3    H142029   4.215   0.506   3.396
14028TIP3    H242030   4.222   0.428   3.266
14029TIP3   OH242031   4.694   4.003   1.296
14029TIP3    H142032   4.764   3.998   1.362
14029TIP3    H242033   4.711   4.084   1.249
14030TIP3   OH242034   0.555   4.988   3.351
14030TIP3    H142035   0.539   5.070   3.304
14030TIP3    H242036   0.650   4.980   3.355
14031TIP3   OH242037   6.618   5.562   1.096
14031TIP3    H142038   6.548   5.507   1.061
14031TIP3    H242039   6.574   5.627   1.150
14032TIP3   OH242040   5.498   5.607   0.012
14032TIP3    H142041   5.552   5.534  -0.019
14032TIP3    H242042   5.514   5.611   0.106
14033TIP3   OH242043   6.804   0.086   2.099
14033TIP3    H142044   6.870   0.018   2.104
14033TIP3    H242045   6.770   0.092   2.188
14034TIP3   OH242046   3.220   2.733   6.651
14034TIP3    H142047   3.217   2.694   6.564
14034TIP3    H242048   3.291   2.797   6.646
14035TIP3   OH242049   1.826   7.325   4.538
14035TIP3    H142050   1.820   7.416   4.507
14035TIP3    H242051   1.812   7.272   4.459
14036TIP3   OH242052   0.481   4.685   0.778
14036TIP3    H142053   0.431   4.766   0.788
14036TIP3    H242054   0.480   4.668   0.684
14037TIP3   OH242055   5.644   6.532   5.345
14037TIP3    H142056   5.672   6.622   5.330
14037TIP3    H242057   5.661   6.517   5.438
14038TIP3   OH242058   7.640   4.468   2.076
14038TIP3    H142059   7.586   4.397   2.041
14038TIP3    H242060   7.665   4.437   2.164
14039TIP3   OH242061   7.716   7.058   2.665
14039TIP3    H142062   7.717   7.147   2.630
14039TIP3    H242063   7.800   7.048   2.710
14040TIP3   OH242064   6.536   2.682   6.700
14040TIP3    H142065   6.560   2.654   6.611
14040TIP3    H242066   6.613   2.728   6.732
14041TIP3   OH242067   1.715   6.898   2.270
14041TIP3    H142068   1.641   6.862   2.319
14041TIP3    H242069   1.764   6.820   2.240
14042TIP3   OH242070   5.277   7.069   2.173
14042TIP3    H142071   5.294   7.163   2.168
14042TIP3    H242072   5.253   7.044   2.084
14043TIP3   OH242073   7.729   1.304   2.686
14043TIP3    H142074   7.726   1.211   2.708
14043TIP3    H242075   7.766   1.346   2.764
14044TIP3   OH242076   1.883   6.510   1.615
14044TIP3    H142077   1.932   6.590   1.633
14044TIP3    H242078   1.834   6.529   1.534
14045TIP3   OH242079   7.237   1.558   6.487
14045TIP3    H142080   7.332   1.553   6.481
14045TIP3    H242081   7.221   1.608   6.567
14046TIP3   OH242082   6.570   5.917   4.884
14046TIP3    H142083   6.563   6.011   4.870
14046TIP3    H242084   6.629   5.909   4.959
14047TIP3   OH242085   3.619   1.949   2.903
14047TIP3    H142086   3.668   1.978   2.827
14047TIP3    H242087   3.529   1.974   2.885
14048TIP3   OH242088   3.213   6.094   3.190
14048TIP3    H142089   3.144   6.056   3.245
14048TIP3    H242090   3.283   6.029   3.193
14049TIP3   OH242091   0.696   5.256   0.097
14049TIP3    H142092   0.652   5.244   0.180
14049TIP3    H242093   0.668   5.343   0.067
14050TIP3   OH242094   4.917   5.230   3.894
14050TIP3    H142095   4.966   5.312   3.904
14050TIP3    H242096   4.857   5.228   3.969
14051TIP3   OH242097   3.843   1.441   3.632
14051TIP3    H142098   3.920   1.494   3.654
14051TIP3    H242099   3.800   1.426   3.716
14052TIP3   OH242100   6.868   5.433   2.209
14052TIP3    H142101   6.868   5.448   2.304
14052TIP3    H242102   6.961   5.433   2.186
14053TIP3   OH242103   4.108   7.552   0.307
14053TIP3    H142104   4.068   7.525   0.224
14053TIP3    H242105   4.143   7.471   0.344
14054TIP3   OH242106   8.086   0.488   3.134
14054TIP3    H142107   8.154   0.454   3.192
14054TIP3    H242108   8.046   0.411   3.095
14055TIP3   OH242109   6.951   5.900   3.589
14055TIP3    H142110   7.011   5.910   3.515
14055TIP3    H242111   6.900   5.980   3.589
14056TIP3   OH242112   0.089   6.035   3.917
14056TIP3    H142113   0.033   5.983   3.859
14056TIP3    H242114   0.163   6.060   3.862
14057TIP3   OH242115   4.070   0.118   5.896
14057TIP3    H142116   3.979   0.122   5.926
14057TIP3    H242117   4.119   0.090   5.974
14058TIP3   OH242118   4.531   2.693   4.414
14058TIP3    H142119   4.585   2.645   4.351
14058TIP3    H242120   4.483   2.625   4.461
14059TIP3   OH242121   1.442   7.274   0.130
14059TIP3    H142122   1.519   7.307   0.176
14059TIP3    H242123   1.417   7.344   0.070
14060TIP3   OH242124   0.689   5.151   3.114
14060TIP3    H142125   0.603   5.187   3.136
14060TIP3    H242126   0.670   5.073   3.063
14061TIP3   OH242127   0.316   1.344   0.439
14061TIP3    H142128   0.357   1.288   0.373
14061TIP3    H242129   0.284   1.419   0.389
14062TIP3   OH242130   3.383   2.139   3.532
14062TIP3    H142131   3.417   2.202   3.596
14062TIP3    H242132   3.448   2.069   3.530
14063TIP3   OH242133   6.749   6.823   4.645
14063TIP3    H142134   6.784   6.742   4.683
14063TIP3    H242135   6.682   6.793   4.583
14064TIP3   OH242136   7.105   5.378   5.613
14064TIP3    H142137   7.165   5.414   5.678
14064TIP3    H242138   7.161   5.327   5.555
14065TIP3   OH242139   5.488   2.488   0.634
14065TIP3    H142140   5.407   2.453   0.595
14065TIP3    H242141   5.545   2.505   0.559
14066TIP3   OH242142   4.851   0.987   5.804
14066TIP3    H142143   4.764   0.948   5.800
14066TIP3    H242144   4.834   1.081   5.816
14067TIP3   OH242145   5.926   0.788   0.968
14067TIP3    H142146   5.949   0.714   0.912
14067TIP3    H242147   5.832   0.777   0.985
14068TIP3   OH242148   2.517   6.081   3.838
14068TIP3    H142149   2.545   5.994   3.808
14068TIP3    H242150   2.598   6.131   3.845
14069TIP3   OH242151   5.649   6.473   1.478
14069TIP3    H142152   5.682   6.533   1.411
14069TIP3    H242153   5.705   6.488   1.554
14070TIP3   OH242154   6.853   7.472   0.352
14070TIP3    H142155   6.941   7.470   0.389
14070TIP3    H242156   6.843   7.387   0.310
14071TIP3   OH242157   1.786   7.123   4.361
14071TIP3    H142158   1.696   7.119   4.326
14071TIP3    H242159   1.807   7.032   4.382
14072TIP3   OH242160   5.963   0.838   4.689
14072TIP3    H142161   5.899   0.835   4.760
14072TIP3    H242162   5.917   0.800   4.614
14073TIP3   OH242163   1.409   2.913   0.105
14073TIP3    H142164   1.323   2.892   0.143
14073TIP3    H242165   1.414   3.008   0.109
14074TIP3   OH242166   1.956   3.482   1.625
14074TIP3    H142167   2.038   3.436   1.604
14074TIP3    H242168   1.982   3.552   1.685
14075TIP3   OH242169   6.403   5.656   5.650
14075TIP3    H142170   6.493   5.628   5.631
14075TIP3    H242171   6.372   5.594   5.715
14076TIP3   OH242172   5.548   2.113   3.326
14076TIP3    H142173   5.510   2.050   3.266
14076TIP3    H242174   5.615   2.158   3.275
14077TIP3   OH242175   1.743   6.039   3.622
14077TIP3    H142176   1.807   6.008   3.559
14077TIP3    H242177   1.698   6.111   3.577
14078TIP3   OH242178   1.691   4.985   1.841
14078TIP3    H142179   1.648   4.981   1.756
14078TIP3    H242180   1.697   4.894   1.869
14079TIP3   OH242181   5.304   3.604   5.986
14079TIP3    H142182   5.291   3.600   6.080
14079TIP3    H242183   5.362   3.679   5.972
14080TIP3   OH242184   5.382   2.718   4.911
14080TIP3    H142185   5.414   2.721   5.001
14080TIP3    H242186   5.347   2.629   4.901
14081TIP3   OH242187   3.786   5.818   2.567
14081TIP3    H142188   3.863   5.865   2.535
14081TIP3    H242189   3.752   5.772   2.490
14082TIP3   OH242190   6.859   3.309   0.646
14082TIP3    H142191   6.849   3.314   0.551
14082TIP3    H242192   6.952   3.290   0.659
14083TIP3   OH242193   0.244   3.480   5.291
14083TIP3    H142194   0.201   3.566   5.289
14083TIP3    H242195   0.174   3.417   5.275
14084TIP3   OH242196   2.096   1.060   6.038
14084TIP3    H142197   2.102   0.964   6.037
14084TIP3    H242198   2.022   1.079   6.096
14085TIP3   OH242199   1.662   4.700   4.916
14085TIP3    H142200   1.603   4.722   4.988
14085TIP3    H242201   1.695   4.785   4.886
14086TIP3   OH242202   5.593   2.433   6.103
14086TIP3    H142203   5.502   2.456   6.086
14086TIP3    H242204   5.600   2.429   6.198
14087TIP3   OH242205   1.883   3.616   5.762
14087TIP3    H142206   1.948   3.685   5.750
14087TIP3    H242207   1.917   3.542   5.711
14088TIP3   OH242208   5.569   1.345   6.015
14088TIP3    H142209   5.537   1.408   5.950
14088TIP3    H242210   5.624   1.397   6.074
14089TIP3   OH242211   4.809   2.302   1.641
14089TIP3    H142212   4.721   2.276   1.668
14089TIP3    H242213   4.795   2.373   1.579
14090TIP3   OH242214   1.645   5.081   0.478
14090TIP3    H142215   1.558   5.046   0.456
14090TIP3    H242216   1.630   5.174   0.492
14091TIP3   OH242217   7.485   3.755   2.255
14091TIP3    H142218   7.522   3.675   2.217
14091TIP3    H242219   7.433   3.793   2.184
14092TIP3   OH242220   4.985   5.884   2.773
14092TIP3    H142221   5.021   5.804   2.811
14092TIP3    H242222   5.062   5.935   2.746
14093TIP3   OH242223   6.736   4.254   3.939
14093TIP3    H142224   6.732   4.192   4.012
14093TIP3    H242225   6.774   4.204   3.867
14094TIP3   OH242226   5.778   1.666   5.596
14094TIP3    H142227   5.851   1.704   5.547
14094TIP3    H242228   5.752   1.736   5.657
14095TIP3   OH242229   4.067   3.655   3.910
14095TIP3    H142230   4.140   3.641   3.970
14095TIP3    H242231   4.001   3.699   3.962
14096TIP3   OH242232   1.295   1.237   4.423
14096TIP3    H142233   1.258   1.317   4.387
14096TIP3    H242234   1.222   1.194   4.466
14097TIP3   OH242235   1.601   3.785   6.290
14097TIP3    H142236   1.609   3.849   6.361
14097TIP3    H242237   1.512   3.799   6.256
14098TIP3   OH242238   7.562   4.506   1.401
14098TIP3    H142239   7.620   4.577   1.428
14098TIP3    H242240   7.557   4.514   1.306
14099TIP3   OH242241   5.395   0.468   1.424
14099TIP3    H142242   5.488   0.446   1.426
14099TIP3    H242243   5.387   0.543   1.483
14100TIP3   OH242244   0.372   1.466   4.756
14100TIP3    H142245   0.311   1.456   4.830
14100TIP3    H242246   0.456   1.485   4.797
14101TIP3   OH242247   5.922   1.607   0.540
14101TIP3    H142248   5.974   1.668   0.488
14101TIP3    H242249   5.964   1.608   0.626
14102TIP3   OH242250   6.313   3.237   0.500
14102TIP3    H142251   6.284   3.327   0.487
14102TIP3    H242252   6.372   3.242   0.575
14103TIP3   OH242253   2.896   7.237   3.699
14103TIP3    H142254   2.971   7.296   3.697
14103TIP3    H242255   2.918   7.168   3.635
14104TIP3   OH242256   8.091   1.876   3.235
14104TIP3    H142257   8.057   1.842   3.318
14104TIP3    H242258   8.106   1.798   3.182
14105TIP3   OH242259   0.968   3.024   1.034
14105TIP3    H142260   0.944   3.083   1.105
14105TIP3    H242261   1.060   3.005   1.048
14106TIP3   OH242262  -0.052   7.290   4.657
14106TIP3    H142263   0.003   7.366   4.643
14106TIP3    H242264  -0.005   7.238   4.722
14107TIP3   OH242265   4.490  -0.051   6.232
14107TIP3    H142266   4.460  -0.050   6.141
14107TIP3    H242267   4.557   0.017   6.236
14108TIP3   OH242268   6.994   1.269   3.442
14108TIP3    H142269   6.954   1.301   3.522
14108TIP3    H242270   7.010   1.176   3.459
14109TIP3   OH242271   5.638   4.317   5.266
14109TIP3    H142272   5.627   4.227   5.295
14109TIP3    H242273   5.616   4.370   5.343
14110TIP3   OH242274   4.437   4.175   2.314
14110TIP3    H142275   4.400   4.230   2.382
14110TIP3    H242276   4.528   4.204   2.306
14111TIP3   OH242277   3.254   2.074   1.046
14111TIP3    H142278   3.288   2.133   1.114
14111TIP3    H242279   3.176   2.119   1.013
14112TIP3   OH242280   5.898   2.756   4.803
14112TIP3    H142281   5.989   2.742   4.831
14112TIP3    H242282   5.853   2.676   4.828
14113TIP3   OH242283   3.326   2.624   6.419
14113TIP3    H142284   3.283   2.542   6.440
14113TIP3    H242285   3.341   2.620   6.325
14114TIP3   OH242286   5.187   1.895   4.598
14114TIP3    H142287   5.131   1.836   4.548
14114TIP3    H242288   5.275   1.880   4.563
14115TIP3   OH242289   7.804   7.791   3.508
14115TIP3    H142290   7.742   7.818   3.441
14115TIP3    H242291   7.824   7.700   3.487
14116TIP3   OH242292   7.064   2.888   3.421
14116TIP3    H142293   6.975   2.856   3.407
14116TIP3    H242294   7.114   2.810   3.443
14117TIP3   OH242295   7.559   3.309   2.351
14117TIP3    H142296   7.577   3.215   2.355
14117TIP3    H242297   7.631   3.345   2.300
14118TIP3   OH242298   2.325   6.783   2.946
14118TIP3    H142299   2.287   6.709   2.992
14118TIP3    H242300   2.410   6.796   2.988
14119TIP3   OH242301   1.094   2.354   2.328
14119TIP3    H142302   1.076   2.301   2.251
14119TIP3    H242303   1.008   2.362   2.371
14120TIP3   OH242304   2.883   6.464   1.140
14120TIP3    H142305   2.906   6.453   1.048
14120TIP3    H242306   2.814   6.530   1.141
14121TIP3   OH242307   2.988   3.511   4.491
14121TIP3    H142308   3.033   3.525   4.408
14121TIP3    H242309   2.913   3.457   4.469
14122TIP3   OH242310   1.029   7.241   4.706
14122TIP3    H142311   1.067   7.249   4.794
14122TIP3    H242312   0.983   7.324   4.693
14123TIP3   OH242313   1.942   1.037   3.210
14123TIP3    H142314   2.002   1.106   3.181
14123TIP3    H242315   1.926   1.056   3.302
14124TIP3   OH242316   4.459   3.668   6.696
14124TIP3    H142317   4.400   3.682   6.770
14124TIP3    H242318   4.533   3.621   6.734
14125TIP3   OH242319   2.570   1.093   1.431
14125TIP3    H142320   2.504   1.143   1.479
14125TIP3    H242321   2.559   1.120   1.340
14126TIP3   OH242322   0.432   0.248   3.459
14126TIP3    H142323   0.494   0.303   3.411
14126TIP3    H242324   0.448   0.269   3.551
14127TIP3   OH242325   6.781   3.784   4.940
14127TIP3    H142326   6.756   3.866   4.896
14127TIP3    H242327   6.768   3.716   4.874
14128TIP3   OH242328   4.155   7.291   2.161
14128TIP3    H142329   4.088   7.328   2.219
14128TIP3    H242330   4.145   7.340   2.079
14129TIP3   OH242331   4.376   1.002   5.765
14129TIP3    H142332   4.292   1.037   5.794
14129TIP3    H242333   4.417   1.074   5.716
14130TIP3   OH242334   3.724   7.207   4.037
14130TIP3    H142335   3.739   7.190   4.130
14130TIP3    H242336   3.731   7.302   4.029
14131TIP3   OH242337   4.422   6.559   6.453
14131TIP3    H142338   4.464   6.602   6.379
14131TIP3    H242339   4.334   6.595   6.455
14132TIP3   OH242340   1.160   6.466   5.764
14132TIP3    H142341   1.087   6.452   5.824
14132TIP3    H242342   1.131   6.536   5.706
14133TIP3   OH242343   1.787   4.291   2.599
14133TIP3    H142344   1.761   4.289   2.691
14133TIP3    H242345   1.810   4.382   2.583
14134TIP3   OH242346   5.287   5.762   5.807
14134TIP3    H142347   5.220   5.744   5.740
14134TIP3    H242348   5.311   5.853   5.794
14135TIP3   OH242349   2.898   1.549   5.841
14135TIP3    H142350   2.899   1.538   5.746
14135TIP3    H242351   2.806   1.560   5.863
14136TIP3   OH242352   7.037   6.963   1.985
14136TIP3    H142353   7.129   6.938   1.975
14136TIP3    H242354   7.001   6.896   2.043
14137TIP3   OH242355   5.068   5.273   0.763
14137TIP3    H142356   5.034   5.243   0.679
14137TIP3    H242357   5.001   5.249   0.827
14138TIP3   OH242358   0.089   2.196   0.067
14138TIP3    H142359   0.170   2.244   0.085
14138TIP3    H242360   0.060   2.164   0.152
14139TIP3   OH242361   1.569   4.028   1.091
14139TIP3    H142362   1.576   4.123   1.085
14139TIP3    H242363   1.516   4.012   1.169
14140TIP3   OH242364   4.285   4.688   6.571
14140TIP3    H142365   4.362   4.722   6.614
14140TIP3    H242366   4.265   4.606   6.617
14141TIP3   OH242367   2.715   5.837   6.184
14141TIP3    H142368   2.783   5.840   6.251
14141TIP3    H242369   2.734   5.912   6.127
14142TIP3   OH242370   4.950   6.642   4.375
14142TIP3    H142371   4.949   6.578   4.305
14142TIP3    H242372   4.976   6.593   4.453
14143TIP3   OH242373   0.741   0.580   2.875
14143TIP3    H142374   0.756   0.672   2.857
14143TIP3    H242375   0.659   0.578   2.925
14144TIP3   OH242376   7.383   7.065   3.922
14144TIP3    H142377   7.406   7.097   4.009
14144TIP3    H242378   7.326   7.133   3.886
14145TIP3   OH242379   6.806   5.829   2.927
14145TIP3    H142380   6.749   5.889   2.974
14145TIP3    H242381   6.762   5.813   2.844
14146TIP3   OH242382   6.239   1.584   1.293
14146TIP3    H142383   6.162   1.636   1.271
14146TIP3    H242384   6.306   1.611   1.230
14147TIP3   OH242385   5.894   0.217   6.015
14147TIP3    H142386   5.901   0.126   5.985
14147TIP3    H242387   5.889   0.269   5.935
14148TIP3   OH242388   4.607   7.045   5.156
14148TIP3    H142389   4.540   6.983   5.129
14148TIP3    H242390   4.657   7.062   5.076
14149TIP3   OH242391   4.170   6.724   6.412
14149TIP3    H142392   4.215   6.703   6.331
14149TIP3    H242393   4.125   6.806   6.394
14150TIP3   OH242394   6.585   2.999   4.547
14150TIP3    H142395   6.602   3.045   4.629
14150TIP3    H242396   6.530   3.059   4.497
14151TIP3   OH242397   2.177   4.799   2.738
14151TIP3    H142398   2.094   4.815   2.783
14151TIP3    H242399   2.151   4.771   2.650
14152TIP3   OH242400   7.915   5.023   5.338
14152TIP3    H142401   7.928   5.089   5.406
14152TIP3    H242402   7.836   4.975   5.366
14153TIP3   OH242403   1.010   0.268   6.622
14153TIP3    H142404   1.049   0.193   6.666
14153TIP3    H242405   0.948   0.305   6.686
14154TIP3   OH242406   2.820   6.102   2.558
14154TIP3    H142407   2.780   6.102   2.645
14154TIP3    H242408   2.851   6.012   2.546
14155TIP3   OH242409   7.733   7.017   6.052
14155TIP3    H142410   7.756   7.027   6.145
14155TIP3    H242411   7.695   6.929   6.046
14156TIP3   OH242412   4.725   0.070   0.354
14156TIP3    H142413   4.807   0.104   0.317
14156TIP3    H242414   4.748  -0.015   0.390
14157TIP3   OH242415   2.490   1.795   6.214
14157TIP3    H142416   2.542   1.865   6.174
14157TIP3    H242417   2.455   1.745   6.140
14158TIP3   OH242418   6.250   0.781   1.295
14158TIP3    H142419   6.257   0.696   1.338
14158TIP3    H242420   6.335   0.794   1.253
14159TIP3   OH242421   0.133   0.369   2.526
14159TIP3    H142422   0.223   0.396   2.541
14159TIP3    H242423   0.115   0.304   2.593
14160TIP3   OH242424   6.356   2.302   1.313
14160TIP3    H142425   6.395   2.389   1.309
14160TIP3    H242426   6.350   2.283   1.406
14161TIP3   OH242427   1.960   0.737   5.834
14161TIP3    H142428   2.013   0.801   5.787
14161TIP3    H242429   1.978   0.755   5.927
14162TIP3   OH242430   5.062   5.413   4.909
14162TIP3    H142431   5.148   5.454   4.910
14162TIP3    H242432   5.038   5.405   5.002
14163TIP3   OH242433   4.982   1.701   4.556
14163TIP3    H142434   4.903   1.709   4.503
14163TIP3    H242435   4.982   1.610   4.586
14164TIP3   OH242436   7.778   6.517   1.249
14164TIP3    H142437   7.841   6.469   1.304
14164TIP3    H242438   7.833   6.564   1.187
14165TIP3   OH242439   2.347   3.011   2.468
14165TIP3    H142440   2.358   2.978   2.557
14165TIP3    H242441   2.328   3.104   2.479
14166TIP3   OH242442   2.173   6.133   2.169
14166TIP3    H142443   2.210   6.201   2.113
14166TIP3    H242444   2.167   6.056   2.113
14167TIP3   OH242445   6.786   1.123   0.527
14167TIP3    H142446   6.774   1.029   0.540
14167TIP3    H242447   6.881   1.134   0.523
14168TIP3   OH242448   8.043   4.213   4.696
14168TIP3    H142449   8.095   4.292   4.710
14168TIP3    H242450   8.007   4.225   4.608
14169TIP3   OH242451   6.165   6.368   6.513
14169TIP3    H142452   6.121   6.338   6.434
14169TIP3    H242453   6.249   6.322   6.514
14170TIP3   OH242454   7.226   4.897   6.653
14170TIP3    H142455   7.307   4.937   6.621
14170TIP3    H242456   7.205   4.830   6.587
14171TIP3   OH242457   2.347   1.518   0.278
14171TIP3    H142458   2.257   1.506   0.308
14171TIP3    H242459   2.376   1.597   0.324
14172TIP3   OH242460   6.918   6.241   6.268
14172TIP3    H142461   6.966   6.282   6.197
14172TIP3    H242462   6.835   6.214   6.229
14173TIP3   OH242463   6.208   4.720   3.345
14173TIP3    H142464   6.216   4.631   3.379
14173TIP3    H242465   6.288   4.764   3.375
14174TIP3   OH242466   7.961   2.110   6.484
14174TIP3    H142467   7.881   2.075   6.523
14174TIP3    H242468   7.999   2.036   6.438
14175TIP3   OH242469   3.357   5.610   3.292
14175TIP3    H142470   3.344   5.520   3.262
14175TIP3    H242471   3.280   5.629   3.347
14176TIP3   OH242472   5.752   1.643   4.030
14176TIP3    H142473   5.845   1.635   4.051
14176TIP3    H242474   5.749   1.699   3.953
14177TIP3   OH242475   4.962   6.052   2.163
14177TIP3    H142476   4.973   6.111   2.089
14177TIP3    H242477   4.966   6.108   2.240
14178TIP3   OH242478   3.773   3.455   2.868
14178TIP3    H142479   3.709   3.384   2.860
14178TIP3    H242480   3.831   3.443   2.793
14179TIP3   OH242481   3.057   3.252   3.118
14179TIP3    H142482   3.151   3.265   3.103
14179TIP3    H242483   3.052   3.210   3.204
14180TIP3   OH242484   8.081   4.153   1.091
14180TIP3    H142485   7.997   4.168   1.135
14180TIP3    H242486   8.058   4.136   1.000
14181TIP3   OH242487   6.947   5.583   2.846
14181TIP3    H142488   6.878   5.634   2.888
14181TIP3    H242489   7.025   5.600   2.899
14182TIP3   OH242490   1.339   1.484   2.129
14182TIP3    H142491   1.323   1.401   2.084
14182TIP3    H242492   1.318   1.551   2.064
14183TIP3   OH242493   7.585   5.095   4.891
14183TIP3    H142494   7.616   5.121   4.977
14183TIP3    H242495   7.579   5.000   4.894
14184TIP3   OH242496   6.266   1.447   0.862
14184TIP3    H142497   6.305   1.411   0.941
14184TIP3    H242498   6.332   1.434   0.794
14185TIP3   OH242499   0.339   4.269   0.733
14185TIP3    H142500   0.301   4.333   0.673
14185TIP3    H242501   0.342   4.315   0.817
14186TIP3   OH242502   2.144   2.787   0.495
14186TIP3    H142503   2.157   2.693   0.511
14186TIP3    H242504   2.191   2.805   0.415
14187TIP3   OH242505   2.392   3.239   6.314
14187TIP3    H142506   2.299   3.232   6.295
14187TIP3    H242507   2.426   3.299   6.248
14188TIP3   OH242508   3.086   4.220   1.782
14188TIP3    H142509   3.137   4.262   1.851
14188TIP3    H242510   3.063   4.134   1.817
14189TIP3   OH242511   1.087   4.326   4.475
14189TIP3    H142512   1.157   4.314   4.411
14189TIP3    H242513   1.114   4.402   4.526
14190TIP3   OH242514   7.813   4.930   0.456
14190TIP3    H142515   7.820   4.843   0.418
14190TIP3    H242516   7.845   4.989   0.387
14191TIP3   OH242517   2.558   0.946   4.472
14191TIP3    H142518   2.636   0.953   4.526
14191TIP3    H242519   2.488   0.922   4.533
14192TIP3   OH242520   5.855   7.098   0.951
14192TIP3    H142521   5.873   7.192   0.944
14192TIP3    H242522   5.759   7.091   0.943
14193TIP3   OH242523   4.440   5.365   4.943
14193TIP3    H142524   4.440   5.359   4.848
14193TIP3    H242525   4.530   5.343   4.969
14194TIP3   OH242526   3.078   6.618   3.104
14194TIP3    H142527   3.156   6.656   3.144
14194TIP3    H242528   3.087   6.524   3.120
14195TIP3   OH242529   1.990   2.188   0.220
14195TIP3    H142530   1.970   2.275   0.256
14195TIP3    H242531   1.977   2.197   0.126
14196TIP3   OH242532   3.484   7.765   3.037
14196TIP3    H142533   3.526   7.807   3.112
14196TIP3    H242534   3.484   7.833   2.969
14197TIP3   OH242535   5.934   4.504   3.076
14197TIP3    H142536   5.857   4.535   3.123
14197TIP3    H242537   5.973   4.583   3.039
14198TIP3   OH242538   3.171   3.811   0.590
14198TIP3    H142539   3.082   3.841   0.573
14198TIP3    H242540   3.164   3.758   0.670
14199TIP3   OH242541   5.051   1.809   1.704
14199TIP3    H142542   5.062   1.741   1.770
14199TIP3    H242543   4.987   1.869   1.743
14200TIP3   OH242544   4.578   1.294   3.687
14200TIP3    H142545   4.532   1.214   3.663
14200TIP3    H242546   4.643   1.306   3.617
14201TIP3   OH242547   2.025   5.634   5.953
14201TIP3    H142548   2.061   5.686   6.025
14201TIP3    H242549   1.962   5.692   5.911
14202TIP3   OH242550   5.257   7.138   0.080
14202TIP3    H142551   5.266   7.071   0.148
14202TIP3    H242552   5.164   7.160   0.080
14203TIP3   OH242553   3.042   0.545   5.717
14203TIP3    H142554   3.007   0.463   5.680
14203TIP3    H242555   3.052   0.603   5.642
14204TIP3   OH242556   7.313   2.372   5.004
14204TIP3    H142557   7.220   2.396   5.004
14204TIP3    H242558   7.350   2.420   4.929
14205TIP3   OH242559   2.585   4.935   0.357
14205TIP3    H142560   2.499   4.915   0.395
14205TIP3    H242561   2.565   4.970   0.270
14206TIP3   OH242562   0.070   5.953   0.227
14206TIP3    H142563  -0.014   5.932   0.187
14206TIP3    H242564   0.126   5.878   0.210
14207TIP3   OH242565   7.993   1.013   5.898
14207TIP3    H142566   7.960   1.017   5.808
14207TIP3    H242567   8.040   1.095   5.910
14208TIP3   OH242568   6.056   5.051   0.240
14208TIP3    H142569   6.010   5.078   0.161
14208TIP3    H242570   6.129   5.112   0.247
14209TIP3   OH242571   1.106   5.709   6.745
14209TIP3    H142572   1.054   5.649   6.693
14209TIP3    H242573   1.045   5.747   6.808
14210TIP3   OH242574   6.343   6.145   2.706
14210TIP3    H142575   6.289   6.173   2.632
14210TIP3    H242576   6.388   6.225   2.734
14211TIP3   OH242577   3.045   5.116   3.467
14211TIP3    H142578   3.048   5.090   3.559
14211TIP3    H242579   3.131   5.094   3.433
14212TIP3   OH242580   0.181   5.996   5.156
14212TIP3    H142581   0.135   6.079   5.154
14212TIP3    H242582   0.199   5.977   5.064
14213TIP3   OH242583   3.358   7.609   3.859
14213TIP3    H142584   3.322   7.676   3.801
14213TIP3    H242585   3.311   7.621   3.941
14214TIP3   OH242586   1.560   4.080   0.628
14214TIP3    H142587   1.468   4.101   0.646
14214TIP3    H242588   1.601   4.078   0.715
14215TIP3   OH242589   0.099   4.746   4.683
14215TIP3    H142590   0.175   4.802   4.670
14215TIP3    H242591   0.070   4.765   4.772
14216TIP3   OH242592   4.290   1.456   1.566
14216TIP3    H142593   4.360   1.434   1.505
14216TIP3    H242594   4.325   1.528   1.618
14217TIP3   OH242595   1.262   7.201   1.358
14217TIP3    H142596   1.176   7.234   1.329
14217TIP3    H242597   1.318   7.279   1.360
14218TIP3   OH242598   1.371   5.480   2.961
14218TIP3    H142599   1.408   5.430   3.034
14218TIP3    H242600   1.344   5.413   2.898
14219TIP3   OH242601   6.486   2.022   6.401
14219TIP3    H142602   6.490   1.930   6.426
14219TIP3    H242603   6.394   2.047   6.415
14220TIP3   OH242604   5.130   0.424   3.657
14220TIP3    H142605   5.224   0.424   3.678
14220TIP3    H242606   5.123   0.478   3.578
14221TIP3   OH242607   1.824   0.350   2.192
14221TIP3    H142608   1.845   0.315   2.105
14221TIP3    H242609   1.906   0.346   2.240
14222TIP3   OH242610   0.171   1.490   4.359
14222TIP3    H142611   0.198   1.500   4.450
14222TIP3    H242612   0.078   1.469   4.364
14223TIP3   OH242613   2.681   7.222   3.093
14223TIP3    H142614   2.673   7.302   3.145
14223TIP3    H242615   2.683   7.151   3.158
14224TIP3   OH242616   3.006   6.004   1.295
14224TIP3    H142617   3.101   5.994   1.286
14224TIP3    H242618   2.993   6.098   1.302
14225TIP3   OH242619   6.572   3.620   0.361
14225TIP3    H142620   6.521   3.617   0.442
14225TIP3    H242621   6.522   3.567   0.299
14226TIP3   OH242622   4.089   7.627   3.030
14226TIP3    H142623   4.101   7.696   3.094
14226TIP3    H242624   4.077   7.547   3.082
14227TIP3   OH242625   4.511   0.863   3.234
14227TIP3    H142626   4.420   0.890   3.245
14227TIP3    H242627   4.540   0.840   3.322
14228TIP3   OH242628   4.183   6.469   6.258
14228TIP3    H142629   4.112   6.532   6.263
14228TIP3    H242630   4.211   6.473   6.167
14229TIP3   OH242631   5.524   6.824   1.231
14229TIP3    H142632   5.467   6.896   1.261
14229TIP3    H242633   5.477   6.745   1.258
14230TIP3   OH242634   6.536   1.121   4.430
14230TIP3    H142635   6.537   1.066   4.509
14230TIP3    H242636   6.583   1.070   4.364
14231TIP3   OH242637   2.658   4.726   0.078
14231TIP3    H142638   2.703   4.677   0.147
14231TIP3    H242639   2.577   4.757   0.120
14232TIP3   OH242640   5.305   0.695   2.133
14232TIP3    H142641   5.264   0.687   2.220
14232TIP3    H242642   5.396   0.671   2.147
14233TIP3   OH242643   0.711   6.865   1.674
14233TIP3    H142644   0.721   6.861   1.770
14233TIP3    H242645   0.715   6.959   1.654
14234TIP3   OH242646   6.206   0.888   4.455
14234TIP3    H142647   6.187   0.810   4.508
14234TIP3    H242648   6.292   0.871   4.416
14235TIP3   OH242649   1.480   2.346   4.304
14235TIP3    H142650   1.528   2.277   4.349
14235TIP3    H242651   1.513   2.342   4.214
14236TIP3   OH242652   0.754   5.452   3.699
14236TIP3    H142653   0.680   5.408   3.658
14236TIP3    H242654   0.807   5.382   3.735
14237TIP3   OH242655   4.891   5.640   4.139
14237TIP3    H142656   4.796   5.636   4.131
14237TIP3    H242657   4.923   5.590   4.063
14238TIP3   OH242658   3.443   1.739   2.322
14238TIP3    H142659   3.366   1.727   2.266
14238TIP3    H242660   3.458   1.834   2.320
14239TIP3   OH242661   8.299   2.449   1.668
14239TIP3    H142662   8.383   2.466   1.624
14239TIP3    H242663   8.289   2.521   1.730
14240TIP3   OH242664   0.289   1.495   4.125
14240TIP3    H142665   0.240   1.499   4.207
14240TIP3    H242666   0.275   1.580   4.084
14241TIP3   OH242667   0.783   4.898   0.618
14241TIP3    H142668   0.851   4.956   0.585
14241TIP3    H242669   0.701   4.945   0.599
14242TIP3   OH242670   1.404   1.200   4.689
14242TIP3    H142671   1.396   1.239   4.602
14242TIP3    H242672   1.497   1.182   4.699
14243TIP3   OH242673   2.354   0.315   0.612
14243TIP3    H142674   2.326   0.405   0.596
14243TIP3    H242675   2.423   0.300   0.547
14244TIP3   OH242676   6.173   2.994   1.966
14244TIP3    H142677   6.128   2.924   1.920
14244TIP3    H242678   6.106   3.062   1.978
14245TIP3   OH242679   3.998   7.486   5.896
14245TIP3    H142680   4.011   7.403   5.942
14245TIP3    H242681   3.945   7.538   5.955
14246TIP3   OH242682   5.839   7.364   2.033
14246TIP3    H142683   5.745   7.347   2.044
14246TIP3    H242684   5.862   7.319   1.951
14247TIP3   OH242685   4.644   7.235   0.016
14247TIP3    H142686   4.641   7.141   0.002
14247TIP3    H242687   4.646   7.246   0.111
14248TIP3   OH242688   6.036   0.411   0.637
14248TIP3    H142689   6.091   0.333   0.636
14248TIP3    H242690   5.964   0.390   0.578
14249TIP3   OH242691   4.433   4.913   2.823
14249TIP3    H142692   4.341   4.913   2.851
14249TIP3    H242693   4.429   4.939   2.730
14250TIP3   OH242694   0.381   0.583   4.305
14250TIP3    H142695   0.297   0.629   4.313
14250TIP3    H242696   0.356   0.490   4.297
14251TIP3   OH242697   8.271   7.488   2.972
14251TIP3    H142698   8.256   7.582   2.976
14251TIP3    H242699   8.275   7.461   3.064
14252TIP3   OH242700   6.549   6.481   1.255
14252TIP3    H142701   6.469   6.509   1.211
14252TIP3    H242702   6.532   6.496   1.348
14253TIP3   OH242703   6.111   4.320   3.166
14253TIP3    H142704   6.186   4.377   3.148
14253TIP3    H242705   6.035   4.375   3.151
14254TIP3   OH242706   7.341   6.252   4.662
14254TIP3    H142707   7.387   6.168   4.661
14254TIP3    H242708   7.292   6.253   4.580
14255TIP3   OH242709   8.269   4.743   4.449
14255TIP3    H142710   8.206   4.815   4.453
14255TIP3    H242711   8.306   4.740   4.537
14256TIP3   OH242712   3.857   1.109   6.084
14256TIP3    H142713   3.952   1.100   6.091
14256TIP3    H242714   3.825   1.020   6.069
14257TIP3   OH242715   0.202   7.221   2.337
14257TIP3    H142716   0.134   7.282   2.366
14257TIP3    H242717   0.272   7.277   2.302
14258TIP3   OH242718   3.925   6.642   5.320
14258TIP3    H142719   3.962   6.695   5.250
14258TIP3    H242720   3.918   6.701   5.394
14259TIP3   OH242721   1.550   4.032   4.507
14259TIP3    H142722   1.577   4.123   4.521
14259TIP3    H242723   1.608   4.000   4.438
14260TIP3   OH242724   4.755   5.056   4.934
14260TIP3    H142725   4.736   5.135   4.985
14260TIP3    H242726   4.806   5.001   4.993
14261TIP3   OH242727   3.352   5.621   0.236
14261TIP3    H142728   3.393   5.686   0.294
14261TIP3    H242729   3.399   5.628   0.154
14262TIP3   OH242730   8.159   4.108   5.010
14262TIP3    H142731   8.178   4.089   4.918
14262TIP3    H242732   8.071   4.072   5.024
14263TIP3   OH242733   4.871   7.675   0.366
14263TIP3    H142734   4.781   7.701   0.344
14263TIP3    H242735   4.862   7.628   0.448
14264TIP3   OH242736   0.852   1.756   0.479
14264TIP3    H142737   0.879   1.670   0.446
14264TIP3    H242738   0.926   1.788   0.529
14265TIP3   OH242739   3.406   2.870   4.755
14265TIP3    H142740   3.422   2.877   4.849
14265TIP3    H242741   3.460   2.940   4.717
14266TIP3   OH242742   6.995   2.337   3.193
14266TIP3    H142743   7.021   2.418   3.236
14266TIP3    H242744   7.030   2.268   3.250
14267TIP3   OH242745   1.159   7.645   6.042
14267TIP3    H142746   1.199   7.612   5.963
14267TIP3    H242747   1.201   7.597   6.113
14268TIP3   OH242748   3.619   5.400   4.192
14268TIP3    H142749   3.649   5.364   4.108
14268TIP3    H242750   3.552   5.464   4.167
14269TIP3   OH242751   0.275   0.495   0.762
14269TIP3    H142752   0.310   0.410   0.736
14269TIP3    H242753   0.344   0.534   0.816
14270TIP3   OH242754   6.134   6.408   4.224
14270TIP3    H142755   6.098   6.384   4.138
14270TIP3    H242756   6.153   6.324   4.266
14271TIP3   OH242757   2.229   6.112   5.006
14271TIP3    H142758   2.258   6.199   4.980
14271TIP3    H242759   2.251   6.056   4.932
14272TIP3   OH242760   5.241   0.934   1.412
14272TIP3    H142761   5.190   0.920   1.492
14272TIP3    H242762   5.323   0.887   1.426
14273TIP3   OH242763   5.841   3.860   3.200
14273TIP3    H142764   5.878   3.941   3.165
14273TIP3    H242765   5.892   3.843   3.280
14274TIP3   OH242766   3.118   7.041   2.236
14274TIP3    H142767   3.083   7.048   2.147
14274TIP3    H242768   3.196   7.096   2.235
14275TIP3   OH242769   2.726   2.146   6.672
14275TIP3    H142770   2.717   2.241   6.681
14275TIP3    H242771   2.785   2.120   6.743
14276TIP3   OH242772   8.159   0.501   5.686
14276TIP3    H142773   8.231   0.453   5.645
14276TIP3    H242774   8.125   0.441   5.752
14277TIP3   OH242775   1.774   1.669   3.787
14277TIP3    H142776   1.728   1.749   3.814
14277TIP3    H242777   1.788   1.679   3.693
14278TIP3   OH242778   0.380   7.148   6.477
14278TIP3    H142779   0.311   7.115   6.534
14278TIP3    H242780   0.336   7.164   6.393
14279TIP3   OH242781   1.316   6.709   5.620
14279TIP3    H142782   1.275   6.781   5.573
14279TIP3    H242783   1.407   6.737   5.632
14280TIP3   OH242784   4.308   4.773   0.032
14280TIP3    H142785   4.331   4.825  -0.045
14280TIP3    H242786   4.221   4.804   0.058
14281TIP3   OH242787   7.988   1.078   2.447
14281TIP3    H142788   7.917   1.136   2.419
14281TIP3    H242789   8.028   1.048   2.366
14282TIP3   OH242790   5.721   0.750   1.209
14282TIP3    H142791   5.669   0.763   1.129
14282TIP3    H242792   5.754   0.837   1.230
14283TIP3   OH242793   4.446   3.188   4.610
14283TIP3    H142794   4.453   3.093   4.609
14283TIP3    H242795   4.433   3.212   4.518
14284TIP3   OH242796   4.064   0.025   0.209
14284TIP3    H142797   4.056  -0.042   0.277
14284TIP3    H242798   4.058   0.108   0.256
14285TIP3   OH242799   1.856   0.948   0.607
14285TIP3    H142800   1.900   1.011   0.551
14285TIP3    H242801   1.850   0.868   0.555
14286TIP3   OH242802   2.565   1.513   5.727
14286TIP3    H142803   2.544   1.538   5.817
14286TIP3    H242804   2.523   1.428   5.715
14287TIP3   OH242805   2.134   5.272   6.361
14287TIP3    H142806   2.046   5.308   6.351
14287TIP3    H242807   2.142   5.254   6.455
14288TIP3   OH242808   4.117   3.211   6.013
14288TIP3    H142809   4.077   3.193   5.928
14288TIP3    H242810   4.208   3.235   5.992
14289TIP3   OH242811   1.753   3.561   1.153
14289TIP3    H142812   1.742   3.564   1.058
14289TIP3    H242813   1.794   3.477   1.170
14290TIP3   OH242814   3.923   5.283   6.508
14290TIP3    H142815   3.874   5.217   6.557
14290TIP3    H242816   3.991   5.234   6.462
14291TIP3   OH242817   5.710   0.457   5.376
14291TIP3    H142818   5.671   0.408   5.303
14291TIP3    H242819   5.804   0.442   5.366
14292TIP3   OH242820   2.107   3.186   6.556
14292TIP3    H142821   2.101   3.248   6.484
14292TIP3    H242822   2.018   3.177   6.589
14293TIP3   OH242823   8.047   6.304   1.158
14293TIP3    H142824   8.134   6.303   1.118
14293TIP3    H242825   8.054   6.368   1.229
14294TIP3   OH242826   2.180   4.081   3.172
14294TIP3    H142827   2.231   4.143   3.121
14294TIP3    H242828   2.183   4.115   3.261
14295TIP3   OH242829   7.291   2.474   2.840
14295TIP3    H142830   7.310   2.514   2.924
14295TIP3    H242831   7.269   2.547   2.782
14296TIP3   OH242832   0.649   3.285   1.553
14296TIP3    H142833   0.744   3.275   1.565
14296TIP3    H242834   0.627   3.227   1.480
14297TIP3   OH242835   7.009   5.492   3.202
14297TIP3    H142836   7.077   5.439   3.243
14297TIP3    H242837   6.962   5.430   3.146
14298TIP3   OH242838   6.698   0.563   5.634
14298TIP3    H142839   6.761   0.619   5.589
14298TIP3    H242840   6.712   0.582   5.727
14299TIP3   OH242841   6.199   7.229   3.361
14299TIP3    H142842   6.138   7.162   3.332
14299TIP3    H242843   6.262   7.182   3.415
14300TIP3   OH242844   7.373   0.077   3.606
14300TIP3    H142845   7.329   0.078   3.521
14300TIP3    H242846   7.449   0.134   3.595
14301TIP3   OH242847   2.478   5.198   5.284
14301TIP3    H142848   2.531   5.188   5.363
14301TIP3    H242849   2.506   5.281   5.246
14302TIP3   OH242850   2.078   6.633   1.981
14302TIP3    H142851   2.105   6.711   1.932
14302TIP3    H242852   2.160   6.599   2.017
14303TIP3   OH242853   3.215   2.253   1.291
14303TIP3    H142854   3.163   2.328   1.261
14303TIP3    H242855   3.300   2.264   1.249
14304TIP3   OH242856   0.305   5.448   5.977
14304TIP3    H142857   0.342   5.451   5.889
14304TIP3    H242858   0.374   5.484   6.033
14305TIP3   OH242859   5.677   0.534   4.732
14305TIP3    H142860   5.677   0.619   4.777
14305TIP3    H242861   5.600   0.538   4.675
14306TIP3   OH242862   3.935   6.376   5.153
14306TIP3    H142863   3.912   6.327   5.232
14306TIP3    H242864   3.995   6.444   5.184
14307TIP3   OH242865   4.540   3.573   5.304
14307TIP3    H142866   4.510   3.643   5.246
14307TIP3    H242867   4.511   3.600   5.391
14308TIP3   OH242868   6.987   1.971   4.040
14308TIP3    H142869   7.080   1.995   4.033
14308TIP3    H242870   6.982   1.915   4.117
14309TIP3   OH242871   1.498   5.830   5.137
14309TIP3    H142872   1.477   5.919   5.166
14309TIP3    H242873   1.535   5.788   5.215
14310TIP3   OH242874   3.497   1.131   3.085
14310TIP3    H142875   3.585   1.164   3.069
14310TIP3    H242876   3.439   1.195   3.044
14311TIP3   OH242877   2.233   1.935   5.241
14311TIP3    H142878   2.224   1.971   5.153
14311TIP3    H242879   2.146   1.904   5.264
14312TIP3   OH242880  -0.011   4.900   0.526
14312TIP3    H142881  -0.026   4.990   0.556
14312TIP3    H242882   0.078   4.900   0.491
14313TIP3   OH242883   0.571   5.216   2.556
14313TIP3    H142884   0.639   5.153   2.536
14313TIP3    H242885   0.544   5.195   2.646
14314TIP3   OH242886   7.106   0.872   6.379
14314TIP3    H142887   7.136   0.790   6.341
14314TIP3    H242888   7.155   0.940   6.333
14315TIP3   OH242889   3.354   7.483   1.294
14315TIP3    H142890   3.407   7.460   1.370
14315TIP3    H242891   3.376   7.417   1.229
14316TIP3   OH242892   0.545   1.834   0.330
14316TIP3    H142893   0.475   1.878   0.281
14316TIP3    H242894   0.587   1.904   0.379
14317TIP3   OH242895   5.885   3.792   4.098
14317TIP3    H142896   5.965   3.844   4.104
14317TIP3    H242897   5.915   3.705   4.073
14318TIP3   OH242898   4.507   4.395   0.344
14318TIP3    H142899   4.535   4.365   0.430
14318TIP3    H242900   4.588   4.405   0.294
14319TIP3   OH242901   6.897   4.532   0.004
14319TIP3    H142902   6.914   4.598   0.072
14319TIP3    H242903   6.822   4.567  -0.045
14320TIP3   OH242904   8.055   3.521   2.149
14320TIP3    H142905   8.031   3.507   2.240
14320TIP3    H242906   8.001   3.460   2.099
14321TIP3   OH242907   4.134   0.991   2.997
14321TIP3    H142908   4.183   0.991   3.079
14321TIP3    H242909   4.043   0.999   3.024
14322TIP3   OH242910   8.027   1.588   1.150
14322TIP3    H142911   8.095   1.653   1.132
14322TIP3    H242912   8.076   1.511   1.180
14323TIP3   OH242913   2.055   4.895   6.542
14323TIP3    H142914   2.057   4.988   6.566
14323TIP3    H242915   2.147   4.873   6.525
14324TIP3   OH242916   5.675   5.182   5.167
14324TIP3    H142917   5.766   5.154   5.167
14324TIP3    H242918   5.660   5.215   5.078
14325TIP3   OH242919   0.675   0.169   0.492
14325TIP3    H142920   0.622   0.217   0.555
14325TIP3    H242921   0.613   0.117   0.442
14326TIP3   OH242922   7.160   2.080   1.741
14326TIP3    H142923   7.101   2.085   1.666
14326TIP3    H242924   7.135   2.153   1.796
14327TIP3   OH242925   0.086   6.778   1.431
14327TIP3    H142926   0.017   6.752   1.492
14327TIP3    H242927   0.075   6.873   1.422
14328TIP3   OH242928   3.871   6.546   3.108
14328TIP3    H142929   3.823   6.501   3.177
14328TIP3    H242930   3.874   6.638   3.137
14329TIP3   OH242931   3.467   3.868   2.027
14329TIP3    H142932   3.539   3.893   2.085
14329TIP3    H242933   3.393   3.921   2.057
14330TIP3   OH242934   4.588   0.018   3.841
14330TIP3    H142935   4.604   0.062   3.924
14330TIP3    H242936   4.675  -0.003   3.807
14331TIP3   OH242937   6.698   4.375   2.819
14331TIP3    H142938   6.613   4.346   2.852
14331TIP3    H242939   6.700   4.469   2.836
14332TIP3   OH242940   3.174   2.106   1.504
14332TIP3    H142941   3.203   2.161   1.432
14332TIP3    H242942   3.235   2.032   1.506
14333TIP3   OH242943   1.038   1.107   5.768
14333TIP3    H142944   0.987   1.065   5.837
14333TIP3    H242945   1.105   1.157   5.815
14334TIP3   OH242946   5.042   0.117   4.586
14334TIP3    H142947   5.058   0.031   4.625
14334TIP3    H242948   5.096   0.117   4.506
14335TIP3   OH242949   3.177   7.357   1.519
14335TIP3    H142950   3.267   7.386   1.529
14335TIP3    H242951   3.184   7.269   1.482
14336TIP3   OH242952   3.620  -0.067   5.274
14336TIP3    H142953   3.543  -0.038   5.225
14336TIP3    H242954   3.690  -0.010   5.245
14337TIP3   OH242955   6.843   0.364  -0.048
14337TIP3    H142956   6.765   0.343   0.004
14337TIP3    H242957   6.915   0.359   0.015
14338TIP3   OH242958   4.820   1.472   5.442
14338TIP3    H142959   4.761   1.504   5.375
14338TIP3    H242960   4.784   1.506   5.524
14339TIP3   OH242961   8.247   0.960   4.085
14339TIP3    H142962   8.227   1.002   4.169
14339TIP3    H242963   8.251   1.032   4.022
14340TIP3   OH242964   7.758   7.099   5.133
14340TIP3    H142965   7.848   7.094   5.102
14340TIP3    H242966   7.707   7.128   5.057
14341TIP3   OH242967   3.931   1.977   3.305
14341TIP3    H142968   3.967   1.998   3.392
14341TIP3    H242969   3.951   1.884   3.293
14342TIP3   OH242970   6.446   5.859   5.176
14342TIP3    H142971   6.400   5.861   5.092
14342TIP3    H242972   6.383   5.821   5.237
14343TIP3   OH242973   3.318   7.322   5.923
14343TIP3    H142974   3.404   7.360   5.906
14343TIP3    H242975   3.259   7.369   5.864
14344TIP3   OH242976   6.898   1.047   6.402
14344TIP3    H142977   6.919   1.083   6.488
14344TIP3    H242978   6.972   0.992   6.381
14345TIP3   OH242979   5.397   4.839   5.552
14345TIP3    H142980   5.350   4.788   5.618
14345TIP3    H242981   5.475   4.872   5.597
14346TIP3   OH242982   2.464   7.804   2.396
14346TIP3    H142983   2.499   7.748   2.465
14346TIP3    H242984   2.539   7.823   2.340
14347TIP3   OH242985   7.863   4.246   0.357
14347TIP3    H142986   7.795   4.216   0.298
14347TIP3    H242987   7.816   4.276   0.435
14348TIP3   OH242988   3.195   2.088   6.643
14348TIP3    H142989   3.137   2.035   6.589
14348TIP3    H242990   3.282   2.052   6.627
14349TIP3   OH242991   2.987   5.417   5.185
14349TIP3    H142992   3.036   5.352   5.135
14349TIP3    H242993   2.995   5.498   5.134
14350TIP3   OH242994   2.344   0.396   5.067
14350TIP3    H142995   2.310   0.318   5.023
14350TIP3    H242996   2.398   0.439   5.001
14351TIP3   OH242997   0.122   0.758   2.806
14351TIP3    H142998   0.040   0.764   2.855
14351TIP3    H242999   0.134   0.665   2.790
14352TIP3   OH243000   5.458   3.638   0.492
14352TIP3    H143001   5.553   3.651   0.486
14352TIP3    H243002   5.426   3.664   0.405
14353TIP3   OH243003   7.785   5.285   3.754
14353TIP3    H143004   7.764   5.378   3.747
14353TIP3    H243005   7.879   5.280   3.734
14354TIP3   OH243006   3.697   2.887   0.621
14354TIP3    H143007   3.787   2.914   0.605
14354TIP3    H243008   3.689   2.882   0.716
14355TIP3   OH243009   4.160   6.749   5.700
14355TIP3    H143010   4.068   6.748   5.671
14355TIP3    H243011   4.172   6.665   5.744
14356TIP3   OH243012   1.725   5.910   4.296
14356TIP3    H143013   1.679   5.940   4.217
14356TIP3    H243014   1.800   5.861   4.262
14357TIP3   OH243015   0.226   1.387   4.955
14357TIP3    H143016   0.277   1.321   5.000
14357TIP3    H243017   0.135   1.362   4.969
14358TIP3   OH243018   3.146   2.270   6.195
14358TIP3    H143019   3.213   2.306   6.137
14358TIP3    H243020   3.140   2.178   6.172
14359TIP3   OH243021   6.530   6.781   3.281
14359TIP3    H143022   6.481   6.860   3.255
14359TIP3    H243023   6.620   6.799   3.253
14360TIP3   OH243024   5.190   1.245   6.328
14360TIP3    H143025   5.274   1.198   6.337
14360TIP3    H243026   5.124   1.181   6.355
14361TIP3   OH243027   0.686   6.375   6.200
14361TIP3    H143028   0.667   6.341   6.112
14361TIP3    H243029   0.609   6.351   6.252
14362TIP3   OH243030   7.020   1.736   6.341
14362TIP3    H143031   7.101   1.716   6.388
14362TIP3    H243032   6.967   1.656   6.351
14363TIP3   OH243033   3.600   6.734   2.106
14363TIP3    H143034   3.555   6.808   2.146
14363TIP3    H243035   3.693   6.750   2.124
14364TIP3   OH243036   8.243   2.733   1.056
14364TIP3    H143037   8.237   2.657   0.998
14364TIP3    H243038   8.261   2.806   0.997
14365TIP3   OH243039   0.233   5.605   3.258
14365TIP3    H143040   0.288   5.548   3.204
14365TIP3    H243041   0.246   5.574   3.347
14366TIP3   OH243042   7.465   2.957   1.220
14366TIP3    H143043   7.509   2.962   1.135
14366TIP3    H243044   7.536   2.957   1.284
14367TIP3   OH243045   2.122   7.423   4.101
14367TIP3    H143046   2.038   7.445   4.141
14367TIP3    H243047   2.132   7.329   4.117
14368TIP3   OH243048   7.767   5.608   4.016
14368TIP3    H143049   7.754   5.521   4.054
14368TIP3    H243050   7.856   5.606   3.980
14369TIP3   OH243051   1.055   5.628   2.559
14369TIP3    H143052   1.002   5.615   2.637
14369TIP3    H243053   1.031   5.715   2.528
14370TIP3   OH243054   4.327   5.203   1.906
14370TIP3    H143055   4.398   5.238   1.853
14370TIP3    H243056   4.338   5.245   1.992
14371TIP3   OH243057   7.369   6.191   3.107
14371TIP3    H143058   7.462   6.207   3.091
14371TIP3    H243059   7.325   6.232   3.032
14372TIP3   OH243060   1.517   0.285   6.169
14372TIP3    H143061   1.459   0.219   6.206
14372TIP3    H243062   1.514   0.270   6.074
14373TIP3   OH243063   7.103   4.497   6.708
14373TIP3    H143064   7.014   4.523   6.732
14373TIP3    H243065   7.154   4.510   6.787
14374TIP3   OH243066   0.543   6.087   3.499
14374TIP3    H143067   0.607   6.142   3.543
14374TIP3    H243068   0.578   5.998   3.508
14375TIP3   OH243069   5.043   0.811   0.432
14375TIP3    H143070   5.104   0.836   0.362
14375TIP3    H243071   5.025   0.892   0.479
14376TIP3   OH243072   1.541   4.991   2.943
14376TIP3    H143073   1.556   4.910   2.991
14376TIP3    H243074   1.471   4.970   2.881
14377TIP3   OH243075   5.912   1.484   3.543
14377TIP3    H143076   6.004   1.462   3.560
14377TIP3    H243077   5.873   1.401   3.516
14378TIP3   OH243078   1.809   7.786   1.911
14378TIP3    H143079   1.773   7.843   1.844
14378TIP3    H243080   1.904   7.795   1.904
14379TIP3   OH243081   7.010   6.932   3.704
14379TIP3    H143082   6.992   6.936   3.798
14379TIP3    H243083   6.968   7.010   3.668
14380TIP3   OH243084   2.313   6.415   0.033
14380TIP3    H143085   2.386   6.417  -0.029
14380TIP3    H243086   2.309   6.505   0.067
14381TIP3   OH243087   1.734   1.620   3.499
14381TIP3    H143088   1.730   1.675   3.421
14381TIP3    H243089   1.644   1.617   3.531
14382TIP3   OH243090   3.648   6.406   5.307
14382TIP3    H143091   3.614   6.491   5.279
14382TIP3    H243092   3.620   6.397   5.398
14383TIP3   OH243093   8.120   4.160   5.355
14383TIP3    H143094   8.175   4.225   5.311
14383TIP3    H243095   8.061   4.128   5.288
14384TIP3   OH243096   1.115   5.639   5.778
14384TIP3    H143097   1.119   5.728   5.744
14384TIP3    H243098   1.061   5.646   5.857
14385TIP3   OH243099   3.977   1.186   6.380
14385TIP3    H143100   3.882   1.197   6.388
14385TIP3    H243101   3.988   1.096   6.349
14386TIP3   OH243102   6.344   3.646   3.918
14386TIP3    H143103   6.344   3.626   3.824
14386TIP3    H243104   6.305   3.732   3.924
14387TIP3   OH243105   4.728   4.065   1.982
14387TIP3    H143106   4.744   4.158   1.994
14387TIP3    H243107   4.649   4.061   1.928
14388TIP3   OH243108   4.851   6.845   2.872
14388TIP3    H143109   4.789   6.774   2.861
14388TIP3    H243110   4.935   6.802   2.888
14389TIP3   OH243111   3.259   2.602   0.643
14389TIP3    H143112   3.314   2.606   0.565
14389TIP3    H243113   3.312   2.642   0.712
14390TIP3   OH243114   7.417   1.026   6.004
14390TIP3    H143115   7.385   1.063   6.086
14390TIP3    H243116   7.339   1.012   5.951
14391TIP3   OH243117   1.827   2.994   2.335
14391TIP3    H143118   1.749   2.982   2.281
14391TIP3    H243119   1.828   2.919   2.394
14392TIP3   OH243120   3.569   6.911   0.290
14392TIP3    H143121   3.580   6.927   0.383
14392TIP3    H243122   3.586   6.818   0.279
14393TIP3   OH243123   3.894   6.535   1.283
14393TIP3    H143124   3.922   6.559   1.194
14393TIP3    H243125   3.800   6.554   1.284
14394TIP3   OH243126   4.378   2.108   5.192
14394TIP3    H143127   4.365   2.067   5.278
14394TIP3    H243128   4.345   2.198   5.205
14395TIP3   OH243129   6.302   2.451   5.588
14395TIP3    H143130   6.295   2.533   5.538
14395TIP3    H243131   6.317   2.479   5.678
14396TIP3   OH243132   0.942   5.658   5.214
14396TIP3    H143133   0.899   5.669   5.299
14396TIP3    H243134   0.873   5.675   5.150
14397TIP3   OH243135   1.399   1.742   6.467
14397TIP3    H143136   1.386   1.828   6.509
14397TIP3    H243137   1.460   1.759   6.396
14398TIP3   OH243138   4.837   0.566   2.190
14398TIP3    H143139   4.831   0.661   2.198
14398TIP3    H243140   4.869   0.552   2.101
14399TIP3   OH243141   2.490   3.627   5.726
14399TIP3    H143142   2.401   3.661   5.733
14399TIP3    H243143   2.483   3.536   5.752
14400TIP3   OH243144   1.452   0.271   5.705
14400TIP3    H143145   1.522   0.263   5.641
14400TIP3    H243146   1.416   0.359   5.692
14401TIP3   OH243147   5.172   4.020   5.819
14401TIP3    H143148   5.252   3.968   5.810
14401TIP3    H243149   5.201   4.102   5.860
14402TIP3   OH243150   3.900   3.789   0.425
14402TIP3    H143151   3.952   3.708   0.429
14402TIP3    H243152   3.833   3.777   0.492
14403TIP3   OH243153   1.483   0.865   3.570
14403TIP3    H143154   1.418   0.795   3.577
14403TIP3    H243155   1.546   0.832   3.506
14404TIP3   OH243156   2.015   5.937   0.513
14404TIP3    H143157   2.093   5.935   0.569
14404TIP3    H243158   1.981   5.847   0.517
14405TIP3   OH243159   2.158  -0.025   3.038
14405TIP3    H143160   2.075   0.021   3.028
14405TIP3    H243161   2.197  -0.024   2.951
14406TIP3   OH243162   7.509   1.490   1.881
14406TIP3    H143163   7.500   1.458   1.791
14406TIP3    H243164   7.573   1.560   1.875
14407TIP3   OH243165   6.380   5.537   1.732
14407TIP3    H143166   6.358   5.521   1.823
14407TIP3    H243167   6.313   5.489   1.682
14408TIP3   OH243168   5.213   5.185   3.463
14408TIP3    H143169   5.182   5.256   3.519
14408TIP3    H243170   5.134   5.155   3.417
14409TIP3   OH243171   6.545   1.689   2.610
14409TIP3    H143172   6.612   1.647   2.665
14409TIP3    H243173   6.467   1.635   2.622
14410TIP3   OH243174   0.255   7.078   1.085
14410TIP3    H143175   0.183   7.016   1.098
14410TIP3    H243176   0.325   7.046   1.141
14411TIP3   OH243177   2.636   0.804   0.626
14411TIP3    H143178   2.661   0.803   0.534
14411TIP3    H243179   2.719   0.803   0.673
14412TIP3   OH243180   1.289   1.102   3.030
14412TIP3    H143181   1.237   1.024   3.051
14412TIP3    H243182   1.236   1.175   3.062
14413TIP3   OH243183   8.184   5.362   4.340
14413TIP3    H143184   8.137   5.442   4.315
14413TIP3    H243185   8.239   5.388   4.413
14414TIP3   OH243186   0.560   6.300   2.192
14414TIP3    H143187   0.479   6.345   2.212
14414TIP3    H243188   0.596   6.348   2.116
14415TIP3   OH243189   1.679   5.876   6.791
14415TIP3    H143190   1.691   5.873   6.696
14415TIP3    H243191   1.612   5.942   6.805
14416TIP3   OH243192   0.548   6.589   1.683
14416TIP3    H143193   0.547   6.650   1.757
14416TIP3    H243194   0.475   6.616   1.628
14417TIP3   OH243195   5.714   3.035   0.734
14417TIP3    H143196   5.645   3.000   0.791
14417TIP3    H243197   5.721   3.127   0.759
14418TIP3   OH243198   8.286   6.749   0.827
14418TIP3    H143199   8.274   6.745   0.732
14418TIP3    H243200   8.371   6.791   0.839
14419TIP3   OH243201   1.239   4.182   1.258
14419TIP3    H143202   1.163   4.158   1.204
14419TIP3    H243203   1.298   4.227   1.198
14420TIP3   OH243204   4.243   4.734   2.579
14420TIP3    H143205   4.224   4.694   2.665
14420TIP3    H243206   4.285   4.664   2.529
14421TIP3   OH243207   3.396   6.405   2.497
14421TIP3    H143208   3.331   6.352   2.542
14421TIP3    H243209   3.362   6.416   2.409
14422TIP3   OH243210   7.769   1.984   1.607
14422TIP3    H143211   7.727   2.007   1.524
14422TIP3    H243212   7.776   2.066   1.655
14423TIP3   OH243213   4.311   4.973   4.373
14423TIP3    H143214   4.397   4.935   4.360
14423TIP3    H243215   4.257   4.934   4.303
14424TIP3   OH243216   5.238   5.326   4.237
14424TIP3    H143217   5.275   5.395   4.182
14424TIP3    H243218   5.204   5.371   4.314
14425TIP3   OH243219   4.659   1.567   5.645
14425TIP3    H143220   4.646   1.638   5.708
14425TIP3    H243221   4.595   1.501   5.670
14426TIP3   OH243222   0.830   7.379   6.022
14426TIP3    H143223   0.874   7.299   6.049
14426TIP3    H243224   0.863   7.446   6.082
14427TIP3   OH243225   3.554   7.514   1.752
14427TIP3    H143226   3.500   7.567   1.810
14427TIP3    H243227   3.553   7.427   1.791
14428TIP3   OH243228   6.396   7.508   3.909
14428TIP3    H143229   6.479   7.542   3.944
14428TIP3    H243230   6.421   7.431   3.858
14429TIP3   OH243231   5.100   6.104   4.248
14429TIP3    H143232   5.073   6.060   4.168
14429TIP3    H243233   5.194   6.116   4.239
14430TIP3   OH243234   4.754   1.597   2.368
14430TIP3    H143235   4.759   1.668   2.431
14430TIP3    H243236   4.839   1.553   2.375
14431TIP3   OH243237   2.500   3.638   0.380
14431TIP3    H143238   2.488   3.612   0.288
14431TIP3    H243239   2.587   3.678   0.382
14432TIP3   OH243240   5.473   0.370   4.367
14432TIP3    H143241   5.413   0.334   4.301
14432TIP3    H243242   5.456   0.464   4.366
14433TIP3   OH243243   2.373   2.409   6.083
14433TIP3    H143244   2.339   2.409   5.994
14433TIP3    H243245   2.448   2.468   6.080
14434TIP3   OH243246   4.569   1.111   3.092
14434TIP3    H143247   4.551   1.090   3.184
14434TIP3    H243248   4.488   1.151   3.061
14435TIP3   OH243249   2.959   4.383   5.478
14435TIP3    H143250   3.031   4.396   5.416
14435TIP3    H243251   2.958   4.463   5.531
14436TIP3   OH243252   4.654   2.735   6.321
14436TIP3    H143253   4.571   2.688   6.323
14436TIP3    H243254   4.654   2.779   6.236
14437TIP3   OH243255   2.828   6.721   6.014
14437TIP3    H143256   2.908   6.761   6.048
14437TIP3    H243257   2.763   6.791   6.016
14438TIP3   OH243258   7.752   6.907   2.432
14438TIP3    H143259   7.730   6.958   2.509
14438TIP3    H243260   7.674   6.912   2.376
14439TIP3   OH243261   5.522   3.888   3.238
14439TIP3    H143262   5.571   3.929   3.309
14439TIP3    H243263   5.588   3.864   3.173
14440TIP3   OH243264   1.701   1.588   2.840
14440TIP3    H143265   1.634   1.644   2.880
14440TIP3    H243266   1.681   1.500   2.872
14441TIP3   OH243267   1.485   6.348   2.033
14441TIP3    H143268   1.453   6.289   2.101
14441TIP3    H243269   1.439   6.430   2.049
14442TIP3   OH243270   3.554   5.875   2.695
14442TIP3    H143271   3.634   5.836   2.661
14442TIP3    H243272   3.540   5.833   2.780
14443TIP3   OH243273   6.645   2.204   3.338
14443TIP3    H143274   6.603   2.119   3.346
14443TIP3    H243275   6.663   2.214   3.244
14444TIP3   OH243276   7.446   4.704   0.254
14444TIP3    H143277   7.415   4.742   0.336
14444TIP3    H243278   7.372   4.713   0.194
14445TIP3   OH243279   7.685   7.684   6.178
14445TIP3    H143280   7.638   7.620   6.125
14445TIP3    H243281   7.640   7.767   6.159
14446TIP3   OH243282   3.646   0.774   3.583
14446TIP3    H143283   3.710   0.703   3.579
14446TIP3    H243284   3.600   0.769   3.499
14447TIP3   OH243285   8.251   2.803   0.188
14447TIP3    H143286   8.282   2.850   0.265
14447TIP3    H243287   8.284   2.714   0.199
14448TIP3   OH243288   7.169   3.141   1.425
14448TIP3    H143289   7.102   3.138   1.493
14448TIP3    H243290   7.165   3.055   1.383
14449TIP3   OH243291   4.285   4.557   3.510
14449TIP3    H143292   4.203   4.509   3.523
14449TIP3    H243293   4.258   4.639   3.469
14450TIP3   OH243294   2.838   4.009   0.905
14450TIP3    H143295   2.802   3.975   0.986
14450TIP3    H243296   2.932   4.015   0.922
14451TIP3   OH243297   6.168   5.718   2.551
14451TIP3    H143298   6.088   5.665   2.549
14451TIP3    H243299   6.191   5.721   2.644
14452TIP3   OH243300   4.150   3.513   0.631
14452TIP3    H143301   4.175   3.527   0.539
14452TIP3    H243302   4.204   3.440   0.659
14453TIP3   OH243303   4.275   6.998   5.126
14453TIP3    H143304   4.240   7.069   5.072
14453TIP3    H243305   4.197   6.955   5.162
14454TIP3   OH243306   7.980   6.633   5.470
14454TIP3    H143307   7.987   6.667   5.559
14454TIP3    H243308   7.886   6.615   5.459
14455TIP3   OH243309   4.892   2.911   0.935
14455TIP3    H143310   4.980   2.873   0.928
14455TIP3    H243311   4.862   2.920   0.845
14456TIP3   OH243312   5.667   1.732   1.209
14456TIP3    H143313   5.744   1.676   1.217
14456TIP3    H243314   5.603   1.694   1.270
14457TIP3   OH243315   5.055   4.075   6.730
14457TIP3    H143316   5.026   4.093   6.640
14457TIP3    H243317   5.022   3.987   6.748
14458TIP3   OH243318   8.131   0.837   4.602
14458TIP3    H143319   8.050   0.889   4.608
14458TIP3    H243320   8.177   0.855   4.683
14459TIP3   OH243321   3.004   4.370   2.586
14459TIP3    H143322   3.065   4.299   2.607
14459TIP3    H243323   2.944   4.332   2.522
14460TIP3   OH243324   7.553   6.552   3.615
14460TIP3    H143325   7.506   6.585   3.538
14460TIP3    H243326   7.488   6.549   3.684
14461TIP3   OH243327   4.192   1.912   4.195
14461TIP3    H143328   4.147   1.890   4.114
14461TIP3    H243329   4.229   1.999   4.179
14462TIP3   OH243330   4.742   2.384   4.525
14462TIP3    H143331   4.821   2.428   4.556
14462TIP3    H243332   4.687   2.376   4.603
14463TIP3   OH243333   0.093   4.316   5.596
14463TIP3    H143334   0.170   4.322   5.653
14463TIP3    H243335   0.126   4.278   5.515
14464TIP3   OH243336   4.185   6.845   3.819
14464TIP3    H143337   4.119   6.847   3.888
14464TIP3    H243338   4.138   6.822   3.740
14465TIP3   OH243339   2.623   5.652   2.355
14465TIP3    H143340   2.593   5.717   2.291
14465TIP3    H243341   2.649   5.577   2.303
14466TIP3   OH243342   0.990   6.373   5.017
14466TIP3    H143343   0.912   6.345   4.968
14466TIP3    H243344   0.982   6.468   5.021
14467TIP3   OH243345   0.712   1.175   3.686
14467TIP3    H143346   0.622   1.178   3.654
14467TIP3    H243347   0.725   1.083   3.710
14468TIP3   OH243348   4.341   2.145   1.476
14468TIP3    H143349   4.309   2.061   1.509
14468TIP3    H243350   4.263   2.189   1.444
14469TIP3   OH243351   5.291   5.195   5.006
14469TIP3    H143352   5.222   5.173   5.068
14469TIP3    H243353   5.271   5.142   4.928
14470TIP3   OH243354   7.767   3.178   0.688
14470TIP3    H143355   7.724   3.247   0.739
14470TIP3    H243356   7.841   3.150   0.742
14471TIP3   OH243357   4.427   6.940   1.043
14471TIP3    H143358   4.393   7.029   1.039
14471TIP3    H243359   4.352   6.887   1.070
14472TIP3   OH243360   6.665   0.044   2.337
14472TIP3    H143361   6.582   0.090   2.347
14472TIP3    H243362   6.647  -0.045   2.367
14473TIP3   OH243363   5.362   1.156   0.953
14473TIP3    H143364   5.386   1.243   0.987
14473TIP3    H243365   5.267   1.160   0.942
14474TIP3   OH243366   5.087   2.525   0.375
14474TIP3    H143367   5.181   2.534   0.359
14474TIP3    H243368   5.068   2.435   0.348
14475TIP3   OH243369   2.650   7.593   1.189
14475TIP3    H143370   2.729   7.583   1.241
14475TIP3    H243371   2.650   7.518   1.130
14476TIP3   OH243372   0.642   6.768   4.430
14476TIP3    H143373   0.643   6.828   4.505
14476TIP3    H243374   0.610   6.821   4.357
14477TIP3   OH243375   7.173   7.187   6.014
14477TIP3    H143376   7.113   7.112   6.009
14477TIP3    H243377   7.134   7.245   6.079
14478TIP3   OH243378   6.978   1.665   4.728
14478TIP3    H143379   6.956   1.755   4.702
14478TIP3    H243380   7.012   1.674   4.817
14479TIP3   OH243381   0.612   2.937   4.761
14479TIP3    H143382   0.569   2.919   4.677
14479TIP3    H243383   0.668   2.860   4.776
14480TIP3   OH243384   2.551   0.814   3.613
14480TIP3    H143385   2.593   0.878   3.555
14480TIP3    H243386   2.623   0.765   3.651
14481TIP3   OH243387   3.637   0.994   6.637
14481TIP3    H143388   3.641   0.944   6.556
14481TIP3    H243389   3.613   0.931   6.705
14482TIP3   OH243390   7.728   4.374   3.546
14482TIP3    H143391   7.733   4.453   3.492
14482TIP3    H243392   7.779   4.396   3.625
14483TIP3   OH243393   5.556   6.644   4.372
14483TIP3    H143394   5.640   6.603   4.354
14483TIP3    H243395   5.509   6.578   4.424
14484TIP3   OH243396   7.286   2.686   2.459
14484TIP3    H143397   7.256   2.674   2.549
14484TIP3    H243398   7.265   2.778   2.439
14485TIP3   OH243399   3.033   3.940   4.668
14485TIP3    H143400   3.095   3.917   4.599
14485TIP3    H243401   2.993   4.021   4.638
14486TIP3   OH243402   3.355   7.007   0.942
14486TIP3    H143403   3.449   7.011   0.927
14486TIP3    H243404   3.346   7.023   1.036
14487TIP3   OH243405   0.505   6.091   5.096
14487TIP3    H143406   0.483   6.035   5.171
14487TIP3    H243407   0.600   6.084   5.087
14488TIP3   OH243408   7.755   4.375   3.161
14488TIP3    H143409   7.698   4.338   3.094
14488TIP3    H243410   7.695   4.408   3.228
14489TIP3   OH243411   4.021   0.709   2.628
14489TIP3    H143412   4.068   0.778   2.676
14489TIP3    H243413   3.948   0.755   2.587
14490TIP3   OH243414   4.644   6.171   0.347
14490TIP3    H143415   4.736   6.177   0.320
14490TIP3    H243416   4.595   6.211   0.275
14491TIP3   OH243417   3.748   4.975   1.111
14491TIP3    H143418   3.706   4.961   1.026
14491TIP3    H243419   3.753   4.887   1.150
14492TIP3   OH243420   1.027   3.435   4.170
14492TIP3    H143421   1.053   3.344   4.157
14492TIP3    H243422   0.954   3.448   4.110
14493TIP3   OH243423   7.140   7.019   3.447
14493TIP3    H143424   7.121   6.978   3.532
14493TIP3    H243425   7.136   7.113   3.464
14494TIP3   OH243426   6.761   5.533   1.344
14494TIP3    H143427   6.669   5.556   1.338
14494TIP3    H243428   6.791   5.573   1.426
14495TIP3   OH243429   3.269   2.277   0.391
14495TIP3    H143430   3.175   2.274   0.410
14495TIP3    H243431   3.281   2.359   0.344
14496TIP3   OH243432   5.356   4.017   0.427
14496TIP3    H143433   5.357   4.103   0.469
14496TIP3    H243434   5.432   4.018   0.369
14497TIP3   OH243435   8.044   5.526   4.616
14497TIP3    H143436   8.053   5.500   4.708
14497TIP3    H243437   7.992   5.455   4.576
14498TIP3   OH243438   7.289   2.727   4.805
14498TIP3    H143439   7.247   2.716   4.719
14498TIP3    H243440   7.322   2.639   4.827
14499TIP3   OH243441   8.152   3.082   6.667
14499TIP3    H143442   8.075   3.064   6.721
14499TIP3    H243443   8.220   3.024   6.702
14500TIP3   OH243444   1.035   6.574   2.195
14500TIP3    H143445   0.948   6.609   2.173
14500TIP3    H243446   1.053   6.511   2.125
14501TIP3   OH243447   6.591   7.549   6.032
14501TIP3    H143448   6.520   7.487   6.017
14501TIP3    H243449   6.561   7.631   5.992
14502TIP3   OH243450   0.301   1.640   2.618
14502TIP3    H143451   0.347   1.556   2.618
14502TIP3    H243452   0.232   1.629   2.683
14503TIP3   OH243453   0.979   6.458   3.653
14503TIP3    H143454   0.996   6.451   3.747
14503TIP3    H243455   1.002   6.548   3.631
14504TIP3   OH243456   1.956   5.503   3.710
14504TIP3    H143457   2.021   5.523   3.778
14504TIP3    H243458   1.917   5.420   3.738
14505TIP3   OH243459   0.253   5.104   2.532
14505TIP3    H143460   0.220   5.026   2.488
14505TIP3    H243461   0.338   5.122   2.490
14506TIP3   OH243462   5.749   6.781   1.901
14506TIP3    H143463   5.746   6.869   1.863
14506TIP3    H243464   5.674   6.779   1.961
14507TIP3   OH243465   3.015   3.688   5.130
14507TIP3    H143466   3.005   3.689   5.225
14507TIP3    H243467   2.938   3.736   5.097
14508TIP3   OH243468   6.311   7.500   5.025
14508TIP3    H143469   6.292   7.433   4.959
14508TIP3    H243470   6.378   7.460   5.081
14509TIP3   OH243471   4.289   6.420   2.713
14509TIP3    H143472   4.253   6.331   2.709
14509TIP3    H243473   4.349   6.419   2.787
14510TIP3   OH243474   6.577   1.774   6.487
14510TIP3    H143475   6.630   1.832   6.433
14510TIP3    H243476   6.639   1.711   6.523
14511TIP3   OH243477   3.336   4.788   3.844
14511TIP3    H143478   3.422   4.830   3.836
14511TIP3    H243479   3.289   4.843   3.907
14512TIP3   OH243480   5.564   5.438   6.120
14512TIP3    H143481   5.634   5.487   6.077
14512TIP3    H243482   5.607   5.396   6.194
14513TIP3   OH243483   5.078   4.328   5.393
14513TIP3    H143484   5.102   4.354   5.304
14513TIP3    H243485   5.042   4.239   5.383
14514TIP3   OH243486   4.906   2.967   5.677
14514TIP3    H143487   4.943   3.014   5.752
14514TIP3    H243488   4.828   2.924   5.712
14515TIP3   OH243489   5.319   2.836   1.181
14515TIP3    H143490   5.367   2.830   1.263
14515TIP3    H243491   5.326   2.749   1.143
14516TIP3   OH243492   1.221   2.985   5.365
14516TIP3    H143493   1.177   2.971   5.449
14516TIP3    H243494   1.178   2.924   5.305
14517TIP3   OH243495   4.407   5.560   5.761
14517TIP3    H143496   4.484   5.608   5.791
14517TIP3    H243497   4.342   5.628   5.741
14518TIP3   OH243498   6.289   0.196   5.113
14518TIP3    H143499   6.218   0.255   5.087
14518TIP3    H243500   6.330   0.239   5.187
14519TIP3   OH243501   2.897   3.908   6.080
14519TIP3    H143502   2.917   3.818   6.108
14519TIP3    H243503   2.931   3.963   6.150
14520TIP3   OH243504   2.264   6.424   4.583
14520TIP3    H143505   2.196   6.374   4.537
14520TIP3    H243506   2.305   6.477   4.514
14521TIP3   OH243507   7.605   4.540   1.131
14521TIP3    H143508   7.543   4.512   1.063
14521TIP3    H243509   7.608   4.636   1.121
14522TIP3   OH243510   2.815   3.201   5.685
14522TIP3    H143511   2.825   3.258   5.761
14522TIP3    H243512   2.762   3.252   5.624
14523TIP3   OH243513   4.407   6.368   5.062
14523TIP3    H143514   4.500   6.386   5.045
14523TIP3    H243515   4.395   6.278   5.034
14524TIP3   OH243516   0.521   7.680   1.900
14524TIP3    H143517   0.563   7.754   1.857
14524TIP3    H243518   0.427   7.698   1.893
14525TIP3   OH243519   0.138   1.265   2.924
14525TIP3    H143520   0.234   1.267   2.917
14525TIP3    H243521   0.119   1.302   3.010
14526TIP3   OH243522   3.248   4.253   0.274
14526TIP3    H143523   3.160   4.288   0.293
14526TIP3    H243524   3.240   4.214   0.187
14527TIP3   OH243525   0.006   3.412   4.842
14527TIP3    H143526   0.078   3.385   4.786
14527TIP3    H243527   0.033   3.497   4.877
14528TIP3   OH243528   5.392   7.703   5.334
14528TIP3    H143529   5.359   7.735   5.250
14528TIP3    H243530   5.460   7.640   5.311
14529TIP3   OH243531   2.372   5.201   2.527
14529TIP3    H143532   2.286   5.194   2.486
14529TIP3    H243533   2.411   5.280   2.490
14530TIP3   OH243534   3.023   6.015   3.677
14530TIP3    H143535   2.977   6.096   3.700
14530TIP3    H243536   3.103   6.044   3.633
14531TIP3   OH243537   3.174   3.509   4.687
14531TIP3    H143538   3.119   3.480   4.614
14531TIP3    H243539   3.111   3.536   4.755
14532TIP3   OH243540   0.899   6.031   5.587
14532TIP3    H143541   0.960   6.085   5.537
14532TIP3    H243542   0.816   6.040   5.541
14533TIP3   OH243543   1.795   3.244   0.417
14533TIP3    H143544   1.766   3.162   0.377
14533TIP3    H243545   1.752   3.312   0.366
14534TIP3   OH243546   3.371   7.677   0.801
14534TIP3    H143547   3.298   7.718   0.848
14534TIP3    H243548   3.427   7.751   0.776
14535TIP3   OH243549   0.384   7.404   5.153
14535TIP3    H143550   0.408   7.327   5.101
14535TIP3    H243551   0.315   7.373   5.211
14536TIP3   OH243552   5.698   4.058   6.201
14536TIP3    H143553   5.677   4.097   6.286
14536TIP3    H243554   5.694   4.131   6.139
14537TIP3   OH243555   0.511   5.474   5.444
14537TIP3    H143556   0.593   5.470   5.493
14537TIP3    H243557   0.534   5.448   5.355
14538TIP3   OH243558   3.437   0.524   1.880
14538TIP3    H143559   3.446   0.596   1.943
14538TIP3    H243560   3.451   0.565   1.794
14539TIP3   OH243561   3.734   0.221   0.446
14539TIP3    H143562   3.822   0.246   0.417
14539TIP3    H243563   3.717   0.276   0.522
14540TIP3   OH243564   7.414   0.566   5.717
14540TIP3    H143565   7.445   0.504   5.783
14540TIP3    H243566   7.341   0.612   5.760
14541TIP3   OH243567   7.551   5.518   5.654
14541TIP3    H143568   7.519   5.587   5.711
14541TIP3    H243569   7.522   5.437   5.695
14542TIP3   OH243570   0.014   4.102   2.216
14542TIP3    H143571   0.075   4.052   2.270
14542TIP3    H243572  -0.053   4.133   2.278
14543TIP3   OH243573   0.101   0.798   3.325
14543TIP3    H143574   0.157   0.727   3.356
14543TIP3    H243575   0.014   0.759   3.318
14544TIP3   OH243576   5.323   2.990   2.275
14544TIP3    H143577   5.373   3.023   2.349
14544TIP3    H243578   5.370   3.021   2.198
14545TIP3   OH243579   3.262   6.404   0.424
14545TIP3    H143580   3.315   6.432   0.350
14545TIP3    H243581   3.318   6.341   0.470
14546TIP3   OH243582   1.028   6.809   1.577
14546TIP3    H143583   0.997   6.895   1.549
14546TIP3    H243584   1.073   6.825   1.660
14547TIP3   OH243585   0.417   0.712   0.962
14547TIP3    H143586   0.414   0.789   1.019
14547TIP3    H243587   0.509   0.704   0.938
14548TIP3   OH243588   0.157   3.641   1.315
14548TIP3    H143589   0.077   3.592   1.300
14548TIP3    H243590   0.128   3.732   1.328
14549TIP3   OH243591   7.255   6.740   2.239
14549TIP3    H143592   7.186   6.682   2.272
14549TIP3    H243593   7.323   6.681   2.208
14550TIP3   OH243594   0.430   1.364   2.939
14550TIP3    H143595   0.464   1.409   3.016
14550TIP3    H243596   0.490   1.291   2.926
14551TIP3   OH243597   4.466   0.604   0.996
14551TIP3    H143598   4.400   0.674   0.998
14551TIP3    H243599   4.418   0.525   1.018
14552TIP3   OH243600   3.585   4.966   5.785
14552TIP3    H143601   3.629   5.021   5.850
14552TIP3    H243602   3.639   4.887   5.781
14553TIP3   OH243603   3.268   5.837   3.682
14553TIP3    H143604   3.208   5.762   3.677
14553TIP3    H243605   3.235   5.899   3.618
14554TIP3   OH243606   1.997   1.163   1.128
14554TIP3    H143607   1.996   1.165   1.224
14554TIP3    H243608   1.928   1.224   1.102
14555TIP3   OH243609   6.633   2.536   6.472
14555TIP3    H143610   6.713   2.538   6.526
14555TIP3    H243611   6.631   2.447   6.437
14556TIP3   OH243612   4.336   0.394   0.176
14556TIP3    H143613   4.255   0.441   0.155
14556TIP3    H243614   4.369   0.438   0.254
14557TIP3   OH243615   7.971   4.016   6.657
14557TIP3    H143616   7.895   4.056   6.700
14557TIP3    H243617   7.936   3.976   6.578
14558TIP3   OH243618   0.121   7.561   3.776
14558TIP3    H143619   0.215   7.574   3.765
14558TIP3    H243620   0.111   7.532   3.867
14559TIP3   OH243621   3.341   3.247   6.563
14559TIP3    H143622   3.282   3.295   6.621
14559TIP3    H243623   3.428   3.281   6.585
14560TIP3   OH243624   3.749   7.756   2.910
14560TIP3    H143625   3.832   7.797   2.934
14560TIP3    H243626   3.685   7.794   2.970
14561TIP3   OH243627   5.462   4.330   3.434
14561TIP3    H143628   5.421   4.406   3.393
14561TIP3    H243629   5.438   4.257   3.377
14562TIP3   OH243630   0.927   3.478   6.217
14562TIP3    H143631   0.842   3.473   6.262
14562TIP3    H243632   0.984   3.421   6.268
14563TIP3   OH243633   3.176   0.049   4.230
14563TIP3    H143634   3.218   0.074   4.147
14563TIP3    H243635   3.195   0.123   4.289
14564TIP3   OH243636   5.957   1.735   4.767
14564TIP3    H143637   6.019   1.792   4.722
14564TIP3    H243638   5.931   1.670   4.701
14565TIP3   OH243639   5.772   0.946   4.396
14565TIP3    H143640   5.794   0.876   4.335
14565TIP3    H243641   5.734   0.901   4.471
14566TIP3   OH243642   3.268   4.681   4.151
14566TIP3    H143643   3.278   4.586   4.159
14566TIP3    H243644   3.180   4.693   4.115
14567TIP3   OH243645   5.188   0.037   6.445
14567TIP3    H143646   5.216   0.039   6.537
14567TIP3    H243647   5.094   0.019   6.449
14568TIP3   OH243648   1.536   3.956   1.591
14568TIP3    H143649   1.546   3.861   1.595
14568TIP3    H243650   1.480   3.970   1.515
14569TIP3   OH243651   2.453   3.473   4.505
14569TIP3    H143652   2.456   3.481   4.600
14569TIP3    H243653   2.441   3.562   4.473
14570TIP3   OH243654   3.406   5.581   6.229
14570TIP3    H143655   3.493   5.543   6.237
14570TIP3    H243656   3.347   5.506   6.229
14571TIP3   OH243657   2.230   5.311   6.073
14571TIP3    H143658   2.191   5.244   6.016
14571TIP3    H243659   2.226   5.392   6.021
14572TIP3   OH243660   2.064   6.326   2.878
14572TIP3    H143661   2.157   6.338   2.861
14572TIP3    H243662   2.020   6.373   2.807
14573TIP3   OH243663   4.975   2.373   3.485
14573TIP3    H143664   4.963   2.464   3.458
14573TIP3    H243665   5.009   2.330   3.407
14574TIP3   OH243666   2.602   2.421   1.893
14574TIP3    H143667   2.614   2.511   1.863
14574TIP3    H243668   2.681   2.401   1.942
14575TIP3   OH243669   6.750   4.734   3.863
14575TIP3    H143670   6.682   4.677   3.897
14575TIP3    H243671   6.718   4.762   3.777
14576TIP3   OH243672   3.084   3.538   0.401
14576TIP3    H143673   3.116   3.449   0.413
14576TIP3    H243674   3.162   3.587   0.372
14577TIP3   OH243675   2.346   7.182   6.630
14577TIP3    H143676   2.407   7.114   6.602
14577TIP3    H243677   2.330   7.235   6.552
14578TIP3   OH243678   1.180   1.016   0.574
14578TIP3    H143679   1.102   0.974   0.612
14578TIP3    H243680   1.187   1.100   0.619
14579TIP3   OH243681   5.284   2.588   2.876
14579TIP3    H143682   5.198   2.613   2.843
14579TIP3    H243683   5.288   2.493   2.864
14580TIP3   OH243684   7.866   7.050   3.504
14580TIP3    H143685   7.861   7.131   3.454
14580TIP3    H243686   7.847   7.076   3.594
14581TIP3   OH243687   1.846   0.539   4.245
14581TIP3    H143688   1.940   0.552   4.259
14581TIP3    H243689   1.804   0.584   4.318
14582TIP3   OH243690   3.575   5.513   0.670
14582TIP3    H143691   3.609   5.452   0.605
14582TIP3    H243692   3.480   5.497   0.670
14583TIP3   OH243693   7.471   1.237   4.990
14583TIP3    H143694   7.488   1.277   4.904
14583TIP3    H243695   7.382   1.264   5.011
14584TIP3   OH243696   5.953   5.973   6.575
14584TIP3    H143697   5.984   5.906   6.513
14584TIP3    H243698   5.866   5.943   6.600
14585TIP3   OH243699   6.409   3.464   5.014
14585TIP3    H143700   6.338   3.506   5.064
14585TIP3    H243701   6.426   3.525   4.942
14586TIP3   OH243702   5.910   6.249   6.625
14586TIP3    H143703   5.923   6.155   6.638
14586TIP3    H243704   5.971   6.273   6.555
14587TIP3   OH243705   6.069   6.033   3.789
14587TIP3    H143706   6.092   6.009   3.699
14587TIP3    H243707   5.973   6.031   3.791
14588TIP3   OH243708   6.637   7.569   0.470
14588TIP3    H143709   6.593   7.640   0.422
14588TIP3    H243710   6.713   7.547   0.416
14589TIP3   OH243711   3.301   1.040   4.892
14589TIP3    H143712   3.287   1.007   4.803
14589TIP3    H243713   3.215   1.071   4.920
14590TIP3   OH243714   4.746   5.720   3.561
14590TIP3    H143715   4.796   5.793   3.525
14590TIP3    H243716   4.658   5.731   3.526
14591TIP3   OH243717   6.813   7.556   4.710
14591TIP3    H143718   6.724   7.562   4.676
14591TIP3    H243719   6.809   7.599   4.795
14592TIP3   OH243720   2.271   5.635   2.376
14592TIP3    H143721   2.351   5.654   2.328
14592TIP3    H243722   2.219   5.581   2.317
14593TIP3   OH243723   5.296   0.267   0.262
14593TIP3    H143724   5.302   0.198   0.196
14593TIP3    H243725   5.257   0.341   0.216
14594TIP3   OH243726   8.082   6.509   1.351
14594TIP3    H143727   8.117   6.458   1.423
14594TIP3    H243728   8.108   6.599   1.369
14595TIP3   OH243729   7.154   2.270   0.256
14595TIP3    H143730   7.172   2.178   0.234
14595TIP3    H243731   7.132   2.310   0.172
14596TIP3   OH243732   2.431   7.045   6.210
14596TIP3    H143733   2.417   7.120   6.269
14596TIP3    H243734   2.408   7.078   6.123
14597TIP3   OH243735   6.714   0.328   4.153
14597TIP3    H143736   6.688   0.236   4.157
14597TIP3    H243737   6.708   0.359   4.243
14598TIP3   OH243738   1.185   3.176   0.395
14598TIP3    H143739   1.239   3.098   0.405
14598TIP3    H243740   1.116   3.151   0.334
14599TIP3   OH243741   5.824   2.035   3.415
14599TIP3    H143742   5.887   1.967   3.440
14599TIP3    H243743   5.860   2.116   3.452
14600TIP3   OH243744   1.107   2.603   4.297
14600TIP3    H143745   1.048   2.601   4.372
14600TIP3    H243746   1.050   2.616   4.221
14601TIP3   OH243747   3.562   0.060   6.056
14601TIP3    H143748   3.556   0.143   6.010
14601TIP3    H243749   3.542   0.080   6.147
14602TIP3   OH243750   2.675   7.436   1.899
14602TIP3    H143751   2.756   7.404   1.939
14602TIP3    H243752   2.672   7.529   1.922
14603TIP3   OH243753   3.690   2.715   4.651
14603TIP3    H143754   3.696   2.800   4.695
14603TIP3    H243755   3.599   2.689   4.660
14604TIP3   OH243756   1.778   1.697   6.043
14604TIP3    H143757   1.836   1.759   6.089
14604TIP3    H243758   1.825   1.614   6.047
14605TIP3   OH243759   8.011   1.951   5.491
14605TIP3    H143760   8.021   1.950   5.395
14605TIP3    H243761   7.940   1.889   5.508
14606TIP3   OH243762   2.802   7.427   6.287
14606TIP3    H143763   2.741   7.380   6.343
14606TIP3    H243764   2.770   7.517   6.285
14607TIP3   OH243765   0.930   4.564   0.390
14607TIP3    H143766   0.848   4.526   0.422
14607TIP3    H243767   0.998   4.508   0.427
14608TIP3   OH243768   4.286   0.140   0.061
14608TIP3    H143769   4.222   0.117   0.129
14608TIP3    H243770   4.323   0.223   0.091
14609TIP3   OH243771   2.998   2.344   0.295
14609TIP3    H143772   2.958   2.426   0.268
14609TIP3    H243773   3.005   2.351   0.390
14610TIP3   OH243774   6.283   1.796   1.487
14610TIP3    H143775   6.231   1.861   1.440
14610TIP3    H243776   6.288   1.722   1.427
14611TIP3   OH243777   1.510   4.055   6.326
14611TIP3    H143778   1.570   4.050   6.400
14611TIP3    H243779   1.425   4.075   6.364
14612TIP3   OH243780   6.741   5.175   2.195
14612TIP3    H143781   6.784   5.258   2.220
14612TIP3    H243782   6.702   5.143   2.276
14613TIP3   OH243783   7.681   7.359   2.675
14613TIP3    H143784   7.696   7.428   2.740
14613TIP3    H243785   7.595   7.324   2.697
14614TIP3   OH243786   5.628   0.105   2.562
14614TIP3    H143787   5.702   0.165   2.551
14614TIP3    H243788   5.579   0.142   2.635
14615TIP3   OH243789   1.966   5.875   3.174
14615TIP3    H143790   2.051   5.877   3.129
14615TIP3    H243791   1.948   5.967   3.194
14616TIP3   OH243792   0.047   4.306   0.532
14616TIP3    H143793  -0.021   4.358   0.576
14616TIP3    H243794   0.126   4.360   0.537
14617TIP3   OH243795   4.496   1.785   3.576
14617TIP3    H143796   4.520   1.876   3.562
14617TIP3    H243797   4.576   1.736   3.556
14618TIP3   OH243798   1.084   7.348   5.463
14618TIP3    H143799   1.065   7.400   5.386
14618TIP3    H243800   1.022   7.275   5.460
14619TIP3   OH243801   1.850   5.037   2.985
14619TIP3    H143802   1.754   5.035   2.983
14619TIP3    H243803   1.872   5.125   2.955
14620TIP3   OH243804   7.747   2.186   0.999
14620TIP3    H143805   7.765   2.278   0.981
14620TIP3    H243806   7.689   2.158   0.929
14621TIP3   OH243807   0.320   3.040   6.590
14621TIP3    H143808   0.256   3.111   6.585
14621TIP3    H243809   0.352   3.030   6.500
14622TIP3   OH243810   2.376   1.344   6.390
14622TIP3    H143811   2.463   1.380   6.376
14622TIP3    H243812   2.330   1.412   6.440
14623TIP3   OH243813   6.077   7.046   0.159
14623TIP3    H143814   6.160   7.056   0.206
14623TIP3    H243815   6.067   7.128   0.110
14624TIP3   OH243816   1.881   6.213   2.564
14624TIP3    H143817   1.945   6.280   2.589
14624TIP3    H243818   1.813   6.260   2.517
14625TIP3   OH243819   4.049   0.325   3.574
14625TIP3    H143820   4.141   0.337   3.598
14625TIP3    H243821   4.046   0.339   3.480
14626TIP3   OH243822   7.765   0.814   3.293
14626TIP3    H143823   7.819   0.750   3.247
14626TIP3    H243824   7.763   0.783   3.384
14627TIP3   OH243825   0.877   4.715   3.712
14627TIP3    H143826   0.831   4.636   3.738
14627TIP3    H243827   0.834   4.785   3.760
14628TIP3   OH243828   4.032   5.037   2.635
14628TIP3    H143829   3.944   5.025   2.598
14628TIP3    H243830   4.059   5.124   2.605
14629TIP3   OH243831   0.766   0.637   6.099
14629TIP3    H143832   0.788   0.709   6.158
14629TIP3    H243833   0.769   0.559   6.154
14630TIP3   OH243834   4.377   5.897   5.063
14630TIP3    H143835   4.385   5.845   4.984
14630TIP3    H243836   4.307   5.854   5.113
14631TIP3   OH243837   6.180   2.783   6.233
14631TIP3    H143838   6.140   2.831   6.161
14631TIP3    H243839   6.264   2.825   6.246
14632TIP3   OH243840   0.613   2.599   5.643
14632TIP3    H143841   0.679   2.623   5.579
14632TIP3    H243842   0.657   2.538   5.702
14633TIP3   OH243843   3.654   5.185   0.716
14633TIP3    H143844   3.559   5.198   0.710
14633TIP3    H243845   3.692   5.265   0.680
14634TIP3   OH243846   1.653   3.740   0.260
14634TIP3    H143847   1.668   3.773   0.349
14634TIP3    H243848   1.563   3.765   0.240
14635TIP3   OH243849   1.179   1.103   6.203
14635TIP3    H143850   1.168   1.147   6.119
14635TIP3    H243851   1.094   1.114   6.247
14636TIP3   OH243852   1.450   2.211   6.197
14636TIP3    H143853   1.370   2.219   6.249
14636TIP3    H243854   1.450   2.290   6.143
14637TIP3   OH243855   0.139   6.934   3.486
14637TIP3    H143856   0.131   6.993   3.411
14637TIP3    H243857   0.190   6.983   3.550
14638TIP3   OH243858   7.024   5.540   0.257
14638TIP3    H143859   6.934   5.512   0.241
14638TIP3    H243860   7.034   5.619   0.204
14639TIP3   OH243861   1.036   7.553   5.284
14639TIP3    H143862   0.958   7.608   5.273
14639TIP3    H243863   1.109   7.610   5.262
14640TIP3   OH243864   6.976   6.640   1.463
14640TIP3    H143865   7.050   6.601   1.417
14640TIP3    H243866   7.016   6.693   1.532
14641TIP3   OH243867   0.179   6.658   0.138
14641TIP3    H143868   0.197   6.724   0.071
14641TIP3    H243869   0.092   6.625   0.116
14642TIP3   OH243870   3.840   7.678   1.937
14642TIP3    H143871   3.905   7.696   1.869
14642TIP3    H243872   3.784   7.756   1.938
14643TIP3   OH243873   5.930   6.367   1.213
14643TIP3    H143874   5.869   6.418   1.267
14643TIP3    H243875   5.880   6.289   1.189
14644TIP3   OH243876   2.648   6.843   4.784
14644TIP3    H143877   2.723   6.799   4.824
14644TIP3    H243878   2.681   6.877   4.701
14645TIP3   OH243879   0.368   4.635   4.373
14645TIP3    H143880   0.443   4.595   4.330
14645TIP3    H243881   0.361   4.722   4.335
14646TIP3   OH243882   6.798   1.494   5.652
14646TIP3    H143883   6.884   1.490   5.610
14646TIP3    H243884   6.817   1.520   5.742
14647TIP3   OH243885   5.553   5.960   0.381
14647TIP3    H143886   5.461   5.938   0.394
14647TIP3    H243887   5.591   5.960   0.469
14648TIP3   OH243888   1.504   1.019   6.073
14648TIP3    H143889   1.425   1.059   6.038
14648TIP3    H243890   1.554   1.092   6.110
14649TIP3   OH243891   7.109   1.062   0.918
14649TIP3    H143892   7.159   1.008   0.979
14649TIP3    H243893   7.135   1.152   0.939
14650TIP3   OH243894   6.058   7.829   0.305
14650TIP3    H143895   6.014   7.751   0.340
14650TIP3    H243896   5.987   7.889   0.284
14651TIP3   OH243897   2.268   4.105   2.336
14651TIP3    H143898   2.323   4.082   2.411
14651TIP3    H243899   2.181   4.070   2.358
14652TIP3   OH243900   3.168   5.007   1.823
14652TIP3    H143901   3.176   5.012   1.728
14652TIP3    H243902   3.187   5.095   1.854
14653TIP3   OH243903   2.158   5.699   5.032
14653TIP3    H143904   2.092   5.708   5.101
14653TIP3    H243905   2.240   5.722   5.074
14654TIP3   OH243906   7.968   5.340   2.522
14654TIP3    H143907   8.014   5.297   2.595
14654TIP3    H243908   7.982   5.282   2.448
14655TIP3   OH243909   0.953   4.815   2.664
14655TIP3    H143910   0.942   4.825   2.758
14655TIP3    H243911   0.910   4.731   2.643
14656TIP3   OH243912   7.720   2.294   1.987
14656TIP3    H143913   7.724   2.329   2.076
14656TIP3    H243914   7.635   2.251   1.982
14657TIP3   OH243915   0.962   4.773   1.020
14657TIP3    H143916   0.929   4.747   1.106
14657TIP3    H243917   0.981   4.866   1.029
14658TIP3   OH243918   5.212   3.901   3.492
14658TIP3    H143919   5.178   3.980   3.450
14658TIP3    H243920   5.307   3.909   3.484
14659TIP3   OH243921   2.493   5.892   0.693
14659TIP3    H143922   2.496   5.948   0.616
14659TIP3    H243923   2.538   5.812   0.666
14660TIP3   OH243924   1.649   6.524   5.718
14660TIP3    H143925   1.711   6.590   5.749
14660TIP3    H243926   1.678   6.504   5.629
14661TIP3   OH243927   7.081   5.486   1.662
14661TIP3    H143928   7.016   5.417   1.672
14661TIP3    H243929   7.165   5.439   1.660
14662TIP3   OH243930   0.447   1.086   3.740
14662TIP3    H143931   0.440   0.995   3.712
14662TIP3    H243932   0.465   1.081   3.834
14663TIP3   OH243933   7.752   1.612   1.955
14663TIP3    H143934   7.784   1.671   2.023
14663TIP3    H243935   7.831   1.584   1.909
14664TIP3   OH243936   7.879   7.351   3.104
14664TIP3    H143937   7.839   7.436   3.125
14664TIP3    H243938   7.892   7.310   3.190
14665TIP3   OH243939   2.328   3.870   5.754
14665TIP3    H143940   2.372   3.947   5.718
14665TIP3    H243941   2.319   3.889   5.848
14666TIP3   OH243942   0.939   3.581   3.731
14666TIP3    H143943   0.884   3.552   3.658
14666TIP3    H243944   1.025   3.545   3.711
14667TIP3   OH243945   0.952   2.041   4.188
14667TIP3    H143946   0.889   2.023   4.257
14667TIP3    H243947   1.031   2.069   4.234
14668TIP3   OH243948   6.561   6.735   6.227
14668TIP3    H143949   6.507   6.657   6.215
14668TIP3    H243950   6.499   6.808   6.230
14669TIP3   OH243951   8.049   7.335   0.192
14669TIP3    H143952   8.071   7.425   0.167
14669TIP3    H243953   8.000   7.302   0.117
14670TIP3   OH243954   5.987   1.322   0.798
14670TIP3    H143955   5.994   1.229   0.818
14670TIP3    H243956   6.015   1.367   0.878
14671TIP3   OH243957   0.446   0.581   2.923
14671TIP3    H143958   0.410   0.540   2.844
14671TIP3    H243959   0.371   0.624   2.964
14672TIP3   OH243960   4.429   1.831   6.667
14672TIP3    H143961   4.371   1.797   6.598
14672TIP3    H243962   4.370   1.852   6.739
14673TIP3   OH243963   3.232   0.706   4.533
14673TIP3    H143964   3.163   0.767   4.506
14673TIP3    H243965   3.309   0.761   4.545
14674TIP3   OH243966   6.954   0.821   4.145
14674TIP3    H143967   6.872   0.789   4.107
14674TIP3    H243968   6.987   0.748   4.197
14675TIP3   OH243969   0.769   5.287   0.632
14675TIP3    H143970   0.685   5.250   0.660
14675TIP3    H243971   0.782   5.362   0.690
14676TIP3   OH243972   5.582   1.111   0.571
14676TIP3    H143973   5.499   1.081   0.609
14676TIP3    H243974   5.578   1.206   0.577
14677TIP3   OH243975   0.984   1.160   0.441
14677TIP3    H143976   1.044   1.192   0.509
14677TIP3    H243977   0.984   1.065   0.452
14678TIP3   OH243978   5.704   3.752   0.405
14678TIP3    H143979   5.753   3.827   0.441
14678TIP3    H243980   5.691   3.775   0.313
14679TIP3   OH243981   3.263   2.238   4.649
14679TIP3    H143982   3.252   2.298   4.723
14679TIP3    H243983   3.185   2.252   4.596
14680TIP3   OH243984   5.023   3.809   5.677
14680TIP3    H143985   5.100   3.842   5.724
14680TIP3    H243986   4.969   3.886   5.661
14681TIP3   OH243987   7.433   4.645   6.584
14681TIP3    H143988   7.388   4.646   6.668
14681TIP3    H243989   7.418   4.732   6.547
14682TIP3   OH243990   2.441   0.065   1.444
14682TIP3    H143991   2.496   0.106   1.376
14682TIP3    H243992   2.450  -0.029   1.428
14683TIP3   OH243993   3.594   2.167   0.193
14683TIP3    H143994   3.559   2.117   0.119
14683TIP3    H243995   3.556   2.254   0.182
14684TIP3   OH243996   6.945   0.891   5.935
14684TIP3    H143997   7.009   0.886   6.007
14684TIP3    H243998   6.941   0.985   5.914
14685TIP3   OH243999   2.360   2.183   0.858
14685TIP3    H144000   2.434   2.229   0.900
14685TIP3    H244001   2.303   2.159   0.931
14686TIP3   OH244002   3.102   7.532   1.712
14686TIP3    H144003   3.134   7.505   1.626
14686TIP3    H244004   3.008   7.518   1.709
14687TIP3   OH244005   3.033   2.393   0.572
14687TIP3    H144006   2.947   2.425   0.600
14687TIP3    H244007   3.096   2.444   0.624
14688TIP3   OH244008   0.921   4.515   0.752
14688TIP3    H144009   0.935   4.596   0.704
14688TIP3    H244010   1.009   4.480   0.766
14689TIP3   OH244011   0.693   0.995   4.537
14689TIP3    H144012   0.708   1.089   4.543
14689TIP3    H244013   0.762   0.956   4.591
14690TIP3   OH244014   7.847   6.611   1.611
14690TIP3    H144015   7.911   6.610   1.682
14690TIP3    H244016   7.823   6.519   1.600
14691TIP3   OH244017   2.233   2.259   4.727
14691TIP3    H144018   2.210   2.176   4.685
14691TIP3    H244019   2.320   2.244   4.765
14692TIP3   OH244020   2.022   2.721   3.483
14692TIP3    H144021   1.926   2.728   3.486
14692TIP3    H244022   2.041   2.638   3.527
14693TIP3   OH244023   7.756   1.172   0.896
14693TIP3    H144024   7.746   1.198   0.805
14693TIP3    H244025   7.766   1.077   0.893
14694TIP3   OH244026   3.548   0.955   2.194
14694TIP3    H144027   3.461   0.992   2.212
14694TIP3    H244028   3.557   0.883   2.255
14695TIP3   OH244029   3.974   2.627   0.159
14695TIP3    H144030   4.023   2.553   0.196
14695TIP3    H244031   3.936   2.671   0.235
14696TIP3   OH244032   2.375   3.916   2.176
14696TIP3    H144033   2.439   3.971   2.130
14696TIP3    H244034   2.330   3.976   2.235
14697TIP3   OH244035   7.903   3.711   0.616
14697TIP3    H144036   7.940   3.794   0.584
14697TIP3    H244037   7.962   3.644   0.582
14698TIP3   OH244038   7.079   6.538   5.790
14698TIP3    H144039   7.043   6.627   5.786
14698TIP3    H244040   7.173   6.551   5.800
14699TIP3   OH244041   2.392   0.624   0.562
14699TIP3    H144042   2.469   0.681   0.565
14699TIP3    H244043   2.390   0.591   0.472
14700TIP3   OH244044   2.273   4.707   3.406
14700TIP3    H144045   2.357   4.693   3.363
14700TIP3    H244046   2.214   4.641   3.368
14701TIP3   OH244047   7.567   5.731   1.833
14701TIP3    H144048   7.603   5.645   1.856
14701TIP3    H244049   7.475   5.726   1.858
14702TIP3   OH244050   1.301   1.044  -0.017
14702TIP3    H144051   1.274   1.031   0.074
14702TIP3    H244052   1.270   0.966  -0.063
14703TIP3   OH244053   0.240   7.201   4.499
14703TIP3    H144054   0.225   7.276   4.442
14703TIP3    H244055   0.248   7.238   4.587
14704TIP3   OH244056   3.434   6.488   0.245
14704TIP3    H144057   3.496   6.552   0.280
14704TIP3    H244058   3.448   6.491   0.150
14705TIP3   OH244059   2.690   6.544   4.193
14705TIP3    H144060   2.624   6.489   4.150
14705TIP3    H244061   2.756   6.558   4.126
14706TIP3   OH244062   7.598   1.345   5.752
14706TIP3    H144063   7.662   1.309   5.813
14706TIP3    H244064   7.553   1.413   5.801
14707TIP3   OH244065   0.476   1.195   5.448
14707TIP3    H144066   0.563   1.231   5.468
14707TIP3    H244067   0.424   1.212   5.527
14708TIP3   OH244068   6.840   0.702   3.544
14708TIP3    H144069   6.889   0.681   3.624
14708TIP3    H244070   6.851   0.626   3.488
14709TIP3   OH244071   2.476   1.142   3.854
14709TIP3    H144072   2.568   1.147   3.827
14709TIP3    H244073   2.428   1.120   3.775
14710TIP3   OH244074   4.837   3.500   1.927
14710TIP3    H144075   4.888   3.433   1.881
14710TIP3    H244076   4.746   3.483   1.901
14711TIP3   OH244077   3.428   5.533   1.955
14711TIP3    H144078   3.477   5.613   1.934
14711TIP3    H244079   3.485   5.462   1.926
14712TIP3   OH244080   1.000   7.719   2.031
14712TIP3    H144081   0.948   7.647   1.996
14712TIP3    H244082   1.059   7.743   1.959
14713TIP3   OH244083   6.203   0.694   1.654
14713TIP3    H144084   6.109   0.707   1.644
14713TIP3    H244085   6.224   0.625   1.592
14714TIP3   OH244086   4.897   5.261   0.984
14714TIP3    H144087   4.832   5.330   0.972
14714TIP3    H244088   4.914   5.259   1.078
14715TIP3   OH244089   3.558   3.525   3.372
14715TIP3    H144090   3.563   3.583   3.296
14715TIP3    H244091   3.482   3.469   3.354
14716TIP3   OH244092   2.509   6.671   3.617
14716TIP3    H144093   2.501   6.620   3.536
14716TIP3    H244094   2.562   6.616   3.675
14717TIP3   OH244095   1.424   3.190   6.233
14717TIP3    H144096   1.356   3.209   6.297
14717TIP3    H244097   1.502   3.173   6.286
14718TIP3   OH244098   4.003   5.996   0.728
14718TIP3    H144099   4.010   5.949   0.811
14718TIP3    H244100   4.000   5.928   0.662
14719TIP3   OH244101   6.393   7.710   1.934
14719TIP3    H144102   6.441   7.637   1.975
14719TIP3    H244103   6.399   7.781   1.998
14720TIP3   OH244104   7.748   3.425   2.191
14720TIP3    H144105   7.834   3.389   2.216
14720TIP3    H244106   7.744   3.510   2.236
14721TIP3   OH244107   3.474   6.598   6.035
14721TIP3    H144108   3.510   6.674   5.988
14721TIP3    H244109   3.396   6.573   5.984
14722TIP3   OH244110   1.592   1.106   5.397
14722TIP3    H144111   1.645   1.175   5.436
14722TIP3    H244112   1.652   1.063   5.335
14723TIP3   OH244113   6.187   7.471   0.959
14723TIP3    H144114   6.194   7.429   1.045
14723TIP3    H244115   6.271   7.514   0.946
14724TIP3   OH244116   7.940   2.233   4.225
14724TIP3    H144117   7.994   2.167   4.181
14724TIP3    H244118   7.881   2.183   4.280
14725TIP3   OH244119   5.123   2.721   3.830
14725TIP3    H144120   5.074   2.748   3.908
14725TIP3    H244121   5.081   2.639   3.803
14726TIP3   OH244122   1.704   6.418   4.975
14726TIP3    H144123   1.762   6.368   4.917
14726TIP3    H244124   1.721   6.382   5.062
14727TIP3   OH244125   6.170   4.314   0.056
14727TIP3    H144126   6.159   4.306   0.150
14727TIP3    H244127   6.210   4.232   0.029
14728TIP3   OH244128   1.858   4.312   1.439
14728TIP3    H144129   1.920   4.262   1.493
14728TIP3    H244130   1.854   4.263   1.357
14729TIP3   OH244131   5.632   3.911   0.759
14729TIP3    H144132   5.666   3.837   0.709
14729TIP3    H244133   5.707   3.969   0.769
14730TIP3   OH244134  -0.009   5.559   2.035
14730TIP3    H144135   0.084   5.548   2.052
14730TIP3    H244136  -0.049   5.562   2.122
14731TIP3   OH244137   3.683   4.261   6.632
14731TIP3    H144138   3.611   4.226   6.579
14731TIP3    H244139   3.652   4.253   6.722
14732TIP3   OH244140   2.921   4.169   0.025
14732TIP3    H144141   2.958   4.130   0.104
14732TIP3    H244142   2.917   4.097  -0.038
14733TIP3   OH244143   4.000   3.703   6.585
14733TIP3    H144144   3.940   3.639   6.623
14733TIP3    H244145   4.084   3.658   6.579
14734TIP3   OH244146   3.791   3.666   6.306
14734TIP3    H144147   3.846   3.727   6.257
14734TIP3    H244148   3.850   3.595   6.331
14735TIP3   OH244149   2.892   4.000   3.368
14735TIP3    H144150   2.935   4.080   3.337
14735TIP3    H244151   2.863   4.021   3.457
14736TIP3   OH244152   0.545   2.933   4.495
14736TIP3    H144153   0.533   3.025   4.471
14736TIP3    H244154   0.456   2.900   4.506
14737TIP3   OH244155   3.545   0.290   2.415
14737TIP3    H144156   3.621   0.335   2.453
14737TIP3    H244157   3.582   0.230   2.351
14738TIP3   OH244158   2.827   0.244   3.075
14738TIP3    H144159   2.791   0.281   3.156
14738TIP3    H244160   2.922   0.255   3.084
14739TIP3   OH244161   4.154   3.020   0.293
14739TIP3    H144162   4.234   2.972   0.274
14739TIP3    H244163   4.128   2.990   0.381
14740TIP3   OH244164   1.988   5.892   2.784
14740TIP3    H144165   1.946   5.822   2.832
14740TIP3    H244166   1.931   5.968   2.796
14741TIP3   OH244167   6.377   0.972   6.494
14741TIP3    H144168   6.424   0.908   6.547
14741TIP3    H244169   6.301   0.924   6.460
14742TIP3   OH244170   1.332   5.647   5.522
14742TIP3    H144171   1.343   5.731   5.478
14742TIP3    H244172   1.350   5.665   5.614
14743TIP3   OH244173   0.399   3.543   4.930
14743TIP3    H144174   0.366   3.542   4.840
14743TIP3    H244175   0.434   3.632   4.941
14744TIP3   OH244176   1.185   6.830   4.376
14744TIP3    H144177   1.112   6.892   4.376
14744TIP3    H244178   1.239   6.858   4.450
14745TIP3   OH244179   0.099   3.914   1.294
14745TIP3    H144180   0.119   3.967   1.217
14745TIP3    H244181   0.037   3.967   1.344
14746TIP3   OH244182   7.949   3.087   5.112
14746TIP3    H144183   8.008   3.159   5.090
14746TIP3    H244184   7.867   3.108   5.067
14747TIP3   OH244185   6.386   5.285   6.122
14747TIP3    H144186   6.475   5.285   6.087
14747TIP3    H244187   6.387   5.354   6.189
14748TIP3   OH244188   6.195   0.101   4.322
14748TIP3    H144189   6.274   0.108   4.375
14748TIP3    H244190   6.225   0.057   4.242
14749TIP3   OH244191   6.083   3.847   4.520
14749TIP3    H144192   6.057   3.781   4.585
14749TIP3    H244193   5.999   3.877   4.483
14750TIP3   OH244194   0.037   2.176   6.383
14750TIP3    H144195  -0.015   2.176   6.303
14750TIP3    H244196   0.010   2.256   6.429
14751TIP3   OH244197   5.979   5.439   3.528
14751TIP3    H144198   6.055   5.419   3.473
14751TIP3    H244199   5.951   5.354   3.562
14752TIP3   OH244200   4.990   6.207   1.425
14752TIP3    H144201   4.945   6.176   1.347
14752TIP3    H244202   5.046   6.278   1.394
14753TIP3   OH244203   0.664   5.691   5.096
14753TIP3    H144204   0.572   5.717   5.108
14753TIP3    H244205   0.681   5.706   5.003
14754TIP3   OH244206   3.741   6.496   3.506
14754TIP3    H144207   3.767   6.447   3.429
14754TIP3    H244208   3.723   6.430   3.573
14755TIP3   OH244209   4.944   1.391   6.498
14755TIP3    H144210   4.907   1.403   6.586
14755TIP3    H244211   4.958   1.297   6.490
14756TIP3   OH244212   6.468   7.596   0.925
14756TIP3    H144213   6.499   7.679   0.962
14756TIP3    H244214   6.530   7.576   0.855
14757TIP3   OH244215   6.278   5.892   4.825
14757TIP3    H144216   6.361   5.926   4.859
14757TIP3    H244217   6.280   5.799   4.845
14758TIP3   OH244218   4.352   4.176   0.240
14758TIP3    H144219   4.408   4.243   0.278
14758TIP3    H244220   4.386   4.094   0.276
14759TIP3   OH244221   5.978   6.975   0.743
14759TIP3    H144222   6.010   6.896   0.787
14759TIP3    H244223   5.931   7.022   0.811
14760TIP3   OH244224   1.937   4.861   3.524
14760TIP3    H144225   1.846   4.851   3.494
14760TIP3    H244226   1.975   4.773   3.514
14761TIP3   OH244227   1.630   0.055   2.241
14761TIP3    H144228   1.562   0.108   2.200
14761TIP3    H244229   1.605   0.052   2.334
14762TIP3   OH244230   7.313   6.688   3.178
14762TIP3    H144231   7.271   6.621   3.123
14762TIP3    H244232   7.273   6.676   3.264
14763TIP3   OH244233   0.044   5.440   0.108
14763TIP3    H144234   0.003   5.460   0.024
14763TIP3    H244235  -0.017   5.474   0.173
14764TIP3   OH244236   3.951   4.568   3.195
14764TIP3    H144237   3.879   4.572   3.258
14764TIP3    H244238   3.998   4.488   3.219
14765TIP3   OH244239   6.418   0.475   2.512
14765TIP3    H144240   6.510   0.498   2.498
14765TIP3    H244241   6.370   0.528   2.448
14766TIP3   OH244242   0.009   4.406   3.928
14766TIP3    H144243  -0.009   4.354   4.006
14766TIP3    H244244   0.087   4.365   3.889
14767TIP3   OH244245   4.936   7.213   1.747
14767TIP3    H144246   4.865   7.271   1.773
14767TIP3    H244247   5.015   7.265   1.756
14768TIP3   OH244248   6.982   5.387   3.981
14768TIP3    H144249   7.042   5.461   3.974
14768TIP3    H244250   6.948   5.376   3.893
14769TIP3   OH244251   6.951   1.045   2.571
14769TIP3    H144252   6.966   0.975   2.507
14769TIP3    H244253   7.038   1.065   2.605
14770TIP3   OH244254   1.143   3.930   3.891
14770TIP3    H144255   1.230   3.967   3.906
14770TIP3    H244256   1.094   4.000   3.850
14771TIP3   OH244257   7.903   0.819   4.277
14771TIP3    H144258   7.863   0.839   4.192
14771TIP3    H244259   7.985   0.867   4.276
14772TIP3   OH244260   3.509   0.696   2.816
14772TIP3    H144261   3.439   0.640   2.849
14772TIP3    H244262   3.470   0.743   2.743
14773TIP3   OH244263   7.363   3.784   5.133
14773TIP3    H144264   7.281   3.791   5.181
14773TIP3    H244265   7.373   3.869   5.090
14774TIP3   OH244266   7.604   3.651   6.012
14774TIP3    H144267   7.569   3.689   6.092
14774TIP3    H244268   7.618   3.726   5.954
14775TIP3   OH244269   3.084   0.305   3.952
14775TIP3    H144270   3.087   0.393   3.915
14775TIP3    H244271   3.174   0.289   3.982
14776TIP3   OH244272   5.385   7.078   6.326
14776TIP3    H144273   5.412   7.136   6.397
14776TIP3    H244274   5.394   7.131   6.247
14777TIP3   OH244275   5.420   5.123   1.498
14777TIP3    H144276   5.381   5.185   1.560
14777TIP3    H244277   5.345   5.074   1.464
14778TIP3   OH244278   1.263   4.748   2.942
14778TIP3    H144279   1.227   4.671   2.897
14778TIP3    H244280   1.313   4.794   2.875
14779TIP3   OH244281   6.730   2.899   6.348
14779TIP3    H144282   6.643   2.927   6.319
14779TIP3    H244283   6.732   2.917   6.441
14780TIP3   OH244284   3.165   0.955   3.446
14780TIP3    H144285   3.106   0.921   3.378
14780TIP3    H244286   3.246   0.976   3.399
14781TIP3   OH244287   2.802   0.137   4.832
14781TIP3    H144288   2.714   0.173   4.836
14781TIP3    H244289   2.857   0.202   4.876
14782TIP3   OH244290   3.533   7.679   2.285
14782TIP3    H144291   3.548   7.767   2.319
14782TIP3    H244292   3.620   7.643   2.271
14783TIP3   OH244293   6.714   5.159   6.401
14783TIP3    H144294   6.671   5.096   6.459
14783TIP3    H244295   6.672   5.243   6.422
14784TIP3   OH244296   7.359   5.940   1.741
14784TIP3    H144297   7.304   5.909   1.670
14784TIP3    H244298   7.328   5.891   1.818
14785TIP3   OH244299   7.743   6.036   1.157
14785TIP3    H144300   7.672   6.073   1.104
14785TIP3    H244301   7.780   5.967   1.102
14786TIP3   OH244302   4.777   5.998   5.345
14786TIP3    H144303   4.757   6.023   5.255
14786TIP3    H244304   4.766   6.078   5.396
14787TIP3   OH244305   4.717   0.937   4.826
14787TIP3    H144306   4.626   0.911   4.816
14787TIP3    H244307   4.729   1.010   4.765
14788TIP3   OH244308   2.921   1.164   3.016
14788TIP3    H144309   2.923   1.251   2.976
14788TIP3    H244310   2.995   1.165   3.077
14789TIP3   OH244311   2.682   5.480   5.800
14789TIP3    H144312   2.738   5.460   5.876
14789TIP3    H244313   2.673   5.575   5.801
14790TIP3   OH244314   4.821   2.193   5.952
14790TIP3    H144315   4.840   2.278   5.913
14790TIP3    H244316   4.807   2.212   6.045
14791TIP3   OH244317   0.911   3.408   2.745
14791TIP3    H144318   0.942   3.317   2.741
14791TIP3    H244319   0.896   3.432   2.653
14792TIP3   OH244320   5.081   0.926   5.948
14792TIP3    H144321   5.016   0.984   5.909
14792TIP3    H244322   5.030   0.850   5.977
14793TIP3   OH244323   6.665   4.373   6.306
14793TIP3    H144324   6.668   4.380   6.210
14793TIP3    H244325   6.684   4.462   6.336
14794TIP3   OH244326   0.105   1.187   0.427
14794TIP3    H144327   0.186   1.233   0.449
14794TIP3    H244328   0.133   1.120   0.364
14795TIP3   OH244329   3.779   4.316   0.364
14795TIP3    H144330   3.763   4.342   0.455
14795TIP3    H244331   3.706   4.353   0.315
14796TIP3   OH244332   0.784   4.269   4.326
14796TIP3    H144333   0.790   4.212   4.402
14796TIP3    H244334   0.874   4.276   4.294
14797TIP3   OH244335  -0.003   1.109   5.025
14797TIP3    H144336   0.071   1.048   5.017
14797TIP3    H244337  -0.062   1.084   4.954
14798TIP3   OH244338   6.882   5.098   2.743
14798TIP3    H144339   6.972   5.113   2.770
14798TIP3    H244340   6.863   5.008   2.771
14799TIP3   OH244341   2.267   1.211   1.361
14799TIP3    H144342   2.293   1.246   1.446
14799TIP3    H244343   2.195   1.152   1.381
14800TIP3   OH244344   4.279   3.344   3.534
14800TIP3    H144345   4.188   3.375   3.525
14800TIP3    H244346   4.331   3.412   3.492
14801TIP3   OH244347   7.052   0.022   6.128
14801TIP3    H144348   7.111  -0.053   6.121
14801TIP3    H244349   6.975  -0.002   6.077
14802TIP3   OH244350   4.697   4.591   2.749
14802TIP3    H144351   4.784   4.554   2.766
14802TIP3    H244352   4.655   4.526   2.693
14803TIP3   OH244353   1.461   5.069   2.285
14803TIP3    H144354   1.449   5.057   2.191
14803TIP3    H244355   1.520   4.998   2.311
14804TIP3   OH244356   6.544   4.702   6.100
14804TIP3    H144357   6.562   4.726   6.191
14804TIP3    H244358   6.449   4.710   6.092
14805TIP3   OH244359   6.753   5.106   0.331
14805TIP3    H144360   6.825   5.059   0.373
14805TIP3    H244361   6.745   5.065   0.245
14806TIP3   OH244362   8.123   4.246   3.200
14806TIP3    H144363   8.073   4.296   3.137
14806TIP3    H244364   8.060   4.220   3.267
14807TIP3   OH244365   1.024   3.179   1.689
14807TIP3    H144366   1.077   3.141   1.619
14807TIP3    H244367   1.062   3.144   1.770
14808TIP3   OH244368   4.560   5.648   3.110
14808TIP3    H144369   4.512   5.684   3.184
14808TIP3    H244370   4.495   5.641   3.040
14809TIP3   OH244371   5.439   6.135   3.298
14809TIP3    H144372   5.506   6.204   3.295
14809TIP3    H244373   5.377   6.165   3.364
14810TIP3   OH244374   1.658   0.655   0.769
14810TIP3    H144375   1.657   0.742   0.809
14810TIP3    H244376   1.727   0.660   0.702
14811TIP3   OH244377   8.062   5.763   5.772
14811TIP3    H144378   8.124   5.833   5.753
14811TIP3    H244379   8.050   5.717   5.689
14812TIP3   OH244380   8.079   6.190   1.978
14812TIP3    H144381   8.169   6.217   1.995
14812TIP3    H244382   8.054   6.139   2.054
14813TIP3   OH244383   4.704   7.227   4.114
14813TIP3    H144384   4.700   7.259   4.204
14813TIP3    H244385   4.757   7.292   4.067
14814TIP3   OH244386   2.022   2.066   2.129
14814TIP3    H144387   2.028   2.008   2.053
14814TIP3    H244388   2.051   2.152   2.097
14815TIP3   OH244389   6.894   3.021   4.208
14815TIP3    H144390   6.906   3.089   4.142
14815TIP3    H244391   6.921   2.940   4.165
14816TIP3   OH244392   3.042   4.039   4.041
14816TIP3    H144393   2.961   4.010   3.999
14816TIP3    H244394   3.036   4.135   4.039
14817TIP3   OH244395   6.216   7.214   0.570
14817TIP3    H144396   6.243   7.139   0.623
14817TIP3    H244397   6.295   7.238   0.521
14818TIP3   OH244398   6.054   5.755   5.941
14818TIP3    H144399   6.071   5.803   6.022
14818TIP3    H244400   6.072   5.819   5.872
14819TIP3   OH244401   1.693   1.578   1.468
14819TIP3    H144402   1.682   1.636   1.392
14819TIP3    H244403   1.781   1.598   1.501
14820TIP3   OH244404   3.581   7.134   3.612
14820TIP3    H144405   3.661   7.153   3.661
14820TIP3    H244406   3.555   7.218   3.574
14821TIP3   OH244407   3.830   0.326   4.083
14821TIP3    H144408   3.847   0.415   4.111
14821TIP3    H244409   3.786   0.285   4.158
14822TIP3   OH244410   1.124   0.763   0.242
14822TIP3    H144411   1.051   0.790   0.187
14822TIP3    H244412   1.171   0.844   0.262
14823TIP3   OH244413   5.313   2.991   5.137
14823TIP3    H144414   5.276   2.910   5.172
14823TIP3    H244415   5.328   2.972   5.044
14824TIP3   OH244416   4.608   5.753   2.077
14824TIP3    H144417   4.652   5.676   2.041
14824TIP3    H244418   4.569   5.723   2.159
14825TIP3   OH244419   6.898   4.921   4.869
14825TIP3    H144420   6.889   4.854   4.802
14825TIP3    H244421   6.953   4.881   4.936
14826TIP3   OH244422   0.618   4.292   3.285
14826TIP3    H144423   0.597   4.279   3.193
14826TIP3    H244424   0.536   4.322   3.324
14827TIP3   OH244425   1.708   0.181   3.404
14827TIP3    H144426   1.673   0.234   3.332
14827TIP3    H244427   1.742   0.102   3.361
14828TIP3   OH244428   2.269   3.922   1.543
14828TIP3    H144429   2.292   3.845   1.491
14828TIP3    H244430   2.181   3.904   1.575
14829TIP3   OH244431   8.257   7.706   5.786
14829TIP3    H144432   8.317   7.664   5.724
14829TIP3    H244433   8.294   7.793   5.801
14830TIP3   OH244434   4.178   7.385   2.673
14830TIP3    H144435   4.233   7.416   2.745
14830TIP3    H244436   4.100   7.440   2.678
14831TIP3   OH244437   1.033   6.189   2.095
14831TIP3    H144438   1.089   6.264   2.077
14831TIP3    H244439   0.999   6.205   2.183
14832TIP3   OH244440   5.281   2.038   5.220
14832TIP3    H144441   5.231   2.104   5.171
14832TIP3    H244442   5.359   2.085   5.249
14833TIP3   OH244443   4.921   2.838   6.521
14833TIP3    H144444   4.882   2.752   6.537
14833TIP3    H244445   4.954   2.833   6.431
14834TIP3   OH244446   1.330   3.193   1.103
14834TIP3    H144447   1.345   3.268   1.161
14834TIP3    H244448   1.363   3.221   1.018
14835TIP3   OH244449   2.342   4.459   3.583
14835TIP3    H144450   2.255   4.428   3.559
14835TIP3    H244451   2.388   4.380   3.611
14836TIP3   OH244452   0.557   1.220   3.345
14836TIP3    H144453   0.470   1.226   3.305
14836TIP3    H244454   0.555   1.138   3.394
14837TIP3   OH244455   2.027   6.757   1.605
14837TIP3    H144456   2.103   6.794   1.650
14837TIP3    H244457   2.040   6.779   1.513
14838TIP3   OH244458   5.931   3.745   1.567
14838TIP3    H144459   5.975   3.660   1.560
14838TIP3    H244460   5.868   3.734   1.638
14839TIP3   OH244461   0.358   4.281   2.517
14839TIP3    H144462   0.287   4.343   2.499
14839TIP3    H244463   0.326   4.230   2.592
   8.29292   7.81865   6.77114   0.00000   0.00000  -2.76430   0.00000  -2.76430  -3.90932
