;;
;; Generated by CHARMM-GUI FF-Converter
;;
;; Correspondance:
;; jul316@lehigh.edu or wonpil@lehigh.edu
;;
;; GROMACS topology file for PROA
;;


[ moleculetype ]
; name	nrexcl
PROA	     3

[ atoms ]
; nr	type	resnr	residu	atom	cgnr	charge	mass
     1        NH3      1      GLY      N      1    -0.300000    14.0070   ; qtot -0.300
     2         HC      1      GLY    HT1      2     0.330000     1.0080   ; qtot  0.030
     3         HC      1      GLY    HT2      3     0.330000     1.0080   ; qtot  0.360
     4         HC      1      GLY    HT3      4     0.330000     1.0080   ; qtot  0.690
     5        CT2      1      GLY     CA      5     0.130000    12.0110   ; qtot  0.820
     6        HB2      1      GLY    HA1      6     0.090000     1.0080   ; qtot  0.910
     7        HB2      1      GLY    HA2      7     0.090000     1.0080   ; qtot  1.000
     8          C      1      GLY      C      8     0.510000    12.0110   ; qtot  1.510
     9          O      1      GLY      O      9    -0.510000    15.9994   ; qtot  1.000
    10          N      2      PRO      N     10    -0.290000    14.0070   ; qtot  0.710
    11        CP3      2      PRO     CD     11     0.000000    12.0110   ; qtot  0.710
    12        HA2      2      PRO    HD1     12     0.090000     1.0080   ; qtot  0.800
    13        HA2      2      PRO    HD2     13     0.090000     1.0080   ; qtot  0.890
    14        CP1      2      PRO     CA     14     0.020000    12.0110   ; qtot  0.910
    15        HB1      2      PRO     HA     15     0.090000     1.0080   ; qtot  1.000
    16        CP2      2      PRO     CB     16    -0.180000    12.0110   ; qtot  0.820
    17        HA2      2      PRO    HB1     17     0.090000     1.0080   ; qtot  0.910
    18        HA2      2      PRO    HB2     18     0.090000     1.0080   ; qtot  1.000
    19        CP2      2      PRO     CG     19    -0.180000    12.0110   ; qtot  0.820
    20        HA2      2      PRO    HG1     20     0.090000     1.0080   ; qtot  0.910
    21        HA2      2      PRO    HG2     21     0.090000     1.0080   ; qtot  1.000
    22          C      2      PRO      C     22     0.510000    12.0110   ; qtot  1.510
    23          O      2      PRO      O     23    -0.510000    15.9994   ; qtot  1.000
    24        NH1      3      GLY      N     24    -0.470000    14.0070   ; qtot  0.530
    25          H      3      GLY     HN     25     0.310000     1.0080   ; qtot  0.840
    26        CT2      3      GLY     CA     26    -0.020000    12.0110   ; qtot  0.820
    27        HB2      3      GLY    HA1     27     0.090000     1.0080   ; qtot  0.910
    28        HB2      3      GLY    HA2     28     0.090000     1.0080   ; qtot  1.000
    29          C      3      GLY      C     29     0.510000    12.0110   ; qtot  1.510
    30          O      3      GLY      O     30    -0.510000    15.9994   ; qtot  1.000
    31        NH1      4      ASP      N     31    -0.470000    14.0070   ; qtot  0.530
    32          H      4      ASP     HN     32     0.310000     1.0080   ; qtot  0.840
    33        CT1      4      ASP     CA     33     0.070000    12.0110   ; qtot  0.910
    34        HB1      4      ASP     HA     34     0.090000     1.0080   ; qtot  1.000
    35       CT2A      4      ASP     CB     35    -0.280000    12.0110   ; qtot  0.720
    36        HA2      4      ASP    HB1     36     0.090000     1.0080   ; qtot  0.810
    37        HA2      4      ASP    HB2     37     0.090000     1.0080   ; qtot  0.900
    38         CC      4      ASP     CG     38     0.620000    12.0110   ; qtot  1.520
    39         OC      4      ASP    OD1     39    -0.760000    15.9994   ; qtot  0.760
    40         OC      4      ASP    OD2     40    -0.760000    15.9994   ; qtot -0.000
    41          C      4      ASP      C     41     0.510000    12.0110   ; qtot  0.510
    42          O      4      ASP      O     42    -0.510000    15.9994   ; qtot -0.000
    43          N      5      PRO      N     43    -0.290000    14.0070   ; qtot -0.290
    44        CP3      5      PRO     CD     44     0.000000    12.0110   ; qtot -0.290
    45        HA2      5      PRO    HD1     45     0.090000     1.0080   ; qtot -0.200
    46        HA2      5      PRO    HD2     46     0.090000     1.0080   ; qtot -0.110
    47        CP1      5      PRO     CA     47     0.020000    12.0110   ; qtot -0.090
    48        HB1      5      PRO     HA     48     0.090000     1.0080   ; qtot -0.000
    49        CP2      5      PRO     CB     49    -0.180000    12.0110   ; qtot -0.180
    50        HA2      5      PRO    HB1     50     0.090000     1.0080   ; qtot -0.090
    51        HA2      5      PRO    HB2     51     0.090000     1.0080   ; qtot -0.000
    52        CP2      5      PRO     CG     52    -0.180000    12.0110   ; qtot -0.180
    53        HA2      5      PRO    HG1     53     0.090000     1.0080   ; qtot -0.090
    54        HA2      5      PRO    HG2     54     0.090000     1.0080   ; qtot -0.000
    55          C      5      PRO      C     55     0.510000    12.0110   ; qtot  0.510
    56          O      5      PRO      O     56    -0.510000    15.9994   ; qtot -0.000
    57        NH1      6      GLY      N     57    -0.470000    14.0070   ; qtot -0.470
    58          H      6      GLY     HN     58     0.310000     1.0080   ; qtot -0.160
    59        CT2      6      GLY     CA     59    -0.020000    12.0110   ; qtot -0.180
    60        HB2      6      GLY    HA1     60     0.090000     1.0080   ; qtot -0.090
    61        HB2      6      GLY    HA2     61     0.090000     1.0080   ; qtot -0.000
    62          C      6      GLY      C     62     0.510000    12.0110   ; qtot  0.510
    63          O      6      GLY      O     63    -0.510000    15.9994   ; qtot -0.000
    64        NH1      7      SER      N     64    -0.470000    14.0070   ; qtot -0.470
    65          H      7      SER     HN     65     0.310000     1.0080   ; qtot -0.160
    66        CT1      7      SER     CA     66     0.070000    12.0110   ; qtot -0.090
    67        HB1      7      SER     HA     67     0.090000     1.0080   ; qtot -0.000
    68        CT2      7      SER     CB     68     0.050000    12.0110   ; qtot  0.050
    69        HA2      7      SER    HB1     69     0.090000     1.0080   ; qtot  0.140
    70        HA2      7      SER    HB2     70     0.090000     1.0080   ; qtot  0.230
    71        OH1      7      SER     OG     71    -0.660000    15.9994   ; qtot -0.430
    72          H      7      SER    HG1     72     0.430000     1.0080   ; qtot -0.000
    73          C      7      SER      C     73     0.510000    12.0110   ; qtot  0.510
    74          O      7      SER      O     74    -0.510000    15.9994   ; qtot -0.000
    75        NH1      8      GLY      N     75    -0.470000    14.0070   ; qtot -0.470
    76          H      8      GLY     HN     76     0.310000     1.0080   ; qtot -0.160
    77        CT2      8      GLY     CA     77    -0.020000    12.0110   ; qtot -0.180
    78        HB2      8      GLY    HA1     78     0.090000     1.0080   ; qtot -0.090
    79        HB2      8      GLY    HA2     79     0.090000     1.0080   ; qtot -0.000
    80          C      8      GLY      C     80     0.510000    12.0110   ; qtot  0.510
    81          O      8      GLY      O     81    -0.510000    15.9994   ; qtot -0.000
    82          N      9      PRO      N     82    -0.290000    14.0070   ; qtot -0.290
    83        CP3      9      PRO     CD     83     0.000000    12.0110   ; qtot -0.290
    84        HA2      9      PRO    HD1     84     0.090000     1.0080   ; qtot -0.200
    85        HA2      9      PRO    HD2     85     0.090000     1.0080   ; qtot -0.110
    86        CP1      9      PRO     CA     86     0.020000    12.0110   ; qtot -0.090
    87        HB1      9      PRO     HA     87     0.090000     1.0080   ; qtot -0.000
    88        CP2      9      PRO     CB     88    -0.180000    12.0110   ; qtot -0.180
    89        HA2      9      PRO    HB1     89     0.090000     1.0080   ; qtot -0.090
    90        HA2      9      PRO    HB2     90     0.090000     1.0080   ; qtot -0.000
    91        CP2      9      PRO     CG     91    -0.180000    12.0110   ; qtot -0.180
    92        HA2      9      PRO    HG1     92     0.090000     1.0080   ; qtot -0.090
    93        HA2      9      PRO    HG2     93     0.090000     1.0080   ; qtot -0.000
    94          C      9      PRO      C     94     0.510000    12.0110   ; qtot  0.510
    95          O      9      PRO      O     95    -0.510000    15.9994   ; qtot -0.000
    96        NH1     10      GLY      N     96    -0.470000    14.0070   ; qtot -0.470
    97          H     10      GLY     HN     97     0.310000     1.0080   ; qtot -0.160
    98        CT2     10      GLY     CA     98    -0.020000    12.0110   ; qtot -0.180
    99        HB2     10      GLY    HA1     99     0.090000     1.0080   ; qtot -0.090
   100        HB2     10      GLY    HA2    100     0.090000     1.0080   ; qtot -0.000
   101          C     10      GLY      C    101     0.510000    12.0110   ; qtot  0.510
   102          O     10      GLY      O    102    -0.510000    15.9994   ; qtot -0.000
   103        NH1     11      ASP      N    103    -0.470000    14.0070   ; qtot -0.470
   104          H     11      ASP     HN    104     0.310000     1.0080   ; qtot -0.160
   105        CT1     11      ASP     CA    105     0.070000    12.0110   ; qtot -0.090
   106        HB1     11      ASP     HA    106     0.090000     1.0080   ; qtot -0.000
   107       CT2A     11      ASP     CB    107    -0.280000    12.0110   ; qtot -0.280
   108        HA2     11      ASP    HB1    108     0.090000     1.0080   ; qtot -0.190
   109        HA2     11      ASP    HB2    109     0.090000     1.0080   ; qtot -0.100
   110         CC     11      ASP     CG    110     0.620000    12.0110   ; qtot  0.520
   111         OC     11      ASP    OD1    111    -0.760000    15.9994   ; qtot -0.240
   112         OC     11      ASP    OD2    112    -0.760000    15.9994   ; qtot -1.000
   113          C     11      ASP      C    113     0.510000    12.0110   ; qtot -0.490
   114          O     11      ASP      O    114    -0.510000    15.9994   ; qtot -1.000
   115          N     12      PRO      N    115    -0.290000    14.0070   ; qtot -1.290
   116        CP3     12      PRO     CD    116     0.000000    12.0110   ; qtot -1.290
   117        HA2     12      PRO    HD1    117     0.090000     1.0080   ; qtot -1.200
   118        HA2     12      PRO    HD2    118     0.090000     1.0080   ; qtot -1.110
   119        CP1     12      PRO     CA    119     0.020000    12.0110   ; qtot -1.090
   120        HB1     12      PRO     HA    120     0.090000     1.0080   ; qtot -1.000
   121        CP2     12      PRO     CB    121    -0.180000    12.0110   ; qtot -1.180
   122        HA2     12      PRO    HB1    122     0.090000     1.0080   ; qtot -1.090
   123        HA2     12      PRO    HB2    123     0.090000     1.0080   ; qtot -1.000
   124        CP2     12      PRO     CG    124    -0.180000    12.0110   ; qtot -1.180
   125        HA2     12      PRO    HG1    125     0.090000     1.0080   ; qtot -1.090
   126        HA2     12      PRO    HG2    126     0.090000     1.0080   ; qtot -1.000
   127          C     12      PRO      C    127     0.510000    12.0110   ; qtot -0.490
   128          O     12      PRO      O    128    -0.510000    15.9994   ; qtot -1.000
   129        NH1     13      GLY      N    129    -0.470000    14.0070   ; qtot -1.470
   130          H     13      GLY     HN    130     0.310000     1.0080   ; qtot -1.160
   131        CT2     13      GLY     CA    131    -0.020000    12.0110   ; qtot -1.180
   132        HB2     13      GLY    HA1    132     0.090000     1.0080   ; qtot -1.090
   133        HB2     13      GLY    HA2    133     0.090000     1.0080   ; qtot -1.000
   134          C     13      GLY      C    134     0.510000    12.0110   ; qtot -0.490
   135          O     13      GLY      O    135    -0.510000    15.9994   ; qtot -1.000
   136        NH1     14      SER      N    136    -0.470000    14.0070   ; qtot -1.470
   137          H     14      SER     HN    137     0.310000     1.0080   ; qtot -1.160
   138        CT1     14      SER     CA    138     0.070000    12.0110   ; qtot -1.090
   139        HB1     14      SER     HA    139     0.090000     1.0080   ; qtot -1.000
   140        CT2     14      SER     CB    140     0.050000    12.0110   ; qtot -0.950
   141        HA2     14      SER    HB1    141     0.090000     1.0080   ; qtot -0.860
   142        HA2     14      SER    HB2    142     0.090000     1.0080   ; qtot -0.770
   143        OH1     14      SER     OG    143    -0.660000    15.9994   ; qtot -1.430
   144          H     14      SER    HG1    144     0.430000     1.0080   ; qtot -1.000
   145          C     14      SER      C    145     0.510000    12.0110   ; qtot -0.490
   146          O     14      SER      O    146    -0.510000    15.9994   ; qtot -1.000
   147        NH1     15      GLY      N    147    -0.470000    14.0070   ; qtot -1.470
   148          H     15      GLY     HN    148     0.310000     1.0080   ; qtot -1.160
   149        CT2     15      GLY     CA    149    -0.020000    12.0110   ; qtot -1.180
   150        HB2     15      GLY    HA1    150     0.090000     1.0080   ; qtot -1.090
   151        HB2     15      GLY    HA2    151     0.090000     1.0080   ; qtot -1.000
   152          C     15      GLY      C    152     0.510000    12.0110   ; qtot -0.490
   153          O     15      GLY      O    153    -0.510000    15.9994   ; qtot -1.000
   154          N     16      PRO      N    154    -0.290000    14.0070   ; qtot -1.290
   155        CP3     16      PRO     CD    155     0.000000    12.0110   ; qtot -1.290
   156        HA2     16      PRO    HD1    156     0.090000     1.0080   ; qtot -1.200
   157        HA2     16      PRO    HD2    157     0.090000     1.0080   ; qtot -1.110
   158        CP1     16      PRO     CA    158     0.020000    12.0110   ; qtot -1.090
   159        HB1     16      PRO     HA    159     0.090000     1.0080   ; qtot -1.000
   160        CP2     16      PRO     CB    160    -0.180000    12.0110   ; qtot -1.180
   161        HA2     16      PRO    HB1    161     0.090000     1.0080   ; qtot -1.090
   162        HA2     16      PRO    HB2    162     0.090000     1.0080   ; qtot -1.000
   163        CP2     16      PRO     CG    163    -0.180000    12.0110   ; qtot -1.180
   164        HA2     16      PRO    HG1    164     0.090000     1.0080   ; qtot -1.090
   165        HA2     16      PRO    HG2    165     0.090000     1.0080   ; qtot -1.000
   166          C     16      PRO      C    166     0.510000    12.0110   ; qtot -0.490
   167          O     16      PRO      O    167    -0.510000    15.9994   ; qtot -1.000
   168        NH1     17      GLY      N    168    -0.470000    14.0070   ; qtot -1.470
   169          H     17      GLY     HN    169     0.310000     1.0080   ; qtot -1.160
   170        CT2     17      GLY     CA    170    -0.020000    12.0110   ; qtot -1.180
   171        HB2     17      GLY    HA1    171     0.090000     1.0080   ; qtot -1.090
   172        HB2     17      GLY    HA2    172     0.090000     1.0080   ; qtot -1.000
   173          C     17      GLY      C    173     0.510000    12.0110   ; qtot -0.490
   174          O     17      GLY      O    174    -0.510000    15.9994   ; qtot -1.000
   175        NH1     18      ASP      N    175    -0.470000    14.0070   ; qtot -1.470
   176          H     18      ASP     HN    176     0.310000     1.0080   ; qtot -1.160
   177        CT1     18      ASP     CA    177     0.070000    12.0110   ; qtot -1.090
   178        HB1     18      ASP     HA    178     0.090000     1.0080   ; qtot -1.000
   179       CT2A     18      ASP     CB    179    -0.280000    12.0110   ; qtot -1.280
   180        HA2     18      ASP    HB1    180     0.090000     1.0080   ; qtot -1.190
   181        HA2     18      ASP    HB2    181     0.090000     1.0080   ; qtot -1.100
   182         CC     18      ASP     CG    182     0.620000    12.0110   ; qtot -0.480
   183         OC     18      ASP    OD1    183    -0.760000    15.9994   ; qtot -1.240
   184         OC     18      ASP    OD2    184    -0.760000    15.9994   ; qtot -2.000
   185          C     18      ASP      C    185     0.510000    12.0110   ; qtot -1.490
   186          O     18      ASP      O    186    -0.510000    15.9994   ; qtot -2.000
   187          N     19      PRO      N    187    -0.290000    14.0070   ; qtot -2.290
   188        CP3     19      PRO     CD    188     0.000000    12.0110   ; qtot -2.290
   189        HA2     19      PRO    HD1    189     0.090000     1.0080   ; qtot -2.200
   190        HA2     19      PRO    HD2    190     0.090000     1.0080   ; qtot -2.110
   191        CP1     19      PRO     CA    191     0.020000    12.0110   ; qtot -2.090
   192        HB1     19      PRO     HA    192     0.090000     1.0080   ; qtot -2.000
   193        CP2     19      PRO     CB    193    -0.180000    12.0110   ; qtot -2.180
   194        HA2     19      PRO    HB1    194     0.090000     1.0080   ; qtot -2.090
   195        HA2     19      PRO    HB2    195     0.090000     1.0080   ; qtot -2.000
   196        CP2     19      PRO     CG    196    -0.180000    12.0110   ; qtot -2.180
   197        HA2     19      PRO    HG1    197     0.090000     1.0080   ; qtot -2.090
   198        HA2     19      PRO    HG2    198     0.090000     1.0080   ; qtot -2.000
   199         CC     19      PRO      C    199     0.340000    12.0110   ; qtot -1.660
   200         OC     19      PRO    OT1    200    -0.670000    15.9994   ; qtot -2.330
   201         OC     19      PRO    OT2    201    -0.670000    15.9994   ; qtot -3.000

[ bonds ]
; ai	aj	funct	b0	Kb
    2     1     1
    3     1     1
    4     1     1
    1     5     1
    5     6     1
    5     7     1
    8     5     1
    9     8     1
    8    10     1
   10    11     1
   10    14     1
   12    11     1
   13    11     1
   19    11     1
   15    14     1
   14    16     1
   22    14     1
   17    16     1
   18    16     1
   16    19     1
   20    19     1
   21    19     1
   23    22     1
   22    24     1
   24    25     1
   24    26     1
   26    27     1
   26    28     1
   29    26     1
   30    29     1
   29    31     1
   31    32     1
   31    33     1
   33    34     1
   35    33     1
   41    33     1
   35    36     1
   35    37     1
   38    35     1
   38    39     1
   40    38     1
   42    41     1
   41    43     1
   43    44     1
   43    47     1
   45    44     1
   46    44     1
   52    44     1
   48    47     1
   47    49     1
   55    47     1
   50    49     1
   51    49     1
   49    52     1
   53    52     1
   54    52     1
   56    55     1
   55    57     1
   57    58     1
   57    59     1
   59    60     1
   59    61     1
   62    59     1
   63    62     1
   62    64     1
   64    65     1
   64    66     1
   66    67     1
   68    66     1
   73    66     1
   68    69     1
   68    70     1
   71    68     1
   71    72     1
   74    73     1
   73    75     1
   75    76     1
   75    77     1
   77    78     1
   77    79     1
   80    77     1
   81    80     1
   80    82     1
   82    83     1
   82    86     1
   84    83     1
   85    83     1
   91    83     1
   87    86     1
   86    88     1
   94    86     1
   89    88     1
   90    88     1
   88    91     1
   92    91     1
   93    91     1
   95    94     1
   94    96     1
   96    97     1
   96    98     1
   98    99     1
   98   100     1
  101    98     1
  102   101     1
  101   103     1
  103   104     1
  103   105     1
  105   106     1
  107   105     1
  113   105     1
  107   108     1
  107   109     1
  110   107     1
  110   111     1
  112   110     1
  114   113     1
  113   115     1
  115   116     1
  115   119     1
  117   116     1
  118   116     1
  124   116     1
  120   119     1
  119   121     1
  127   119     1
  122   121     1
  123   121     1
  121   124     1
  125   124     1
  126   124     1
  128   127     1
  127   129     1
  129   130     1
  129   131     1
  131   132     1
  131   133     1
  134   131     1
  135   134     1
  134   136     1
  136   137     1
  136   138     1
  138   139     1
  140   138     1
  145   138     1
  140   141     1
  140   142     1
  143   140     1
  143   144     1
  146   145     1
  145   147     1
  147   148     1
  147   149     1
  149   150     1
  149   151     1
  152   149     1
  153   152     1
  152   154     1
  154   155     1
  154   158     1
  156   155     1
  157   155     1
  163   155     1
  159   158     1
  158   160     1
  166   158     1
  161   160     1
  162   160     1
  160   163     1
  164   163     1
  165   163     1
  167   166     1
  166   168     1
  168   169     1
  168   170     1
  170   171     1
  170   172     1
  173   170     1
  174   173     1
  173   175     1
  175   176     1
  175   177     1
  177   178     1
  179   177     1
  185   177     1
  179   180     1
  179   181     1
  182   179     1
  182   183     1
  184   182     1
  186   185     1
  185   187     1
  187   188     1
  187   191     1
  189   188     1
  190   188     1
  196   188     1
  192   191     1
  191   193     1
  199   191     1
  194   193     1
  195   193     1
  193   196     1
  197   196     1
  198   196     1
  199   200     1
  199   201     1

[ pairs ]
; ai	aj	funct	c6	c12 or
; ai	aj	funct	fudgeQQ	q1	q2	c6	c12
    1     9     1
    1    10     1
    2     6     1
    2     7     1
    2     8     1
    3     6     1
    3     7     1
    3     8     1
    4     6     1
    4     7     1
    4     8     1
    5    11     1
    5    14     1
    6     9     1
    6    10     1
    7     9     1
    7    10     1
    8    12     1
    8    13     1
    8    15     1
    8    16     1
    8    19     1
    8    22     1
    9    11     1
    9    14     1
   10    17     1
   10    18     1
   10    20     1
   10    21     1
   10    23     1
   10    24     1
   11    15     1
   11    17     1
   11    18     1
   11    22     1
   12    14     1
   12    16     1
   12    20     1
   12    21     1
   13    14     1
   13    16     1
   13    20     1
   13    21     1
   14    20     1
   14    21     1
   14    25     1
   14    26     1
   15    17     1
   15    18     1
   15    19     1
   15    23     1
   15    24     1
   16    23     1
   16    24     1
   17    20     1
   17    21     1
   17    22     1
   18    20     1
   18    21     1
   18    22     1
   19    22     1
   22    27     1
   22    28     1
   22    29     1
   23    25     1
   23    26     1
   24    30     1
   24    31     1
   25    27     1
   25    28     1
   25    29     1
   26    32     1
   26    33     1
   27    30     1
   27    31     1
   28    30     1
   28    31     1
   29    34     1
   29    35     1
   29    41     1
   30    32     1
   30    33     1
   31    36     1
   31    37     1
   31    38     1
   31    42     1
   31    43     1
   32    34     1
   32    35     1
   32    41     1
   33    39     1
   33    40     1
   33    44     1
   33    47     1
   34    36     1
   34    37     1
   34    38     1
   34    42     1
   34    43     1
   35    42     1
   35    43     1
   36    39     1
   36    40     1
   36    41     1
   37    39     1
   37    40     1
   37    41     1
   38    41     1
   41    45     1
   41    46     1
   41    48     1
   41    49     1
   41    52     1
   41    55     1
   42    44     1
   42    47     1
   43    50     1
   43    51     1
   43    53     1
   43    54     1
   43    56     1
   43    57     1
   44    48     1
   44    50     1
   44    51     1
   44    55     1
   45    47     1
   45    49     1
   45    53     1
   45    54     1
   46    47     1
   46    49     1
   46    53     1
   46    54     1
   47    53     1
   47    54     1
   47    58     1
   47    59     1
   48    50     1
   48    51     1
   48    52     1
   48    56     1
   48    57     1
   49    56     1
   49    57     1
   50    53     1
   50    54     1
   50    55     1
   51    53     1
   51    54     1
   51    55     1
   52    55     1
   55    60     1
   55    61     1
   55    62     1
   56    58     1
   56    59     1
   57    63     1
   57    64     1
   58    60     1
   58    61     1
   58    62     1
   59    65     1
   59    66     1
   60    63     1
   60    64     1
   61    63     1
   61    64     1
   62    67     1
   62    68     1
   62    73     1
   63    65     1
   63    66     1
   64    69     1
   64    70     1
   64    71     1
   64    74     1
   64    75     1
   65    67     1
   65    68     1
   65    73     1
   66    72     1
   66    76     1
   66    77     1
   67    69     1
   67    70     1
   67    71     1
   67    74     1
   67    75     1
   68    74     1
   68    75     1
   69    72     1
   69    73     1
   70    72     1
   70    73     1
   71    73     1
   73    78     1
   73    79     1
   73    80     1
   74    76     1
   74    77     1
   75    81     1
   75    82     1
   76    78     1
   76    79     1
   76    80     1
   77    83     1
   77    86     1
   78    81     1
   78    82     1
   79    81     1
   79    82     1
   80    84     1
   80    85     1
   80    87     1
   80    88     1
   80    91     1
   80    94     1
   81    83     1
   81    86     1
   82    89     1
   82    90     1
   82    92     1
   82    93     1
   82    95     1
   82    96     1
   83    87     1
   83    89     1
   83    90     1
   83    94     1
   84    86     1
   84    88     1
   84    92     1
   84    93     1
   85    86     1
   85    88     1
   85    92     1
   85    93     1
   86    92     1
   86    93     1
   86    97     1
   86    98     1
   87    89     1
   87    90     1
   87    91     1
   87    95     1
   87    96     1
   88    95     1
   88    96     1
   89    92     1
   89    93     1
   89    94     1
   90    92     1
   90    93     1
   90    94     1
   91    94     1
   94    99     1
   94   100     1
   94   101     1
   95    97     1
   95    98     1
   96   102     1
   96   103     1
   97    99     1
   97   100     1
   97   101     1
   98   104     1
   98   105     1
   99   102     1
   99   103     1
  100   102     1
  100   103     1
  101   106     1
  101   107     1
  101   113     1
  102   104     1
  102   105     1
  103   108     1
  103   109     1
  103   110     1
  103   114     1
  103   115     1
  104   106     1
  104   107     1
  104   113     1
  105   111     1
  105   112     1
  105   116     1
  105   119     1
  106   108     1
  106   109     1
  106   110     1
  106   114     1
  106   115     1
  107   114     1
  107   115     1
  108   111     1
  108   112     1
  108   113     1
  109   111     1
  109   112     1
  109   113     1
  110   113     1
  113   117     1
  113   118     1
  113   120     1
  113   121     1
  113   124     1
  113   127     1
  114   116     1
  114   119     1
  115   122     1
  115   123     1
  115   125     1
  115   126     1
  115   128     1
  115   129     1
  116   120     1
  116   122     1
  116   123     1
  116   127     1
  117   119     1
  117   121     1
  117   125     1
  117   126     1
  118   119     1
  118   121     1
  118   125     1
  118   126     1
  119   125     1
  119   126     1
  119   130     1
  119   131     1
  120   122     1
  120   123     1
  120   124     1
  120   128     1
  120   129     1
  121   128     1
  121   129     1
  122   125     1
  122   126     1
  122   127     1
  123   125     1
  123   126     1
  123   127     1
  124   127     1
  127   132     1
  127   133     1
  127   134     1
  128   130     1
  128   131     1
  129   135     1
  129   136     1
  130   132     1
  130   133     1
  130   134     1
  131   137     1
  131   138     1
  132   135     1
  132   136     1
  133   135     1
  133   136     1
  134   139     1
  134   140     1
  134   145     1
  135   137     1
  135   138     1
  136   141     1
  136   142     1
  136   143     1
  136   146     1
  136   147     1
  137   139     1
  137   140     1
  137   145     1
  138   144     1
  138   148     1
  138   149     1
  139   141     1
  139   142     1
  139   143     1
  139   146     1
  139   147     1
  140   146     1
  140   147     1
  141   144     1
  141   145     1
  142   144     1
  142   145     1
  143   145     1
  145   150     1
  145   151     1
  145   152     1
  146   148     1
  146   149     1
  147   153     1
  147   154     1
  148   150     1
  148   151     1
  148   152     1
  149   155     1
  149   158     1
  150   153     1
  150   154     1
  151   153     1
  151   154     1
  152   156     1
  152   157     1
  152   159     1
  152   160     1
  152   163     1
  152   166     1
  153   155     1
  153   158     1
  154   161     1
  154   162     1
  154   164     1
  154   165     1
  154   167     1
  154   168     1
  155   159     1
  155   161     1
  155   162     1
  155   166     1
  156   158     1
  156   160     1
  156   164     1
  156   165     1
  157   158     1
  157   160     1
  157   164     1
  157   165     1
  158   164     1
  158   165     1
  158   169     1
  158   170     1
  159   161     1
  159   162     1
  159   163     1
  159   167     1
  159   168     1
  160   167     1
  160   168     1
  161   164     1
  161   165     1
  161   166     1
  162   164     1
  162   165     1
  162   166     1
  163   166     1
  166   171     1
  166   172     1
  166   173     1
  167   169     1
  167   170     1
  168   174     1
  168   175     1
  169   171     1
  169   172     1
  169   173     1
  170   176     1
  170   177     1
  171   174     1
  171   175     1
  172   174     1
  172   175     1
  173   178     1
  173   179     1
  173   185     1
  174   176     1
  174   177     1
  175   180     1
  175   181     1
  175   182     1
  175   186     1
  175   187     1
  176   178     1
  176   179     1
  176   185     1
  177   183     1
  177   184     1
  177   188     1
  177   191     1
  178   180     1
  178   181     1
  178   182     1
  178   186     1
  178   187     1
  179   186     1
  179   187     1
  180   183     1
  180   184     1
  180   185     1
  181   183     1
  181   184     1
  181   185     1
  182   185     1
  185   189     1
  185   190     1
  185   192     1
  185   193     1
  185   196     1
  185   199     1
  186   188     1
  186   191     1
  187   194     1
  187   195     1
  187   197     1
  187   198     1
  187   200     1
  187   201     1
  188   192     1
  188   194     1
  188   195     1
  188   199     1
  189   191     1
  189   193     1
  189   197     1
  189   198     1
  190   191     1
  190   193     1
  190   197     1
  190   198     1
  191   197     1
  191   198     1
  192   194     1
  192   195     1
  192   196     1
  192   200     1
  192   201     1
  193   200     1
  193   201     1
  194   197     1
  194   198     1
  194   199     1
  195   197     1
  195   198     1
  195   199     1
  196   199     1

[ angles ] 
; ai	aj	ak	funct	th0	cth	S0	Kub
    2     1     3     5
    2     1     4     5
    2     1     5     5
    3     1     4     5
    3     1     5     5
    4     1     5     5
    1     5     6     5
    1     5     7     5
    1     5     8     5
    6     5     7     5
    6     5     8     5
    7     5     8     5
    5     8     9     5
    5     8    10     5
    9     8    10     5
    8    10    11     5
    8    10    14     5
   11    10    14     5
   10    11    12     5
   10    11    13     5
   10    11    19     5
   12    11    13     5
   12    11    19     5
   13    11    19     5
   10    14    15     5
   10    14    16     5
   10    14    22     5
   15    14    16     5
   15    14    22     5
   16    14    22     5
   14    16    17     5
   14    16    18     5
   14    16    19     5
   17    16    18     5
   17    16    19     5
   18    16    19     5
   11    19    16     5
   11    19    20     5
   11    19    21     5
   16    19    20     5
   16    19    21     5
   20    19    21     5
   14    22    23     5
   14    22    24     5
   23    22    24     5
   22    24    25     5
   22    24    26     5
   25    24    26     5
   24    26    27     5
   24    26    28     5
   24    26    29     5
   27    26    28     5
   27    26    29     5
   28    26    29     5
   26    29    30     5
   26    29    31     5
   30    29    31     5
   29    31    32     5
   29    31    33     5
   32    31    33     5
   31    33    34     5
   31    33    35     5
   31    33    41     5
   34    33    35     5
   34    33    41     5
   35    33    41     5
   33    35    36     5
   33    35    37     5
   33    35    38     5
   36    35    37     5
   36    35    38     5
   37    35    38     5
   35    38    39     5
   35    38    40     5
   39    38    40     5
   33    41    42     5
   33    41    43     5
   42    41    43     5
   41    43    44     5
   41    43    47     5
   44    43    47     5
   43    44    45     5
   43    44    46     5
   43    44    52     5
   45    44    46     5
   45    44    52     5
   46    44    52     5
   43    47    48     5
   43    47    49     5
   43    47    55     5
   48    47    49     5
   48    47    55     5
   49    47    55     5
   47    49    50     5
   47    49    51     5
   47    49    52     5
   50    49    51     5
   50    49    52     5
   51    49    52     5
   44    52    49     5
   44    52    53     5
   44    52    54     5
   49    52    53     5
   49    52    54     5
   53    52    54     5
   47    55    56     5
   47    55    57     5
   56    55    57     5
   55    57    58     5
   55    57    59     5
   58    57    59     5
   57    59    60     5
   57    59    61     5
   57    59    62     5
   60    59    61     5
   60    59    62     5
   61    59    62     5
   59    62    63     5
   59    62    64     5
   63    62    64     5
   62    64    65     5
   62    64    66     5
   65    64    66     5
   64    66    67     5
   64    66    68     5
   64    66    73     5
   67    66    68     5
   67    66    73     5
   68    66    73     5
   66    68    69     5
   66    68    70     5
   66    68    71     5
   69    68    70     5
   69    68    71     5
   70    68    71     5
   68    71    72     5
   66    73    74     5
   66    73    75     5
   74    73    75     5
   73    75    76     5
   73    75    77     5
   76    75    77     5
   75    77    78     5
   75    77    79     5
   75    77    80     5
   78    77    79     5
   78    77    80     5
   79    77    80     5
   77    80    81     5
   77    80    82     5
   81    80    82     5
   80    82    83     5
   80    82    86     5
   83    82    86     5
   82    83    84     5
   82    83    85     5
   82    83    91     5
   84    83    85     5
   84    83    91     5
   85    83    91     5
   82    86    87     5
   82    86    88     5
   82    86    94     5
   87    86    88     5
   87    86    94     5
   88    86    94     5
   86    88    89     5
   86    88    90     5
   86    88    91     5
   89    88    90     5
   89    88    91     5
   90    88    91     5
   83    91    88     5
   83    91    92     5
   83    91    93     5
   88    91    92     5
   88    91    93     5
   92    91    93     5
   86    94    95     5
   86    94    96     5
   95    94    96     5
   94    96    97     5
   94    96    98     5
   97    96    98     5
   96    98    99     5
   96    98   100     5
   96    98   101     5
   99    98   100     5
   99    98   101     5
  100    98   101     5
   98   101   102     5
   98   101   103     5
  102   101   103     5
  101   103   104     5
  101   103   105     5
  104   103   105     5
  103   105   106     5
  103   105   107     5
  103   105   113     5
  106   105   107     5
  106   105   113     5
  107   105   113     5
  105   107   108     5
  105   107   109     5
  105   107   110     5
  108   107   109     5
  108   107   110     5
  109   107   110     5
  107   110   111     5
  107   110   112     5
  111   110   112     5
  105   113   114     5
  105   113   115     5
  114   113   115     5
  113   115   116     5
  113   115   119     5
  116   115   119     5
  115   116   117     5
  115   116   118     5
  115   116   124     5
  117   116   118     5
  117   116   124     5
  118   116   124     5
  115   119   120     5
  115   119   121     5
  115   119   127     5
  120   119   121     5
  120   119   127     5
  121   119   127     5
  119   121   122     5
  119   121   123     5
  119   121   124     5
  122   121   123     5
  122   121   124     5
  123   121   124     5
  116   124   121     5
  116   124   125     5
  116   124   126     5
  121   124   125     5
  121   124   126     5
  125   124   126     5
  119   127   128     5
  119   127   129     5
  128   127   129     5
  127   129   130     5
  127   129   131     5
  130   129   131     5
  129   131   132     5
  129   131   133     5
  129   131   134     5
  132   131   133     5
  132   131   134     5
  133   131   134     5
  131   134   135     5
  131   134   136     5
  135   134   136     5
  134   136   137     5
  134   136   138     5
  137   136   138     5
  136   138   139     5
  136   138   140     5
  136   138   145     5
  139   138   140     5
  139   138   145     5
  140   138   145     5
  138   140   141     5
  138   140   142     5
  138   140   143     5
  141   140   142     5
  141   140   143     5
  142   140   143     5
  140   143   144     5
  138   145   146     5
  138   145   147     5
  146   145   147     5
  145   147   148     5
  145   147   149     5
  148   147   149     5
  147   149   150     5
  147   149   151     5
  147   149   152     5
  150   149   151     5
  150   149   152     5
  151   149   152     5
  149   152   153     5
  149   152   154     5
  153   152   154     5
  152   154   155     5
  152   154   158     5
  155   154   158     5
  154   155   156     5
  154   155   157     5
  154   155   163     5
  156   155   157     5
  156   155   163     5
  157   155   163     5
  154   158   159     5
  154   158   160     5
  154   158   166     5
  159   158   160     5
  159   158   166     5
  160   158   166     5
  158   160   161     5
  158   160   162     5
  158   160   163     5
  161   160   162     5
  161   160   163     5
  162   160   163     5
  155   163   160     5
  155   163   164     5
  155   163   165     5
  160   163   164     5
  160   163   165     5
  164   163   165     5
  158   166   167     5
  158   166   168     5
  167   166   168     5
  166   168   169     5
  166   168   170     5
  169   168   170     5
  168   170   171     5
  168   170   172     5
  168   170   173     5
  171   170   172     5
  171   170   173     5
  172   170   173     5
  170   173   174     5
  170   173   175     5
  174   173   175     5
  173   175   176     5
  173   175   177     5
  176   175   177     5
  175   177   178     5
  175   177   179     5
  175   177   185     5
  178   177   179     5
  178   177   185     5
  179   177   185     5
  177   179   180     5
  177   179   181     5
  177   179   182     5
  180   179   181     5
  180   179   182     5
  181   179   182     5
  179   182   183     5
  179   182   184     5
  183   182   184     5
  177   185   186     5
  177   185   187     5
  186   185   187     5
  185   187   188     5
  185   187   191     5
  188   187   191     5
  187   188   189     5
  187   188   190     5
  187   188   196     5
  189   188   190     5
  189   188   196     5
  190   188   196     5
  187   191   192     5
  187   191   193     5
  187   191   199     5
  192   191   193     5
  192   191   199     5
  193   191   199     5
  191   193   194     5
  191   193   195     5
  191   193   196     5
  194   193   195     5
  194   193   196     5
  195   193   196     5
  188   196   193     5
  188   196   197     5
  188   196   198     5
  193   196   197     5
  193   196   198     5
  197   196   198     5
  191   199   200     5
  191   199   201     5
  200   199   201     5

[ dihedrals ]
; ai	aj	ak	al	funct	phi0	cp	mult
    2     1     5     6     9
    2     1     5     7     9
    2     1     5     8     9
    3     1     5     6     9
    3     1     5     7     9
    3     1     5     8     9
    4     1     5     6     9
    4     1     5     7     9
    4     1     5     8     9
    1     5     8     9     9
    1     5     8    10     9
    6     5     8     9     9
    6     5     8    10     9
    7     5     8     9     9
    7     5     8    10     9
    5     8    10    11     9
    5     8    10    14     9
    9     8    10    11     9
    9     8    10    14     9
    8    10    11    12     9
    8    10    11    13     9
    8    10    11    19     9
   14    10    11    19     9
    8    10    14    15     9
    8    10    14    16     9
    8    10    14    22     9
   11    10    14    15     9
   11    10    14    16     9
   11    10    14    22     9
   12    11    10    14     9
   13    11    10    14     9
   10    11    19    16     9
   10    11    19    20     9
   10    11    19    21     9
   12    11    19    16     9
   12    11    19    20     9
   12    11    19    21     9
   13    11    19    16     9
   13    11    19    20     9
   13    11    19    21     9
   10    14    16    17     9
   10    14    16    18     9
   10    14    16    19     9
   15    14    16    17     9
   15    14    16    18     9
   15    14    16    19     9
   10    14    22    23     9
   10    14    22    24     9
   15    14    22    23     9
   15    14    22    24     9
   16    14    22    23     9
   16    14    22    24     9
   17    16    14    22     9
   18    16    14    22     9
   19    16    14    22     9
   14    16    19    20     9
   14    16    19    21     9
   17    16    19    20     9
   17    16    19    21     9
   18    16    19    20     9
   18    16    19    21     9
   11    19    16    14     9
   11    19    16    17     9
   11    19    16    18     9
   14    22    24    25     9
   14    22    24    26     9
   23    22    24    25     9
   23    22    24    26     9
   22    24    26    27     9
   22    24    26    28     9
   22    24    26    29     9
   25    24    26    27     9
   25    24    26    28     9
   25    24    26    29     9
   24    26    29    30     9
   24    26    29    31     9
   27    26    29    30     9
   27    26    29    31     9
   28    26    29    30     9
   28    26    29    31     9
   26    29    31    32     9
   26    29    31    33     9
   30    29    31    32     9
   30    29    31    33     9
   29    31    33    34     9
   29    31    33    35     9
   29    31    33    41     9
   32    31    33    34     9
   32    31    33    35     9
   32    31    33    41     9
   31    33    35    36     9
   31    33    35    37     9
   31    33    35    38     9
   34    33    35    36     9
   34    33    35    37     9
   34    33    35    38     9
   31    33    41    42     9
   31    33    41    43     9
   34    33    41    42     9
   34    33    41    43     9
   35    33    41    42     9
   35    33    41    43     9
   36    35    33    41     9
   37    35    33    41     9
   38    35    33    41     9
   33    35    38    39     9
   33    35    38    40     9
   36    35    38    39     9
   36    35    38    40     9
   37    35    38    39     9
   37    35    38    40     9
   33    41    43    44     9
   33    41    43    47     9
   42    41    43    44     9
   42    41    43    47     9
   41    43    44    45     9
   41    43    44    46     9
   41    43    44    52     9
   47    43    44    52     9
   41    43    47    48     9
   41    43    47    49     9
   41    43    47    55     9
   44    43    47    48     9
   44    43    47    49     9
   44    43    47    55     9
   45    44    43    47     9
   46    44    43    47     9
   43    44    52    49     9
   43    44    52    53     9
   43    44    52    54     9
   45    44    52    49     9
   45    44    52    53     9
   45    44    52    54     9
   46    44    52    49     9
   46    44    52    53     9
   46    44    52    54     9
   43    47    49    50     9
   43    47    49    51     9
   43    47    49    52     9
   48    47    49    50     9
   48    47    49    51     9
   48    47    49    52     9
   43    47    55    56     9
   43    47    55    57     9
   48    47    55    56     9
   48    47    55    57     9
   49    47    55    56     9
   49    47    55    57     9
   50    49    47    55     9
   51    49    47    55     9
   52    49    47    55     9
   47    49    52    53     9
   47    49    52    54     9
   50    49    52    53     9
   50    49    52    54     9
   51    49    52    53     9
   51    49    52    54     9
   44    52    49    47     9
   44    52    49    50     9
   44    52    49    51     9
   47    55    57    58     9
   47    55    57    59     9
   56    55    57    58     9
   56    55    57    59     9
   55    57    59    60     9
   55    57    59    61     9
   55    57    59    62     9
   58    57    59    60     9
   58    57    59    61     9
   58    57    59    62     9
   57    59    62    63     9
   57    59    62    64     9
   60    59    62    63     9
   60    59    62    64     9
   61    59    62    63     9
   61    59    62    64     9
   59    62    64    65     9
   59    62    64    66     9
   63    62    64    65     9
   63    62    64    66     9
   62    64    66    67     9
   62    64    66    68     9
   62    64    66    73     9
   65    64    66    67     9
   65    64    66    68     9
   65    64    66    73     9
   64    66    68    69     9
   64    66    68    70     9
   64    66    68    71     9
   67    66    68    69     9
   67    66    68    70     9
   67    66    68    71     9
   64    66    73    74     9
   64    66    73    75     9
   67    66    73    74     9
   67    66    73    75     9
   68    66    73    74     9
   68    66    73    75     9
   69    68    66    73     9
   70    68    66    73     9
   71    68    66    73     9
   66    68    71    72     9
   69    68    71    72     9
   70    68    71    72     9
   66    73    75    76     9
   66    73    75    77     9
   74    73    75    76     9
   74    73    75    77     9
   73    75    77    78     9
   73    75    77    79     9
   73    75    77    80     9
   76    75    77    78     9
   76    75    77    79     9
   76    75    77    80     9
   75    77    80    81     9
   75    77    80    82     9
   78    77    80    81     9
   78    77    80    82     9
   79    77    80    81     9
   79    77    80    82     9
   77    80    82    83     9
   77    80    82    86     9
   81    80    82    83     9
   81    80    82    86     9
   80    82    83    84     9
   80    82    83    85     9
   80    82    83    91     9
   86    82    83    91     9
   80    82    86    87     9
   80    82    86    88     9
   80    82    86    94     9
   83    82    86    87     9
   83    82    86    88     9
   83    82    86    94     9
   84    83    82    86     9
   85    83    82    86     9
   82    83    91    88     9
   82    83    91    92     9
   82    83    91    93     9
   84    83    91    88     9
   84    83    91    92     9
   84    83    91    93     9
   85    83    91    88     9
   85    83    91    92     9
   85    83    91    93     9
   82    86    88    89     9
   82    86    88    90     9
   82    86    88    91     9
   87    86    88    89     9
   87    86    88    90     9
   87    86    88    91     9
   82    86    94    95     9
   82    86    94    96     9
   87    86    94    95     9
   87    86    94    96     9
   88    86    94    95     9
   88    86    94    96     9
   89    88    86    94     9
   90    88    86    94     9
   91    88    86    94     9
   86    88    91    92     9
   86    88    91    93     9
   89    88    91    92     9
   89    88    91    93     9
   90    88    91    92     9
   90    88    91    93     9
   83    91    88    86     9
   83    91    88    89     9
   83    91    88    90     9
   86    94    96    97     9
   86    94    96    98     9
   95    94    96    97     9
   95    94    96    98     9
   94    96    98    99     9
   94    96    98   100     9
   94    96    98   101     9
   97    96    98    99     9
   97    96    98   100     9
   97    96    98   101     9
   96    98   101   102     9
   96    98   101   103     9
   99    98   101   102     9
   99    98   101   103     9
  100    98   101   102     9
  100    98   101   103     9
   98   101   103   104     9
   98   101   103   105     9
  102   101   103   104     9
  102   101   103   105     9
  101   103   105   106     9
  101   103   105   107     9
  101   103   105   113     9
  104   103   105   106     9
  104   103   105   107     9
  104   103   105   113     9
  103   105   107   108     9
  103   105   107   109     9
  103   105   107   110     9
  106   105   107   108     9
  106   105   107   109     9
  106   105   107   110     9
  103   105   113   114     9
  103   105   113   115     9
  106   105   113   114     9
  106   105   113   115     9
  107   105   113   114     9
  107   105   113   115     9
  108   107   105   113     9
  109   107   105   113     9
  110   107   105   113     9
  105   107   110   111     9
  105   107   110   112     9
  108   107   110   111     9
  108   107   110   112     9
  109   107   110   111     9
  109   107   110   112     9
  105   113   115   116     9
  105   113   115   119     9
  114   113   115   116     9
  114   113   115   119     9
  113   115   116   117     9
  113   115   116   118     9
  113   115   116   124     9
  119   115   116   124     9
  113   115   119   120     9
  113   115   119   121     9
  113   115   119   127     9
  116   115   119   120     9
  116   115   119   121     9
  116   115   119   127     9
  117   116   115   119     9
  118   116   115   119     9
  115   116   124   121     9
  115   116   124   125     9
  115   116   124   126     9
  117   116   124   121     9
  117   116   124   125     9
  117   116   124   126     9
  118   116   124   121     9
  118   116   124   125     9
  118   116   124   126     9
  115   119   121   122     9
  115   119   121   123     9
  115   119   121   124     9
  120   119   121   122     9
  120   119   121   123     9
  120   119   121   124     9
  115   119   127   128     9
  115   119   127   129     9
  120   119   127   128     9
  120   119   127   129     9
  121   119   127   128     9
  121   119   127   129     9
  122   121   119   127     9
  123   121   119   127     9
  124   121   119   127     9
  119   121   124   125     9
  119   121   124   126     9
  122   121   124   125     9
  122   121   124   126     9
  123   121   124   125     9
  123   121   124   126     9
  116   124   121   119     9
  116   124   121   122     9
  116   124   121   123     9
  119   127   129   130     9
  119   127   129   131     9
  128   127   129   130     9
  128   127   129   131     9
  127   129   131   132     9
  127   129   131   133     9
  127   129   131   134     9
  130   129   131   132     9
  130   129   131   133     9
  130   129   131   134     9
  129   131   134   135     9
  129   131   134   136     9
  132   131   134   135     9
  132   131   134   136     9
  133   131   134   135     9
  133   131   134   136     9
  131   134   136   137     9
  131   134   136   138     9
  135   134   136   137     9
  135   134   136   138     9
  134   136   138   139     9
  134   136   138   140     9
  134   136   138   145     9
  137   136   138   139     9
  137   136   138   140     9
  137   136   138   145     9
  136   138   140   141     9
  136   138   140   142     9
  136   138   140   143     9
  139   138   140   141     9
  139   138   140   142     9
  139   138   140   143     9
  136   138   145   146     9
  136   138   145   147     9
  139   138   145   146     9
  139   138   145   147     9
  140   138   145   146     9
  140   138   145   147     9
  141   140   138   145     9
  142   140   138   145     9
  143   140   138   145     9
  138   140   143   144     9
  141   140   143   144     9
  142   140   143   144     9
  138   145   147   148     9
  138   145   147   149     9
  146   145   147   148     9
  146   145   147   149     9
  145   147   149   150     9
  145   147   149   151     9
  145   147   149   152     9
  148   147   149   150     9
  148   147   149   151     9
  148   147   149   152     9
  147   149   152   153     9
  147   149   152   154     9
  150   149   152   153     9
  150   149   152   154     9
  151   149   152   153     9
  151   149   152   154     9
  149   152   154   155     9
  149   152   154   158     9
  153   152   154   155     9
  153   152   154   158     9
  152   154   155   156     9
  152   154   155   157     9
  152   154   155   163     9
  158   154   155   163     9
  152   154   158   159     9
  152   154   158   160     9
  152   154   158   166     9
  155   154   158   159     9
  155   154   158   160     9
  155   154   158   166     9
  156   155   154   158     9
  157   155   154   158     9
  154   155   163   160     9
  154   155   163   164     9
  154   155   163   165     9
  156   155   163   160     9
  156   155   163   164     9
  156   155   163   165     9
  157   155   163   160     9
  157   155   163   164     9
  157   155   163   165     9
  154   158   160   161     9
  154   158   160   162     9
  154   158   160   163     9
  159   158   160   161     9
  159   158   160   162     9
  159   158   160   163     9
  154   158   166   167     9
  154   158   166   168     9
  159   158   166   167     9
  159   158   166   168     9
  160   158   166   167     9
  160   158   166   168     9
  161   160   158   166     9
  162   160   158   166     9
  163   160   158   166     9
  158   160   163   164     9
  158   160   163   165     9
  161   160   163   164     9
  161   160   163   165     9
  162   160   163   164     9
  162   160   163   165     9
  155   163   160   158     9
  155   163   160   161     9
  155   163   160   162     9
  158   166   168   169     9
  158   166   168   170     9
  167   166   168   169     9
  167   166   168   170     9
  166   168   170   171     9
  166   168   170   172     9
  166   168   170   173     9
  169   168   170   171     9
  169   168   170   172     9
  169   168   170   173     9
  168   170   173   174     9
  168   170   173   175     9
  171   170   173   174     9
  171   170   173   175     9
  172   170   173   174     9
  172   170   173   175     9
  170   173   175   176     9
  170   173   175   177     9
  174   173   175   176     9
  174   173   175   177     9
  173   175   177   178     9
  173   175   177   179     9
  173   175   177   185     9
  176   175   177   178     9
  176   175   177   179     9
  176   175   177   185     9
  175   177   179   180     9
  175   177   179   181     9
  175   177   179   182     9
  178   177   179   180     9
  178   177   179   181     9
  178   177   179   182     9
  175   177   185   186     9
  175   177   185   187     9
  178   177   185   186     9
  178   177   185   187     9
  179   177   185   186     9
  179   177   185   187     9
  180   179   177   185     9
  181   179   177   185     9
  182   179   177   185     9
  177   179   182   183     9
  177   179   182   184     9
  180   179   182   183     9
  180   179   182   184     9
  181   179   182   183     9
  181   179   182   184     9
  177   185   187   188     9
  177   185   187   191     9
  186   185   187   188     9
  186   185   187   191     9
  185   187   188   189     9
  185   187   188   190     9
  185   187   188   196     9
  191   187   188   196     9
  185   187   191   192     9
  185   187   191   193     9
  185   187   191   199     9
  188   187   191   192     9
  188   187   191   193     9
  188   187   191   199     9
  189   188   187   191     9
  190   188   187   191     9
  187   188   196   193     9
  187   188   196   197     9
  187   188   196   198     9
  189   188   196   193     9
  189   188   196   197     9
  189   188   196   198     9
  190   188   196   193     9
  190   188   196   197     9
  190   188   196   198     9
  187   191   193   194     9
  187   191   193   195     9
  187   191   193   196     9
  192   191   193   194     9
  192   191   193   195     9
  192   191   193   196     9
  187   191   199   200     9
  187   191   199   201     9
  192   191   199   200     9
  192   191   199   201     9
  193   191   199   200     9
  193   191   199   201     9
  194   193   191   199     9
  195   193   191   199     9
  196   193   191   199     9
  191   193   196   197     9
  191   193   196   198     9
  194   193   196   197     9
  194   193   196   198     9
  195   193   196   197     9
  195   193   196   198     9
  188   196   193   191     9
  188   196   193   194     9
  188   196   193   195     9

[ dihedrals ]
; ai	aj	ak	al	funct	q0	cq
    8     5    10     9     2
   10     8    14    11     2
   22    14    24    23     2
   24    22    26    25     2
   29    26    31    30     2
   31    29    33    32     2
   38    35    40    39     2
   41    33    43    42     2
   43    41    47    44     2
   55    47    57    56     2
   57    55    59    58     2
   62    59    64    63     2
   64    62    66    65     2
   73    66    75    74     2
   75    73    77    76     2
   80    77    82    81     2
   82    80    86    83     2
   94    86    96    95     2
   96    94    98    97     2
  101    98   103   102     2
  103   101   105   104     2
  110   107   112   111     2
  113   105   115   114     2
  115   113   119   116     2
  127   119   129   128     2
  129   127   131   130     2
  134   131   136   135     2
  136   134   138   137     2
  145   138   147   146     2
  147   145   149   148     2
  152   149   154   153     2
  154   152   158   155     2
  166   158   168   167     2
  168   166   170   169     2
  173   170   175   174     2
  175   173   177   176     2
  182   179   184   183     2
  185   177   187   186     2
  187   185   191   188     2
  199   191   201   200     2

[ cmap ] 
; ai	aj	ak	al	am	funct
    8    10    14    22    24     1
   22    24    26    29    31     1
   29    31    33    41    43     1
   41    43    47    55    57     1
   55    57    59    62    64     1
   62    64    66    73    75     1
   73    75    77    80    82     1
   80    82    86    94    96     1
   94    96    98   101   103     1
  101   103   105   113   115     1
  113   115   119   127   129     1
  127   129   131   134   136     1
  134   136   138   145   147     1
  145   147   149   152   154     1
  152   154   158   166   168     1
  166   168   170   173   175     1
  173   175   177   185   187     1

#ifdef POSRES
[ position_restraints ]
    1     1    POSRES_FC_BB    POSRES_FC_BB    POSRES_FC_BB   
    5     1    POSRES_FC_BB    POSRES_FC_BB    POSRES_FC_BB   
    8     1    POSRES_FC_BB    POSRES_FC_BB    POSRES_FC_BB   
    9     1    POSRES_FC_BB    POSRES_FC_BB    POSRES_FC_BB   
   10     1    POSRES_FC_BB    POSRES_FC_BB    POSRES_FC_BB   
   11     1    POSRES_FC_SC    POSRES_FC_SC    POSRES_FC_SC   
   14     1    POSRES_FC_BB    POSRES_FC_BB    POSRES_FC_BB   
   16     1    POSRES_FC_SC    POSRES_FC_SC    POSRES_FC_SC   
   19     1    POSRES_FC_SC    POSRES_FC_SC    POSRES_FC_SC   
   22     1    POSRES_FC_BB    POSRES_FC_BB    POSRES_FC_BB   
   23     1    POSRES_FC_BB    POSRES_FC_BB    POSRES_FC_BB   
   24     1    POSRES_FC_BB    POSRES_FC_BB    POSRES_FC_BB   
   26     1    POSRES_FC_BB    POSRES_FC_BB    POSRES_FC_BB   
   29     1    POSRES_FC_BB    POSRES_FC_BB    POSRES_FC_BB   
   30     1    POSRES_FC_BB    POSRES_FC_BB    POSRES_FC_BB   
   31     1    POSRES_FC_BB    POSRES_FC_BB    POSRES_FC_BB   
   33     1    POSRES_FC_BB    POSRES_FC_BB    POSRES_FC_BB   
   35     1    POSRES_FC_SC    POSRES_FC_SC    POSRES_FC_SC   
   38     1    POSRES_FC_SC    POSRES_FC_SC    POSRES_FC_SC   
   39     1    POSRES_FC_SC    POSRES_FC_SC    POSRES_FC_SC   
   40     1    POSRES_FC_SC    POSRES_FC_SC    POSRES_FC_SC   
   41     1    POSRES_FC_BB    POSRES_FC_BB    POSRES_FC_BB   
   42     1    POSRES_FC_BB    POSRES_FC_BB    POSRES_FC_BB   
   43     1    POSRES_FC_BB    POSRES_FC_BB    POSRES_FC_BB   
   44     1    POSRES_FC_SC    POSRES_FC_SC    POSRES_FC_SC   
   47     1    POSRES_FC_BB    POSRES_FC_BB    POSRES_FC_BB   
   49     1    POSRES_FC_SC    POSRES_FC_SC    POSRES_FC_SC   
   52     1    POSRES_FC_SC    POSRES_FC_SC    POSRES_FC_SC   
   55     1    POSRES_FC_BB    POSRES_FC_BB    POSRES_FC_BB   
   56     1    POSRES_FC_BB    POSRES_FC_BB    POSRES_FC_BB   
   57     1    POSRES_FC_BB    POSRES_FC_BB    POSRES_FC_BB   
   59     1    POSRES_FC_BB    POSRES_FC_BB    POSRES_FC_BB   
   62     1    POSRES_FC_BB    POSRES_FC_BB    POSRES_FC_BB   
   63     1    POSRES_FC_BB    POSRES_FC_BB    POSRES_FC_BB   
   64     1    POSRES_FC_BB    POSRES_FC_BB    POSRES_FC_BB   
   66     1    POSRES_FC_BB    POSRES_FC_BB    POSRES_FC_BB   
   68     1    POSRES_FC_SC    POSRES_FC_SC    POSRES_FC_SC   
   71     1    POSRES_FC_SC    POSRES_FC_SC    POSRES_FC_SC   
   73     1    POSRES_FC_BB    POSRES_FC_BB    POSRES_FC_BB   
   74     1    POSRES_FC_BB    POSRES_FC_BB    POSRES_FC_BB   
   75     1    POSRES_FC_BB    POSRES_FC_BB    POSRES_FC_BB   
   77     1    POSRES_FC_BB    POSRES_FC_BB    POSRES_FC_BB   
   80     1    POSRES_FC_BB    POSRES_FC_BB    POSRES_FC_BB   
   81     1    POSRES_FC_BB    POSRES_FC_BB    POSRES_FC_BB   
   82     1    POSRES_FC_BB    POSRES_FC_BB    POSRES_FC_BB   
   83     1    POSRES_FC_SC    POSRES_FC_SC    POSRES_FC_SC   
   86     1    POSRES_FC_BB    POSRES_FC_BB    POSRES_FC_BB   
   88     1    POSRES_FC_SC    POSRES_FC_SC    POSRES_FC_SC   
   91     1    POSRES_FC_SC    POSRES_FC_SC    POSRES_FC_SC   
   94     1    POSRES_FC_BB    POSRES_FC_BB    POSRES_FC_BB   
   95     1    POSRES_FC_BB    POSRES_FC_BB    POSRES_FC_BB   
   96     1    POSRES_FC_BB    POSRES_FC_BB    POSRES_FC_BB   
   98     1    POSRES_FC_BB    POSRES_FC_BB    POSRES_FC_BB   
  101     1    POSRES_FC_BB    POSRES_FC_BB    POSRES_FC_BB   
  102     1    POSRES_FC_BB    POSRES_FC_BB    POSRES_FC_BB   
  103     1    POSRES_FC_BB    POSRES_FC_BB    POSRES_FC_BB   
  105     1    POSRES_FC_BB    POSRES_FC_BB    POSRES_FC_BB   
  107     1    POSRES_FC_SC    POSRES_FC_SC    POSRES_FC_SC   
  110     1    POSRES_FC_SC    POSRES_FC_SC    POSRES_FC_SC   
  111     1    POSRES_FC_SC    POSRES_FC_SC    POSRES_FC_SC   
  112     1    POSRES_FC_SC    POSRES_FC_SC    POSRES_FC_SC   
  113     1    POSRES_FC_BB    POSRES_FC_BB    POSRES_FC_BB   
  114     1    POSRES_FC_BB    POSRES_FC_BB    POSRES_FC_BB   
  115     1    POSRES_FC_BB    POSRES_FC_BB    POSRES_FC_BB   
  116     1    POSRES_FC_SC    POSRES_FC_SC    POSRES_FC_SC   
  119     1    POSRES_FC_BB    POSRES_FC_BB    POSRES_FC_BB   
  121     1    POSRES_FC_SC    POSRES_FC_SC    POSRES_FC_SC   
  124     1    POSRES_FC_SC    POSRES_FC_SC    POSRES_FC_SC   
  127     1    POSRES_FC_BB    POSRES_FC_BB    POSRES_FC_BB   
  128     1    POSRES_FC_BB    POSRES_FC_BB    POSRES_FC_BB   
  129     1    POSRES_FC_BB    POSRES_FC_BB    POSRES_FC_BB   
  131     1    POSRES_FC_BB    POSRES_FC_BB    POSRES_FC_BB   
  134     1    POSRES_FC_BB    POSRES_FC_BB    POSRES_FC_BB   
  135     1    POSRES_FC_BB    POSRES_FC_BB    POSRES_FC_BB   
  136     1    POSRES_FC_BB    POSRES_FC_BB    POSRES_FC_BB   
  138     1    POSRES_FC_BB    POSRES_FC_BB    POSRES_FC_BB   
  140     1    POSRES_FC_SC    POSRES_FC_SC    POSRES_FC_SC   
  143     1    POSRES_FC_SC    POSRES_FC_SC    POSRES_FC_SC   
  145     1    POSRES_FC_BB    POSRES_FC_BB    POSRES_FC_BB   
  146     1    POSRES_FC_BB    POSRES_FC_BB    POSRES_FC_BB   
  147     1    POSRES_FC_BB    POSRES_FC_BB    POSRES_FC_BB   
  149     1    POSRES_FC_BB    POSRES_FC_BB    POSRES_FC_BB   
  152     1    POSRES_FC_BB    POSRES_FC_BB    POSRES_FC_BB   
  153     1    POSRES_FC_BB    POSRES_FC_BB    POSRES_FC_BB   
  154     1    POSRES_FC_BB    POSRES_FC_BB    POSRES_FC_BB   
  155     1    POSRES_FC_SC    POSRES_FC_SC    POSRES_FC_SC   
  158     1    POSRES_FC_BB    POSRES_FC_BB    POSRES_FC_BB   
  160     1    POSRES_FC_SC    POSRES_FC_SC    POSRES_FC_SC   
  163     1    POSRES_FC_SC    POSRES_FC_SC    POSRES_FC_SC   
  166     1    POSRES_FC_BB    POSRES_FC_BB    POSRES_FC_BB   
  167     1    POSRES_FC_BB    POSRES_FC_BB    POSRES_FC_BB   
  168     1    POSRES_FC_BB    POSRES_FC_BB    POSRES_FC_BB   
  170     1    POSRES_FC_BB    POSRES_FC_BB    POSRES_FC_BB   
  173     1    POSRES_FC_BB    POSRES_FC_BB    POSRES_FC_BB   
  174     1    POSRES_FC_BB    POSRES_FC_BB    POSRES_FC_BB   
  175     1    POSRES_FC_BB    POSRES_FC_BB    POSRES_FC_BB   
  177     1    POSRES_FC_BB    POSRES_FC_BB    POSRES_FC_BB   
  179     1    POSRES_FC_SC    POSRES_FC_SC    POSRES_FC_SC   
  182     1    POSRES_FC_SC    POSRES_FC_SC    POSRES_FC_SC   
  183     1    POSRES_FC_SC    POSRES_FC_SC    POSRES_FC_SC   
  184     1    POSRES_FC_SC    POSRES_FC_SC    POSRES_FC_SC   
  185     1    POSRES_FC_BB    POSRES_FC_BB    POSRES_FC_BB   
  186     1    POSRES_FC_BB    POSRES_FC_BB    POSRES_FC_BB   
  187     1    POSRES_FC_BB    POSRES_FC_BB    POSRES_FC_BB   
  188     1    POSRES_FC_SC    POSRES_FC_SC    POSRES_FC_SC   
  191     1    POSRES_FC_BB    POSRES_FC_BB    POSRES_FC_BB   
  193     1    POSRES_FC_SC    POSRES_FC_SC    POSRES_FC_SC   
  196     1    POSRES_FC_SC    POSRES_FC_SC    POSRES_FC_SC   
  199     1    POSRES_FC_BB    POSRES_FC_BB    POSRES_FC_BB   
  200     1    POSRES_FC_SC    POSRES_FC_SC    POSRES_FC_SC   
  201     1    POSRES_FC_SC    POSRES_FC_SC    POSRES_FC_SC   
#endif
