Title t= 121.00000 step= 60500
44469
    1GLY      N    1   5.518   5.331   4.158
    1GLY    HT1    2   5.568   5.306   4.070
    1GLY    HT2    3   5.535   5.252   4.224
    1GLY    HT3    4   5.571   5.410   4.198
    1GLY     CA    5   5.384   5.375   4.115
    1GLY    HA1    6   5.337   5.412   4.205
    1GLY    HA2    7   5.328   5.289   4.082
    1GLY      C    8   5.374   5.493   4.024
    1GLY      O    9   5.388   5.609   4.075
    2PRO      N   10   5.361   5.482   3.891
    2PRO     CD   11   5.326   5.358   3.822
    2PRO    HD1   12   5.222   5.330   3.849
    2PRO    HD2   13   5.392   5.272   3.846
    2PRO     CA   14   5.404   5.582   3.798
    2PRO     HA   15   5.493   5.638   3.822
    2PRO     CB   16   5.426   5.502   3.668
    2PRO    HB1   17   5.529   5.461   3.670
    2PRO    HB2   18   5.412   5.567   3.579
    2PRO     CG   19   5.337   5.377   3.669
    2PRO    HG1   20   5.236   5.401   3.628
    2PRO    HG2   21   5.370   5.292   3.606
    2PRO      C   22   5.299   5.689   3.793
    2PRO      O   23   5.330   5.794   3.738
    3GLY      N   24   5.181   5.669   3.854
    3GLY     HN   25   5.164   5.588   3.909
    3GLY     CA   26   5.067   5.756   3.847
    3GLY    HA1   27   4.981   5.692   3.837
    3GLY    HA2   28   5.085   5.818   3.760
    3GLY      C   29   5.052   5.838   3.962
    3GLY      O   30   4.964   5.922   3.963
    4ASN      N   31   5.132   5.821   4.067
    4ASN     HN   32   5.215   5.768   4.075
    4ASN     CA   33   5.128   5.923   4.181
    4ASN     HA   34   5.023   5.943   4.198
    4ASN     CB   35   5.188   5.878   4.315
    4ASN    HB1   36   5.143   5.944   4.393
    4ASN    HB2   37   5.297   5.878   4.299
    4ASN     CG   38   5.133   5.732   4.349
    4ASN    OD1   39   5.039   5.681   4.289
    4ASN    ND2   40   5.209   5.670   4.445
    4ASN   HD21   41   5.180   5.582   4.482
    4ASN   HD22   42   5.281   5.720   4.494
    4ASN      C   43   5.199   6.055   4.132
    4ASN      O   44   5.285   6.043   4.049
    5PRO      N   45   5.160   6.173   4.175
    5PRO     CD   46   5.064   6.189   4.277
    5PRO    HD1   47   5.103   6.146   4.372
    5PRO    HD2   48   4.970   6.143   4.240
    5PRO     CA   49   5.236   6.300   4.149
    5PRO     HA   50   5.197   6.331   4.053
    5PRO     CB   51   5.189   6.394   4.262
    5PRO    HB1   52   5.185   6.501   4.234
    5PRO    HB2   53   5.254   6.381   4.352
    5PRO     CG   54   5.052   6.342   4.305
    5PRO    HG1   55   5.020   6.369   4.408
    5PRO    HG2   56   4.970   6.384   4.243
    5PRO      C   57   5.385   6.298   4.147
    5PRO      O   58   5.440   6.229   4.227
    6GLY      N   59   5.447   6.378   4.061
    6GLY     HN   60   5.392   6.415   3.986
    6GLY     CA   61   5.591   6.396   4.054
    6GLY    HA1   62   5.604   6.439   3.956
    6GLY    HA2   63   5.631   6.296   4.046
    6GLY      C   64   5.645   6.486   4.159
    6GLY      O   65   5.591   6.507   4.271
    7PRO      N   66   5.768   6.533   4.136
    7PRO     CD   67   5.851   6.486   4.027
    7PRO    HD1   68   5.806   6.533   3.936
    7PRO    HD2   69   5.844   6.376   4.020
    7PRO     CA   70   5.835   6.628   4.222
    7PRO     HA   71   5.841   6.582   4.319
    7PRO     CB   72   5.973   6.652   4.155
    7PRO    HB1   73   6.050   6.661   4.235
    7PRO    HB2   74   5.970   6.742   4.090
    7PRO     CG   75   5.994   6.532   4.062
    7PRO    HG1   76   6.047   6.563   3.970
    7PRO    HG2   77   6.042   6.446   4.113
    7PRO      C   78   5.769   6.766   4.235
    7PRO      O   79   5.675   6.799   4.163
    8GLY      N   80   5.821   6.843   4.334
    8GLY     HN   81   5.905   6.811   4.377
    8GLY     CA   82   5.765   6.968   4.403
    8GLY    HA1   83   5.756   7.043   4.326
    8GLY    HA2   84   5.836   6.983   4.483
    8GLY      C   85   5.637   6.935   4.473
    8GLY      O   86   5.574   6.833   4.450
    9ASN      N   87   5.593   7.035   4.559
    9ASN     HN   88   5.639   7.123   4.570
    9ASN     CA   89   5.470   7.017   4.634
    9ASN     HA   90   5.478   6.927   4.694
    9ASN     CB   91   5.443   7.140   4.722
    9ASN    HB1   92   5.345   7.131   4.773
    9ASN    HB2   93   5.434   7.233   4.662
    9ASN     CG   94   5.548   7.145   4.837
    9ASN    OD1   95   5.591   7.049   4.897
    9ASN    ND2   96   5.592   7.270   4.874
    9ASN   HD21   97   5.659   7.273   4.948
    9ASN   HD22   98   5.554   7.352   4.830
    9ASN      C   99   5.337   6.995   4.546
    9ASN      O  100   5.335   7.042   4.432
   10PRO      N  101   5.234   6.931   4.595
   10PRO     CD  102   5.241   6.832   4.708
   10PRO    HD1  103   5.270   6.883   4.802
   10PRO    HD2  104   5.315   6.754   4.679
   10PRO     CA  105   5.102   6.919   4.535
   10PRO     HA  106   5.104   6.836   4.465
   10PRO     CB  107   5.012   6.887   4.657
   10PRO    HB1  108   4.916   6.843   4.622
   10PRO    HB2  109   4.997   6.976   4.721
   10PRO     CG  110   5.094   6.780   4.734
   10PRO    HG1  111   5.071   6.762   4.841
   10PRO    HG2  112   5.078   6.687   4.676
   10PRO      C  113   5.048   7.048   4.458
   10PRO      O  114   5.035   7.158   4.517
   11GLY      N  115   5.006   7.033   4.331
   11GLY     HN  116   5.013   6.946   4.283
   11GLY     CA  117   4.912   7.131   4.270
   11GLY    HA1  118   4.911   7.121   4.163
   11GLY    HA2  119   4.953   7.229   4.290
   11GLY      C  120   4.768   7.110   4.321
   11GLY      O  121   4.752   7.040   4.420
   12PRO      N  122   4.667   7.168   4.261
   12PRO     CD  123   4.682   7.274   4.159
   12PRO    HD1  124   4.741   7.240   4.071
   12PRO    HD2  125   4.736   7.361   4.201
   12PRO     CA  126   4.528   7.141   4.291
   12PRO     HA  127   4.520   7.134   4.398
   12PRO     CB  128   4.459   7.260   4.230
   12PRO    HB1  129   4.451   7.340   4.307
   12PRO    HB2  130   4.355   7.234   4.199
   12PRO     CG  131   4.545   7.319   4.121
   12PRO    HG1  132   4.511   7.266   4.029
   12PRO    HG2  133   4.537   7.430   4.119
   12PRO      C  134   4.472   7.014   4.241
   12PRO      O  135   4.463   6.996   4.120
   13GLY      N  136   4.427   6.930   4.328
   13GLY     HN  137   4.438   6.946   4.426
   13GLY     CA  138   4.363   6.800   4.294
   13GLY    HA1  139   4.268   6.820   4.246
   13GLY    HA2  140   4.353   6.759   4.393
   13GLY      C  141   4.439   6.705   4.207
   13GLY      O  142   4.559   6.718   4.179
   14ASN      N  143   4.362   6.597   4.170
   14ASN     HN  144   4.263   6.599   4.179
   14ASN     CA  145   4.429   6.483   4.101
   14ASN     HA  146   4.526   6.513   4.065
   14ASN     CB  147   4.456   6.369   4.208
   14ASN    HB1  148   4.511   6.290   4.152
   14ASN    HB2  149   4.364   6.320   4.246
   14ASN     CG  150   4.554   6.410   4.324
   14ASN    OD1  151   4.677   6.414   4.326
   14ASN    ND2  152   4.480   6.441   4.434
   14ASN   HD21  153   4.521   6.482   4.516
   14ASN   HD22  154   4.387   6.406   4.444
   14ASN      C  155   4.346   6.413   3.994
   14ASN      O  156   4.225   6.397   4.022
   15PRO      N  157   4.394   6.371   3.877
   15PRO     CD  158   4.529   6.397   3.838
   15PRO    HD1  159   4.603   6.344   3.902
   15PRO    HD2  160   4.549   6.506   3.828
   15PRO     CA  161   4.305   6.339   3.766
   15PRO     HA  162   4.227   6.411   3.748
   15PRO     CB  163   4.395   6.338   3.639
   15PRO    HB1  164   4.364   6.423   3.574
   15PRO    HB2  165   4.380   6.245   3.580
   15PRO     CG  166   4.538   6.338   3.694
   15PRO    HG1  167   4.576   6.233   3.696
   15PRO    HG2  168   4.607   6.397   3.630
   15PRO      C  169   4.226   6.204   3.780
   15PRO    OT1  170   4.103   6.207   3.770
   15PRO    OT2  171   4.287   6.101   3.795
   16LIT    LIT  172   1.900   5.869   1.577
   17LIT    LIT  173   7.078   3.219   6.381
   18LIT    LIT  174   4.746   2.768   6.581
   19LIT    LIT  175   1.156   6.967   4.714
   20LIT    LIT  176   2.119   2.057   3.314
   21LIT    LIT  177   0.800   6.135   5.829
   22LIT    LIT  178   6.373   7.260   4.139
   23LIT    LIT  179   3.906   1.839   4.516
   24LIT    LIT  180   3.789   5.310   3.152
   25LIT    LIT  181   8.123   6.511   4.449
   26LIT    LIT  182   6.313   7.380   0.287
   27LIT    LIT  183   2.653   5.691   1.552
   28LIT    LIT  184   0.229   4.321   5.913
   29LIT    LIT  185   8.098   4.736   6.493
   30LIT    LIT  186   4.136   1.569   3.149
   31LIT    LIT  187   0.278   2.687   0.553
   32LIT    LIT  188   5.860   0.849   4.403
   33LIT    LIT  189   0.808   5.372   3.488
   34LIT    LIT  190   1.102   1.379   2.035
   35LIT    LIT  191   6.084   4.484   3.252
   36LIT    LIT  192   2.908   1.146   6.234
   37LIT    LIT  193   2.768   1.871   6.414
   38LIT    LIT  194   1.243   3.544   2.755
   39LIT    LIT  195   3.771   7.226   5.237
   40LIT    LIT  196   6.586   1.521   6.706
   41LIT    LIT  197   0.947   5.435   5.128
   42LIT    LIT  198   2.378   2.677   5.212
   43LIT    LIT  199   4.110   6.020   3.847
   44LIT    LIT  200   4.114   4.257   4.475
   45LIT    LIT  201   2.046   3.291   5.316
   46LIT    LIT  202   2.635   1.653   1.287
   47LIT    LIT  203   7.350   3.101   5.709
   48LIT    LIT  204   5.896   0.852   1.369
   49LIT    LIT  205   0.307   1.250   4.978
   50LIT    LIT  206   4.785   4.377   2.087
   51LIT    LIT  207   4.926   1.393   1.900
   52LIT    LIT  208   5.840   3.599   2.244
   53LIT    LIT  209   7.487   7.681   1.676
   54LIT    LIT  210   4.870   6.667   1.299
   55LIT    LIT  211   1.524   4.060   1.021
   56LIT    LIT  212   1.293   3.152   0.041
   57LIT    LIT  213   6.838   2.763   4.463
   58CLA    CLA  214   2.157   3.415   2.409
   59CLA    CLA  215   1.574   7.510   1.414
   60CLA    CLA  216   0.047   1.467   4.091
   61CLA    CLA  217   4.777   2.127   3.910
   62CLA    CLA  218   6.002   5.905   0.510
   63CLA    CLA  219   7.898   6.673   4.102
   64CLA    CLA  220   1.356   6.067   6.551
   65CLA    CLA  221   7.191   7.113   0.609
   66CLA    CLA  222   0.518   6.535   0.452
   67CLA    CLA  223   6.802   3.699   1.533
   68CLA    CLA  224   1.597   5.675   0.628
   69CLA    CLA  225   6.348   4.384   4.730
   70CLA    CLA  226   3.071   5.908   4.069
   71CLA    CLA  227   6.870   3.728   5.063
   72CLA    CLA  228   6.210   4.892   1.871
   73CLA    CLA  229   0.663   4.700   1.929
   74CLA    CLA  230   2.423   5.121   5.324
   75CLA    CLA  231   2.114   4.084   5.444
   76CLA    CLA  232   3.643   1.528   3.978
   77CLA    CLA  233   2.780   1.209   0.418
   78CLA    CLA  234   5.672   7.776   4.873
   79CLA    CLA  235   3.226   5.197   3.392
   80CLA    CLA  236   1.248   4.781   2.790
   81CLA    CLA  237   4.261   2.964   0.129
   82CLA    CLA  238   8.008   1.514   3.818
   83CLA    CLA  239   4.807   6.562   2.283
   84CLA    CLA  240   2.099   5.523   4.058
   85CLA    CLA  241   3.024   6.363   6.264
   86CLA    CLA  242   6.478   1.285   2.421
   87CLA    CLA  243   7.149   0.948   1.368
   88CLA    CLA  244   2.760   7.479   5.747
   89CLA    CLA  245   7.070   4.564   1.235
   90CLA    CLA  246   5.672   2.969   0.105
   91CLA    CLA  247   2.876   0.891   3.236
   92CLA    CLA  248   8.238   4.835   6.329
   93CLA    CLA  249   4.354   3.195   3.853
   94CLA    CLA  250   4.465   4.340   3.637
   95CLA    CLA  251   3.456   1.724   5.381
   96CLA    CLA  252   0.630   3.608   5.780
   97CLA    CLA  253   7.710   6.067   0.545
   98CLA    CLA  254   0.660   5.859   5.135
   99CLA    CLA  255   1.706   7.728   6.765
  100TIP3   OH2  256   3.691   0.580   5.474
  100TIP3    H1  257   3.620   0.620   5.524
  100TIP3    H2  258   3.759   0.564   5.539
  101TIP3   OH2  259   0.920   4.806   3.774
  101TIP3    H1  260   0.938   4.853   3.856
  101TIP3    H2  261   0.920   4.713   3.799
  102TIP3   OH2  262   6.068   0.945   0.714
  102TIP3    H1  263   6.065   0.921   0.622
  102TIP3    H2  264   6.158   0.974   0.728
  103TIP3   OH2  265   1.859   2.966   6.457
  103TIP3    H1  266   1.945   2.965   6.414
  103TIP3    H2  267   1.877   2.996   6.546
  104TIP3   OH2  268   2.091   7.203   6.273
  104TIP3    H1  269   2.023   7.270   6.281
  104TIP3    H2  270   2.172   7.248   6.296
  105TIP3   OH2  271   0.153   5.603   0.714
  105TIP3    H1  272   0.214   5.592   0.788
  105TIP3    H2  273   0.072   5.561   0.744
  106TIP3   OH2  274   4.809   5.631   5.322
  106TIP3    H1  275   4.888   5.662   5.278
  106TIP3    H2  276   4.752   5.602   5.250
  107TIP3   OH2  277   3.967   2.409   1.599
  107TIP3    H1  278   4.048   2.461   1.601
  107TIP3    H2  279   3.945   2.395   1.691
  108TIP3   OH2  280   3.720   2.475   0.543
  108TIP3    H1  281   3.648   2.488   0.605
  108TIP3    H2  282   3.786   2.539   0.569
  109TIP3   OH2  283   5.115   4.614   5.255
  109TIP3    H1  284   5.086   4.544   5.313
  109TIP3    H2  285   5.136   4.687   5.313
  110TIP3   OH2  286   3.855   1.935   0.320
  110TIP3    H1  287   3.898   1.940   0.405
  110TIP3    H2  288   3.897   2.002   0.266
  111TIP3   OH2  289   7.450   1.462   6.055
  111TIP3    H1  290   7.507   1.423   5.989
  111TIP3    H2  291   7.490   1.548   6.073
  112TIP3   OH2  292   5.284   1.089   6.158
  112TIP3    H1  293   5.213   1.058   6.214
  112TIP3    H2  294   5.260   1.062   6.070
  113TIP3   OH2  295   4.101   2.706   0.030
  113TIP3    H1  296   4.154   2.774   0.071
  113TIP3    H2  297   4.012   2.725   0.058
  114TIP3   OH2  298   6.012   3.679   0.390
  114TIP3    H1  299   5.965   3.703   0.310
  114TIP3    H2  300   6.103   3.704   0.372
  115TIP3   OH2  301   5.565   4.241   5.087
  115TIP3    H1  302   5.542   4.269   4.998
  115TIP3    H2  303   5.499   4.283   5.143
  116TIP3   OH2  304   7.739   2.637   2.447
  116TIP3    H1  305   7.746   2.640   2.542
  116TIP3    H2  306   7.829   2.623   2.417
  117TIP3   OH2  307   4.550   4.112   4.999
  117TIP3    H1  308   4.600   4.193   4.990
  117TIP3    H2  309   4.615   4.042   4.990
  118TIP3   OH2  310   3.270   5.879   4.381
  118TIP3    H1  311   3.289   5.843   4.468
  118TIP3    H2  312   3.175   5.891   4.381
  119TIP3   OH2  313   5.045   7.054   5.531
  119TIP3    H1  314   5.058   7.147   5.548
  119TIP3    H2  315   5.096   7.009   5.598
  120TIP3   OH2  316   0.913   0.357   4.631
  120TIP3    H1  317   0.842   0.406   4.673
  120TIP3    H2  318   0.951   0.304   4.701
  121TIP3   OH2  319   2.758   5.796   4.655
  121TIP3    H1  320   2.752   5.754   4.569
  121TIP3    H2  321   2.695   5.868   4.650
  122TIP3   OH2  322   4.602   6.593   6.506
  122TIP3    H1  323   4.685   6.633   6.482
  122TIP3    H2  324   4.546   6.607   6.430
  123TIP3   OH2  325   0.187   7.019   3.649
  123TIP3    H1  326   0.250   7.085   3.676
  123TIP3    H2  327   0.117   7.068   3.607
  124TIP3   OH2  328   0.388   5.485   3.566
  124TIP3    H1  329   0.314   5.498   3.627
  124TIP3    H2  330   0.419   5.573   3.546
  125TIP3   OH2  331   4.109   7.526   0.736
  125TIP3    H1  332   4.159   7.460   0.786
  125TIP3    H2  333   4.098   7.599   0.797
  126TIP3   OH2  334   1.852   0.523   4.151
  126TIP3    H1  335   1.868   0.456   4.085
  126TIP3    H2  336   1.901   0.599   4.120
  127TIP3   OH2  337   2.258   1.175   5.442
  127TIP3    H1  338   2.316   1.098   5.444
  127TIP3    H2  339   2.218   1.177   5.529
  128TIP3   OH2  340   1.047   3.310   5.332
  128TIP3    H1  341   1.012   3.381   5.386
  128TIP3    H2  342   1.141   3.329   5.326
  129TIP3   OH2  343   1.452   2.005   5.841
  129TIP3    H1  344   1.462   2.030   5.933
  129TIP3    H2  345   1.385   2.065   5.807
  130TIP3   OH2  346   2.635   1.103   1.361
  130TIP3    H1  347   2.683   1.024   1.383
  130TIP3    H2  348   2.586   1.080   1.282
  131TIP3   OH2  349   2.513   1.824   4.992
  131TIP3    H1  350   2.518   1.729   5.004
  131TIP3    H2  351   2.420   1.841   4.981
  132TIP3   OH2  352   1.423   5.292   1.394
  132TIP3    H1  353   1.513   5.310   1.367
  132TIP3    H2  354   1.429   5.213   1.448
  133TIP3   OH2  355   1.071   3.225   2.420
  133TIP3    H1  356   1.100   3.183   2.339
  133TIP3    H2  357   1.120   3.181   2.489
  134TIP3   OH2  358   3.097   0.904   4.502
  134TIP3    H1  359   3.080   0.810   4.497
  134TIP3    H2  360   3.170   0.919   4.442
  135TIP3   OH2  361   4.652   1.806   2.158
  135TIP3    H1  362   4.674   1.846   2.242
  135TIP3    H2  363   4.562   1.835   2.141
  136TIP3   OH2  364   1.394   3.053   5.627
  136TIP3    H1  365   1.393   3.058   5.531
  136TIP3    H2  366   1.373   3.141   5.655
  137TIP3   OH2  367   2.196   6.492   1.242
  137TIP3    H1  368   2.251   6.447   1.178
  137TIP3    H2  369   2.206   6.584   1.221
  138TIP3   OH2  370   5.526   2.899   0.591
  138TIP3    H1  371   5.601   2.954   0.609
  138TIP3    H2  372   5.533   2.827   0.653
  139TIP3   OH2  373   5.139   0.786   5.567
  139TIP3    H1  374   5.201   0.789   5.640
  139TIP3    H2  375   5.114   0.877   5.552
  140TIP3   OH2  376   8.298   2.226   4.373
  140TIP3    H1  377   8.334   2.141   4.348
  140TIP3    H2  378   8.204   2.211   4.382
  141TIP3   OH2  379   6.586   1.436   3.335
  141TIP3    H1  380   6.523   1.493   3.291
  141TIP3    H2  381   6.604   1.367   3.272
  142TIP3   OH2  382   5.747   6.556   6.140
  142TIP3    H1  383   5.825   6.503   6.126
  142TIP3    H2  384   5.777   6.646   6.131
  143TIP3   OH2  385   6.531   5.956   6.194
  143TIP3    H1  386   6.509   5.993   6.108
  143TIP3    H2  387   6.610   6.003   6.221
  144TIP3   OH2  388   4.642   6.561   2.550
  144TIP3    H1  389   4.637   6.478   2.598
  144TIP3    H2  390   4.692   6.539   2.472
  145TIP3   OH2  391   5.537   1.188   5.843
  145TIP3    H1  392   5.615   1.141   5.874
  145TIP3    H2  393   5.545   1.275   5.882
  146TIP3   OH2  394   2.573   3.538   3.601
  146TIP3    H1  395   2.523   3.615   3.573
  146TIP3    H2  396   2.580   3.483   3.523
  147TIP3   OH2  397   7.268   2.056   0.558
  147TIP3    H1  398   7.360   2.078   0.572
  147TIP3    H2  399   7.220   2.119   0.612
  148TIP3   OH2  400   5.414   0.978   0.765
  148TIP3    H1  401   5.477   1.040   0.729
  148TIP3    H2  402   5.462   0.935   0.836
  149TIP3   OH2  403   1.046   1.255   4.435
  149TIP3    H1  404   1.132   1.247   4.476
  149TIP3    H2  405   0.990   1.195   4.484
  150TIP3   OH2  406   5.163   0.526   0.932
  150TIP3    H1  407   5.224   0.494   0.865
  150TIP3    H2  408   5.077   0.495   0.903
  151TIP3   OH2  409   3.938   4.297   2.295
  151TIP3    H1  410   3.967   4.275   2.206
  151TIP3    H2  411   4.016   4.286   2.349
  152TIP3   OH2  412   5.945   0.710   1.688
  152TIP3    H1  413   5.934   0.670   1.775
  152TIP3    H2  414   5.977   0.639   1.633
  153TIP3   OH2  415   1.719   3.203   0.331
  153TIP3    H1  416   1.725   3.291   0.368
  153TIP3    H2  417   1.784   3.153   0.379
  154TIP3   OH2  418   5.839   5.165   4.942
  154TIP3    H1  419   5.772   5.204   4.886
  154TIP3    H2  420   5.795   5.150   5.025
  155TIP3   OH2  421   1.438   5.935   5.002
  155TIP3    H1  422   1.460   6.028   4.993
  155TIP3    H2  423   1.411   5.908   4.914
  156TIP3   OH2  424   6.314   7.066   4.564
  156TIP3    H1  425   6.257   7.131   4.605
  156TIP3    H2  426   6.393   7.066   4.618
  157TIP3   OH2  427   6.466   3.112   3.433
  157TIP3    H1  428   6.471   3.042   3.498
  157TIP3    H2  429   6.429   3.070   3.355
  158TIP3   OH2  430   0.093   2.655   5.711
  158TIP3    H1  431   0.174   2.706   5.720
  158TIP3    H2  432   0.122   2.564   5.714
  159TIP3   OH2  433   7.883   4.125   2.308
  159TIP3    H1  434   7.829   4.170   2.373
  159TIP3    H2  435   7.827   4.054   2.275
  160TIP3   OH2  436   1.982   0.215   6.671
  160TIP3    H1  437   1.968   0.195   6.578
  160TIP3    H2  438   2.056   0.160   6.696
  161TIP3   OH2  439   5.222   2.940   3.633
  161TIP3    H1  440   5.294   2.912   3.689
  161TIP3    H2  441   5.238   2.895   3.550
  162TIP3   OH2  442   1.045   4.899   3.179
  162TIP3    H1  443   0.997   4.839   3.122
  162TIP3    H2  444   1.133   4.901   3.143
  163TIP3   OH2  445   3.263   1.267   6.284
  163TIP3    H1  446   3.256   1.204   6.213
  163TIP3    H2  447   3.281   1.214   6.362
  164TIP3   OH2  448   2.864   3.518   0.748
  164TIP3    H1  449   2.859   3.588   0.813
  164TIP3    H2  450   2.911   3.447   0.791
  165TIP3   OH2  451   2.943   6.362   4.207
  165TIP3    H1  452   2.919   6.280   4.164
  165TIP3    H2  453   2.902   6.430   4.153
  166TIP3   OH2  454   8.109   3.590   5.193
  166TIP3    H1  455   8.069   3.652   5.132
  166TIP3    H2  456   8.185   3.555   5.146
  167TIP3   OH2  457   5.618   1.658   1.163
  167TIP3    H1  458   5.633   1.735   1.218
  167TIP3    H2  459   5.522   1.649   1.159
  168TIP3   OH2  460   7.018   1.082   0.205
  168TIP3    H1  461   6.947   1.134   0.242
  168TIP3    H2  462   7.096   1.111   0.252
  169TIP3   OH2  463   3.830   4.453   0.330
  169TIP3    H1  464   3.801   4.537   0.365
  169TIP3    H2  465   3.750   4.400   0.327
  170TIP3   OH2  466   7.864   2.475   1.369
  170TIP3    H1  467   7.914   2.545   1.410
  170TIP3    H2  468   7.789   2.463   1.427
  171TIP3   OH2  469   0.068   5.535   1.553
  171TIP3    H1  470   0.160   5.561   1.548
  171TIP3    H2  471   0.071   5.441   1.573
  172TIP3   OH2  472   3.341   1.789   4.170
  172TIP3    H1  473   3.353   1.694   4.168
  172TIP3    H2  474   3.413   1.821   4.224
  173TIP3   OH2  475   0.307   2.889   2.186
  173TIP3    H1  476   0.300   2.799   2.218
  173TIP3    H2  477   0.336   2.940   2.261
  174TIP3   OH2  478   0.702   4.472   3.901
  174TIP3    H1  479   0.683   4.543   3.963
  174TIP3    H2  480   0.755   4.410   3.952
  175TIP3   OH2  481   3.646   7.028   6.739
  175TIP3    H1  482   3.701   7.010   6.663
  175TIP3    H2  483   3.568   6.973   6.726
  176TIP3   OH2  484   2.221   0.280   4.721
  176TIP3    H1  485   2.211   0.266   4.627
  176TIP3    H2  486   2.194   0.197   4.760
  177TIP3   OH2  487   2.526   0.149   6.708
  177TIP3    H1  488   2.589   0.220   6.701
  177TIP3    H2  489   2.544   0.109   6.793
  178TIP3   OH2  490   0.286   2.677   5.423
  178TIP3    H1  491   0.248   2.732   5.355
  178TIP3    H2  492   0.282   2.730   5.502
  179TIP3   OH2  493   1.914   4.093   3.960
  179TIP3    H1  494   1.952   4.017   3.916
  179TIP3    H2  495   1.868   4.140   3.891
  180TIP3   OH2  496   3.343   5.570   0.219
  180TIP3    H1  497   3.329   5.659   0.251
  180TIP3    H2  498   3.418   5.538   0.269
  181TIP3   OH2  499   2.805   0.979   4.491
  181TIP3    H1  500   2.746   0.978   4.567
  181TIP3    H2  501   2.887   1.015   4.526
  182TIP3   OH2  502   0.110   7.259   0.114
  182TIP3    H1  503   0.098   7.345   0.153
  182TIP3    H2  504   0.202   7.258   0.086
  183TIP3   OH2  505   7.897   0.866   2.980
  183TIP3    H1  506   7.982   0.879   2.937
  183TIP3    H2  507   7.912   0.891   3.071
  184TIP3   OH2  508   2.869   4.429   1.763
  184TIP3    H1  509   2.868   4.525   1.765
  184TIP3    H2  510   2.961   4.407   1.747
  185TIP3   OH2  511   1.543   3.229   2.229
  185TIP3    H1  512   1.568   3.315   2.195
  185TIP3    H2  513   1.625   3.180   2.233
  186TIP3   OH2  514   7.859   1.293   5.748
  186TIP3    H1  515   7.906   1.326   5.671
  186TIP3    H2  516   7.766   1.304   5.726
  187TIP3   OH2  517   6.354   0.336   0.875
  187TIP3    H1  518   6.319   0.329   0.786
  187TIP3    H2  519   6.287   0.296   0.930
  188TIP3   OH2  520   7.750   2.789   3.632
  188TIP3    H1  521   7.756   2.836   3.549
  188TIP3    H2  522   7.659   2.760   3.637
  189TIP3   OH2  523   6.266   3.747   4.482
  189TIP3    H1  524   6.293   3.656   4.496
  189TIP3    H2  525   6.184   3.755   4.530
  190TIP3   OH2  526   0.663   1.236   0.483
  190TIP3    H1  527   0.674   1.294   0.407
  190TIP3    H2  528   0.585   1.270   0.527
  191TIP3   OH2  529   4.095   4.960   6.286
  191TIP3    H1  530   4.105   5.003   6.371
  191TIP3    H2  531   4.029   5.012   6.241
  192TIP3   OH2  532   2.141   1.763   1.743
  192TIP3    H1  533   2.209   1.737   1.805
  192TIP3    H2  534   2.170   1.728   1.659
  193TIP3   OH2  535   5.080   3.584   4.688
  193TIP3    H1  536   5.106   3.674   4.668
  193TIP3    H2  537   5.042   3.552   4.606
  194TIP3   OH2  538   4.652   3.580   0.993
  194TIP3    H1  539   4.651   3.665   1.038
  194TIP3    H2  540   4.567   3.541   1.012
  195TIP3   OH2  541   1.684   7.735   6.104
  195TIP3    H1  542   1.768   7.690   6.095
  195TIP3    H2  543   1.634   7.708   6.027
  196TIP3   OH2  544   0.479   6.549   4.097
  196TIP3    H1  545   0.481   6.459   4.064
  196TIP3    H2  546   0.563   6.586   4.070
  197TIP3   OH2  547   1.922   6.550   0.010
  197TIP3    H1  548   1.843   6.587   0.051
  197TIP3    H2  549   1.993   6.607   0.040
  198TIP3   OH2  550   3.374   4.579   5.651
  198TIP3    H1  551   3.348   4.671   5.658
  198TIP3    H2  552   3.436   4.577   5.578
  199TIP3   OH2  553   7.209   2.436   2.476
  199TIP3    H1  554   7.303   2.445   2.492
  199TIP3    H2  555   7.188   2.512   2.421
  200TIP3   OH2  556   5.055   4.251   0.698
  200TIP3    H1  557   5.125   4.315   0.687
  200TIP3    H2  558   5.099   4.166   0.702
  201TIP3   OH2  559   4.533   5.039   5.123
  201TIP3    H1  560   4.452   4.988   5.121
  201TIP3    H2  561   4.569   5.030   5.035
  202TIP3   OH2  562   4.901   5.754   2.832
  202TIP3    H1  563   4.976   5.695   2.847
  202TIP3    H2  564   4.941   5.836   2.804
  203TIP3   OH2  565   1.909   2.514   4.641
  203TIP3    H1  566   1.864   2.511   4.556
  203TIP3    H2  567   1.999   2.537   4.619
  204TIP3   OH2  568   2.998   0.411   3.776
  204TIP3    H1  569   2.946   0.460   3.712
  204TIP3    H2  570   2.988   0.460   3.858
  205TIP3   OH2  571   6.046   3.808   4.617
  205TIP3    H1  572   5.991   3.763   4.682
  205TIP3    H2  573   6.083   3.883   4.664
  206TIP3   OH2  574   5.157   0.700   3.159
  206TIP3    H1  575   5.164   0.794   3.168
  206TIP3    H2  576   5.245   0.666   3.178
  207TIP3   OH2  577   7.258   2.068   5.478
  207TIP3    H1  578   7.317   1.994   5.460
  207TIP3    H2  579   7.313   2.145   5.466
  208TIP3   OH2  580   6.928   7.712   2.037
  208TIP3    H1  581   6.891   7.768   2.106
  208TIP3    H2  582   6.863   7.715   1.967
  209TIP3   OH2  583   7.269   6.392   1.372
  209TIP3    H1  584   7.175   6.378   1.384
  209TIP3    H2  585   7.275   6.470   1.317
  210TIP3   OH2  586   6.616   0.431   1.857
  210TIP3    H1  587   6.690   0.434   1.797
  210TIP3    H2  588   6.553   0.374   1.814
  211TIP3   OH2  589   2.373   1.060   6.701
  211TIP3    H1  590   2.380   1.009   6.620
  211TIP3    H2  591   2.366   0.994   6.770
  212TIP3   OH2  592   0.785   6.264   3.707
  212TIP3    H1  593   0.715   6.321   3.676
  212TIP3    H2  594   0.740   6.195   3.756
  213TIP3   OH2  595   0.918   6.536   3.212
  213TIP3    H1  596   0.960   6.552   3.128
  213TIP3    H2  597   0.891   6.444   3.208
  214TIP3   OH2  598   0.950   4.495   5.584
  214TIP3    H1  599   0.987   4.543   5.659
  214TIP3    H2  600   0.884   4.554   5.548
  215TIP3   OH2  601   8.218   6.369   6.243
  215TIP3    H1  602   8.262   6.283   6.243
  215TIP3    H2  603   8.281   6.427   6.200
  216TIP3   OH2  604   5.659   7.740   3.028
  216TIP3    H1  605   5.631   7.754   2.938
  216TIP3    H2  606   5.711   7.817   3.050
  217TIP3   OH2  607   0.885   7.407   6.274
  217TIP3    H1  608   0.836   7.366   6.345
  217TIP3    H2  609   0.971   7.366   6.277
  218TIP3   OH2  610   0.391   6.268   2.223
  218TIP3    H1  611   0.300   6.264   2.251
  218TIP3    H2  612   0.390   6.324   2.146
  219TIP3   OH2  613   3.622   3.921   3.965
  219TIP3    H1  614   3.607   3.888   4.054
  219TIP3    H2  615   3.664   3.849   3.919
  220TIP3   OH2  616   4.406   2.995   6.027
  220TIP3    H1  617   4.419   3.084   5.994
  220TIP3    H2  618   4.490   2.971   6.067
  221TIP3   OH2  619   2.390   7.483   1.251
  221TIP3    H1  620   2.355   7.551   1.309
  221TIP3    H2  621   2.316   7.424   1.238
  222TIP3   OH2  622   5.023   6.323   0.022
  222TIP3    H1  623   4.956   6.255   0.011
  222TIP3    H2  624   5.025   6.367  -0.063
  223TIP3   OH2  625   0.337   1.112   5.527
  223TIP3    H1  626   0.354   1.056   5.452
  223TIP3    H2  627   0.300   1.192   5.490
  224TIP3   OH2  628   0.916   1.891   5.064
  224TIP3    H1  629   0.892   1.847   4.983
  224TIP3    H2  630   0.871   1.842   5.132
  225TIP3   OH2  631   5.030   3.924   0.709
  225TIP3    H1  632   4.987   3.878   0.782
  225TIP3    H2  633   5.120   3.935   0.738
  226TIP3   OH2  634   8.191   7.314   1.437
  226TIP3    H1  635   8.106   7.303   1.394
  226TIP3    H2  636   8.187   7.402   1.475
  227TIP3   OH2  637   8.288   6.319   1.474
  227TIP3    H1  638   8.374   6.340   1.510
  227TIP3    H2  639   8.286   6.224   1.471
  228TIP3   OH2  640   3.406   5.064   0.071
  228TIP3    H1  641   3.428   5.133   0.008
  228TIP3    H2  642   3.450   5.091   0.152
  229TIP3   OH2  643   5.733   1.003   5.827
  229TIP3    H1  644   5.786   0.937   5.873
  229TIP3    H2  645   5.797   1.059   5.784
  230TIP3   OH2  646   0.842   5.107   6.608
  230TIP3    H1  647   0.935   5.127   6.621
  230TIP3    H2  648   0.796   5.173   6.660
  231TIP3   OH2  649   3.816   7.593   6.100
  231TIP3    H1  650   3.741   7.545   6.135
  231TIP3    H2  651   3.788   7.684   6.097
  232TIP3   OH2  652   0.805   6.442   5.373
  232TIP3    H1  653   0.774   6.531   5.352
  232TIP3    H2  654   0.900   6.448   5.361
  233TIP3   OH2  655   3.805   2.841   6.727
  233TIP3    H1  656   3.794   2.754   6.688
  233TIP3    H2  657   3.863   2.887   6.666
  234TIP3   OH2  658   4.126   3.998   3.552
  234TIP3    H1  659   4.217   3.984   3.527
  234TIP3    H2  660   4.094   4.065   3.492
  235TIP3   OH2  661   8.231   7.272   0.468
  235TIP3    H1  662   8.271   7.185   0.456
  235TIP3    H2  663   8.303   7.326   0.501
  236TIP3   OH2  664   7.765   7.705   3.265
  236TIP3    H1  665   7.837   7.699   3.203
  236TIP3    H2  666   7.791   7.650   3.339
  237TIP3   OH2  667   1.894   7.160   1.227
  237TIP3    H1  668   1.824   7.163   1.162
  237TIP3    H2  669   1.857   7.201   1.305
  238TIP3   OH2  670   1.656   0.862   1.482
  238TIP3    H1  671   1.611   0.828   1.405
  238TIP3    H2  672   1.747   0.873   1.454
  239TIP3   OH2  673   6.809   6.488   2.013
  239TIP3    H1  674   6.844   6.556   1.954
  239TIP3    H2  675   6.738   6.532   2.061
  240TIP3   OH2  676   2.922   3.890   0.679
  240TIP3    H1  677   3.017   3.897   0.665
  240TIP3    H2  678   2.907   3.932   0.764
  241TIP3   OH2  679   4.976   0.261   5.432
  241TIP3    H1  680   4.990   0.350   5.398
  241TIP3    H2  681   4.927   0.273   5.513
  242TIP3   OH2  682   1.356   4.537   3.565
  242TIP3    H1  683   1.386   4.458   3.519
  242TIP3    H2  684   1.433   4.567   3.614
  243TIP3   OH2  685   4.872   5.911   1.633
  243TIP3    H1  686   4.943   5.851   1.612
  243TIP3    H2  687   4.806   5.895   1.565
  244TIP3   OH2  688   5.776   5.160   2.437
  244TIP3    H1  689   5.856   5.114   2.410
  244TIP3    H2  690   5.770   5.233   2.376
  245TIP3   OH2  691   2.630   4.546   4.712
  245TIP3    H1  692   2.585   4.625   4.682
  245TIP3    H2  693   2.559   4.484   4.731
  246TIP3   OH2  694   6.130   6.496   0.334
  246TIP3    H1  695   6.174   6.429   0.386
  246TIP3    H2  696   6.199   6.530   0.277
  247TIP3   OH2  697   3.529   3.112   2.736
  247TIP3    H1  698   3.622   3.092   2.740
  247TIP3    H2  699   3.493   3.079   2.818
  248TIP3   OH2  700   7.699   4.826   5.028
  248TIP3    H1  701   7.673   4.740   4.995
  248TIP3    H2  702   7.675   4.887   4.958
  249TIP3   OH2  703   6.170   1.455   6.749
  249TIP3    H1  704   6.128   1.523   6.696
  249TIP3    H2  705   6.112   1.447   6.826
  250TIP3   OH2  706   4.332   5.717   0.816
  250TIP3    H1  707   4.355   5.726   0.908
  250TIP3    H2  708   4.324   5.806   0.784
  251TIP3   OH2  709   3.425   2.835   2.174
  251TIP3    H1  710   3.481   2.885   2.115
  251TIP3    H2  711   3.336   2.852   2.143
  252TIP3   OH2  712   1.102   5.664   6.786
  252TIP3    H1  713   1.103   5.591   6.724
  252TIP3    H2  714   1.183   5.712   6.768
  253TIP3   OH2  715   0.832   3.005   2.261
  253TIP3    H1  716   0.843   2.912   2.243
  253TIP3    H2  717   0.822   3.010   2.356
  254TIP3   OH2  718   1.502   6.429   2.488
  254TIP3    H1  719   1.493   6.444   2.582
  254TIP3    H2  720   1.497   6.516   2.449
  255TIP3   OH2  721   5.832   6.743   1.477
  255TIP3    H1  722   5.897   6.673   1.486
  255TIP3    H2  723   5.885   6.823   1.469
  256TIP3   OH2  724   6.016   1.556   1.160
  256TIP3    H1  725   5.949   1.505   1.115
  256TIP3    H2  726   5.981   1.568   1.249
  257TIP3   OH2  727   6.943   6.124   6.081
  257TIP3    H1  728   6.882   6.196   6.098
  257TIP3    H2  729   7.000   6.156   6.012
  258TIP3   OH2  730   1.168   5.895   4.430
  258TIP3    H1  731   1.191   5.811   4.391
  258TIP3    H2  732   1.111   5.872   4.504
  259TIP3   OH2  733   5.291   0.878   4.246
  259TIP3    H1  734   5.353   0.933   4.295
  259TIP3    H2  735   5.331   0.791   4.247
  260TIP3   OH2  736   5.594   3.164   5.037
  260TIP3    H1  737   5.595   3.180   4.943
  260TIP3    H2  738   5.670   3.210   5.071
  261TIP3   OH2  739   4.400   6.546   1.633
  261TIP3    H1  740   4.441   6.502   1.708
  261TIP3    H2  741   4.440   6.505   1.556
  262TIP3   OH2  742   6.980   0.025   0.166
  262TIP3    H1  743   6.924   0.076   0.107
  262TIP3    H2  744   7.030  -0.033   0.108
  263TIP3   OH2  745   3.924   0.498   4.144
  263TIP3    H1  746   3.997   0.445   4.112
  263TIP3    H2  747   3.852   0.435   4.155
  264TIP3   OH2  748   4.820   0.391   4.029
  264TIP3    H1  749   4.858   0.323   4.085
  264TIP3    H2  750   4.861   0.472   4.058
  265TIP3   OH2  751   2.036   4.467   0.665
  265TIP3    H1  752   1.953   4.480   0.620
  265TIP3    H2  753   2.076   4.392   0.621
  266TIP3   OH2  754   6.417   7.692   5.822
  266TIP3    H1  755   6.405   7.639   5.743
  266TIP3    H2  756   6.510   7.712   5.825
  267TIP3   OH2  757   6.512   0.887   6.694
  267TIP3    H1  758   6.474   0.970   6.665
  267TIP3    H2  759   6.542   0.845   6.613
  268TIP3   OH2  760   5.483   1.385   1.897
  268TIP3    H1  761   5.415   1.405   1.961
  268TIP3    H2  762   5.565   1.405   1.943
  269TIP3   OH2  763   3.071   1.121   0.060
  269TIP3    H1  764   3.111   1.131  -0.027
  269TIP3    H2  765   3.033   1.207   0.079
  270TIP3   OH2  766   2.816   6.017   1.660
  270TIP3    H1  767   2.738   6.067   1.638
  270TIP3    H2  768   2.881   6.083   1.683
  271TIP3   OH2  769   3.990   3.645   4.158
  271TIP3    H1  770   4.019   3.632   4.068
  271TIP3    H2  771   3.968   3.738   4.163
  272TIP3   OH2  772  -0.005   2.720   1.370
  272TIP3    H1  773  -0.048   2.701   1.287
  272TIP3    H2  774   0.088   2.705   1.353
  273TIP3   OH2  775   1.595   1.501   1.695
  273TIP3    H1  776   1.548   1.512   1.778
  273TIP3    H2  777   1.686   1.486   1.721
  274TIP3   OH2  778   1.852   6.976   2.658
  274TIP3    H1  779   1.850   6.962   2.753
  274TIP3    H2  780   1.909   7.052   2.646
  275TIP3   OH2  781   2.419   0.327   2.165
  275TIP3    H1  782   2.369   0.248   2.187
  275TIP3    H2  783   2.468   0.348   2.244
  276TIP3   OH2  784   6.396   6.341   5.682
  276TIP3    H1  785   6.458   6.396   5.634
  276TIP3    H2  786   6.380   6.266   5.624
  277TIP3   OH2  787   5.764   2.549   5.695
  277TIP3    H1  788   5.824   2.514   5.629
  277TIP3    H2  789   5.813   2.543   5.777
  278TIP3   OH2  790   8.048   5.001   0.434
  278TIP3    H1  791   8.108   5.014   0.508
  278TIP3    H2  792   8.078   5.062   0.367
  279TIP3   OH2  793   1.303   5.544   3.013
  279TIP3    H1  794   1.234   5.523   2.950
  279TIP3    H2  795   1.337   5.459   3.041
  280TIP3   OH2  796   0.355   2.364   2.472
  280TIP3    H1  797   0.320   2.441   2.517
  280TIP3    H2  798   0.388   2.308   2.542
  281TIP3   OH2  799   1.685   2.231   3.068
  281TIP3    H1  800   1.645   2.215   2.982
  281TIP3    H2  801   1.730   2.150   3.089
  282TIP3   OH2  802   0.708   2.254   1.521
  282TIP3    H1  803   0.625   2.267   1.567
  282TIP3    H2  804   0.747   2.177   1.562
  283TIP3   OH2  805   1.009   7.484   6.622
  283TIP3    H1  806   1.011   7.580   6.616
  283TIP3    H2  807   0.920   7.461   6.595
  284TIP3   OH2  808   0.978   1.312   6.785
  284TIP3    H1  809   0.931   1.333   6.865
  284TIP3    H2  810   0.918   1.336   6.714
  285TIP3   OH2  811   2.442   7.631   2.165
  285TIP3    H1  812   2.441   7.574   2.242
  285TIP3    H2  813   2.535   7.650   2.150
  286TIP3   OH2  814   5.550   2.133   6.409
  286TIP3    H1  815   5.520   2.044   6.425
  286TIP3    H2  816   5.487   2.169   6.347
  287TIP3   OH2  817   5.227   0.768   6.238
  287TIP3    H1  818   5.161   0.811   6.293
  287TIP3    H2  819   5.307   0.769   6.291
  288TIP3   OH2  820   6.260   1.702   5.104
  288TIP3    H1  821   6.179   1.752   5.113
  288TIP3    H2  822   6.279   1.670   5.192
  289TIP3   OH2  823   1.329   0.932   0.526
  289TIP3    H1  824   1.386   1.009   0.522
  289TIP3    H2  825   1.388   0.857   0.518
  290TIP3   OH2  826   6.512   6.588   0.981
  290TIP3    H1  827   6.556   6.544   0.908
  290TIP3    H2  828   6.449   6.647   0.938
  291TIP3   OH2  829   3.988   1.920   2.011
  291TIP3    H1  830   4.029   1.841   2.046
  291TIP3    H2  831   3.985   1.906   1.916
  292TIP3   OH2  832   6.386   2.282   6.103
  292TIP3    H1  833   6.338   2.210   6.144
  292TIP3    H2  834   6.365   2.359   6.156
  293TIP3   OH2  835   2.329   0.886   2.891
  293TIP3    H1  836   2.240   0.854   2.878
  293TIP3    H2  837   2.369   0.823   2.951
  294TIP3   OH2  838   3.628   7.553   3.418
  294TIP3    H1  839   3.615   7.565   3.512
  294TIP3    H2  840   3.568   7.481   3.395
  295TIP3   OH2  841   0.462   4.383   2.141
  295TIP3    H1  842   0.383   4.341   2.110
  295TIP3    H2  843   0.513   4.401   2.062
  296TIP3   OH2  844   1.492   1.798   5.681
  296TIP3    H1  845   1.526   1.743   5.751
  296TIP3    H2  846   1.459   1.876   5.725
  297TIP3   OH2  847   1.957   5.729   3.599
  297TIP3    H1  848   2.045   5.700   3.573
  297TIP3    H2  849   1.966   5.753   3.691
  298TIP3   OH2  850   3.271   5.092   6.503
  298TIP3    H1  851   3.357   5.104   6.462
  298TIP3    H2  852   3.241   5.182   6.522
  299TIP3   OH2  853   1.090   4.774   0.193
  299TIP3    H1  854   1.144   4.716   0.138
  299TIP3    H2  855   1.030   4.816   0.132
  300TIP3   OH2  856   4.918   0.127   1.203
  300TIP3    H1  857   4.922   0.057   1.138
  300TIP3    H2  858   4.972   0.197   1.166
  301TIP3   OH2  859   6.059   2.492   6.737
  301TIP3    H1  860   6.059   2.554   6.810
  301TIP3    H2  861   6.123   2.527   6.675
  302TIP3   OH2  862   6.949   1.710   5.836
  302TIP3    H1  863   6.934   1.655   5.759
  302TIP3    H2  864   7.030   1.756   5.818
  303TIP3   OH2  865   0.671   6.458   1.209
  303TIP3    H1  866   0.577   6.472   1.211
  303TIP3    H2  867   0.684   6.384   1.150
  304TIP3   OH2  868   5.109   5.469   5.133
  304TIP3    H1  869   5.119   5.468   5.228
  304TIP3    H2  870   5.045   5.539   5.116
  305TIP3   OH2  871   6.384   2.151   0.653
  305TIP3    H1  872   6.308   2.104   0.617
  305TIP3    H2  873   6.413   2.096   0.726
  306TIP3   OH2  874   1.382   1.067   0.838
  306TIP3    H1  875   1.441   1.074   0.913
  306TIP3    H2  876   1.436   1.092   0.763
  307TIP3   OH2  877   0.429   2.447   6.406
  307TIP3    H1  878   0.519   2.453   6.375
  307TIP3    H2  879   0.402   2.538   6.420
  308TIP3   OH2  880   7.967   3.763   2.053
  308TIP3    H1  881   8.056   3.791   2.034
  308TIP3    H2  882   7.959   3.677   2.011
  309TIP3   OH2  883   5.786   5.222   1.933
  309TIP3    H1  884   5.693   5.209   1.954
  309TIP3    H2  885   5.786   5.296   1.873
  310TIP3   OH2  886   1.907   4.104   4.403
  310TIP3    H1  887   1.838   4.167   4.381
  310TIP3    H2  888   1.967   4.153   4.458
  311TIP3   OH2  889   1.231   4.491   0.300
  311TIP3    H1  890   1.222   4.517   0.208
  311TIP3    H2  891   1.149   4.519   0.341
  312TIP3   OH2  892   1.268   6.421   1.407
  312TIP3    H1  893   1.264   6.476   1.485
  312TIP3    H2  894   1.265   6.331   1.441
  313TIP3   OH2  895   7.549   0.136   5.896
  313TIP3    H1  896   7.628   0.095   5.862
  313TIP3    H2  897   7.522   0.080   5.968
  314TIP3   OH2  898   1.488   1.385   0.107
  314TIP3    H1  899   1.437   1.328   0.165
  314TIP3    H2  900   1.423   1.426   0.051
  315TIP3   OH2  901   0.847   1.511   2.918
  315TIP3    H1  902   0.781   1.519   2.987
  315TIP3    H2  903   0.903   1.587   2.930
  316TIP3   OH2  904   6.199   5.234   5.402
  316TIP3    H1  905   6.151   5.301   5.451
  316TIP3    H2  906   6.186   5.154   5.454
  317TIP3   OH2  907   1.444   4.664   6.270
  317TIP3    H1  908   1.523   4.678   6.323
  317TIP3    H2  909   1.396   4.596   6.317
  318TIP3   OH2  910   2.279   5.579   3.824
  318TIP3    H1  911   2.221   5.566   3.898
  318TIP3    H2  912   2.347   5.512   3.835
  319TIP3   OH2  913   3.464   0.800   3.727
  319TIP3    H1  914   3.395   0.815   3.791
  319TIP3    H2  915   3.510   0.722   3.760
  320TIP3   OH2  916   7.912   1.640   0.595
  320TIP3    H1  917   7.922   1.707   0.662
  320TIP3    H2  918   7.831   1.662   0.550
  321TIP3   OH2  919   6.022   1.560   5.226
  321TIP3    H1  920   5.961   1.500   5.183
  321TIP3    H2  921   5.971   1.640   5.239
  322TIP3   OH2  922   0.582   7.068   1.443
  322TIP3    H1  923   0.661   7.074   1.390
  322TIP3    H2  924   0.510   7.068   1.380
  323TIP3   OH2  925   2.070   4.371   4.921
  323TIP3    H1  926   2.063   4.340   4.830
  323TIP3    H2  927   1.997   4.432   4.931
  324TIP3   OH2  928   8.031   2.566   6.557
  324TIP3    H1  929   8.103   2.629   6.554
  324TIP3    H2  930   7.966   2.608   6.614
  325TIP3   OH2  931   2.309   3.623   3.332
  325TIP3    H1  932   2.374   3.690   3.310
  325TIP3    H2  933   2.272   3.652   3.415
  326TIP3   OH2  934   1.945   5.076   2.981
  326TIP3    H1  935   1.901   5.002   2.937
  326TIP3    H2  936   1.873   5.129   3.015
  327TIP3   OH2  937   7.672   2.745   6.194
  327TIP3    H1  938   7.732   2.724   6.123
  327TIP3    H2  939   7.631   2.661   6.218
  328TIP3   OH2  940   2.110   3.663   5.940
  328TIP3    H1  941   2.200   3.684   5.965
  328TIP3    H2  942   2.061   3.668   6.022
  329TIP3   OH2  943   7.650   7.175   6.246
  329TIP3    H1  944   7.606   7.115   6.306
  329TIP3    H2  945   7.640   7.134   6.160
  330TIP3   OH2  946   5.785   0.467   4.027
  330TIP3    H1  947   5.693   0.463   4.002
  330TIP3    H2  948   5.823   0.533   3.970
  331TIP3   OH2  949   6.284   5.755   5.323
  331TIP3    H1  950   6.239   5.682   5.281
  331TIP3    H2  951   6.234   5.833   5.297
  332TIP3   OH2  952   7.608   4.372   0.256
  332TIP3    H1  953   7.699   4.341   0.252
  332TIP3    H2  954   7.609   4.440   0.323
  333TIP3   OH2  955   3.270   4.356   6.271
  333TIP3    H1  956   3.279   4.363   6.176
  333TIP3    H2  957   3.324   4.281   6.295
  334TIP3   OH2  958   5.993   1.485   4.600
  334TIP3    H1  959   5.967   1.558   4.543
  334TIP3    H2  960   6.088   1.482   4.595
  335TIP3   OH2  961   8.138   2.039   5.857
  335TIP3    H1  962   8.085   2.050   5.935
  335TIP3    H2  963   8.226   2.018   5.890
  336TIP3   OH2  964   7.349   0.461   5.573
  336TIP3    H1  965   7.280   0.407   5.610
  336TIP3    H2  966   7.305   0.540   5.543
  337TIP3   OH2  967   2.258   2.211  -0.001
  337TIP3    H1  968   2.333   2.167   0.039
  337TIP3    H2  969   2.208   2.246   0.073
  338TIP3   OH2  970   0.265   6.959   1.675
  338TIP3    H1  971   0.194   7.011   1.712
  338TIP3    H2  972   0.258   6.973   1.581
  339TIP3   OH2  973   1.286   6.153   1.179
  339TIP3    H1  974   1.344   6.077   1.191
  339TIP3    H2  975   1.258   6.175   1.268
  340TIP3   OH2  976   7.583   2.580   4.800
  340TIP3    H1  977   7.590   2.524   4.722
  340TIP3    H2  978   7.640   2.654   4.782
  341TIP3   OH2  979   0.855   6.226   5.191
  341TIP3    H1  980   0.919   6.268   5.135
  341TIP3    H2  981   0.861   6.274   5.274
  342TIP3   OH2  982   7.193   4.870   1.209
  342TIP3    H1  983   7.160   4.782   1.222
  342TIP3    H2  984   7.271   4.858   1.154
  343TIP3   OH2  985   6.481   3.971   5.822
  343TIP3    H1  986   6.439   4.010   5.745
  343TIP3    H2  987   6.431   4.005   5.896
  344TIP3   OH2  988   7.460   5.299   4.407
  344TIP3    H1  989   7.525   5.359   4.370
  344TIP3    H2  990   7.433   5.244   4.334
  345TIP3   OH2  991   7.331   0.746   6.219
  345TIP3    H1  992   7.309   0.837   6.199
  345TIP3    H2  993   7.427   0.744   6.223
  346TIP3   OH2  994   1.095   2.449   2.458
  346TIP3    H1  995   1.168   2.389   2.444
  346TIP3    H2  996   1.080   2.488   2.372
  347TIP3   OH2  997   6.922   6.652   3.409
  347TIP3    H1  998   6.963   6.613   3.486
  347TIP3    H2  999   6.828   6.643   3.424
  348TIP3   OH2 1000   5.920   2.866   6.709
  348TIP3    H1 1001   5.990   2.814   6.748
  348TIP3    H2 1002   5.898   2.931   6.776
  349TIP3   OH2 1003   0.684   5.696   0.051
  349TIP3    H1 1004   0.643   5.634  -0.009
  349TIP3    H2 1005   0.644   5.678   0.136
  350TIP3   OH2 1006   0.490   6.965   5.442
  350TIP3    H1 1007   0.455   7.014   5.516
  350TIP3    H2 1008   0.567   7.014   5.414
  351TIP3   OH2 1009   6.240   5.455   2.687
  351TIP3    H1 1010   6.287   5.536   2.706
  351TIP3    H2 1011   6.196   5.433   2.769
  352TIP3   OH2 1012   7.165   7.040   1.780
  352TIP3    H1 1013   7.179   7.076   1.693
  352TIP3    H2 1014   7.083   7.079   1.810
  353TIP3   OH2 1015   6.262   4.202   3.296
  353TIP3    H1 1016   6.178   4.197   3.340
  353TIP3    H2 1017   6.261   4.129   3.235
  354TIP3   OH2 1018   6.147   3.755   3.534
  354TIP3    H1 1019   6.185   3.716   3.456
  354TIP3    H2 1020   6.067   3.704   3.549
  355TIP3   OH2 1021   1.230   2.185   3.717
  355TIP3    H1 1022   1.303   2.170   3.777
  355TIP3    H2 1023   1.221   2.103   3.668
  356TIP3   OH2 1024   2.527   0.334   3.860
  356TIP3    H1 1025   2.584   0.355   3.786
  356TIP3    H2 1026   2.484   0.416   3.882
  357TIP3   OH2 1027   3.666   7.297   6.787
  357TIP3    H1 1028   3.601   7.236   6.752
  357TIP3    H2 1029   3.740   7.241   6.811
  358TIP3   OH2 1030   5.872   1.579   3.530
  358TIP3    H1 1031   5.956   1.622   3.548
  358TIP3    H2 1032   5.815   1.650   3.499
  359TIP3   OH2 1033   3.377   3.616   3.113
  359TIP3    H1 1034   3.373   3.523   3.091
  359TIP3    H2 1035   3.296   3.653   3.077
  360TIP3   OH2 1036   6.765   6.947   4.158
  360TIP3    H1 1037   6.831   7.003   4.118
  360TIP3    H2 1038   6.790   6.858   4.133
  361TIP3   OH2 1039   7.415   4.397   6.203
  361TIP3    H1 1040   7.320   4.389   6.218
  361TIP3    H2 1041   7.424   4.479   6.155
  362TIP3   OH2 1042   3.215   4.553   5.867
  362TIP3    H1 1043   3.148   4.557   5.798
  362TIP3    H2 1044   3.298   4.563   5.820
  363TIP3   OH2 1045   4.043   3.444   0.908
  363TIP3    H1 1046   3.974   3.388   0.872
  363TIP3    H2 1047   4.001   3.491   0.980
  364TIP3   OH2 1048   4.033   7.269   5.518
  364TIP3    H1 1049   4.093   7.232   5.583
  364TIP3    H2 1050   4.011   7.356   5.552
  365TIP3   OH2 1051   6.594   6.852   2.330
  365TIP3    H1 1052   6.598   6.913   2.404
  365TIP3    H2 1053   6.502   6.830   2.322
  366TIP3   OH2 1054   0.818   7.808   0.079
  366TIP3    H1 1055   0.831   7.726   0.127
  366TIP3    H2 1056   0.776   7.866   0.142
  367TIP3   OH2 1057   1.814   4.232   5.159
  367TIP3    H1 1058   1.821   4.316   5.114
  367TIP3    H2 1059   1.872   4.173   5.110
  368TIP3   OH2 1060   6.663   4.889   2.670
  368TIP3    H1 1061   6.597   4.850   2.727
  368TIP3    H2 1062   6.651   4.846   2.585
  369TIP3   OH2 1063   0.619   2.119   0.605
  369TIP3    H1 1064   0.588   2.040   0.648
  369TIP3    H2 1065   0.714   2.109   0.602
  370TIP3   OH2 1066   3.116   1.060   2.211
  370TIP3    H1 1067   3.025   1.089   2.219
  370TIP3    H2 1068   3.120   1.013   2.128
  371TIP3   OH2 1069   2.829   5.149   3.794
  371TIP3    H1 1070   2.856   5.194   3.714
  371TIP3    H2 1071   2.753   5.198   3.824
  372TIP3   OH2 1072   5.352   5.874   5.692
  372TIP3    H1 1073   5.377   5.843   5.605
  372TIP3    H2 1074   5.433   5.909   5.730
  373TIP3   OH2 1075   6.857   2.122   1.249
  373TIP3    H1 1076   6.780   2.153   1.295
  373TIP3    H2 1077   6.931   2.158   1.298
  374TIP3   OH2 1078   0.829   7.018   5.581
  374TIP3    H1 1079   0.910   7.065   5.599
  374TIP3    H2 1080   0.768   7.050   5.647
  375TIP3   OH2 1081   5.317   0.040   1.526
  375TIP3    H1 1082   5.275   0.094   1.592
  375TIP3    H2 1083   5.342   0.102   1.457
  376TIP3   OH2 1084   6.538   2.193   1.210
  376TIP3    H1 1085   6.565   2.215   1.120
  376TIP3    H2 1086   6.466   2.254   1.229
  377TIP3   OH2 1087   0.681   1.190   2.594
  377TIP3    H1 1088   0.662   1.196   2.687
  377TIP3    H2 1089   0.640   1.108   2.566
  378TIP3   OH2 1090   6.688   6.090   5.612
  378TIP3    H1 1091   6.736   6.023   5.563
  378TIP3    H2 1092   6.605   6.099   5.566
  379TIP3   OH2 1093   6.811   4.306   2.864
  379TIP3    H1 1094   6.826   4.273   2.776
  379TIP3    H2 1095   6.881   4.370   2.878
  380TIP3   OH2 1096   3.482   2.720   3.371
  380TIP3    H1 1097   3.542   2.666   3.423
  380TIP3    H2 1098   3.525   2.805   3.364
  381TIP3   OH2 1099   3.087   2.410   1.818
  381TIP3    H1 1100   3.135   2.446   1.893
  381TIP3    H2 1101   3.048   2.486   1.776
  382TIP3   OH2 1102   3.465   3.378   6.383
  382TIP3    H1 1103   3.396   3.314   6.369
  382TIP3    H2 1104   3.460   3.399   6.476
  383TIP3   OH2 1105   7.272   0.515   2.419
  383TIP3    H1 1106   7.284   0.493   2.327
  383TIP3    H2 1107   7.282   0.610   2.423
  384TIP3   OH2 1108   3.916   4.502   4.014
  384TIP3    H1 1109   3.986   4.542   3.962
  384TIP3    H2 1110   3.836   4.519   3.964
  385TIP3   OH2 1111   7.389   3.202   3.017
  385TIP3    H1 1112   7.431   3.275   3.063
  385TIP3    H2 1113   7.297   3.228   3.010
  386TIP3   OH2 1114   1.492   7.688   4.694
  386TIP3    H1 1115   1.505   7.619   4.630
  386TIP3    H2 1116   1.439   7.753   4.649
  387TIP3   OH2 1117   2.732   6.614   3.823
  387TIP3    H1 1118   2.642   6.644   3.813
  387TIP3    H2 1119   2.784   6.674   3.769
  388TIP3   OH2 1120   2.196   6.042   1.496
  388TIP3    H1 1121   2.215   6.136   1.494
  388TIP3    H2 1122   2.271   6.001   1.454
  389TIP3   OH2 1123   1.735   1.180   3.043
  389TIP3    H1 1124   1.823   1.190   3.006
  389TIP3    H2 1125   1.736   1.093   3.082
  390TIP3   OH2 1126   7.553   4.222   2.892
  390TIP3    H1 1127   7.630   4.230   2.949
  390TIP3    H2 1128   7.505   4.304   2.904
  391TIP3   OH2 1129   5.698   4.506   1.638
  391TIP3    H1 1130   5.659   4.426   1.601
  391TIP3    H2 1131   5.702   4.567   1.564
  392TIP3   OH2 1132   2.871   5.655   2.991
  392TIP3    H1 1133   2.851   5.746   3.013
  392TIP3    H2 1134   2.855   5.649   2.897
  393TIP3   OH2 1135   1.102   4.479   3.471
  393TIP3    H1 1136   1.023   4.502   3.520
  393TIP3    H2 1137   1.174   4.498   3.531
  394TIP3   OH2 1138   1.354   5.304   6.555
  394TIP3    H1 1139   1.375   5.397   6.561
  394TIP3    H2 1140   1.373   5.269   6.642
  395TIP3   OH2 1141   6.105   3.008   6.128
  395TIP3    H1 1142   6.149   3.025   6.211
  395TIP3    H2 1143   6.037   2.943   6.149
  396TIP3   OH2 1144   5.022   0.887   0.924
  396TIP3    H1 1145   5.077   0.903   0.847
  396TIP3    H2 1146   5.078   0.908   0.998
  397TIP3   OH2 1147   0.693   4.025   1.668
  397TIP3    H1 1148   0.734   4.105   1.636
  397TIP3    H2 1149   0.740   4.003   1.748
  398TIP3   OH2 1150   3.974   0.502   2.652
  398TIP3    H1 1151   3.952   0.415   2.621
  398TIP3    H2 1152   3.909   0.560   2.612
  399TIP3   OH2 1153   6.576   0.402   6.510
  399TIP3    H1 1154   6.525   0.475   6.475
  399TIP3    H2 1155   6.528   0.375   6.588
  400TIP3   OH2 1156   2.185   0.154   0.946
  400TIP3    H1 1157   2.218   0.240   0.920
  400TIP3    H2 1158   2.171   0.161   1.041
  401TIP3   OH2 1159   5.608   1.181   3.530
  401TIP3    H1 1160   5.686   1.125   3.532
  401TIP3    H2 1161   5.549   1.142   3.594
  402TIP3   OH2 1162   0.936   0.546   5.762
  402TIP3    H1 1163   0.959   0.479   5.827
  402TIP3    H2 1164   0.974   0.627   5.797
  403TIP3   OH2 1165   4.814   2.665   3.545
  403TIP3    H1 1166   4.723   2.678   3.519
  403TIP3    H2 1167   4.844   2.592   3.490
  404TIP3   OH2 1168   1.598   6.508   5.993
  404TIP3    H1 1169   1.590   6.592   6.039
  404TIP3    H2 1170   1.692   6.493   5.986
  405TIP3   OH2 1171   2.768   7.195   5.409
  405TIP3    H1 1172   2.829   7.161   5.344
  405TIP3    H2 1173   2.823   7.223   5.482
  406TIP3   OH2 1174   0.444   3.893   1.622
  406TIP3    H1 1175   0.435   3.839   1.701
  406TIP3    H2 1176   0.538   3.905   1.612
  407TIP3   OH2 1177   4.803   4.107   6.548
  407TIP3    H1 1178   4.803   4.098   6.644
  407TIP3    H2 1179   4.767   4.194   6.533
  408TIP3   OH2 1180   7.236   7.522   4.268
  408TIP3    H1 1181   7.170   7.576   4.226
  408TIP3    H2 1182   7.217   7.528   4.362
  409TIP3   OH2 1183   7.926   5.151   4.032
  409TIP3    H1 1184   7.977   5.077   4.000
  409TIP3    H2 1185   7.974   5.183   4.108
  410TIP3   OH2 1186   1.488   5.312   0.898
  410TIP3    H1 1187   1.452   5.279   0.816
  410TIP3    H2 1188   1.480   5.238   0.959
  411TIP3   OH2 1189   6.733   4.530   4.389
  411TIP3    H1 1190   6.743   4.516   4.295
  411TIP3    H2 1191   6.641   4.513   4.406
  412TIP3   OH2 1192   2.322   7.201   0.279
  412TIP3    H1 1193   2.292   7.217   0.189
  412TIP3    H2 1194   2.364   7.283   0.305
  413TIP3   OH2 1195   3.347   3.740   6.423
  413TIP3    H1 1196   3.282   3.676   6.453
  413TIP3    H2 1197   3.409   3.688   6.371
  414TIP3   OH2 1198   2.918   4.968   4.314
  414TIP3    H1 1199   2.892   5.060   4.325
  414TIP3    H2 1200   3.013   4.970   4.327
  415TIP3   OH2 1201   3.404   7.322   3.162
  415TIP3    H1 1202   3.358   7.253   3.113
  415TIP3    H2 1203   3.408   7.396   3.102
  416TIP3   OH2 1204   2.678   1.646   2.637
  416TIP3    H1 1205   2.667   1.619   2.546
  416TIP3    H2 1206   2.589   1.641   2.674
  417TIP3   OH2 1207   1.679   7.281   0.270
  417TIP3    H1 1208   1.613   7.304   0.335
  417TIP3    H2 1209   1.698   7.189   0.287
  418TIP3   OH2 1210   5.713   1.636   2.513
  418TIP3    H1 1211   5.644   1.685   2.468
  418TIP3    H2 1212   5.769   1.704   2.551
  419TIP3   OH2 1213   3.741   2.511   4.540
  419TIP3    H1 1214   3.750   2.604   4.523
  419TIP3    H2 1215   3.652   2.489   4.512
  420TIP3   OH2 1216   7.170   5.612   4.185
  420TIP3    H1 1217   7.235   5.681   4.193
  420TIP3    H2 1218   7.164   5.574   4.273
  421TIP3   OH2 1219   0.283   6.154   2.698
  421TIP3    H1 1220   0.189   6.149   2.682
  421TIP3    H2 1221   0.313   6.064   2.693
  422TIP3   OH2 1222   1.820   3.319   5.984
  422TIP3    H1 1223   1.756   3.335   6.053
  422TIP3    H2 1224   1.904   3.312   6.030
  423TIP3   OH2 1225   0.756   3.927   5.296
  423TIP3    H1 1226   0.772   3.920   5.391
  423TIP3    H2 1227   0.674   3.880   5.283
  424TIP3   OH2 1228   5.745   3.386   0.274
  424TIP3    H1 1229   5.825   3.345   0.307
  424TIP3    H2 1230   5.689   3.395   0.351
  425TIP3   OH2 1231   2.463   5.812   3.172
  425TIP3    H1 1232   2.448   5.904   3.192
  425TIP3    H2 1233   2.518   5.780   3.243
  426TIP3   OH2 1234   1.914   3.821   0.097
  426TIP3    H1 1235   1.991   3.789   0.144
  426TIP3    H2 1236   1.910   3.914   0.118
  427TIP3   OH2 1237   0.658   5.940   1.703
  427TIP3    H1 1238   0.705   5.880   1.760
  427TIP3    H2 1239   0.699   6.025   1.719
  428TIP3   OH2 1240   2.195   4.843   4.947
  428TIP3    H1 1241   2.283   4.862   4.979
  428TIP3    H2 1242   2.209   4.802   4.861
  429TIP3   OH2 1243   6.761   3.463   1.750
  429TIP3    H1 1244   6.762   3.378   1.706
  429TIP3    H2 1245   6.763   3.527   1.679
  430TIP3   OH2 1246   7.417   6.466   4.792
  430TIP3    H1 1247   7.478   6.470   4.718
  430TIP3    H2 1248   7.469   6.433   4.865
  431TIP3   OH2 1249   6.898   1.260   0.004
  431TIP3    H1 1250   6.878   1.320   0.077
  431TIP3    H2 1251   6.971   1.207   0.037
  432TIP3   OH2 1252   2.573   7.432   6.279
  432TIP3    H1 1253   2.620   7.410   6.199
  432TIP3    H2 1254   2.630   7.402   6.350
  433TIP3   OH2 1255   7.912   7.619   6.611
  433TIP3    H1 1256   7.877   7.683   6.673
  433TIP3    H2 1257   7.887   7.534   6.647
  434TIP3   OH2 1258   1.587   3.142   4.123
  434TIP3    H1 1259   1.503   3.110   4.157
  434TIP3    H2 1260   1.609   3.216   4.180
  435TIP3   OH2 1261   4.631   2.057   3.655
  435TIP3    H1 1262   4.678   2.055   3.739
  435TIP3    H2 1263   4.548   2.100   3.675
  436TIP3   OH2 1264   2.521   3.697   1.788
  436TIP3    H1 1265   2.446   3.645   1.819
  436TIP3    H2 1266   2.483   3.761   1.729
  437TIP3   OH2 1267   6.554   7.134   2.885
  437TIP3    H1 1268   6.467   7.158   2.917
  437TIP3    H2 1269   6.599   7.217   2.871
  438TIP3   OH2 1270   0.442   4.189   4.967
  438TIP3    H1 1271   0.494   4.168   4.890
  438TIP3    H2 1272   0.494   4.157   5.041
  439TIP3   OH2 1273   3.315   1.425   1.141
  439TIP3    H1 1274   3.309   1.497   1.077
  439TIP3    H2 1275   3.228   1.421   1.181
  440TIP3   OH2 1276   1.382   7.016   6.415
  440TIP3    H1 1277   1.304   7.053   6.457
  440TIP3    H2 1278   1.389   6.927   6.451
  441TIP3   OH2 1279   0.032   2.314   6.345
  441TIP3    H1 1280   0.105   2.359   6.300
  441TIP3    H2 1281  -0.015   2.384   6.389
  442TIP3   OH2 1282   0.287   4.362   6.095
  442TIP3    H1 1283   0.364   4.401   6.137
  442TIP3    H2 1284   0.229   4.340   6.168
  443TIP3   OH2 1285   3.209   7.771   1.648
  443TIP3    H1 1286   3.134   7.827   1.665
  443TIP3    H2 1287   3.192   7.733   1.561
  444TIP3   OH2 1288   3.501   7.508   5.296
  444TIP3    H1 1289   3.544   7.577   5.346
  444TIP3    H2 1290   3.572   7.463   5.250
  445TIP3   OH2 1291   7.432   6.771   1.161
  445TIP3    H1 1292   7.369   6.699   1.150
  445TIP3    H2 1293   7.379   6.850   1.158
  446TIP3   OH2 1294   4.147   5.192   4.821
  446TIP3    H1 1295   4.190   5.278   4.816
  446TIP3    H2 1296   4.076   5.197   4.756
  447TIP3   OH2 1297   0.579   1.848   4.877
  447TIP3    H1 1298   0.549   1.938   4.888
  447TIP3    H2 1299   0.674   1.853   4.886
  448TIP3   OH2 1300   2.397   7.446   1.888
  448TIP3    H1 1301   2.337   7.375   1.867
  448TIP3    H2 1302   2.372   7.472   1.977
  449TIP3   OH2 1303   8.132   2.610   0.782
  449TIP3    H1 1304   8.038   2.612   0.800
  449TIP3    H2 1305   8.147   2.688   0.728
  450TIP3   OH2 1306   0.820   1.301   5.208
  450TIP3    H1 1307   0.907   1.286   5.169
  450TIP3    H2 1308   0.777   1.360   5.147
  451TIP3   OH2 1309   3.632   6.476   4.243
  451TIP3    H1 1310   3.548   6.430   4.252
  451TIP3    H2 1311   3.665   6.448   4.157
  452TIP3   OH2 1312   5.938   2.346   2.634
  452TIP3    H1 1313   5.972   2.391   2.712
  452TIP3    H2 1314   5.990   2.382   2.562
  453TIP3   OH2 1315   7.704   7.764   2.975
  453TIP3    H1 1316   7.648   7.835   3.008
  453TIP3    H2 1317   7.791   7.785   3.008
  454TIP3   OH2 1318   7.292   4.649   1.784
  454TIP3    H1 1319   7.317   4.558   1.798
  454TIP3    H2 1320   7.248   4.649   1.699
  455TIP3   OH2 1321   3.136   3.314   2.259
  455TIP3    H1 1322   3.173   3.231   2.290
  455TIP3    H2 1323   3.178   3.329   2.175
  456TIP3   OH2 1324   0.245   5.012   1.250
  456TIP3    H1 1325   0.154   4.986   1.260
  456TIP3    H2 1326   0.267   5.057   1.332
  457TIP3   OH2 1327   7.418   0.344   6.380
  457TIP3    H1 1328   7.478   0.311   6.447
  457TIP3    H2 1329   7.462   0.324   6.297
  458TIP3   OH2 1330   3.153   0.923   6.486
  458TIP3    H1 1331   3.205   0.941   6.564
  458TIP3    H2 1332   3.066   0.901   6.518
  459TIP3   OH2 1333   3.262   2.239   3.044
  459TIP3    H1 1334   3.334   2.285   3.087
  459TIP3    H2 1335   3.183   2.283   3.075
  460TIP3   OH2 1336   3.641   6.921   1.253
  460TIP3    H1 1337   3.600   6.947   1.335
  460TIP3    H2 1338   3.572   6.930   1.188
  461TIP3   OH2 1339   7.286   0.077   3.544
  461TIP3    H1 1340   7.312   0.105   3.456
  461TIP3    H2 1341   7.344   0.004   3.565
  462TIP3   OH2 1342   4.515   2.493   5.286
  462TIP3    H1 1343   4.588   2.555   5.290
  462TIP3    H2 1344   4.487   2.484   5.377
  463TIP3   OH2 1345   0.301   0.791   6.125
  463TIP3    H1 1346   0.241   0.786   6.199
  463TIP3    H2 1347   0.299   0.883   6.098
  464TIP3   OH2 1348   7.920   7.566   5.879
  464TIP3    H1 1349   7.963   7.598   5.800
  464TIP3    H2 1350   7.977   7.592   5.950
  465TIP3   OH2 1351   7.537   1.799   5.796
  465TIP3    H1 1352   7.623   1.783   5.835
  465TIP3    H2 1353   7.552   1.871   5.735
  466TIP3   OH2 1354   1.830   6.740   5.786
  466TIP3    H1 1355   1.841   6.645   5.778
  466TIP3    H2 1356   1.804   6.769   5.698
  467TIP3   OH2 1357   0.963   0.025   2.483
  467TIP3    H1 1358   0.971   0.102   2.539
  467TIP3    H2 1359   0.878  -0.013   2.506
  468TIP3   OH2 1360   8.036   6.310   0.974
  468TIP3    H1 1361   8.032   6.234   1.033
  468TIP3    H2 1362   8.042   6.385   1.033
  469TIP3   OH2 1363   4.977   0.688   0.081
  469TIP3    H1 1364   4.886   0.688   0.110
  469TIP3    H2 1365   5.027   0.681   0.162
  470TIP3   OH2 1366   4.860   6.807   0.266
  470TIP3    H1 1367   4.919   6.831   0.194
  470TIP3    H2 1368   4.870   6.713   0.276
  471TIP3   OH2 1369   1.060   3.788   1.473
  471TIP3    H1 1370   1.094   3.699   1.471
  471TIP3    H2 1371   1.003   3.789   1.550
  472TIP3   OH2 1372   5.647   0.458   4.585
  472TIP3    H1 1373   5.553   0.436   4.591
  472TIP3    H2 1374   5.675   0.420   4.502
  473TIP3   OH2 1375   7.087   3.687   1.799
  473TIP3    H1 1376   7.018   3.649   1.853
  473TIP3    H2 1377   7.165   3.637   1.821
  474TIP3   OH2 1378   4.420   4.647   4.819
  474TIP3    H1 1379   4.375   4.731   4.831
  474TIP3    H2 1380   4.440   4.643   4.726
  475TIP3   OH2 1381   0.465   3.536   3.879
  475TIP3    H1 1382   0.382   3.510   3.919
  475TIP3    H2 1383   0.464   3.495   3.792
  476TIP3   OH2 1384   0.967   2.317   5.770
  476TIP3    H1 1385   0.873   2.300   5.766
  476TIP3    H2 1386   0.976   2.384   5.838
  477TIP3   OH2 1387   1.608   1.444   5.610
  477TIP3    H1 1388   1.640   1.532   5.592
  477TIP3    H2 1389   1.683   1.397   5.645
  478TIP3   OH2 1390   3.868   0.441   1.641
  478TIP3    H1 1391   3.794   0.402   1.688
  478TIP3    H2 1392   3.849   0.424   1.549
  479TIP3   OH2 1393   2.105   5.364   2.751
  479TIP3    H1 1394   2.150   5.446   2.770
  479TIP3    H2 1395   2.019   5.374   2.791
  480TIP3   OH2 1396   0.782   4.152   4.103
  480TIP3    H1 1397   0.743   4.235   4.130
  480TIP3    H2 1398   0.750   4.088   4.166
  481TIP3   OH2 1399   5.144   2.407   0.423
  481TIP3    H1 1400   5.096   2.429   0.343
  481TIP3    H2 1401   5.076   2.376   0.483
  482TIP3   OH2 1402   2.956   0.532   2.976
  482TIP3    H1 1403   2.896   0.546   3.049
  482TIP3    H2 1404   3.039   0.507   3.017
  483TIP3   OH2 1405   4.397   7.402   1.504
  483TIP3    H1 1406   4.395   7.457   1.582
  483TIP3    H2 1407   4.482   7.358   1.508
  484TIP3   OH2 1408   0.251   6.430   0.261
  484TIP3    H1 1409   0.208   6.361   0.311
  484TIP3    H2 1410   0.330   6.450   0.311
  485TIP3   OH2 1411   4.195   7.125   5.681
  485TIP3    H1 1412   4.207   7.202   5.737
  485TIP3    H2 1413   4.195   7.051   5.741
  486TIP3   OH2 1414   6.794   7.802   3.154
  486TIP3    H1 1415   6.839   7.778   3.073
  486TIP3    H2 1416   6.727   7.735   3.165
  487TIP3   OH2 1417   1.664   7.345   5.342
  487TIP3    H1 1418   1.596   7.326   5.406
  487TIP3    H2 1419   1.687   7.259   5.306
  488TIP3   OH2 1420   5.683   2.858   3.736
  488TIP3    H1 1421   5.731   2.786   3.693
  488TIP3    H2 1422   5.750   2.903   3.788
  489TIP3   OH2 1423   1.996   0.366   2.296
  489TIP3    H1 1424   1.918   0.326   2.257
  489TIP3    H2 1425   1.979   0.365   2.390
  490TIP3   OH2 1426   2.669   0.790   2.984
  490TIP3    H1 1427   2.736   0.799   3.052
  490TIP3    H2 1428   2.599   0.740   3.026
  491TIP3   OH2 1429   2.233   0.534   2.144
  491TIP3    H1 1430   2.291   0.458   2.141
  491TIP3    H2 1431   2.165   0.510   2.206
  492TIP3   OH2 1432   4.793   7.684   1.619
  492TIP3    H1 1433   4.814   7.595   1.591
  492TIP3    H2 1434   4.762   7.727   1.539
  493TIP3   OH2 1435   2.257   6.405   2.098
  493TIP3    H1 1436   2.285   6.423   2.187
  493TIP3    H2 1437   2.243   6.491   2.058
  494TIP3   OH2 1438   7.309   2.309   0.321
  494TIP3    H1 1439   7.314   2.387   0.377
  494TIP3    H2 1440   7.219   2.307   0.291
  495TIP3   OH2 1441   2.325   2.740   1.017
  495TIP3    H1 1442   2.326   2.667   1.079
  495TIP3    H2 1443   2.345   2.700   0.932
  496TIP3   OH2 1444   1.560   2.686   5.771
  496TIP3    H1 1445   1.617   2.760   5.792
  496TIP3    H2 1446   1.619   2.611   5.762
  497TIP3   OH2 1447   4.819   2.154   2.715
  497TIP3    H1 1448   4.863   2.128   2.635
  497TIP3    H2 1449   4.736   2.191   2.686
  498TIP3   OH2 1450   7.205   0.410   1.568
  498TIP3    H1 1451   7.227   0.469   1.640
  498TIP3    H2 1452   7.203   0.466   1.490
  499TIP3   OH2 1453   6.181   6.015   4.936
  499TIP3    H1 1454   6.200   5.921   4.935
  499TIP3    H2 1455   6.136   6.030   4.852
  500TIP3   OH2 1456   0.317   3.032   4.169
  500TIP3    H1 1457   0.401   3.075   4.156
  500TIP3    H2 1458   0.257   3.079   4.111
  501TIP3   OH2 1459   7.075   0.904   0.720
  501TIP3    H1 1460   7.022   0.883   0.797
  501TIP3    H2 1461   7.141   0.835   0.717
  502TIP3   OH2 1462   0.770   7.151   3.439
  502TIP3    H1 1463   0.859   7.155   3.404
  502TIP3    H2 1464   0.725   7.089   3.382
  503TIP3   OH2 1465   5.538   0.407   3.908
  503TIP3    H1 1466   5.497   0.446   3.830
  503TIP3    H2 1467   5.565   0.320   3.880
  504TIP3   OH2 1468   4.272   4.001   3.073
  504TIP3    H1 1469   4.307   3.947   3.002
  504TIP3    H2 1470   4.244   4.082   3.030
  505TIP3   OH2 1471   1.612   0.453   5.962
  505TIP3    H1 1472   1.673   0.502   5.907
  505TIP3    H2 1473   1.639   0.471   6.052
  506TIP3   OH2 1474   5.609   1.794   1.749
  506TIP3    H1 1475   5.700   1.770   1.732
  506TIP3    H2 1476   5.593   1.771   1.840
  507TIP3   OH2 1477   3.717   1.164   1.450
  507TIP3    H1 1478   3.749   1.081   1.415
  507TIP3    H2 1479   3.671   1.205   1.376
  508TIP3   OH2 1480   4.196   0.499   5.101
  508TIP3    H1 1481   4.272   0.442   5.112
  508TIP3    H2 1482   4.231   0.588   5.106
  509TIP3   OH2 1483   7.830   5.898   5.897
  509TIP3    H1 1484   7.817   5.839   5.972
  509TIP3    H2 1485   7.788   5.980   5.923
  510TIP3   OH2 1486   4.515   7.695   0.722
  510TIP3    H1 1487   4.566   7.725   0.647
  510TIP3    H2 1488   4.442   7.757   0.727
  511TIP3   OH2 1489   3.954   0.225   3.733
  511TIP3    H1 1490   3.887   0.187   3.791
  511TIP3    H2 1491   3.915   0.307   3.702
  512TIP3   OH2 1492   1.499   7.191   1.993
  512TIP3    H1 1493   1.435   7.136   1.948
  512TIP3    H2 1494   1.511   7.149   2.078
  513TIP3   OH2 1495   4.892   2.503   3.796
  513TIP3    H1 1496   4.867   2.540   3.711
  513TIP3    H2 1497   4.813   2.511   3.849
  514TIP3   OH2 1498   2.822   0.129   0.358
  514TIP3    H1 1499   2.737   0.171   0.349
  514TIP3    H2 1500   2.858   0.166   0.439
  515TIP3   OH2 1501   2.973   4.825   4.747
  515TIP3    H1 1502   2.928   4.900   4.709
  515TIP3    H2 1503   3.066   4.844   4.735
  516TIP3   OH2 1504   5.668   0.050   5.935
  516TIP3    H1 1505   5.595   0.026   5.992
  516TIP3    H2 1506   5.705  -0.034   5.906
  517TIP3   OH2 1507   1.108   2.552   2.210
  517TIP3    H1 1508   1.197   2.586   2.197
  517TIP3    H2 1509   1.100   2.482   2.146
  518TIP3   OH2 1510   0.073   7.207   2.210
  518TIP3    H1 1511   0.036   7.147   2.145
  518TIP3    H2 1512   0.165   7.216   2.185
  519TIP3   OH2 1513   0.771   5.486   3.091
  519TIP3    H1 1514   0.709   5.513   3.023
  519TIP3    H2 1515   0.816   5.410   3.055
  520TIP3   OH2 1516   1.788   4.222   6.099
  520TIP3    H1 1517   1.847   4.283   6.054
  520TIP3    H2 1518   1.747   4.274   6.168
  521TIP3   OH2 1519   6.034   5.783   6.115
  521TIP3    H1 1520   6.080   5.866   6.126
  521TIP3    H2 1521   6.040   5.740   6.200
  522TIP3   OH2 1522   0.442   7.047   1.202
  522TIP3    H1 1523   0.408   7.091   1.123
  522TIP3    H2 1524   0.483   6.967   1.169
  523TIP3   OH2 1525   3.292   5.564   5.925
  523TIP3    H1 1526   3.223   5.586   5.863
  523TIP3    H2 1527   3.252   5.576   6.011
  524TIP3   OH2 1528   8.172   3.594   1.128
  524TIP3    H1 1529   8.199   3.632   1.045
  524TIP3    H2 1530   8.228   3.637   1.193
  525TIP3   OH2 1531   7.001   2.240   5.691
  525TIP3    H1 1532   6.923   2.224   5.745
  525TIP3    H2 1533   7.006   2.163   5.634
  526TIP3   OH2 1534   2.850   2.001   0.381
  526TIP3    H1 1535   2.888   2.088   0.396
  526TIP3    H2 1536   2.916   1.941   0.415
  527TIP3   OH2 1537   3.471   5.421   5.789
  527TIP3    H1 1538   3.428   5.413   5.703
  527TIP3    H2 1539   3.405   5.460   5.845
  528TIP3   OH2 1540   7.529   2.937   1.771
  528TIP3    H1 1541   7.509   3.031   1.775
  528TIP3    H2 1542   7.474   2.904   1.700
  529TIP3   OH2 1543   2.191   6.155   3.508
  529TIP3    H1 1544   2.274   6.189   3.540
  529TIP3    H2 1545   2.149   6.231   3.467
  530TIP3   OH2 1546   6.942   1.427   3.102
  530TIP3    H1 1547   6.866   1.374   3.126
  530TIP3    H2 1548   6.939   1.502   3.162
  531TIP3   OH2 1549   7.893   3.096   3.916
  531TIP3    H1 1550   7.896   3.003   3.895
  531TIP3    H2 1551   7.966   3.134   3.867
  532TIP3   OH2 1552   4.845   5.873   2.189
  532TIP3    H1 1553   4.786   5.819   2.136
  532TIP3    H2 1554   4.881   5.937   2.127
  533TIP3   OH2 1555   5.772   7.181   6.047
  533TIP3    H1 1556   5.714   7.225   5.985
  533TIP3    H2 1557   5.821   7.118   5.994
  534TIP3   OH2 1558   4.162   1.703   2.027
  534TIP3    H1 1559   4.241   1.739   1.987
  534TIP3    H2 1560   4.193   1.656   2.104
  535TIP3   OH2 1561   6.221   3.448   4.127
  535TIP3    H1 1562   6.142   3.451   4.074
  535TIP3    H2 1563   6.211   3.520   4.190
  536TIP3   OH2 1564   4.300   1.244   3.840
  536TIP3    H1 1565   4.340   1.289   3.766
  536TIP3    H2 1566   4.365   1.179   3.867
  537TIP3   OH2 1567   5.261   3.301   6.634
  537TIP3    H1 1568   5.243   3.236   6.702
  537TIP3    H2 1569   5.218   3.267   6.555
  538TIP3   OH2 1570   6.091   6.164   3.149
  538TIP3    H1 1571   6.054   6.089   3.196
  538TIP3    H2 1572   6.147   6.207   3.213
  539TIP3   OH2 1573   2.281   1.958   2.100
  539TIP3    H1 1574   2.197   1.980   2.060
  539TIP3    H2 1575   2.261   1.951   2.194
  540TIP3   OH2 1576   5.741   3.458   4.311
  540TIP3    H1 1577   5.741   3.371   4.271
  540TIP3    H2 1578   5.653   3.468   4.346
  541TIP3   OH2 1579   6.645   3.382   0.007
  541TIP3    H1 1580   6.610   3.408   0.092
  541TIP3    H2 1581   6.603   3.441  -0.056
  542TIP3   OH2 1582   0.242   0.206   6.689
  542TIP3    H1 1583   0.278   0.293   6.672
  542TIP3    H2 1584   0.159   0.205   6.642
  543TIP3   OH2 1585   5.002   4.360   5.367
  543TIP3    H1 1586   5.072   4.295   5.378
  543TIP3    H2 1587   4.955   4.331   5.288
  544TIP3   OH2 1588   3.446   5.005   3.245
  544TIP3    H1 1589   3.422   4.969   3.159
  544TIP3    H2 1590   3.392   5.083   3.254
  545TIP3   OH2 1591   6.767   6.353   0.496
  545TIP3    H1 1592   6.797   6.342   0.406
  545TIP3    H2 1593   6.672   6.364   0.489
  546TIP3   OH2 1594   4.304   0.551   4.077
  546TIP3    H1 1595   4.253   0.472   4.062
  546TIP3    H2 1596   4.295   0.569   4.170
  547TIP3   OH2 1597   4.746   5.058   0.158
  547TIP3    H1 1598   4.735   4.964   0.173
  547TIP3    H2 1599   4.835   5.077   0.189
  548TIP3   OH2 1600   3.939   3.220   1.617
  548TIP3    H1 1601   3.880   3.156   1.575
  548TIP3    H2 1602   4.012   3.229   1.556
  549TIP3   OH2 1603   4.330   5.162   5.621
  549TIP3    H1 1604   4.244   5.122   5.636
  549TIP3    H2 1605   4.365   5.117   5.544
  550TIP3   OH2 1606   6.752   3.128   3.387
  550TIP3    H1 1607   6.700   3.081   3.452
  550TIP3    H2 1608   6.743   3.220   3.410
  551TIP3   OH2 1609   5.395   4.648   0.763
  551TIP3    H1 1610   5.428   4.564   0.794
  551TIP3    H2 1611   5.407   4.707   0.837
  552TIP3   OH2 1612   3.038   0.602   2.491
  552TIP3    H1 1613   3.037   0.639   2.579
  552TIP3    H2 1614   3.011   0.674   2.434
  553TIP3   OH2 1615   7.399   2.833   2.201
  553TIP3    H1 1616   7.484   2.865   2.231
  553TIP3    H2 1617   7.387   2.750   2.248
  554TIP3   OH2 1618   1.176   0.788   1.468
  554TIP3    H1 1619   1.108   0.747   1.414
  554TIP3    H2 1620   1.257   0.747   1.440
  555TIP3   OH2 1621   6.483   4.683   1.820
  555TIP3    H1 1622   6.411   4.745   1.828
  555TIP3    H2 1623   6.444   4.597   1.835
  556TIP3   OH2 1624   5.434   0.403   6.143
  556TIP3    H1 1625   5.413   0.327   6.090
  556TIP3    H2 1626   5.475   0.367   6.222
  557TIP3   OH2 1627   2.013   6.385   3.750
  557TIP3    H1 1628   2.103   6.409   3.770
  557TIP3    H2 1629   1.990   6.437   3.673
  558TIP3   OH2 1630   3.024   1.347   2.267
  558TIP3    H1 1631   3.081   1.393   2.329
  558TIP3    H2 1632   3.042   1.388   2.183
  559TIP3   OH2 1633   4.519   0.956   4.453
  559TIP3    H1 1634   4.571   0.998   4.385
  559TIP3    H2 1635   4.577   0.951   4.529
  560TIP3   OH2 1636   5.204   5.859   2.682
  560TIP3    H1 1637   5.192   5.768   2.656
  560TIP3    H2 1638   5.207   5.907   2.599
  561TIP3   OH2 1639   2.063   4.085   6.237
  561TIP3    H1 1640   2.042   4.178   6.246
  561TIP3    H2 1641   2.007   4.054   6.166
  562TIP3   OH2 1642   1.962   2.435   3.287
  562TIP3    H1 1643   1.933   2.496   3.356
  562TIP3    H2 1644   2.057   2.435   3.294
  563TIP3   OH2 1645   6.271   2.319   5.358
  563TIP3    H1 1646   6.346   2.267   5.328
  563TIP3    H2 1647   6.304   2.368   5.434
  564TIP3   OH2 1648   4.287   7.612   5.865
  564TIP3    H1 1649   4.376   7.645   5.875
  564TIP3    H2 1650   4.297   7.517   5.870
  565TIP3   OH2 1651   3.909   3.003   2.426
  565TIP3    H1 1652   3.844   2.935   2.446
  565TIP3    H2 1653   3.893   3.072   2.491
  566TIP3   OH2 1654   0.327   5.979  -0.003
  566TIP3    H1 1655   0.309   5.926   0.074
  566TIP3    H2 1656   0.241   6.010  -0.032
  567TIP3   OH2 1657   2.619   4.210   3.914
  567TIP3    H1 1658   2.588   4.298   3.895
  567TIP3    H2 1659   2.671   4.218   3.993
  568TIP3   OH2 1660   0.896   4.789   6.354
  568TIP3    H1 1661   0.978   4.833   6.376
  568TIP3    H2 1662   0.832   4.860   6.345
  569TIP3   OH2 1663   6.312   0.568   4.968
  569TIP3    H1 1664   6.272   0.620   5.038
  569TIP3    H2 1665   6.391   0.531   5.008
  570TIP3   OH2 1666   1.886   5.434   2.885
  570TIP3    H1 1667   1.857   5.525   2.895
  570TIP3    H2 1668   1.837   5.386   2.952
  571TIP3   OH2 1669   2.099   6.403   5.205
  571TIP3    H1 1670   2.039   6.391   5.131
  571TIP3    H2 1671   2.162   6.332   5.197
  572TIP3   OH2 1672   3.318   4.500   3.268
  572TIP3    H1 1673   3.333   4.553   3.347
  572TIP3    H2 1674   3.230   4.523   3.241
  573TIP3   OH2 1675   7.756   3.785   1.611
  573TIP3    H1 1676   7.779   3.796   1.518
  573TIP3    H2 1677   7.661   3.775   1.611
  574TIP3   OH2 1678   2.681   5.290   2.513
  574TIP3    H1 1679   2.612   5.277   2.577
  574TIP3    H2 1680   2.762   5.279   2.562
  575TIP3   OH2 1681   0.792   1.821   2.169
  575TIP3    H1 1682   0.765   1.841   2.259
  575TIP3    H2 1683   0.784   1.904   2.122
  576TIP3   OH2 1684   6.139   3.955   5.706
  576TIP3    H1 1685   6.048   3.932   5.688
  576TIP3    H2 1686   6.180   3.956   5.619
  577TIP3   OH2 1687   7.228   1.730   2.420
  577TIP3    H1 1688   7.216   1.637   2.436
  577TIP3    H2 1689   7.288   1.734   2.346
  578TIP3   OH2 1690   1.452   4.326   5.155
  578TIP3    H1 1691   1.517   4.395   5.159
  578TIP3    H2 1692   1.373   4.369   5.123
  579TIP3   OH2 1693   6.576   6.328   6.447
  579TIP3    H1 1694   6.634   6.284   6.385
  579TIP3    H2 1695   6.540   6.257   6.500
  580TIP3   OH2 1696   0.728   3.927   0.994
  580TIP3    H1 1697   0.689   4.009   1.023
  580TIP3    H2 1698   0.710   3.925   0.900
  581TIP3   OH2 1699   7.657   1.211   2.144
  581TIP3    H1 1700   7.654   1.178   2.054
  581TIP3    H2 1701   7.566   1.205   2.175
  582TIP3   OH2 1702   8.202   2.920   2.743
  582TIP3    H1 1703   8.255   2.942   2.821
  582TIP3    H2 1704   8.221   2.827   2.728
  583TIP3   OH2 1705   3.115   6.853   0.970
  583TIP3    H1 1706   3.168   6.776   0.948
  583TIP3    H2 1707   3.058   6.823   1.041
  584TIP3   OH2 1708   1.756   7.072   6.479
  584TIP3    H1 1709   1.807   7.003   6.521
  584TIP3    H2 1710   1.672   7.070   6.525
  585TIP3   OH2 1711   0.333   5.934   4.080
  585TIP3    H1 1712   0.280   5.855   4.078
  585TIP3    H2 1713   0.414   5.909   4.125
  586TIP3   OH2 1714   3.995   0.778   6.105
  586TIP3    H1 1715   3.937   0.759   6.031
  586TIP3    H2 1716   4.040   0.858   6.081
  587TIP3   OH2 1717   3.245   2.033   2.874
  587TIP3    H1 1718   3.250   2.105   2.937
  587TIP3    H2 1719   3.203   2.070   2.797
  588TIP3   OH2 1720  -0.045   7.710   0.770
  588TIP3    H1 1721  -0.022   7.633   0.719
  588TIP3    H2 1722   0.036   7.733   0.816
  589TIP3   OH2 1723   6.204   0.831   1.596
  589TIP3    H1 1724   6.120   0.835   1.643
  589TIP3    H2 1725   6.213   0.918   1.556
  590TIP3   OH2 1726   5.299   0.598   2.916
  590TIP3    H1 1727   5.226   0.639   2.963
  590TIP3    H2 1728   5.257   0.554   2.841
  591TIP3   OH2 1729   8.111   6.911   1.136
  591TIP3    H1 1730   8.126   6.830   1.183
  591TIP3    H2 1731   8.023   6.903   1.099
  592TIP3   OH2 1732   2.881   2.854   2.099
  592TIP3    H1 1733   2.796   2.867   2.142
  592TIP3    H2 1734   2.919   2.779   2.145
  593TIP3   OH2 1735   4.814   3.263   0.105
  593TIP3    H1 1736   4.765   3.196   0.152
  593TIP3    H2 1737   4.903   3.227   0.097
  594TIP3   OH2 1738   5.605   1.089   1.374
  594TIP3    H1 1739   5.516   1.123   1.383
  594TIP3    H2 1740   5.656   1.163   1.341
  595TIP3   OH2 1741   7.652   5.551   0.421
  595TIP3    H1 1742   7.621   5.484   0.481
  595TIP3    H2 1743   7.613   5.528   0.337
  596TIP3   OH2 1744   1.171   0.532   0.349
  596TIP3    H1 1745   1.149   0.540   0.257
  596TIP3    H2 1746   1.265   0.511   0.350
  597TIP3   OH2 1747   8.002   6.053   2.622
  597TIP3    H1 1748   8.034   6.070   2.533
  597TIP3    H2 1749   7.911   6.026   2.609
  598TIP3   OH2 1750   3.362   2.130   2.267
  598TIP3    H1 1751   3.305   2.082   2.207
  598TIP3    H2 1752   3.350   2.088   2.352
  599TIP3   OH2 1753   0.280   4.587   5.202
  599TIP3    H1 1754   0.191   4.602   5.232
  599TIP3    H2 1755   0.300   4.497   5.229
  600TIP3   OH2 1756   6.440   6.331   6.011
  600TIP3    H1 1757   6.455   6.414   6.057
  600TIP3    H2 1758   6.508   6.328   5.944
  601TIP3   OH2 1759   6.958   0.542   4.977
  601TIP3    H1 1760   6.997   0.477   5.036
  601TIP3    H2 1761   6.868   0.551   5.009
  602TIP3   OH2 1762   3.178   6.167   2.846
  602TIP3    H1 1763   3.246   6.119   2.798
  602TIP3    H2 1764   3.212   6.257   2.852
  603TIP3   OH2 1765   0.983   0.324   5.951
  603TIP3    H1 1766   0.934   0.268   6.011
  603TIP3    H2 1767   1.061   0.272   5.927
  604TIP3   OH2 1768   0.499   5.261   3.229
  604TIP3    H1 1769   0.430   5.304   3.179
  604TIP3    H2 1770   0.542   5.203   3.166
  605TIP3   OH2 1771   6.144   6.831   2.042
  605TIP3    H1 1772   6.120   6.900   2.103
  605TIP3    H2 1773   6.239   6.821   2.052
  606TIP3   OH2 1774   7.747   0.683   1.793
  606TIP3    H1 1775   7.771   0.687   1.701
  606TIP3    H2 1776   7.652   0.676   1.792
  607TIP3   OH2 1777   6.165   6.948   1.788
  607TIP3    H1 1778   6.146   6.902   1.870
  607TIP3    H2 1779   6.229   6.893   1.743
  608TIP3   OH2 1780   4.283   0.589   6.669
  608TIP3    H1 1781   4.357   0.602   6.610
  608TIP3    H2 1782   4.313   0.625   6.753
  609TIP3   OH2 1783   0.435   2.112   4.832
  609TIP3    H1 1784   0.363   2.050   4.836
  609TIP3    H2 1785   0.434   2.146   4.743
  610TIP3   OH2 1786   6.819   6.963   6.704
  610TIP3    H1 1787   6.887   6.933   6.764
  610TIP3    H2 1788   6.851   6.939   6.617
  611TIP3   OH2 1789   3.053   6.262   4.697
  611TIP3    H1 1790   3.132   6.257   4.643
  611TIP3    H2 1791   2.994   6.197   4.660
  612TIP3   OH2 1792   4.471   0.693   1.300
  612TIP3    H1 1793   4.400   0.644   1.259
  612TIP3    H2 1794   4.515   0.628   1.356
  613TIP3   OH2 1795   2.195   3.242   0.936
  613TIP3    H1 1796   2.142   3.167   0.910
  613TIP3    H2 1797   2.140   3.318   0.914
  614TIP3   OH2 1798   5.994   4.302   5.640
  614TIP3    H1 1799   5.979   4.397   5.632
  614TIP3    H2 1800   6.080   4.295   5.681
  615TIP3   OH2 1801   1.398   0.243   3.124
  615TIP3    H1 1802   1.433   0.172   3.070
  615TIP3    H2 1803   1.328   0.202   3.175
  616TIP3   OH2 1804   6.906   3.841   5.494
  616TIP3    H1 1805   6.873   3.900   5.427
  616TIP3    H2 1806   6.893   3.753   5.457
  617TIP3   OH2 1807   6.233   6.520   5.014
  617TIP3    H1 1808   6.248   6.443   4.959
  617TIP3    H2 1809   6.274   6.592   4.967
  618TIP3   OH2 1810   3.635   0.316   6.384
  618TIP3    H1 1811   3.638   0.373   6.307
  618TIP3    H2 1812   3.556   0.264   6.372
  619TIP3   OH2 1813   2.098   4.324   3.217
  619TIP3    H1 1814   2.179   4.336   3.266
  619TIP3    H2 1815   2.108   4.381   3.141
  620TIP3   OH2 1816   3.222   2.131   5.848
  620TIP3    H1 1817   3.200   2.042   5.822
  620TIP3    H2 1818   3.233   2.127   5.943
  621TIP3   OH2 1819   7.564   0.878   6.675
  621TIP3    H1 1820   7.557   0.950   6.738
  621TIP3    H2 1821   7.534   0.801   6.723
  622TIP3   OH2 1822   4.384   0.908   4.143
  622TIP3    H1 1823   4.447   0.953   4.200
  622TIP3    H2 1824   4.427   0.824   4.122
  623TIP3   OH2 1825   5.371   4.030   4.960
  623TIP3    H1 1826   5.276   4.027   4.945
  623TIP3    H2 1827   5.405   4.087   4.891
  624TIP3   OH2 1828   4.095   5.984   2.102
  624TIP3    H1 1829   4.187   5.959   2.094
  624TIP3    H2 1830   4.084   6.007   2.194
  625TIP3   OH2 1831   5.263   6.680   2.123
  625TIP3    H1 1832   5.188   6.720   2.166
  625TIP3    H2 1833   5.252   6.702   2.031
  626TIP3   OH2 1834   2.472   1.661   3.049
  626TIP3    H1 1835   2.384   1.679   3.015
  626TIP3    H2 1836   2.513   1.608   2.981
  627TIP3   OH2 1837   2.839   0.861   5.615
  627TIP3    H1 1838   2.774   0.866   5.685
  627TIP3    H2 1839   2.826   0.942   5.565
  628TIP3   OH2 1840   1.616   1.962   0.962
  628TIP3    H1 1841   1.534   1.980   1.008
  628TIP3    H2 1842   1.592   1.900   0.893
  629TIP3   OH2 1843   4.763   1.154   2.820
  629TIP3    H1 1844   4.756   1.103   2.901
  629TIP3    H2 1845   4.736   1.242   2.845
  630TIP3   OH2 1846   7.703   1.793   5.024
  630TIP3    H1 1847   7.678   1.785   5.117
  630TIP3    H2 1848   7.778   1.734   5.015
  631TIP3   OH2 1849   5.134   7.083   6.436
  631TIP3    H1 1850   5.135   6.988   6.426
  631TIP3    H2 1851   5.132   7.098   6.530
  632TIP3   OH2 1852   5.801   4.316   5.213
  632TIP3    H1 1853   5.805   4.262   5.292
  632TIP3    H2 1854   5.716   4.296   5.174
  633TIP3   OH2 1855   0.264   5.404   5.553
  633TIP3    H1 1856   0.306   5.399   5.467
  633TIP3    H2 1857   0.212   5.323   5.558
  634TIP3   OH2 1858   8.010   5.735   4.634
  634TIP3    H1 1859   7.929   5.777   4.662
  634TIP3    H2 1860   8.079   5.796   4.660
  635TIP3   OH2 1861   7.939   5.160   5.258
  635TIP3    H1 1862   7.973   5.247   5.240
  635TIP3    H2 1863   7.879   5.142   5.185
  636TIP3   OH2 1864   1.611   0.824   3.917
  636TIP3    H1 1865   1.639   0.734   3.902
  636TIP3    H2 1866   1.533   0.834   3.864
  637TIP3   OH2 1867   1.044   6.134   4.000
  637TIP3    H1 1868   1.078   6.091   4.079
  637TIP3    H2 1869   1.117   6.130   3.937
  638TIP3   OH2 1870   4.756   0.797   3.683
  638TIP3    H1 1871   4.738   0.753   3.600
  638TIP3    H2 1872   4.781   0.727   3.743
  639TIP3   OH2 1873   2.176   7.638   2.533
  639TIP3    H1 1874   2.103   7.577   2.522
  639TIP3    H2 1875   2.215   7.613   2.616
  640TIP3   OH2 1876   2.723   4.962   2.189
  640TIP3    H1 1877   2.750   4.929   2.275
  640TIP3    H2 1878   2.724   4.886   2.132
  641TIP3   OH2 1879   5.482   4.752   1.007
  641TIP3    H1 1880   5.438   4.836   1.022
  641TIP3    H2 1881   5.472   4.705   1.090
  642TIP3   OH2 1882   0.046   2.637   3.703
  642TIP3    H1 1883   0.045   2.560   3.759
  642TIP3    H2 1884   0.071   2.604   3.617
  643TIP3   OH2 1885   8.195   2.723   0.430
  643TIP3    H1 1886   8.277   2.733   0.381
  643TIP3    H2 1887   8.163   2.812   0.442
  644TIP3   OH2 1888   5.546   4.873   6.442
  644TIP3    H1 1889   5.547   4.830   6.527
  644TIP3    H2 1890   5.461   4.915   6.437
  645TIP3   OH2 1891   2.465   3.632   2.950
  645TIP3    H1 1892   2.379   3.644   2.991
  645TIP3    H2 1893   2.510   3.716   2.963
  646TIP3   OH2 1894   0.471   2.158   5.705
  646TIP3    H1 1895   0.447   2.224   5.639
  646TIP3    H2 1896   0.564   2.172   5.720
  647TIP3   OH2 1897   1.645   6.100   1.590
  647TIP3    H1 1898   1.612   6.010   1.596
  647TIP3    H2 1899   1.591   6.149   1.653
  648TIP3   OH2 1900   6.488   3.099   4.471
  648TIP3    H1 1901   6.514   3.190   4.456
  648TIP3    H2 1902   6.533   3.075   4.553
  649TIP3   OH2 1903   1.894   7.598   3.119
  649TIP3    H1 1904   1.915   7.691   3.108
  649TIP3    H2 1905   1.922   7.557   3.037
  650TIP3   OH2 1906   0.219   6.181   4.102
  650TIP3    H1 1907   0.190   6.207   4.014
  650TIP3    H2 1908   0.231   6.086   4.096
  651TIP3   OH2 1909   5.304   4.238   3.597
  651TIP3    H1 1910   5.217   4.226   3.558
  651TIP3    H2 1911   5.340   4.150   3.604
  652TIP3   OH2 1912   3.707   4.467   6.104
  652TIP3    H1 1913   3.745   4.553   6.122
  652TIP3    H2 1914   3.677   4.473   6.013
  653TIP3   OH2 1915   1.554   1.507   4.436
  653TIP3    H1 1916   1.573   1.463   4.519
  653TIP3    H2 1917   1.464   1.538   4.446
  654TIP3   OH2 1918   0.042   5.567   0.237
  654TIP3    H1 1919   0.008   5.481   0.212
  654TIP3    H2 1920  -0.027   5.628   0.211
  655TIP3   OH2 1921   6.267   0.808   4.192
  655TIP3    H1 1922   6.350   0.780   4.231
  655TIP3    H2 1923   6.248   0.892   4.234
  656TIP3   OH2 1924   0.874   2.614   0.313
  656TIP3    H1 1925   0.913   2.588   0.229
  656TIP3    H2 1926   0.823   2.692   0.293
  657TIP3   OH2 1927   1.064   4.590   5.835
  657TIP3    H1 1928   1.152   4.628   5.829
  657TIP3    H2 1929   1.028   4.626   5.916
  658TIP3   OH2 1930   7.912   2.003   6.470
  658TIP3    H1 1931   7.877   2.081   6.428
  658TIP3    H2 1932   7.995   2.031   6.507
  659TIP3   OH2 1933   7.113   2.631   3.425
  659TIP3    H1 1934   7.205   2.631   3.451
  659TIP3    H2 1935   7.097   2.721   3.397
  660TIP3   OH2 1936   0.042  -0.022   5.922
  660TIP3    H1 1937  -0.039   0.028   5.935
  660TIP3    H2 1938   0.035  -0.056   5.833
  661TIP3   OH2 1939   7.919   1.166   6.106
  661TIP3    H1 1940   7.879   1.243   6.144
  661TIP3    H2 1941   7.925   1.103   6.178
  662TIP3   OH2 1942   0.029   2.466   0.233
  662TIP3    H1 1943  -0.054   2.426   0.260
  662TIP3    H2 1944   0.086   2.392   0.212
  663TIP3   OH2 1945   5.577   3.094   0.354
  663TIP3    H1 1946   5.603   3.066   0.266
  663TIP3    H2 1947   5.655   3.079   0.408
  664TIP3   OH2 1948   3.803   4.444   4.899
  664TIP3    H1 1949   3.838   4.440   4.989
  664TIP3    H2 1950   3.710   4.422   4.908
  665TIP3   OH2 1951   4.859   3.030   2.383
  665TIP3    H1 1952   4.853   3.071   2.469
  665TIP3    H2 1953   4.953   3.015   2.370
  666TIP3   OH2 1954   7.061   0.103   3.193
  666TIP3    H1 1955   7.038   0.179   3.140
  666TIP3    H2 1956   6.984   0.088   3.248
  667TIP3   OH2 1957   1.595   3.937   4.645
  667TIP3    H1 1958   1.623   3.952   4.735
  667TIP3    H2 1959   1.545   4.016   4.622
  668TIP3   OH2 1960   1.239   3.138   2.199
  668TIP3    H1 1961   1.313   3.112   2.254
  668TIP3    H2 1962   1.268   3.221   2.159
  669TIP3   OH2 1963   6.108   4.387   4.447
  669TIP3    H1 1964   6.149   4.444   4.382
  669TIP3    H2 1965   6.169   4.387   4.521
  670TIP3   OH2 1966   4.444   3.255   5.966
  670TIP3    H1 1967   4.503   3.288   6.034
  670TIP3    H2 1968   4.369   3.313   5.969
  671TIP3   OH2 1969   7.121   7.593   3.377
  671TIP3    H1 1970   7.189   7.603   3.311
  671TIP3    H2 1971   7.167   7.603   3.460
  672TIP3   OH2 1972   5.766   4.037   4.201
  672TIP3    H1 1973   5.741   4.018   4.110
  672TIP3    H2 1974   5.845   4.091   4.193
  673TIP3   OH2 1975   4.954   1.752   5.688
  673TIP3    H1 1976   5.006   1.674   5.709
  673TIP3    H2 1977   4.866   1.718   5.673
  674TIP3   OH2 1978   5.475   5.992   0.796
  674TIP3    H1 1979   5.525   5.995   0.877
  674TIP3    H2 1980   5.538   6.016   0.728
  675TIP3   OH2 1981   6.329   0.177   2.952
  675TIP3    H1 1982   6.304   0.122   3.026
  675TIP3    H2 1983   6.420   0.202   2.971
  676TIP3   OH2 1984   0.791   1.799   0.166
  676TIP3    H1 1985   0.719   1.747   0.131
  676TIP3    H2 1986   0.861   1.735   0.182
  677TIP3   OH2 1987   1.301   7.376   2.436
  677TIP3    H1 1988   1.269   7.314   2.371
  677TIP3    H2 1989   1.386   7.342   2.462
  678TIP3   OH2 1990   2.838   6.580   5.672
  678TIP3    H1 1991   2.919   6.546   5.710
  678TIP3    H2 1992   2.783   6.603   5.747
  679TIP3   OH2 1993   3.653   5.531   5.480
  679TIP3    H1 1994   3.587   5.599   5.497
  679TIP3    H2 1995   3.728   5.580   5.445
  680TIP3   OH2 1996   1.380   4.472   5.692
  680TIP3    H1 1997   1.439   4.425   5.634
  680TIP3    H2 1998   1.314   4.509   5.634
  681TIP3   OH2 1999   4.632   1.217   0.441
  681TIP3    H1 2000   4.696   1.268   0.492
  681TIP3    H2 2001   4.625   1.265   0.358
  682TIP3   OH2 2002   5.115   1.013   3.219
  682TIP3    H1 2003   5.049   1.021   3.289
  682TIP3    H2 2004   5.089   1.078   3.154
  683TIP3   OH2 2005   1.631   6.432   4.595
  683TIP3    H1 2006   1.536   6.435   4.593
  683TIP3    H2 2007   1.659   6.519   4.567
  684TIP3   OH2 2008   3.569   2.070   3.698
  684TIP3    H1 2009   3.514   2.103   3.627
  684TIP3    H2 2010   3.655   2.056   3.657
  685TIP3   OH2 2011   1.221   6.847   0.253
  685TIP3    H1 2012   1.260   6.832   0.340
  685TIP3    H2 2013   1.197   6.940   0.253
  686TIP3   OH2 2014   3.421   4.266   4.697
  686TIP3    H1 2015   3.449   4.189   4.648
  686TIP3    H2 2016   3.353   4.306   4.642
  687TIP3   OH2 2017   3.842   6.691   0.825
  687TIP3    H1 2018   3.888   6.768   0.793
  687TIP3    H2 2019   3.910   6.625   0.837
  688TIP3   OH2 2020   1.746   1.545   0.552
  688TIP3    H1 2021   1.807   1.473   0.567
  688TIP3    H2 2022   1.799   1.624   0.557
  689TIP3   OH2 2023   4.755   4.727   2.937
  689TIP3    H1 2024   4.751   4.631   2.932
  689TIP3    H2 2025   4.696   4.749   3.009
  690TIP3   OH2 2026   6.780   5.048   3.798
  690TIP3    H1 2027   6.694   5.006   3.790
  690TIP3    H2 2028   6.805   5.070   3.709
  691TIP3   OH2 2029   1.396   1.259   4.177
  691TIP3    H1 2030   1.304   1.239   4.159
  691TIP3    H2 2031   1.443   1.180   4.152
  692TIP3   OH2 2032   0.489   3.938   3.981
  692TIP3    H1 2033   0.447   4.004   3.927
  692TIP3    H2 2034   0.558   3.985   4.027
  693TIP3   OH2 2035   7.519   1.707   0.793
  693TIP3    H1 2036   7.539   1.622   0.754
  693TIP3    H2 2037   7.449   1.742   0.738
  694TIP3   OH2 2038   0.583   7.508   1.730
  694TIP3    H1 2039   0.628   7.541   1.808
  694TIP3    H2 2040   0.582   7.413   1.742
  695TIP3   OH2 2041   4.148   0.290   2.932
  695TIP3    H1 2042   4.154   0.206   2.978
  695TIP3    H2 2043   4.065   0.328   2.961
  696TIP3   OH2 2044   2.011   4.320   4.652
  696TIP3    H1 2045   2.093   4.308   4.604
  696TIP3    H2 2046   1.985   4.410   4.634
  697TIP3   OH2 2047   0.593   6.316   2.625
  697TIP3    H1 2048   0.519   6.335   2.567
  697TIP3    H2 2049   0.560   6.333   2.713
  698TIP3   OH2 2050   5.672   0.917   5.224
  698TIP3    H1 2051   5.634   0.859   5.290
  698TIP3    H2 2052   5.749   0.954   5.267
  699TIP3   OH2 2053   5.035   7.757   4.450
  699TIP3    H1 2054   4.993   7.724   4.529
  699TIP3    H2 2055   4.997   7.706   4.378
  700TIP3   OH2 2056   6.390   0.413   3.799
  700TIP3    H1 2057   6.328   0.444   3.733
  700TIP3    H2 2058   6.454   0.363   3.748
  701TIP3   OH2 2059   4.471   5.149   3.601
  701TIP3    H1 2060   4.401   5.214   3.598
  701TIP3    H2 2061   4.471   5.117   3.691
  702TIP3   OH2 2062   3.279   2.931   0.951
  702TIP3    H1 2063   3.292   2.961   0.861
  702TIP3    H2 2064   3.342   2.861   0.963
  703TIP3   OH2 2065   6.558   5.700   5.767
  703TIP3    H1 2066   6.555   5.698   5.863
  703TIP3    H2 2067   6.491   5.763   5.742
  704TIP3   OH2 2068   5.515   1.641   0.522
  704TIP3    H1 2069   5.498   1.560   0.474
  704TIP3    H2 2070   5.465   1.708   0.475
  705TIP3   OH2 2071   7.691   5.813   0.332
  705TIP3    H1 2072   7.695   5.890   0.390
  705TIP3    H2 2073   7.702   5.739   0.391
  706TIP3   OH2 2074   4.299   2.285   6.218
  706TIP3    H1 2075   4.323   2.354   6.155
  706TIP3    H2 2076   4.317   2.204   6.171
  707TIP3   OH2 2077   4.762   7.566   2.896
  707TIP3    H1 2078   4.837   7.564   2.956
  707TIP3    H2 2079   4.688   7.543   2.951
  708TIP3   OH2 2080   7.004   5.218   6.676
  708TIP3    H1 2081   7.030   5.127   6.686
  708TIP3    H2 2082   6.950   5.219   6.597
  709TIP3   OH2 2083   2.060   4.735   4.302
  709TIP3    H1 2084   2.083   4.720   4.394
  709TIP3    H2 2085   2.059   4.831   4.294
  710TIP3   OH2 2086   1.931   4.157   2.960
  710TIP3    H1 2087   1.924   4.080   2.904
  710TIP3    H2 2088   2.025   4.174   2.966
  711TIP3   OH2 2089   6.754   2.583   4.800
  711TIP3    H1 2090   6.677   2.570   4.856
  711TIP3    H2 2091   6.814   2.512   4.825
  712TIP3   OH2 2092   6.224   1.816   5.470
  712TIP3    H1 2093   6.217   1.734   5.421
  712TIP3    H2 2094   6.208   1.884   5.405
  713TIP3   OH2 2095   6.682   3.481   5.016
  713TIP3    H1 2096   6.736   3.556   5.043
  713TIP3    H2 2097   6.600   3.493   5.062
  714TIP3   OH2 2098   4.039   6.479   5.465
  714TIP3    H1 2099   4.114   6.428   5.494
  714TIP3    H2 2100   3.964   6.440   5.512
  715TIP3   OH2 2101   1.899   5.304   4.127
  715TIP3    H1 2102   1.948   5.365   4.072
  715TIP3    H2 2103   1.941   5.311   4.213
  716TIP3   OH2 2104   2.962   2.499   6.064
  716TIP3    H1 2105   2.954   2.405   6.049
  716TIP3    H2 2106   2.886   2.537   6.019
  717TIP3   OH2 2107   0.518   5.985   3.358
  717TIP3    H1 2108   0.508   6.070   3.315
  717TIP3    H2 2109   0.602   5.952   3.325
  718TIP3   OH2 2110   6.308   3.663   2.352
  718TIP3    H1 2111   6.300   3.596   2.284
  718TIP3    H2 2112   6.344   3.616   2.427
  719TIP3   OH2 2113   7.319   3.364   2.779
  719TIP3    H1 2114   7.267   3.284   2.790
  719TIP3    H2 2115   7.310   3.409   2.863
  720TIP3   OH2 2116   0.800   0.083   0.741
  720TIP3    H1 2117   0.755  -0.001   0.730
  720TIP3    H2 2118   0.791   0.103   0.834
  721TIP3   OH2 2119   6.496   0.743   0.209
  721TIP3    H1 2120   6.510   0.652   0.233
  721TIP3    H2 2121   6.563   0.761   0.143
  722TIP3   OH2 2122   0.010   3.181   3.279
  722TIP3    H1 2123   0.003   3.273   3.302
  722TIP3    H2 2124   0.093   3.174   3.232
  723TIP3   OH2 2125   4.113   6.097   0.442
  723TIP3    H1 2126   4.118   6.166   0.509
  723TIP3    H2 2127   4.137   6.017   0.489
  724TIP3   OH2 2128   4.698   6.789   6.291
  724TIP3    H1 2129   4.748   6.860   6.330
  724TIP3    H2 2130   4.674   6.821   6.204
  725TIP3   OH2 2131   5.483   1.994   4.574
  725TIP3    H1 2132   5.491   2.089   4.559
  725TIP3    H2 2133   5.556   1.972   4.631
  726TIP3   OH2 2134   3.796   6.126   2.912
  726TIP3    H1 2135   3.889   6.145   2.907
  726TIP3    H2 2136   3.783   6.050   2.856
  727TIP3   OH2 2137   0.525   3.305   6.292
  727TIP3    H1 2138   0.497   3.348   6.212
  727TIP3    H2 2139   0.621   3.300   6.284
  728TIP3   OH2 2140   0.023   5.023   2.403
  728TIP3    H1 2141   0.089   4.984   2.346
  728TIP3    H2 2142   0.043   5.117   2.403
  729TIP3   OH2 2143   0.924   4.583   0.700
  729TIP3    H1 2144   0.963   4.626   0.624
  729TIP3    H2 2145   0.985   4.513   0.723
  730TIP3   OH2 2146   7.118   4.379   3.576
  730TIP3    H1 2147   7.099   4.388   3.483
  730TIP3    H2 2148   7.068   4.301   3.603
  731TIP3   OH2 2149   7.343   0.997   1.842
  731TIP3    H1 2150   7.319   1.064   1.778
  731TIP3    H2 2151   7.317   1.034   1.927
  732TIP3   OH2 2152   1.605   3.424   5.588
  732TIP3    H1 2153   1.695   3.418   5.621
  732TIP3    H2 2154   1.600   3.510   5.547
  733TIP3   OH2 2155   7.297   1.958   2.823
  733TIP3    H1 2156   7.233   2.008   2.773
  733TIP3    H2 2157   7.296   1.871   2.783
  734TIP3   OH2 2158   2.473   7.569   2.475
  734TIP3    H1 2159   2.420   7.597   2.550
  734TIP3    H2 2160   2.412   7.519   2.421
  735TIP3   OH2 2161   3.224   6.416   1.580
  735TIP3    H1 2162   3.284   6.483   1.611
  735TIP3    H2 2163   3.280   6.352   1.536
  736TIP3   OH2 2164   8.023   4.834   5.020
  736TIP3    H1 2165   8.046   4.924   4.998
  736TIP3    H2 2166   7.936   4.820   4.982
  737TIP3   OH2 2167   6.266   6.502   2.969
  737TIP3    H1 2168   6.341   6.480   3.024
  737TIP3    H2 2169   6.216   6.420   2.963
  738TIP3   OH2 2170   0.068   4.389   3.876
  738TIP3    H1 2171   0.115   4.461   3.834
  738TIP3    H2 2172   0.137   4.338   3.918
  739TIP3   OH2 2173   5.050   3.642   1.547
  739TIP3    H1 2174   5.103   3.627   1.469
  739TIP3    H2 2175   5.056   3.560   1.596
  740TIP3   OH2 2176   6.604   7.656   0.444
  740TIP3    H1 2177   6.573   7.579   0.492
  740TIP3    H2 2178   6.530   7.683   0.390
  741TIP3   OH2 2179   3.644   1.565   3.143
  741TIP3    H1 2180   3.606   1.589   3.228
  741TIP3    H2 2181   3.651   1.648   3.096
  742TIP3   OH2 2182   7.859   0.702   1.538
  742TIP3    H1 2183   7.802   0.763   1.492
  742TIP3    H2 2184   7.898   0.649   1.469
  743TIP3   OH2 2185   0.573   4.212   2.934
  743TIP3    H1 2186   0.634   4.202   2.861
  743TIP3    H2 2187   0.596   4.297   2.973
  744TIP3   OH2 2188   1.581   2.476   0.141
  744TIP3    H1 2189   1.591   2.493   0.047
  744TIP3    H2 2190   1.558   2.383   0.146
  745TIP3   OH2 2191   2.211   2.887   3.919
  745TIP3    H1 2192   2.169   2.964   3.957
  745TIP3    H2 2193   2.245   2.839   3.994
  746TIP3   OH2 2194   2.223   4.972   2.265
  746TIP3    H1 2195   2.312   5.000   2.287
  746TIP3    H2 2196   2.166   5.038   2.304
  747TIP3   OH2 2197   3.802   5.022   5.035
  747TIP3    H1 2198   3.811   4.989   5.124
  747TIP3    H2 2199   3.764   4.948   4.986
  748TIP3   OH2 2200   7.014   1.354   4.117
  748TIP3    H1 2201   7.053   1.283   4.168
  748TIP3    H2 2202   6.997   1.423   4.181
  749TIP3   OH2 2203   4.774   7.802   2.780
  749TIP3    H1 2204   4.748   7.711   2.796
  749TIP3    H2 2205   4.838   7.821   2.849
  750TIP3   OH2 2206   0.904   6.744   1.118
  750TIP3    H1 2207   0.899   6.695   1.200
  750TIP3    H2 2208   0.818   6.731   1.078
  751TIP3   OH2 2209   5.464   0.569   1.936
  751TIP3    H1 2210   5.422   0.616   2.008
  751TIP3    H2 2211   5.457   0.627   1.861
  752TIP3   OH2 2212   3.859   7.090   2.384
  752TIP3    H1 2213   3.930   7.026   2.384
  752TIP3    H2 2214   3.866   7.134   2.469
  753TIP3   OH2 2215   6.078   5.441   5.556
  753TIP3    H1 2216   5.985   5.449   5.579
  753TIP3    H2 2217   6.092   5.510   5.491
  754TIP3   OH2 2218   1.305   6.550   4.906
  754TIP3    H1 2219   1.314   6.634   4.861
  754TIP3    H2 2220   1.254   6.495   4.846
  755TIP3   OH2 2221   4.763   4.774   2.059
  755TIP3    H1 2222   4.847   4.745   2.093
  755TIP3    H2 2223   4.768   4.759   1.964
  756TIP3   OH2 2224   6.735   0.529   5.146
  756TIP3    H1 2225   6.779   0.466   5.203
  756TIP3    H2 2226   6.643   0.502   5.148
  757TIP3   OH2 2227   3.426   7.580   5.668
  757TIP3    H1 2228   3.443   7.672   5.690
  757TIP3    H2 2229   3.337   7.581   5.631
  758TIP3   OH2 2230   3.648   5.679   1.660
  758TIP3    H1 2231   3.624   5.763   1.698
  758TIP3    H2 2232   3.635   5.616   1.731
  759TIP3   OH2 2233   2.594   7.258   1.681
  759TIP3    H1 2234   2.587   7.262   1.585
  759TIP3    H2 2235   2.559   7.342   1.710
  760TIP3   OH2 2236   6.295   6.199   3.858
  760TIP3    H1 2237   6.236   6.205   3.933
  760TIP3    H2 2238   6.258   6.128   3.805
  761TIP3   OH2 2239   7.881   0.003   2.158
  761TIP3    H1 2240   7.965   0.011   2.202
  761TIP3    H2 2241   7.849   0.093   2.149
  762TIP3   OH2 2242   1.149   1.112   0.652
  762TIP3    H1 2243   1.210   1.109   0.725
  762TIP3    H2 2244   1.132   1.020   0.631
  763TIP3   OH2 2245   1.318   7.228   5.612
  763TIP3    H1 2246   1.287   7.307   5.657
  763TIP3    H2 2247   1.356   7.174   5.680
  764TIP3   OH2 2248   0.875   3.609   3.016
  764TIP3    H1 2249   0.879   3.522   2.977
  764TIP3    H2 2250   0.789   3.613   3.058
  765TIP3   OH2 2251   3.541   1.770   2.422
  765TIP3    H1 2252   3.576   1.835   2.361
  765TIP3    H2 2253   3.579   1.794   2.507
  766TIP3   OH2 2254   7.004   4.881   0.246
  766TIP3    H1 2255   6.929   4.837   0.284
  766TIP3    H2 2256   7.038   4.937   0.316
  767TIP3   OH2 2257   3.410   3.490   6.647
  767TIP3    H1 2258   3.327   3.492   6.599
  767TIP3    H2 2259   3.388   3.524   6.734
  768TIP3   OH2 2260   1.871   1.557   1.831
  768TIP3    H1 2261   1.874   1.653   1.838
  768TIP3    H2 2262   1.916   1.526   1.909
  769TIP3   OH2 2263   3.037   2.191   5.662
  769TIP3    H1 2264   2.951   2.200   5.705
  769TIP3    H2 2265   3.099   2.186   5.734
  770TIP3   OH2 2266   0.519   5.057   0.840
  770TIP3    H1 2267   0.599   5.065   0.892
  770TIP3    H2 2268   0.507   5.144   0.802
  771TIP3   OH2 2269   3.463   2.287   4.646
  771TIP3    H1 2270   3.392   2.247   4.695
  771TIP3    H2 2271   3.540   2.276   4.702
  772TIP3   OH2 2272   2.137   4.860   2.944
  772TIP3    H1 2273   2.227   4.829   2.955
  772TIP3    H2 2274   2.129   4.932   3.007
  773TIP3   OH2 2275   3.054   2.027   5.046
  773TIP3    H1 2276   3.063   1.953   4.986
  773TIP3    H2 2277   3.109   2.004   5.121
  774TIP3   OH2 2278   7.332   5.312   3.791
  774TIP3    H1 2279   7.294   5.261   3.719
  774TIP3    H2 2280   7.288   5.396   3.787
  775TIP3   OH2 2281   2.980   7.127   2.309
  775TIP3    H1 2282   2.932   7.166   2.236
  775TIP3    H2 2283   2.930   7.151   2.387
  776TIP3   OH2 2284  -0.041   2.445   0.623
  776TIP3    H1 2285   0.015   2.436   0.700
  776TIP3    H2 2286  -0.119   2.491   0.655
  777TIP3   OH2 2287   1.769   0.308   1.340
  777TIP3    H1 2288   1.727   0.379   1.292
  777TIP3    H2 2289   1.701   0.241   1.348
  778TIP3   OH2 2290   7.302   1.675   5.878
  778TIP3    H1 2291   7.393   1.690   5.855
  778TIP3    H2 2292   7.269   1.761   5.904
  779TIP3   OH2 2293   0.914   6.040   6.710
  779TIP3    H1 2294   0.854   6.105   6.748
  779TIP3    H2 2295   0.977   6.022   6.779
  780TIP3   OH2 2296   4.365   7.609   3.921
  780TIP3    H1 2297   4.333   7.689   3.880
  780TIP3    H2 2298   4.458   7.624   3.935
  781TIP3   OH2 2299   0.701   2.204   6.298
  781TIP3    H1 2300   0.615   2.167   6.314
  781TIP3    H2 2301   0.733   2.159   6.220
  782TIP3   OH2 2302   4.600   2.212   2.566
  782TIP3    H1 2303   4.588   2.176   2.479
  782TIP3    H2 2304   4.575   2.304   2.558
  783TIP3   OH2 2305   3.021   4.475   3.166
  783TIP3    H1 2306   2.988   4.449   3.080
  783TIP3    H2 2307   3.020   4.571   3.163
  784TIP3   OH2 2308   6.739   5.092   0.435
  784TIP3    H1 2309   6.658   5.133   0.465
  784TIP3    H2 2310   6.791   5.164   0.401
  785TIP3   OH2 2311   2.440   6.251   3.645
  785TIP3    H1 2312   2.494   6.295   3.579
  785TIP3    H2 2313   2.490   6.172   3.668
  786TIP3   OH2 2314   0.109   5.636   1.092
  786TIP3    H1 2315   0.101   5.542   1.110
  786TIP3    H2 2316   0.035   5.655   1.035
  787TIP3   OH2 2317   7.866   1.938   5.230
  787TIP3    H1 2318   7.891   1.849   5.252
  787TIP3    H2 2319   7.862   1.983   5.315
  788TIP3   OH2 2320   7.384   7.573   2.828
  788TIP3    H1 2321   7.306   7.572   2.772
  788TIP3    H2 2322   7.398   7.666   2.847
  789TIP3   OH2 2323   1.915   7.839   5.208
  789TIP3    H1 2324   2.009   7.847   5.194
  789TIP3    H2 2325   1.899   7.745   5.214
  790TIP3   OH2 2326   1.546   1.800   0.764
  790TIP3    H1 2327   1.542   1.715   0.808
  790TIP3    H2 2328   1.460   1.811   0.723
  791TIP3   OH2 2329   5.593   3.932   4.394
  791TIP3    H1 2330   5.642   3.978   4.325
  791TIP3    H2 2331   5.556   3.856   4.350
  792TIP3   OH2 2332   2.525   0.630   4.796
  792TIP3    H1 2333   2.487   0.544   4.817
  792TIP3    H2 2334   2.455   0.692   4.816
  793TIP3   OH2 2335   7.147   3.192   2.040
  793TIP3    H1 2336   7.175   3.111   1.999
  793TIP3    H2 2337   7.075   3.224   1.985
  794TIP3   OH2 2338   3.481   4.788   0.755
  794TIP3    H1 2339   3.447   4.778   0.666
  794TIP3    H2 2340   3.403   4.808   0.808
  795TIP3   OH2 2341   1.790   7.613   5.711
  795TIP3    H1 2342   1.830   7.568   5.637
  795TIP3    H2 2343   1.840   7.584   5.787
  796TIP3   OH2 2344   5.357   4.918   2.383
  796TIP3    H1 2345   5.398   4.835   2.359
  796TIP3    H2 2346   5.266   4.895   2.403
  797TIP3   OH2 2347   4.774   6.765   5.125
  797TIP3    H1 2348   4.809   6.792   5.210
  797TIP3    H2 2349   4.839   6.703   5.091
  798TIP3   OH2 2350   2.713   6.901   6.037
  798TIP3    H1 2351   2.698   6.996   6.036
  798TIP3    H2 2352   2.715   6.878   6.130
  799TIP3   OH2 2353   4.014   2.559   6.679
  799TIP3    H1 2354   4.068   2.481   6.693
  799TIP3    H2 2355   4.064   2.630   6.721
  800TIP3   OH2 2356   4.550   0.731   2.188
  800TIP3    H1 2357   4.543   0.707   2.281
  800TIP3    H2 2358   4.593   0.656   2.147
  801TIP3   OH2 2359   6.310   3.857   4.243
  801TIP3    H1 2360   6.297   3.790   4.311
  801TIP3    H2 2361   6.359   3.813   4.174
  802TIP3   OH2 2362   6.664   5.808   6.415
  802TIP3    H1 2363   6.583   5.827   6.367
  802TIP3    H2 2364   6.732   5.856   6.367
  803TIP3   OH2 2365   5.589   6.338   1.359
  803TIP3    H1 2366   5.593   6.243   1.355
  803TIP3    H2 2367   5.526   6.363   1.292
  804TIP3   OH2 2368   3.775   4.882   0.684
  804TIP3    H1 2369   3.692   4.884   0.635
  804TIP3    H2 2370   3.758   4.821   0.756
  805TIP3   OH2 2371   3.926   7.523   3.357
  805TIP3    H1 2372   3.834   7.537   3.379
  805TIP3    H2 2373   3.929   7.438   3.315
  806TIP3   OH2 2374   5.079   7.666   6.457
  806TIP3    H1 2375   5.106   7.714   6.379
  806TIP3    H2 2376   5.154   7.611   6.480
  807TIP3   OH2 2377   1.547   2.836   6.525
  807TIP3    H1 2378   1.632   2.834   6.480
  807TIP3    H2 2379   1.483   2.841   6.454
  808TIP3   OH2 2380   6.890   2.359   4.831
  808TIP3    H1 2381   6.964   2.325   4.780
  808TIP3    H2 2382   6.827   2.287   4.833
  809TIP3   OH2 2383   3.402   0.558   5.704
  809TIP3    H1 2384   3.324   0.507   5.727
  809TIP3    H2 2385   3.372   0.618   5.636
  810TIP3   OH2 2386   7.329   6.075   2.228
  810TIP3    H1 2387   7.259   6.021   2.191
  810TIP3    H2 2388   7.303   6.089   2.319
  811TIP3   OH2 2389   3.135   7.475   2.476
  811TIP3    H1 2390   3.191   7.506   2.405
  811TIP3    H2 2391   3.071   7.418   2.432
  812TIP3   OH2 2392   0.612   0.170   3.901
  812TIP3    H1 2393   0.694   0.123   3.894
  812TIP3    H2 2394   0.585   0.186   3.811
  813TIP3   OH2 2395   8.180   0.219   0.828
  813TIP3    H1 2396   8.176   0.257   0.916
  813TIP3    H2 2397   8.273   0.218   0.807
  814TIP3   OH2 2398   7.936   5.123   0.131
  814TIP3    H1 2399   8.026   5.090   0.141
  814TIP3    H2 2400   7.934   5.202   0.184
  815TIP3   OH2 2401   6.221   2.129   6.370
  815TIP3    H1 2402   6.195   2.046   6.331
  815TIP3    H2 2403   6.313   2.118   6.391
  816TIP3   OH2 2404   7.319   0.531   5.141
  816TIP3    H1 2405   7.333   0.452   5.194
  816TIP3    H2 2406   7.363   0.601   5.189
  817TIP3   OH2 2407   3.836   6.308   5.622
  817TIP3    H1 2408   3.775   6.381   5.610
  817TIP3    H2 2409   3.808   6.266   5.703
  818TIP3   OH2 2410   6.857   4.629   2.776
  818TIP3    H1 2411   6.799   4.569   2.729
  818TIP3    H2 2412   6.806   4.709   2.786
  819TIP3   OH2 2413   2.676   4.791   5.530
  819TIP3    H1 2414   2.746   4.770   5.468
  819TIP3    H2 2415   2.631   4.708   5.545
  820TIP3   OH2 2416   5.485   5.228   0.936
  820TIP3    H1 2417   5.446   5.250   0.851
  820TIP3    H2 2418   5.537   5.304   0.959
  821TIP3   OH2 2419   5.142   4.296   4.911
  821TIP3    H1 2420   5.101   4.379   4.886
  821TIP3    H2 2421   5.235   4.318   4.922
  822TIP3   OH2 2422   1.025   1.661   6.688
  822TIP3    H1 2423   0.959   1.602   6.724
  822TIP3    H2 2424   0.988   1.749   6.701
  823TIP3   OH2 2425   0.067   1.840   2.122
  823TIP3    H1 2426   0.041   1.930   2.103
  823TIP3    H2 2427  -0.016   1.792   2.125
  824TIP3   OH2 2428   3.757   3.766   6.582
  824TIP3    H1 2429   3.732   3.675   6.596
  824TIP3    H2 2430   3.844   3.762   6.542
  825TIP3   OH2 2431   1.799   4.533   1.970
  825TIP3    H1 2432   1.819   4.475   2.044
  825TIP3    H2 2433   1.836   4.618   1.995
  826TIP3   OH2 2434   1.379   6.369   4.569
  826TIP3    H1 2435   1.337   6.284   4.559
  826TIP3    H2 2436   1.320   6.430   4.524
  827TIP3   OH2 2437   7.645   6.638   2.181
  827TIP3    H1 2438   7.583   6.674   2.245
  827TIP3    H2 2439   7.678   6.714   2.134
  828TIP3   OH2 2440   3.418   5.027   6.151
  828TIP3    H1 2441   3.358   4.966   6.193
  828TIP3    H2 2442   3.362   5.091   6.109
  829TIP3   OH2 2443   5.987   5.334   2.210
  829TIP3    H1 2444   6.074   5.346   2.248
  829TIP3    H2 2445   5.993   5.250   2.163
  830TIP3   OH2 2446   7.242   0.850   4.873
  830TIP3    H1 2447   7.158   0.892   4.888
  830TIP3    H2 2448   7.231   0.761   4.907
  831TIP3   OH2 2449   6.745   6.030   2.241
  831TIP3    H1 2450   6.797   6.108   2.223
  831TIP3    H2 2451   6.809   5.966   2.272
  832TIP3   OH2 2452   1.565   1.036   2.410
  832TIP3    H1 2453   1.492   0.991   2.452
  832TIP3    H2 2454   1.525   1.103   2.355
  833TIP3   OH2 2455   2.935   5.699   3.877
  833TIP3    H1 2456   2.982   5.617   3.863
  833TIP3    H2 2457   2.994   5.751   3.932
  834TIP3   OH2 2458   3.902   6.791   6.430
  834TIP3    H1 2459   3.942   6.728   6.371
  834TIP3    H2 2460   3.861   6.856   6.372
  835TIP3   OH2 2461   2.497   5.817   1.599
  835TIP3    H1 2462   2.445   5.839   1.522
  835TIP3    H2 2463   2.460   5.870   1.669
  836TIP3   OH2 2464   4.409   5.190   2.645
  836TIP3    H1 2465   4.481   5.201   2.707
  836TIP3    H2 2466   4.451   5.152   2.568
  837TIP3   OH2 2467   4.512   2.864   1.210
  837TIP3    H1 2468   4.572   2.913   1.266
  837TIP3    H2 2469   4.441   2.924   1.192
  838TIP3   OH2 2470   7.604   6.848   4.070
  838TIP3    H1 2471   7.609   6.809   3.983
  838TIP3    H2 2472   7.688   6.827   4.110
  839TIP3   OH2 2473   5.883   1.454   6.262
  839TIP3    H1 2474   5.953   1.394   6.236
  839TIP3    H2 2475   5.839   1.411   6.335
  840TIP3   OH2 2476   4.613   1.566   3.132
  840TIP3    H1 2477   4.530   1.613   3.145
  840TIP3    H2 2478   4.680   1.633   3.144
  841TIP3   OH2 2479   5.212   4.622   2.462
  841TIP3    H1 2480   5.298   4.638   2.501
  841TIP3    H2 2481   5.173   4.709   2.455
  842TIP3   OH2 2482   4.160   3.204   2.390
  842TIP3    H1 2483   4.149   3.223   2.296
  842TIP3    H2 2484   4.145   3.110   2.397
  843TIP3   OH2 2485   4.601   4.458   5.330
  843TIP3    H1 2486   4.534   4.435   5.265
  843TIP3    H2 2487   4.603   4.554   5.329
  844TIP3   OH2 2488   5.804   6.649   5.356
  844TIP3    H1 2489   5.870   6.656   5.287
  844TIP3    H2 2490   5.823   6.565   5.398
  845TIP3   OH2 2491   2.362   6.127   6.720
  845TIP3    H1 2492   2.331   6.147   6.632
  845TIP3    H2 2493   2.417   6.050   6.709
  846TIP3   OH2 2494   0.937   2.177   4.913
  846TIP3    H1 2495   1.016   2.159   4.963
  846TIP3    H2 2496   0.873   2.204   4.979
  847TIP3   OH2 2497   1.125   6.624   3.392
  847TIP3    H1 2498   1.143   6.567   3.466
  847TIP3    H2 2499   1.111   6.565   3.318
  848TIP3   OH2 2500   4.293   0.113   6.244
  848TIP3    H1 2501   4.367   0.168   6.268
  848TIP3    H2 2502   4.333   0.034   6.208
  849TIP3   OH2 2503   5.324   6.465   3.496
  849TIP3    H1 2504   5.360   6.377   3.485
  849TIP3    H2 2505   5.330   6.505   3.410
  850TIP3   OH2 2506   1.191   3.304   1.596
  850TIP3    H1 2507   1.119   3.341   1.648
  850TIP3    H2 2508   1.262   3.366   1.606
  851TIP3   OH2 2509   5.657   2.686   5.467
  851TIP3    H1 2510   5.705   2.767   5.480
  851TIP3    H2 2511   5.665   2.639   5.550
  852TIP3   OH2 2512   5.949   0.655   1.374
  852TIP3    H1 2513   6.035   0.614   1.388
  852TIP3    H2 2514   5.888   0.582   1.366
  853TIP3   OH2 2515   7.222   5.120   3.614
  853TIP3    H1 2516   7.307   5.078   3.624
  853TIP3    H2 2517   7.170   5.059   3.561
  854TIP3   OH2 2518   2.605   0.842   4.133
  854TIP3    H1 2519   2.623   0.858   4.226
  854TIP3    H2 2520   2.568   0.924   4.102
  855TIP3   OH2 2521   1.143   5.074   4.228
  855TIP3    H1 2522   1.214   5.055   4.289
  855TIP3    H2 2523   1.166   5.159   4.191
  856TIP3   OH2 2524   4.194   6.958   1.670
  856TIP3    H1 2525   4.280   6.940   1.631
  856TIP3    H2 2526   4.140   6.989   1.597
  857TIP3   OH2 2527   7.275   1.288   6.139
  857TIP3    H1 2528   7.323   1.354   6.088
  857TIP3    H2 2529   7.205   1.337   6.181
  858TIP3   OH2 2530   6.602   2.373   3.062
  858TIP3    H1 2531   6.630   2.322   2.986
  858TIP3    H2 2532   6.638   2.460   3.046
  859TIP3   OH2 2533   4.931   6.733   5.968
  859TIP3    H1 2534   4.973   6.715   5.884
  859TIP3    H2 2535   4.987   6.689   6.032
  860TIP3   OH2 2536   4.178   3.760   2.083
  860TIP3    H1 2537   4.107   3.814   2.117
  860TIP3    H2 2538   4.142   3.671   2.082
  861TIP3   OH2 2539   1.051   5.181   6.130
  861TIP3    H1 2540   1.058   5.110   6.067
  861TIP3    H2 2541   1.050   5.260   6.076
  862TIP3   OH2 2542   0.751   0.461   4.828
  862TIP3    H1 2543   0.667   0.477   4.870
  862TIP3    H2 2544   0.798   0.544   4.836
  863TIP3   OH2 2545   0.495   1.605   4.821
  863TIP3    H1 2546   0.522   1.693   4.845
  863TIP3    H2 2547   0.406   1.615   4.786
  864TIP3   OH2 2548   7.464   2.200   5.188
  864TIP3    H1 2549   7.554   2.188   5.159
  864TIP3    H2 2550   7.422   2.247   5.116
  865TIP3   OH2 2551   7.161   0.499   2.864
  865TIP3    H1 2552   7.204   0.571   2.818
  865TIP3    H2 2553   7.183   0.514   2.956
  866TIP3   OH2 2554   2.514   4.893   4.054
  866TIP3    H1 2555   2.552   4.952   4.119
  866TIP3    H2 2556   2.568   4.814   4.058
  867TIP3   OH2 2557   4.805   5.926   3.730
  867TIP3    H1 2558   4.799   5.932   3.825
  867TIP3    H2 2559   4.756   6.001   3.697
  868TIP3   OH2 2560   5.128   2.964   2.322
  868TIP3    H1 2561   5.164   2.877   2.306
  868TIP3    H2 2562   5.150   3.014   2.244
  869TIP3   OH2 2563   2.203   6.286   2.843
  869TIP3    H1 2564   2.111   6.279   2.870
  869TIP3    H2 2565   2.216   6.213   2.783
  870TIP3   OH2 2566   6.429   5.472   5.630
  870TIP3    H1 2567   6.344   5.515   5.630
  870TIP3    H2 2568   6.488   5.534   5.673
  871TIP3   OH2 2569   4.707   3.561   5.245
  871TIP3    H1 2570   4.657   3.545   5.325
  871TIP3    H2 2571   4.763   3.484   5.236
  872TIP3   OH2 2572   3.184   0.963   5.154
  872TIP3    H1 2573   3.222   0.876   5.148
  872TIP3    H2 2574   3.091   0.948   5.174
  873TIP3   OH2 2575   1.356   6.370   5.927
  873TIP3    H1 2576   1.423   6.373   5.860
  873TIP3    H2 2577   1.397   6.327   6.001
  874TIP3   OH2 2578   2.478   3.542   6.174
  874TIP3    H1 2579   2.427   3.465   6.198
  874TIP3    H2 2580   2.568   3.520   6.197
  875TIP3   OH2 2581   4.102   3.446   3.283
  875TIP3    H1 2582   4.152   3.497   3.348
  875TIP3    H2 2583   4.160   3.373   3.260
  876TIP3   OH2 2584   4.682   1.402   1.633
  876TIP3    H1 2585   4.710   1.376   1.545
  876TIP3    H2 2586   4.717   1.334   1.690
  877TIP3   OH2 2587   5.774   1.036   0.463
  877TIP3    H1 2588   5.826   0.957   0.451
  877TIP3    H2 2589   5.788   1.086   0.382
  878TIP3   OH2 2590   5.710   0.822   3.449
  878TIP3    H1 2591   5.721   0.800   3.356
  878TIP3    H2 2592   5.644   0.760   3.480
  879TIP3   OH2 2593   5.355   5.510   5.692
  879TIP3    H1 2594   5.305   5.429   5.690
  879TIP3    H2 2595   5.405   5.506   5.773
  880TIP3   OH2 2596   4.634   3.045   3.236
  880TIP3    H1 2597   4.587   2.981   3.290
  880TIP3    H2 2598   4.590   3.041   3.151
  881TIP3   OH2 2599   5.297   2.463   2.535
  881TIP3    H1 2600   5.268   2.434   2.621
  881TIP3    H2 2601   5.381   2.420   2.521
  882TIP3   OH2 2602   3.423   0.184   5.187
  882TIP3    H1 2603   3.507   0.141   5.204
  882TIP3    H2 2604   3.446   0.266   5.142
  883TIP3   OH2 2605   6.457   2.426   4.815
  883TIP3    H1 2606   6.518   2.438   4.889
  883TIP3    H2 2607   6.438   2.333   4.815
  884TIP3   OH2 2608   6.676   3.423   0.351
  884TIP3    H1 2609   6.660   3.512   0.319
  884TIP3    H2 2610   6.600   3.404   0.406
  885TIP3   OH2 2611   6.345   4.895   4.061
  885TIP3    H1 2612   6.411   4.827   4.045
  885TIP3    H2 2613   6.374   4.938   4.141
  886TIP3   OH2 2614   6.528   5.650   4.114
  886TIP3    H1 2615   6.574   5.585   4.061
  886TIP3    H2 2616   6.459   5.683   4.057
  887TIP3   OH2 2617   1.480   0.540   3.581
  887TIP3    H1 2618   1.564   0.541   3.629
  887TIP3    H2 2619   1.503   0.507   3.494
  888TIP3   OH2 2620   0.649   4.886   2.186
  888TIP3    H1 2621   0.654   4.814   2.249
  888TIP3    H2 2622   0.639   4.843   2.101
  889TIP3   OH2 2623   7.607   2.882   4.188
  889TIP3    H1 2624   7.626   2.965   4.232
  889TIP3    H2 2625   7.517   2.892   4.158
  890TIP3   OH2 2626   6.222   5.668   4.432
  890TIP3    H1 2627   6.256   5.597   4.487
  890TIP3    H2 2628   6.198   5.626   4.350
  891TIP3   OH2 2629   2.233   4.464   3.840
  891TIP3    H1 2630   2.305   4.485   3.781
  891TIP3    H2 2631   2.220   4.544   3.892
  892TIP3   OH2 2632   6.148   0.170   1.987
  892TIP3    H1 2633   6.124   0.123   2.067
  892TIP3    H2 2634   6.066   0.207   1.955
  893TIP3   OH2 2635   6.908   5.326   2.297
  893TIP3    H1 2636   6.927   5.259   2.231
  893TIP3    H2 2637   6.887   5.276   2.376
  894TIP3   OH2 2638   6.940   5.921   4.620
  894TIP3    H1 2639   7.003   5.849   4.621
  894TIP3    H2 2640   6.961   5.970   4.541
  895TIP3   OH2 2641   4.878   2.958   6.114
  895TIP3    H1 2642   4.825   2.925   6.041
  895TIP3    H2 2643   4.827   3.032   6.148
  896TIP3   OH2 2644   4.949   0.189   6.155
  896TIP3    H1 2645   4.927   0.163   6.244
  896TIP3    H2 2646   4.986   0.277   6.164
  897TIP3   OH2 2647   4.821   2.311   3.600
  897TIP3    H1 2648   4.783   2.257   3.531
  897TIP3    H2 2649   4.818   2.257   3.679
  898TIP3   OH2 2650   5.796   7.070   2.624
  898TIP3    H1 2651   5.814   7.114   2.707
  898TIP3    H2 2652   5.805   7.139   2.558
  899TIP3   OH2 2653   1.807   3.920   6.593
  899TIP3    H1 2654   1.755   3.840   6.588
  899TIP3    H2 2655   1.758   3.983   6.541
  900TIP3   OH2 2656   0.402   3.438   3.266
  900TIP3    H1 2657   0.425   3.509   3.206
  900TIP3    H2 2658   0.458   3.451   3.342
  901TIP3   OH2 2659   1.237   0.143   2.006
  901TIP3    H1 2660   1.145   0.164   2.022
  901TIP3    H2 2661   1.285   0.203   2.063
  902TIP3   OH2 2662   1.400   3.097   6.146
  902TIP3    H1 2663   1.315   3.141   6.140
  902TIP3    H2 2664   1.409   3.049   6.063
  903TIP3   OH2 2665   4.519   4.455   1.635
  903TIP3    H1 2666   4.436   4.501   1.618
  903TIP3    H2 2667   4.572   4.473   1.558
  904TIP3   OH2 2668   1.567   2.170   4.886
  904TIP3    H1 2669   1.625   2.116   4.939
  904TIP3    H2 2670   1.625   2.210   4.820
  905TIP3   OH2 2671   2.564   3.054   5.287
  905TIP3    H1 2672   2.660   3.048   5.283
  905TIP3    H2 2673   2.538   3.083   5.199
  906TIP3   OH2 2674   1.614   6.772   5.104
  906TIP3    H1 2675   1.696   6.818   5.085
  906TIP3    H2 2676   1.616   6.695   5.047
  907TIP3   OH2 2677   6.227   5.594   3.077
  907TIP3    H1 2678   6.306   5.540   3.075
  907TIP3    H2 2679   6.206   5.604   3.170
  908TIP3   OH2 2680   2.631   3.943   0.357
  908TIP3    H1 2681   2.550   3.891   0.357
  908TIP3    H2 2682   2.695   3.889   0.401
  909TIP3   OH2 2683   6.408   4.738   5.036
  909TIP3    H1 2684   6.449   4.659   5.001
  909TIP3    H2 2685   6.478   4.803   5.035
  910TIP3   OH2 2686   3.777   6.585   5.253
  910TIP3    H1 2687   3.855   6.591   5.197
  910TIP3    H2 2688   3.747   6.675   5.261
  911TIP3   OH2 2689   2.410   5.577   4.906
  911TIP3    H1 2690   2.436   5.569   4.815
  911TIP3    H2 2691   2.315   5.590   4.903
  912TIP3   OH2 2692   0.605   0.597   3.340
  912TIP3    H1 2693   0.573   0.539   3.271
  912TIP3    H2 2694   0.527   0.639   3.374
  913TIP3   OH2 2695   6.062   0.730   4.777
  913TIP3    H1 2696   6.024   0.676   4.708
  913TIP3    H2 2697   6.157   0.724   4.762
  914TIP3   OH2 2698   3.969   7.557   1.157
  914TIP3    H1 2699   3.893   7.614   1.141
  914TIP3    H2 2700   4.043   7.605   1.119
  915TIP3   OH2 2701   5.471   6.322   5.416
  915TIP3    H1 2702   5.544   6.328   5.354
  915TIP3    H2 2703   5.495   6.381   5.487
  916TIP3   OH2 2704   2.891   3.663   4.133
  916TIP3    H1 2705   2.877   3.715   4.054
  916TIP3    H2 2706   2.903   3.573   4.101
  917TIP3   OH2 2707   6.373   3.341   0.488
  917TIP3    H1 2708   6.336   3.320   0.402
  917TIP3    H2 2709   6.315   3.410   0.522
  918TIP3   OH2 2710   7.960   0.057   4.736
  918TIP3    H1 2711   7.936   0.090   4.823
  918TIP3    H2 2712   7.922   0.120   4.675
  919TIP3   OH2 2713   4.108   2.501   0.291
  919TIP3    H1 2714   4.149   2.563   0.351
  919TIP3    H2 2715   4.139   2.527   0.204
  920TIP3   OH2 2716   4.719   2.380   4.473
  920TIP3    H1 2717   4.704   2.467   4.435
  920TIP3    H2 2718   4.763   2.331   4.403
  921TIP3   OH2 2719   5.841   6.072   1.171
  921TIP3    H1 2720   5.925   6.050   1.210
  921TIP3    H2 2721   5.777   6.060   1.241
  922TIP3   OH2 2722   0.537   5.274   4.338
  922TIP3    H1 2723   0.515   5.333   4.266
  922TIP3    H2 2724   0.531   5.328   4.416
  923TIP3   OH2 2725   5.888   3.497   4.558
  923TIP3    H1 2726   5.879   3.539   4.472
  923TIP3    H2 2727   5.880   3.404   4.539
  924TIP3   OH2 2728   1.971   3.685   1.708
  924TIP3    H1 2729   2.048   3.739   1.726
  924TIP3    H2 2730   1.991   3.601   1.749
  925TIP3   OH2 2731   4.294   5.412   1.762
  925TIP3    H1 2732   4.330   5.368   1.839
  925TIP3    H2 2733   4.371   5.447   1.716
  926TIP3   OH2 2734   8.310   1.159   4.546
  926TIP3    H1 2735   8.353   1.123   4.469
  926TIP3    H2 2736   8.217   1.158   4.524
  927TIP3   OH2 2737   4.790   7.718   5.009
  927TIP3    H1 2738   4.741   7.637   5.022
  927TIP3    H2 2739   4.879   7.690   4.990
  928TIP3   OH2 2740   5.618   2.093   6.706
  928TIP3    H1 2741   5.602   2.175   6.660
  928TIP3    H2 2742   5.531   2.061   6.731
  929TIP3   OH2 2743   4.677   5.143   3.421
  929TIP3    H1 2744   4.697   5.222   3.371
  929TIP3    H2 2745   4.605   5.168   3.479
  930TIP3   OH2 2746   5.769   2.071   1.186
  930TIP3    H1 2747   5.678   2.088   1.161
  930TIP3    H2 2748   5.769   1.981   1.217
  931TIP3   OH2 2749   6.659   7.195   3.797
  931TIP3    H1 2750   6.727   7.142   3.841
  931TIP3    H2 2751   6.582   7.139   3.796
  932TIP3   OH2 2752   2.972   2.288   4.115
  932TIP3    H1 2753   2.885   2.258   4.141
  932TIP3    H2 2754   3.021   2.294   4.198
  933TIP3   OH2 2755   2.519   1.302   5.698
  933TIP3    H1 2756   2.473   1.240   5.642
  933TIP3    H2 2757   2.480   1.292   5.784
  934TIP3   OH2 2758   4.033   6.196   6.706
  934TIP3    H1 2759   4.031   6.285   6.740
  934TIP3    H2 2760   4.094   6.150   6.764
  935TIP3   OH2 2761   3.073   2.495   0.371
  935TIP3    H1 2762   3.003   2.514   0.309
  935TIP3    H2 2763   3.077   2.573   0.427
  936TIP3   OH2 2764   2.764   1.671   4.918
  936TIP3    H1 2765   2.831   1.685   4.986
  936TIP3    H2 2766   2.810   1.623   4.849
  937TIP3   OH2 2767   0.191   6.407   5.746
  937TIP3    H1 2768   0.229   6.391   5.659
  937TIP3    H2 2769   0.234   6.488   5.776
  938TIP3   OH2 2770   5.215   5.712   5.864
  938TIP3    H1 2771   5.215   5.657   5.786
  938TIP3    H2 2772   5.277   5.782   5.844
  939TIP3   OH2 2773   5.957   6.127   5.082
  939TIP3    H1 2774   5.991   6.216   5.088
  939TIP3    H2 2775   6.017   6.082   5.022
  940TIP3   OH2 2776   4.343   3.162   3.436
  940TIP3    H1 2777   4.300   3.085   3.475
  940TIP3    H2 2778   4.437   3.144   3.446
  941TIP3   OH2 2779   3.438   3.231   6.739
  941TIP3    H1 2780   3.531   3.208   6.740
  941TIP3    H2 2781   3.426   3.282   6.659
  942TIP3   OH2 2782   3.834   5.200   1.924
  942TIP3    H1 2783   3.747   5.231   1.900
  942TIP3    H2 2784   3.821   5.108   1.946
  943TIP3   OH2 2785   4.932   6.520   0.240
  943TIP3    H1 2786   5.019   6.493   0.211
  943TIP3    H2 2787   4.878   6.514   0.161
  944TIP3   OH2 2788   7.184   0.653   0.805
  944TIP3    H1 2789   7.167   0.589   0.735
  944TIP3    H2 2790   7.119   0.632   0.872
  945TIP3   OH2 2791   0.031   3.461   5.037
  945TIP3    H1 2792   0.099   3.415   5.085
  945TIP3    H2 2793   0.064   3.551   5.028
  946TIP3   OH2 2794   6.508   0.408   5.090
  946TIP3    H1 2795   6.457   0.356   5.153
  946TIP3    H2 2796   6.531   0.345   5.022
  947TIP3   OH2 2797   2.411   4.041   1.025
  947TIP3    H1 2798   2.344   3.982   1.060
  947TIP3    H2 2799   2.374   4.129   1.039
  948TIP3   OH2 2800   6.731   7.794   6.654
  948TIP3    H1 2801   6.724   7.889   6.646
  948TIP3    H2 2802   6.643   7.762   6.633
  949TIP3   OH2 2803   7.431   0.715   1.543
  949TIP3    H1 2804   7.360   0.773   1.514
  949TIP3    H2 2805   7.509   0.748   1.497
  950TIP3   OH2 2806   6.802   3.506   5.640
  950TIP3    H1 2807   6.773   3.417   5.622
  950TIP3    H2 2808   6.789   3.553   5.558
  951TIP3   OH2 2809   0.433   6.837   0.294
  951TIP3    H1 2810   0.368   6.792   0.347
  951TIP3    H2 2811   0.461   6.772   0.230
  952TIP3   OH2 2812   1.646   0.833   5.826
  952TIP3    H1 2813   1.558   0.798   5.816
  952TIP3    H2 2814   1.703   0.756   5.821
  953TIP3   OH2 2815   3.595   7.216   5.307
  953TIP3    H1 2816   3.595   7.211   5.402
  953TIP3    H2 2817   3.531   7.150   5.279
  954TIP3   OH2 2818   1.257   3.402   6.427
  954TIP3    H1 2819   1.291   3.383   6.515
  954TIP3    H2 2820   1.162   3.405   6.438
  955TIP3   OH2 2821   5.738   3.208   4.185
  955TIP3    H1 2822   5.811   3.149   4.203
  955TIP3    H2 2823   5.668   3.152   4.153
  956TIP3   OH2 2824   6.213   3.974   6.609
  956TIP3    H1 2825   6.260   3.939   6.684
  956TIP3    H2 2826   6.142   4.026   6.648
  957TIP3   OH2 2827   6.250   4.116   4.849
  957TIP3    H1 2828   6.284   4.197   4.812
  957TIP3    H2 2829   6.290   4.047   4.796
  958TIP3   OH2 2830   5.545   4.914   5.068
  958TIP3    H1 2831   5.597   4.926   5.148
  958TIP3    H2 2832   5.608   4.927   4.997
  959TIP3   OH2 2833   3.182   3.300   4.282
  959TIP3    H1 2834   3.125   3.237   4.326
  959TIP3    H2 2835   3.251   3.319   4.346
  960TIP3   OH2 2836   3.185   4.714   0.634
  960TIP3    H1 2837   3.126   4.750   0.568
  960TIP3    H2 2838   3.207   4.788   0.690
  961TIP3   OH2 2839   0.811   7.443   5.310
  961TIP3    H1 2840   0.802   7.380   5.381
  961TIP3    H2 2841   0.805   7.528   5.354
  962TIP3   OH2 2842   0.766   0.677   6.684
  962TIP3    H1 2843   0.721   0.747   6.733
  962TIP3    H2 2844   0.859   0.697   6.694
  963TIP3   OH2 2845   4.300   7.023   3.908
  963TIP3    H1 2846   4.366   6.989   3.969
  963TIP3    H2 2847   4.257   7.094   3.955
  964TIP3   OH2 2848   7.516   4.681   2.445
  964TIP3    H1 2849   7.546   4.725   2.524
  964TIP3    H2 2850   7.427   4.712   2.432
  965TIP3   OH2 2851   7.480   2.963   3.473
  965TIP3    H1 2852   7.453   2.935   3.560
  965TIP3    H2 2853   7.443   2.897   3.414
  966TIP3   OH2 2854   5.309   2.851   2.787
  966TIP3    H1 2855   5.310   2.840   2.692
  966TIP3    H2 2856   5.318   2.762   2.821
  967TIP3   OH2 2857   7.731   3.928   4.089
  967TIP3    H1 2858   7.711   3.841   4.055
  967TIP3    H2 2859   7.766   3.913   4.177
  968TIP3   OH2 2860   2.236   5.539   0.118
  968TIP3    H1 2861   2.246   5.531   0.023
  968TIP3    H2 2862   2.142   5.534   0.133
  969TIP3   OH2 2863   3.659   5.292   5.349
  969TIP3    H1 2864   3.588   5.235   5.378
  969TIP3    H2 2865   3.632   5.380   5.378
  970TIP3   OH2 2866   4.079   5.384   6.005
  970TIP3    H1 2867   4.064   5.353   5.916
  970TIP3    H2 2868   4.006   5.349   6.056
  971TIP3   OH2 2869   1.693   0.339   3.430
  971TIP3    H1 2870   1.601   0.320   3.413
  971TIP3    H2 2871   1.735   0.253   3.432
  972TIP3   OH2 2872   6.679   3.561   6.584
  972TIP3    H1 2873   6.621   3.571   6.509
  972TIP3    H2 2874   6.757   3.612   6.561
  973TIP3   OH2 2875   0.591   2.892   3.874
  973TIP3    H1 2876   0.549   2.933   3.950
  973TIP3    H2 2877   0.542   2.811   3.860
  974TIP3   OH2 2878   6.000   5.159   1.292
  974TIP3    H1 2879   5.963   5.247   1.300
  974TIP3    H2 2880   6.012   5.146   1.198
  975TIP3   OH2 2881   7.852   4.429   5.427
  975TIP3    H1 2882   7.943   4.427   5.457
  975TIP3    H2 2883   7.803   4.463   5.502
  976TIP3   OH2 2884   2.209   3.103   2.318
  976TIP3    H1 2885   2.127   3.084   2.274
  976TIP3    H2 2886   2.203   3.196   2.341
  977TIP3   OH2 2887   5.051   3.966   4.125
  977TIP3    H1 2888   5.006   3.899   4.073
  977TIP3    H2 2889   5.123   3.995   4.069
  978TIP3   OH2 2890   5.318   0.586   5.449
  978TIP3    H1 2891   5.326   0.547   5.536
  978TIP3    H2 2892   5.253   0.656   5.459
  979TIP3   OH2 2893   0.276   6.249   3.454
  979TIP3    H1 2894   0.327   6.320   3.492
  979TIP3    H2 2895   0.232   6.208   3.529
  980TIP3   OH2 2896   4.562   6.922   1.382
  980TIP3    H1 2897   4.485   6.969   1.415
  980TIP3    H2 2898   4.605   6.984   1.324
  981TIP3   OH2 2899   3.977   0.449   3.463
  981TIP3    H1 2900   3.930   0.448   3.546
  981TIP3    H2 2901   4.063   0.485   3.485
  982TIP3   OH2 2902   0.665   6.355   0.245
  982TIP3    H1 2903   0.610   6.409   0.302
  982TIP3    H2 2904   0.617   6.273   0.237
  983TIP3   OH2 2905   5.281   5.982   4.835
  983TIP3    H1 2906   5.226   6.012   4.763
  983TIP3    H2 2907   5.285   5.887   4.824
  984TIP3   OH2 2908   3.522   4.239   5.787
  984TIP3    H1 2909   3.560   4.205   5.868
  984TIP3    H2 2910   3.524   4.165   5.726
  985TIP3   OH2 2911   4.040   2.035   4.162
  985TIP3    H1 2912   3.977   2.104   4.146
  985TIP3    H2 2913   4.045   2.028   4.257
  986TIP3   OH2 2914   5.340   7.574   3.616
  986TIP3    H1 2915   5.319   7.537   3.701
  986TIP3    H2 2916   5.275   7.643   3.603
  987TIP3   OH2 2917   6.581   3.069   6.431
  987TIP3    H1 2918   6.621   3.073   6.345
  987TIP3    H2 2919   6.654   3.083   6.492
  988TIP3   OH2 2920   6.995   1.825   2.711
  988TIP3    H1 2921   6.995   1.754   2.776
  988TIP3    H2 2922   6.955   1.786   2.633
  989TIP3   OH2 2923   1.216   5.860   2.760
  989TIP3    H1 2924   1.276   5.826   2.826
  989TIP3    H2 2925   1.215   5.793   2.692
  990TIP3   OH2 2926   7.800   5.377   4.299
  990TIP3    H1 2927   7.799   5.468   4.329
  990TIP3    H2 2928   7.769   5.381   4.208
  991TIP3   OH2 2929   2.508   3.359   6.465
  991TIP3    H1 2930   2.578   3.361   6.399
  991TIP3    H2 2931   2.525   3.279   6.515
  992TIP3   OH2 2932   1.607   3.893   5.358
  992TIP3    H1 2933   1.703   3.893   5.359
  992TIP3    H2 2934   1.583   3.962   5.297
  993TIP3   OH2 2935   1.881   1.293   4.516
  993TIP3    H1 2936   1.841   1.316   4.432
  993TIP3    H2 2937   1.973   1.319   4.506
  994TIP3   OH2 2938   3.746   5.743   5.809
  994TIP3    H1 2939   3.812   5.681   5.777
  994TIP3    H2 2940   3.671   5.688   5.831
  995TIP3   OH2 2941   4.179   6.816   1.066
  995TIP3    H1 2942   4.220   6.804   1.151
  995TIP3    H2 2943   4.138   6.731   1.047
  996TIP3   OH2 2944   2.720   5.702   5.489
  996TIP3    H1 2945   2.758   5.789   5.499
  996TIP3    H2 2946   2.787   5.642   5.522
  997TIP3   OH2 2947   2.672   1.261   3.111
  997TIP3    H1 2948   2.660   1.334   3.050
  997TIP3    H2 2949   2.708   1.190   3.057
  998TIP3   OH2 2950   7.289   4.768   3.101
  998TIP3    H1 2951   7.254   4.791   3.015
  998TIP3    H2 2952   7.245   4.829   3.161
  999TIP3   OH2 2953   1.100   6.452   6.533
  999TIP3    H1 2954   1.187   6.440   6.571
  999TIP3    H2 2955   1.115   6.449   6.439
 1000TIP3   OH2 2956   1.942   4.823   0.714
 1000TIP3    H1 2957   1.896   4.844   0.632
 1000TIP3    H2 2958   1.918   4.895   0.773
 1001TIP3   OH2 2959   6.543   6.130   1.634
 1001TIP3    H1 2960   6.610   6.187   1.672
 1001TIP3    H2 2961   6.579   6.042   1.641
 1002TIP3   OH2 2962   5.216   4.817   1.974
 1002TIP3    H1 2963   5.161   4.864   1.911
 1002TIP3    H2 2964   5.305   4.829   1.942
 1003TIP3   OH2 2965   1.698   1.594   6.101
 1003TIP3    H1 2966   1.751   1.563   6.174
 1003TIP3    H2 2967   1.617   1.625   6.142
 1004TIP3   OH2 2968   5.572   0.871   0.971
 1004TIP3    H1 2969   5.659   0.908   0.958
 1004TIP3    H2 2970   5.579   0.820   1.051
 1005TIP3   OH2 2971   5.828   0.649   3.641
 1005TIP3    H1 2972   5.747   0.650   3.692
 1005TIP3    H2 2973   5.807   0.696   3.561
 1006TIP3   OH2 2974   4.044   5.187   6.496
 1006TIP3    H1 2975   4.046   5.147   6.583
 1006TIP3    H2 2976   4.137   5.198   6.473
 1007TIP3   OH2 2977   8.224   6.299   5.438
 1007TIP3    H1 2978   8.271   6.217   5.444
 1007TIP3    H2 2979   8.174   6.305   5.519
 1008TIP3   OH2 2980   2.939   3.855   3.670
 1008TIP3    H1 2981   2.898   3.908   3.738
 1008TIP3    H2 2982   3.033   3.862   3.686
 1009TIP3   OH2 2983   0.531   2.082   2.251
 1009TIP3    H1 2984   0.523   1.993   2.215
 1009TIP3    H2 2985   0.509   2.071   2.344
 1010TIP3   OH2 2986   0.556   1.581   2.757
 1010TIP3    H1 2987   0.524   1.509   2.703
 1010TIP3    H2 2988   0.500   1.580   2.835
 1011TIP3   OH2 2989   1.084   7.660   3.258
 1011TIP3    H1 2990   1.030   7.730   3.295
 1011TIP3    H2 2991   1.026   7.584   3.256
 1012TIP3   OH2 2992   6.208   0.359   3.594
 1012TIP3    H1 2993   6.170   0.290   3.647
 1012TIP3    H2 2994   6.154   0.436   3.613
 1013TIP3   OH2 2995   1.923   0.181   3.831
 1013TIP3    H1 2996   1.912   0.276   3.838
 1013TIP3    H2 2997   1.992   0.170   3.765
 1014TIP3   OH2 2998   6.027   0.873   3.392
 1014TIP3    H1 2999   5.960   0.910   3.450
 1014TIP3    H2 3000   6.100   0.934   3.398
 1015TIP3   OH2 3001   3.901   5.680   1.531
 1015TIP3    H1 3002   3.809   5.700   1.547
 1015TIP3    H2 3003   3.948   5.731   1.597
 1016TIP3   OH2 3004   8.253   2.395   6.601
 1016TIP3    H1 3005   8.318   2.447   6.648
 1016TIP3    H2 3006   8.173   2.447   6.605
 1017TIP3   OH2 3007   4.166   4.653   0.059
 1017TIP3    H1 3008   4.148   4.585  -0.007
 1017TIP3    H2 3009   4.082   4.696   0.073
 1018TIP3   OH2 3010   5.294   7.712   0.997
 1018TIP3    H1 3011   5.207   7.699   0.960
 1018TIP3    H2 3012   5.283   7.696   1.091
 1019TIP3   OH2 3013   3.768   6.819   4.223
 1019TIP3    H1 3014   3.813   6.816   4.308
 1019TIP3    H2 3015   3.834   6.849   4.161
 1020TIP3   OH2 3016   3.629   3.249   2.450
 1020TIP3    H1 3017   3.592   3.336   2.435
 1020TIP3    H2 3018   3.590   3.195   2.382
 1021TIP3   OH2 3019   4.215   5.604   5.040
 1021TIP3    H1 3020   4.176   5.626   4.955
 1021TIP3    H2 3021   4.171   5.523   5.066
 1022TIP3   OH2 3022   3.593   5.013   5.621
 1022TIP3    H1 3023   3.566   4.928   5.657
 1022TIP3    H2 3024   3.513   5.049   5.582
 1023TIP3   OH2 3025   4.757   1.341   3.230
 1023TIP3    H1 3026   4.759   1.340   3.325
 1023TIP3    H2 3027   4.722   1.428   3.207
 1024TIP3   OH2 3028   0.414   3.424   5.486
 1024TIP3    H1 3029   0.454   3.508   5.510
 1024TIP3    H2 3030   0.337   3.448   5.435
 1025TIP3   OH2 3031   3.150   7.704   6.625
 1025TIP3    H1 3032   3.099   7.631   6.590
 1025TIP3    H2 3033   3.088   7.753   6.679
 1026TIP3   OH2 3034   6.661   2.663   3.966
 1026TIP3    H1 3035   6.664   2.756   3.988
 1026TIP3    H2 3036   6.668   2.618   4.050
 1027TIP3   OH2 3037   8.168   5.743   2.036
 1027TIP3    H1 3038   8.185   5.734   1.942
 1027TIP3    H2 3039   8.094   5.803   2.041
 1028TIP3   OH2 3040   1.050   5.921   1.294
 1028TIP3    H1 3041   1.105   5.915   1.371
 1028TIP3    H2 3042   1.104   5.888   1.222
 1029TIP3   OH2 3043   7.132   4.597   3.755
 1029TIP3    H1 3044   7.127   4.510   3.716
 1029TIP3    H2 3045   7.177   4.583   3.838
 1030TIP3   OH2 3046   7.496   1.478   5.398
 1030TIP3    H1 3047   7.492   1.527   5.480
 1030TIP3    H2 3048   7.407   1.446   5.385
 1031TIP3   OH2 3049   1.550   6.670   3.797
 1031TIP3    H1 3050   1.510   6.666   3.884
 1031TIP3    H2 3051   1.502   6.606   3.745
 1032TIP3   OH2 3052   4.311   0.903   3.086
 1032TIP3    H1 3053   4.251   0.940   3.150
 1032TIP3    H2 3054   4.273   0.817   3.066
 1033TIP3   OH2 3055   0.924   7.444   3.335
 1033TIP3    H1 3056   0.993   7.467   3.397
 1033TIP3    H2 3057   0.926   7.348   3.333
 1034TIP3   OH2 3058   1.833   0.024   2.829
 1034TIP3    H1 3059   1.742   0.045   2.851
 1034TIP3    H2 3060   1.876   0.109   2.819
 1035TIP3   OH2 3061   3.181   3.076   3.739
 1035TIP3    H1 3062   3.177   2.982   3.759
 1035TIP3    H2 3063   3.222   3.081   3.653
 1036TIP3   OH2 3064   5.687   2.023   4.748
 1036TIP3    H1 3065   5.763   2.064   4.790
 1036TIP3    H2 3066   5.717   1.935   4.725
 1037TIP3   OH2 3067   2.373   4.291   6.691
 1037TIP3    H1 3068   2.441   4.266   6.753
 1037TIP3    H2 3069   2.399   4.378   6.659
 1038TIP3   OH2 3070   0.522   4.111   3.182
 1038TIP3    H1 3071   0.432   4.084   3.161
 1038TIP3    H2 3072   0.562   4.127   3.096
 1039TIP3   OH2 3073   8.208   1.027   3.728
 1039TIP3    H1 3074   8.143   1.053   3.793
 1039TIP3    H2 3075   8.281   1.086   3.742
 1040TIP3   OH2 3076   7.677   3.114   4.333
 1040TIP3    H1 3077   7.717   3.106   4.420
 1040TIP3    H2 3078   7.726   3.186   4.291
 1041TIP3   OH2 3079   2.547   3.900   5.592
 1041TIP3    H1 3080   2.551   3.820   5.538
 1041TIP3    H2 3081   2.623   3.894   5.649
 1042TIP3   OH2 3082   5.826   6.220   5.422
 1042TIP3    H1 3083   5.808   6.269   5.342
 1042TIP3    H2 3084   5.808   6.282   5.493
 1043TIP3   OH2 3085   1.164   5.194   5.682
 1043TIP3    H1 3086   1.185   5.208   5.775
 1043TIP3    H2 3087   1.118   5.274   5.656
 1044TIP3   OH2 3088   1.889   6.243   3.119
 1044TIP3    H1 3089   1.966   6.199   3.156
 1044TIP3    H2 3090   1.838   6.269   3.196
 1045TIP3   OH2 3091   6.557   6.280   3.792
 1045TIP3    H1 3092   6.467   6.251   3.807
 1045TIP3    H2 3093   6.584   6.318   3.875
 1046TIP3   OH2 3094   0.719   0.514   3.577
 1046TIP3    H1 3095   0.707   0.590   3.634
 1046TIP3    H2 3096   0.668   0.535   3.498
 1047TIP3   OH2 3097   2.088   6.648   6.117
 1047TIP3    H1 3098   2.144   6.574   6.140
 1047TIP3    H2 3099   2.141   6.703   6.061
 1048TIP3   OH2 3100   2.449   7.101   3.414
 1048TIP3    H1 3101   2.545   7.102   3.404
 1048TIP3    H2 3102   2.430   7.179   3.467
 1049TIP3   OH2 3103   1.306   7.687   1.295
 1049TIP3    H1 3104   1.228   7.634   1.280
 1049TIP3    H2 3105   1.374   7.623   1.316
 1050TIP3   OH2 3106   2.397   4.982   6.423
 1050TIP3    H1 3107   2.390   4.926   6.500
 1050TIP3    H2 3108   2.483   5.023   6.430
 1051TIP3   OH2 3109   0.597   4.037   4.798
 1051TIP3    H1 3110   0.585   3.952   4.841
 1051TIP3    H2 3111   0.572   4.021   4.707
 1052TIP3   OH2 3112   6.681   3.559   4.693
 1052TIP3    H1 3113   6.619   3.600   4.753
 1052TIP3    H2 3114   6.739   3.630   4.666
 1053TIP3   OH2 3115   0.437   6.172   0.230
 1053TIP3    H1 3116   0.393   6.237   0.175
 1053TIP3    H2 3117   0.381   6.165   0.308
 1054TIP3   OH2 3118   4.680   3.177   5.542
 1054TIP3    H1 3119   4.752   3.239   5.553
 1054TIP3    H2 3120   4.715   3.108   5.486
 1055TIP3   OH2 3121   2.249   2.567   3.702
 1055TIP3    H1 3122   2.168   2.518   3.691
 1055TIP3    H2 3123   2.227   2.656   3.676
 1056TIP3   OH2 3124   3.771   5.982   4.908
 1056TIP3    H1 3125   3.807   5.954   4.824
 1056TIP3    H2 3126   3.803   6.072   4.919
 1057TIP3   OH2 3127   4.489   1.006   2.058
 1057TIP3    H1 3128   4.399   0.996   2.086
 1057TIP3    H2 3129   4.537   0.937   2.103
 1058TIP3   OH2 3130   4.943   6.130   6.498
 1058TIP3    H1 3131   4.888   6.206   6.482
 1058TIP3    H2 3132   4.963   6.134   6.592
 1059TIP3   OH2 3133   2.287   4.485   5.133
 1059TIP3    H1 3134   2.198   4.465   5.164
 1059TIP3    H2 3135   2.326   4.399   5.118
 1060TIP3   OH2 3136   0.211   1.524   2.797
 1060TIP3    H1 3137   0.192   1.542   2.705
 1060TIP3    H2 3138   0.129   1.490   2.833
 1061TIP3   OH2 3139   5.408   2.256   6.202
 1061TIP3    H1 3140   5.453   2.322   6.150
 1061TIP3    H2 3141   5.375   2.193   6.138
 1062TIP3   OH2 3142   3.744   3.485   6.345
 1062TIP3    H1 3143   3.662   3.438   6.353
 1062TIP3    H2 3144   3.762   3.518   6.434
 1063TIP3   OH2 3145   5.214   2.071   2.485
 1063TIP3    H1 3146   5.147   2.138   2.500
 1063TIP3    H2 3147   5.185   2.024   2.407
 1064TIP3   OH2 3148   7.663   0.109   2.557
 1064TIP3    H1 3149   7.629   0.051   2.625
 1064TIP3    H2 3150   7.595   0.177   2.549
 1065TIP3   OH2 3151   7.576   0.289   0.644
 1065TIP3    H1 3152   7.485   0.261   0.640
 1065TIP3    H2 3153   7.598   0.289   0.737
 1066TIP3   OH2 3154   2.860   2.873   0.540
 1066TIP3    H1 3155   2.923   2.936   0.505
 1066TIP3    H2 3156   2.893   2.853   0.628
 1067TIP3   OH2 3157   0.167   4.192   0.638
 1067TIP3    H1 3158   0.081   4.205   0.598
 1067TIP3    H2 3159   0.175   4.262   0.702
 1068TIP3   OH2 3160   5.105   4.706   4.647
 1068TIP3    H1 3161   5.064   4.666   4.724
 1068TIP3    H2 3162   5.123   4.632   4.589
 1069TIP3   OH2 3163   4.296   5.298   4.209
 1069TIP3    H1 3164   4.242   5.253   4.274
 1069TIP3    H2 3165   4.272   5.390   4.219
 1070TIP3   OH2 3166   8.037   3.507   3.830
 1070TIP3    H1 3167   8.042   3.601   3.812
 1070TIP3    H2 3168   7.963   3.477   3.777
 1071TIP3   OH2 3169   7.324   2.776   4.499
 1071TIP3    H1 3170   7.397   2.805   4.554
 1071TIP3    H2 3171   7.252   2.762   4.561
 1072TIP3   OH2 3172   3.736   5.358   3.332
 1072TIP3    H1 3173   3.753   5.444   3.369
 1072TIP3    H2 3174   3.672   5.318   3.391
 1073TIP3   OH2 3175   6.079   3.573   0.752
 1073TIP3    H1 3176   6.097   3.533   0.667
 1073TIP3    H2 3177   6.035   3.655   0.730
 1074TIP3   OH2 3178   1.849   0.322   1.766
 1074TIP3    H1 3179   1.806   0.379   1.831
 1074TIP3    H2 3180   1.919   0.279   1.815
 1075TIP3   OH2 3181   1.961   1.980   6.064
 1075TIP3    H1 3182   2.009   1.914   6.015
 1075TIP3    H2 3183   1.873   1.978   6.028
 1076TIP3   OH2 3184   3.075   4.106   5.164
 1076TIP3    H1 3185   2.980   4.116   5.154
 1076TIP3    H2 3186   3.113   4.158   5.093
 1077TIP3   OH2 3187   3.934   3.980   0.603
 1077TIP3    H1 3188   3.965   3.953   0.690
 1077TIP3    H2 3189   3.838   3.973   0.608
 1078TIP3   OH2 3190   2.804   4.038   3.043
 1078TIP3    H1 3191   2.761   4.119   3.016
 1078TIP3    H2 3192   2.870   4.022   2.975
 1079TIP3   OH2 3193   5.407   1.013   3.994
 1079TIP3    H1 3194   5.331   1.065   4.020
 1079TIP3    H2 3195   5.371   0.928   3.969
 1080TIP3   OH2 3196   5.038   2.907   1.421
 1080TIP3    H1 3197   5.041   2.930   1.328
 1080TIP3    H2 3198   5.012   2.815   1.421
 1081TIP3   OH2 3199   1.118   0.073   1.426
 1081TIP3    H1 3200   1.115   0.038   1.515
 1081TIP3    H2 3201   1.061   0.015   1.375
 1082TIP3   OH2 3202   2.255   4.117   4.877
 1082TIP3    H1 3203   2.185   4.144   4.937
 1082TIP3    H2 3204   2.221   4.039   4.833
 1083TIP3   OH2 3205   6.176   7.276   2.321
 1083TIP3    H1 3206   6.192   7.290   2.414
 1083TIP3    H2 3207   6.100   7.331   2.301
 1084TIP3   OH2 3208   8.097   0.848   2.162
 1084TIP3    H1 3209   8.191   0.864   2.147
 1084TIP3    H2 3210   8.061   0.934   2.182
 1085TIP3   OH2 3211   1.057   2.526   4.092
 1085TIP3    H1 3212   1.070   2.556   4.182
 1085TIP3    H2 3213   0.989   2.460   4.098
 1086TIP3   OH2 3214   1.667   6.322   0.116
 1086TIP3    H1 3215   1.712   6.237   0.122
 1086TIP3    H2 3216   1.622   6.331   0.200
 1087TIP3   OH2 3217   7.071   4.996   4.871
 1087TIP3    H1 3218   7.030   4.976   4.955
 1087TIP3    H2 3219   7.006   5.049   4.824
 1088TIP3   OH2 3220   2.457   4.771   3.545
 1088TIP3    H1 3221   2.466   4.748   3.637
 1088TIP3    H2 3222   2.452   4.867   3.544
 1089TIP3   OH2 3223   7.744   0.561   0.917
 1089TIP3    H1 3224   7.754   0.467   0.908
 1089TIP3    H2 3225   7.707   0.590   0.833
 1090TIP3   OH2 3226   0.028   2.446   1.563
 1090TIP3    H1 3227  -0.007   2.390   1.494
 1090TIP3    H2 3228  -0.050   2.483   1.605
 1091TIP3   OH2 3229   8.311   7.079   2.453
 1091TIP3    H1 3230   8.330   7.156   2.399
 1091TIP3    H2 3231   8.217   7.084   2.470
 1092TIP3   OH2 3232   4.163   5.077   4.035
 1092TIP3    H1 3233   4.170   5.112   3.946
 1092TIP3    H2 3234   4.234   5.119   4.083
 1093TIP3   OH2 3235   6.092   4.091   6.318
 1093TIP3    H1 3236   6.038   4.043   6.381
 1093TIP3    H2 3237   6.029   4.124   6.253
 1094TIP3   OH2 3238   7.343   7.567   0.448
 1094TIP3    H1 3239   7.336   7.606   0.361
 1094TIP3    H2 3240   7.315   7.476   0.435
 1095TIP3   OH2 3241   5.034   2.859   2.686
 1095TIP3    H1 3242   4.994   2.778   2.717
 1095TIP3    H2 3243   5.118   2.864   2.732
 1096TIP3   OH2 3244   2.105   2.992   0.108
 1096TIP3    H1 3245   2.066   3.078   0.092
 1096TIP3    H2 3246   2.049   2.951   0.174
 1097TIP3   OH2 3247   4.729   2.514   0.326
 1097TIP3    H1 3248   4.658   2.558   0.278
 1097TIP3    H2 3249   4.808   2.534   0.277
 1098TIP3   OH2 3250   5.286   2.214   5.042
 1098TIP3    H1 3251   5.228   2.238   4.969
 1098TIP3    H2 3252   5.363   2.177   5.000
 1099TIP3   OH2 3253   4.398   6.575   0.636
 1099TIP3    H1 3254   4.479   6.565   0.687
 1099TIP3    H2 3255   4.416   6.531   0.553
 1100TIP3   OH2 3256   7.886   6.492   1.898
 1100TIP3    H1 3257   7.862   6.399   1.895
 1100TIP3    H2 3258   7.926   6.509   1.812
 1101TIP3   OH2 3259   4.462   4.945   6.439
 1101TIP3    H1 3260   4.411   5.021   6.469
 1101TIP3    H2 3261   4.429   4.928   6.351
 1102TIP3   OH2 3262   4.670   7.038   2.525
 1102TIP3    H1 3263   4.690   6.982   2.600
 1102TIP3    H2 3264   4.625   6.981   2.463
 1103TIP3   OH2 3265   5.497   7.524   6.070
 1103TIP3    H1 3266   5.531   7.606   6.033
 1103TIP3    H2 3267   5.452   7.482   5.997
 1104TIP3   OH2 3268   4.115   6.695   5.313
 1104TIP3    H1 3269   4.176   6.704   5.386
 1104TIP3    H2 3270   4.064   6.617   5.333
 1105TIP3   OH2 3271   2.291   1.443   2.978
 1105TIP3    H1 3272   2.295   1.478   3.067
 1105TIP3    H2 3273   2.340   1.361   2.981
 1106TIP3   OH2 3274   7.985   3.813   3.205
 1106TIP3    H1 3275   7.965   3.859   3.124
 1106TIP3    H2 3276   8.046   3.871   3.251
 1107TIP3   OH2 3277   3.907   6.495   4.610
 1107TIP3    H1 3278   3.846   6.493   4.684
 1107TIP3    H2 3279   3.872   6.563   4.552
 1108TIP3   OH2 3280   3.518   6.259   2.801
 1108TIP3    H1 3281   3.608   6.234   2.779
 1108TIP3    H2 3282   3.466   6.181   2.781
 1109TIP3   OH2 3283   4.012   7.765   3.137
 1109TIP3    H1 3284   4.025   7.671   3.125
 1109TIP3    H2 3285   4.026   7.780   3.230
 1110TIP3   OH2 3286   0.324   6.792   4.751
 1110TIP3    H1 3287   0.393   6.777   4.814
 1110TIP3    H2 3288   0.269   6.860   4.791
 1111TIP3   OH2 3289   4.406   1.996   6.242
 1111TIP3    H1 3290   4.488   2.044   6.242
 1111TIP3    H2 3291   4.413   1.937   6.317
 1112TIP3   OH2 3292   4.637   0.848   4.737
 1112TIP3    H1 3293   4.719   0.872   4.693
 1112TIP3    H2 3294   4.637   0.752   4.736
 1113TIP3   OH2 3295   1.215   0.381   3.617
 1113TIP3    H1 3296   1.293   0.434   3.634
 1113TIP3    H2 3297   1.146   0.424   3.666
 1114TIP3   OH2 3298   0.994   0.025   5.049
 1114TIP3    H1 3299   0.947   0.108   5.053
 1114TIP3    H2 3300   0.943  -0.035   5.104
 1115TIP3   OH2 3301   5.435   0.440   1.464
 1115TIP3    H1 3302   5.364   0.488   1.421
 1115TIP3    H2 3303   5.450   0.364   1.409
 1116TIP3   OH2 3304   0.302   0.494   0.690
 1116TIP3    H1 3305   0.290   0.574   0.638
 1116TIP3    H2 3306   0.333   0.525   0.775
 1117TIP3   OH2 3307   0.740   6.806   0.146
 1117TIP3    H1 3308   0.699   6.886   0.178
 1117TIP3    H2 3309   0.781   6.767   0.224
 1118TIP3   OH2 3310   7.475   2.901   1.249
 1118TIP3    H1 3311   7.449   2.878   1.338
 1118TIP3    H2 3312   7.544   2.967   1.260
 1119TIP3   OH2 3313   1.938   3.121   2.140
 1119TIP3    H1 3314   1.911   3.187   2.204
 1119TIP3    H2 3315   1.903   3.153   2.057
 1120TIP3   OH2 3316   6.993   3.667   5.789
 1120TIP3    H1 3317   6.916   3.722   5.776
 1120TIP3    H2 3318   6.966   3.580   5.759
 1121TIP3   OH2 3319   1.958   1.389   5.037
 1121TIP3    H1 3320   1.932   1.456   5.100
 1121TIP3    H2 3321   1.986   1.437   4.960
 1122TIP3   OH2 3322   0.589   6.805   3.064
 1122TIP3    H1 3323   0.547   6.765   2.988
 1122TIP3    H2 3324   0.680   6.817   3.038
 1123TIP3   OH2 3325   6.089   2.520   6.122
 1123TIP3    H1 3326   6.184   2.524   6.132
 1123TIP3    H2 3327   6.054   2.546   6.207
 1124TIP3   OH2 3328   0.396   5.964   1.850
 1124TIP3    H1 3329   0.443   5.996   1.928
 1124TIP3    H2 3330   0.465   5.952   1.785
 1125TIP3   OH2 3331   7.937   7.823   4.253
 1125TIP3    H1 3332   7.987   7.851   4.176
 1125TIP3    H2 3333   7.998   7.767   4.301
 1126TIP3   OH2 3334   3.209   2.572   2.998
 1126TIP3    H1 3335   3.267   2.618   3.058
 1126TIP3    H2 3336   3.170   2.502   3.051
 1127TIP3   OH2 3337   7.598   7.406   0.672
 1127TIP3    H1 3338   7.537   7.430   0.742
 1127TIP3    H2 3339   7.589   7.311   0.664
 1128TIP3   OH2 3340   8.050   5.073   6.507
 1128TIP3    H1 3341   8.134   5.108   6.534
 1128TIP3    H2 3342   7.988   5.106   6.572
 1129TIP3   OH2 3343   6.440   7.413   4.589
 1129TIP3    H1 3344   6.497   7.489   4.598
 1129TIP3    H2 3345   6.495   7.346   4.549
 1130TIP3   OH2 3346   7.285   7.761   2.420
 1130TIP3    H1 3347   7.294   7.683   2.366
 1130TIP3    H2 3348   7.199   7.753   2.460
 1131TIP3   OH2 3349   1.085   0.760   4.522
 1131TIP3    H1 3350   1.163   0.794   4.480
 1131TIP3    H2 3351   1.115   0.683   4.571
 1132TIP3   OH2 3352   3.347   0.693   1.379
 1132TIP3    H1 3353   3.340   0.732   1.467
 1132TIP3    H2 3354   3.266   0.644   1.368
 1133TIP3   OH2 3355   7.047   7.799   2.560
 1133TIP3    H1 3356   7.064   7.890   2.587
 1133TIP3    H2 3357   6.952   7.792   2.560
 1134TIP3   OH2 3358   3.366   1.345   4.319
 1134TIP3    H1 3359   3.383   1.385   4.404
 1134TIP3    H2 3360   3.274   1.362   4.302
 1135TIP3   OH2 3361   1.806   2.126   3.559
 1135TIP3    H1 3362   1.856   2.111   3.478
 1135TIP3    H2 3363   1.769   2.214   3.548
 1136TIP3   OH2 3364   6.629   0.741   1.070
 1136TIP3    H1 3365   6.597   0.716   1.157
 1136TIP3    H2 3366   6.701   0.801   1.088
 1137TIP3   OH2 3367   7.547   4.261   0.625
 1137TIP3    H1 3368   7.603   4.286   0.698
 1137TIP3    H2 3369   7.464   4.305   0.643
 1138TIP3   OH2 3370   4.467   1.017   4.877
 1138TIP3    H1 3371   4.522   1.078   4.925
 1138TIP3    H2 3372   4.528   0.954   4.838
 1139TIP3   OH2 3373   4.125   0.343   4.039
 1139TIP3    H1 3374   4.090   0.260   4.071
 1139TIP3    H2 3375   4.186   0.319   3.970
 1140TIP3   OH2 3376   6.246   3.892   6.209
 1140TIP3    H1 3377   6.242   3.954   6.136
 1140TIP3    H2 3378   6.166   3.908   6.258
 1141TIP3   OH2 3379   2.653   7.554   1.850
 1141TIP3    H1 3380   2.697   7.531   1.932
 1141TIP3    H2 3381   2.560   7.546   1.870
 1142TIP3   OH2 3382   1.111   7.024   2.853
 1142TIP3    H1 3383   1.049   7.017   2.926
 1142TIP3    H2 3384   1.091   7.107   2.812
 1143TIP3   OH2 3385   0.640   6.745   4.550
 1143TIP3    H1 3386   0.577   6.701   4.493
 1143TIP3    H2 3387   0.616   6.838   4.546
 1144TIP3   OH2 3388   6.187   3.195   3.012
 1144TIP3    H1 3389   6.117   3.198   2.947
 1144TIP3    H2 3390   6.267   3.207   2.962
 1145TIP3   OH2 3391   2.716   1.343   1.139
 1145TIP3    H1 3392   2.722   1.290   1.218
 1145TIP3    H2 3393   2.786   1.311   1.082
 1146TIP3   OH2 3394   1.430   3.546   2.709
 1146TIP3    H1 3395   1.443   3.453   2.693
 1146TIP3    H2 3396   1.493   3.569   2.777
 1147TIP3   OH2 3397   5.083   3.806   3.623
 1147TIP3    H1 3398   5.085   3.815   3.527
 1147TIP3    H2 3399   5.074   3.712   3.638
 1148TIP3   OH2 3400   5.152   2.840   4.789
 1148TIP3    H1 3401   5.207   2.762   4.791
 1148TIP3    H2 3402   5.198   2.904   4.843
 1149TIP3   OH2 3403   8.233   2.848   2.058
 1149TIP3    H1 3404   8.300   2.833   1.990
 1149TIP3    H2 3405   8.150   2.841   2.011
 1150TIP3   OH2 3406   1.777   5.841   0.821
 1150TIP3    H1 3407   1.717   5.906   0.858
 1150TIP3    H2 3408   1.725   5.798   0.752
 1151TIP3   OH2 3409   7.700   0.290   0.888
 1151TIP3    H1 3410   7.639   0.231   0.931
 1151TIP3    H2 3411   7.783   0.243   0.886
 1152TIP3   OH2 3412   0.444   7.688   1.133
 1152TIP3    H1 3413   0.466   7.733   1.051
 1152TIP3    H2 3414   0.508   7.720   1.196
 1153TIP3   OH2 3415   5.925   4.813   6.403
 1153TIP3    H1 3416   5.950   4.773   6.486
 1153TIP3    H2 3417   5.835   4.784   6.388
 1154TIP3   OH2 3418   6.901   2.601   5.276
 1154TIP3    H1 3419   6.911   2.546   5.353
 1154TIP3    H2 3420   6.860   2.545   5.211
 1155TIP3   OH2 3421   2.036   7.532   1.072
 1155TIP3    H1 3422   1.969   7.517   1.140
 1155TIP3    H2 3423   2.039   7.450   1.023
 1156TIP3   OH2 3424   0.051   1.793   5.683
 1156TIP3    H1 3425   0.103   1.849   5.626
 1156TIP3    H2 3426   0.052   1.838   5.768
 1157TIP3   OH2 3427   0.642   1.212   4.925
 1157TIP3    H1 3428   0.613   1.265   4.852
 1157TIP3    H2 3429   0.620   1.122   4.901
 1158TIP3   OH2 3430   6.683   7.596   4.208
 1158TIP3    H1 3431   6.750   7.633   4.151
 1158TIP3    H2 3432   6.690   7.646   4.289
 1159TIP3   OH2 3433   4.382   2.206   5.269
 1159TIP3    H1 3434   4.421   2.166   5.347
 1159TIP3    H2 3435   4.408   2.150   5.197
 1160TIP3   OH2 3436   2.704   2.276   2.045
 1160TIP3    H1 3437   2.780   2.250   1.993
 1160TIP3    H2 3438   2.631   2.226   2.009
 1161TIP3   OH2 3439   7.994   0.107   4.409
 1161TIP3    H1 3440   7.930   0.036   4.418
 1161TIP3    H2 3441   8.074   0.072   4.447
 1162TIP3   OH2 3442   5.919   0.184   3.445
 1162TIP3    H1 3443   5.992   0.246   3.449
 1162TIP3    H2 3444   5.841   0.238   3.458
 1163TIP3   OH2 3445   6.230   6.452   0.632
 1163TIP3    H1 3446   6.285   6.528   0.614
 1163TIP3    H2 3447   6.208   6.460   0.725
 1164TIP3   OH2 3448   3.533   6.333   6.732
 1164TIP3    H1 3449   3.532   6.416   6.684
 1164TIP3    H2 3450   3.442   6.303   6.729
 1165TIP3   OH2 3451   4.448   1.531   0.663
 1165TIP3    H1 3452   4.360   1.536   0.627
 1165TIP3    H2 3453   4.472   1.621   0.683
 1166TIP3   OH2 3454   3.170   4.263   0.447
 1166TIP3    H1 3455   3.154   4.308   0.363
 1166TIP3    H2 3456   3.191   4.334   0.508
 1167TIP3   OH2 3457   5.692   3.944   2.096
 1167TIP3    H1 3458   5.654   3.997   2.026
 1167TIP3    H2 3459   5.631   3.953   2.169
 1168TIP3   OH2 3460   6.477   7.794   1.940
 1168TIP3    H1 3461   6.513   7.810   1.853
 1168TIP3    H2 3462   6.384   7.776   1.924
 1169TIP3   OH2 3463   6.873   7.271   2.173
 1169TIP3    H1 3464   6.851   7.331   2.243
 1169TIP3    H2 3465   6.810   7.199   2.182
 1170TIP3   OH2 3466   3.772   3.458   1.473
 1170TIP3    H1 3467   3.708   3.448   1.543
 1170TIP3    H2 3468   3.796   3.369   1.449
 1171TIP3   OH2 3469   6.217   7.119   3.773
 1171TIP3    H1 3470   6.150   7.128   3.705
 1171TIP3    H2 3471   6.300   7.121   3.725
 1172TIP3   OH2 3472   0.725   6.802   5.798
 1172TIP3    H1 3473   0.819   6.798   5.784
 1172TIP3    H2 3474   0.697   6.879   5.750
 1173TIP3   OH2 3475   3.498   3.756   3.630
 1173TIP3    H1 3476   3.555   3.703   3.575
 1173TIP3    H2 3477   3.490   3.705   3.711
 1174TIP3   OH2 3478   8.019   6.175   3.331
 1174TIP3    H1 3479   8.087   6.172   3.263
 1174TIP3    H2 3480   7.953   6.234   3.296
 1175TIP3   OH2 3481   1.054   2.186   4.659
 1175TIP3    H1 3482   1.100   2.105   4.635
 1175TIP3    H2 3483   0.986   2.157   4.720
 1176TIP3   OH2 3484   7.277   6.313   4.561
 1176TIP3    H1 3485   7.361   6.355   4.546
 1176TIP3    H2 3486   7.282   6.282   4.652
 1177TIP3   OH2 3487   2.191   4.244   2.903
 1177TIP3    H1 3488   2.232   4.322   2.941
 1177TIP3    H2 3489   2.250   4.172   2.928
 1178TIP3   OH2 3490   0.756   4.482   6.213
 1178TIP3    H1 3491   0.839   4.434   6.219
 1178TIP3    H2 3492   0.774   4.566   6.255
 1179TIP3   OH2 3493   5.369   2.599   6.351
 1179TIP3    H1 3494   5.310   2.524   6.350
 1179TIP3    H2 3495   5.374   2.625   6.443
 1180TIP3   OH2 3496   4.861   1.977   5.804
 1180TIP3    H1 3497   4.913   1.943   5.877
 1180TIP3    H2 3498   4.900   1.937   5.726
 1181TIP3   OH2 3499   7.939   3.987   2.992
 1181TIP3    H1 3500   7.905   3.940   2.916
 1181TIP3    H2 3501   8.021   4.026   2.962
 1182TIP3   OH2 3502   2.563   4.781   0.805
 1182TIP3    H1 3503   2.545   4.708   0.864
 1182TIP3    H2 3504   2.478   4.824   0.793
 1183TIP3   OH2 3505   2.766   5.772   0.788
 1183TIP3    H1 3506   2.845   5.825   0.785
 1183TIP3    H2 3507   2.790   5.690   0.747
 1184TIP3   OH2 3508   4.550   7.333   0.350
 1184TIP3    H1 3509   4.518   7.399   0.289
 1184TIP3    H2 3510   4.524   7.365   0.436
 1185TIP3   OH2 3511   0.523   1.610   1.961
 1185TIP3    H1 3512   0.510   1.646   2.049
 1185TIP3    H2 3513   0.604   1.559   1.968
 1186TIP3   OH2 3514   4.473   0.081   4.470
 1186TIP3    H1 3515   4.485   0.110   4.380
 1186TIP3    H2 3516   4.378   0.074   4.480
 1187TIP3   OH2 3517   4.185   2.083   1.159
 1187TIP3    H1 3518   4.137   2.002   1.178
 1187TIP3    H2 3519   4.250   2.089   1.228
 1188TIP3   OH2 3520   5.433   4.527   4.438
 1188TIP3    H1 3521   5.362   4.570   4.390
 1188TIP3    H2 3522   5.469   4.595   4.494
 1189TIP3   OH2 3523   4.789   1.552   0.303
 1189TIP3    H1 3524   4.736   1.631   0.318
 1189TIP3    H2 3525   4.863   1.561   0.362
 1190TIP3   OH2 3526   7.592   2.906   5.948
 1190TIP3    H1 3527   7.682   2.888   5.919
 1190TIP3    H2 3528   7.579   2.849   6.023
 1191TIP3   OH2 3529   6.383   3.325   1.436
 1191TIP3    H1 3530   6.470   3.301   1.468
 1191TIP3    H2 3531   6.396   3.349   1.345
 1192TIP3   OH2 3532   6.560   6.308   1.967
 1192TIP3    H1 3533   6.653   6.328   1.953
 1192TIP3    H2 3534   6.513   6.373   1.915
 1193TIP3   OH2 3535   1.918   4.716   0.177
 1193TIP3    H1 3536   1.830   4.749   0.158
 1193TIP3    H2 3537   1.918   4.627   0.144
 1194TIP3   OH2 3538   2.160   3.724   6.666
 1194TIP3    H1 3539   2.241   3.774   6.659
 1194TIP3    H2 3540   2.106   3.774   6.728
 1195TIP3   OH2 3541   0.250   0.643   5.588
 1195TIP3    H1 3542   0.263   0.676   5.677
 1195TIP3    H2 3543   0.174   0.586   5.595
 1196TIP3   OH2 3544   0.296   5.190   0.235
 1196TIP3    H1 3545   0.345   5.258   0.280
 1196TIP3    H2 3546   0.321   5.198   0.143
 1197TIP3   OH2 3547   5.408   1.534   2.954
 1197TIP3    H1 3548   5.471   1.482   3.004
 1197TIP3    H2 3549   5.341   1.470   2.927
 1198TIP3   OH2 3550   0.818   1.506   5.564
 1198TIP3    H1 3551   0.837   1.598   5.585
 1198TIP3    H2 3552   0.749   1.511   5.498
 1199TIP3   OH2 3553   7.966   7.738   6.343
 1199TIP3    H1 3554   7.942   7.695   6.426
 1199TIP3    H2 3555   7.900   7.806   6.332
 1200TIP3   OH2 3556   3.185   4.227   4.896
 1200TIP3    H1 3557   3.277   4.201   4.905
 1200TIP3    H2 3558   3.142   4.149   4.862
 1201TIP3   OH2 3559   6.854   4.899   3.522
 1201TIP3    H1 3560   6.949   4.909   3.517
 1201TIP3    H2 3561   6.841   4.814   3.566
 1202TIP3   OH2 3562   4.300   5.346   1.387
 1202TIP3    H1 3563   4.290   5.385   1.300
 1202TIP3    H2 3564   4.316   5.420   1.446
 1203TIP3   OH2 3565   0.910   5.305   1.347
 1203TIP3    H1 3566   0.969   5.252   1.401
 1203TIP3    H2 3567   0.860   5.357   1.411
 1204TIP3   OH2 3568   0.322   2.054   0.301
 1204TIP3    H1 3569   0.411   2.063   0.336
 1204TIP3    H2 3570   0.314   2.124   0.237
 1205TIP3   OH2 3571   6.028   4.893  -0.052
 1205TIP3    H1 3572   6.004   4.971  -0.002
 1205TIP3    H2 3573   6.078   4.839   0.008
 1206TIP3   OH2 3574   0.977   7.303   3.749
 1206TIP3    H1 3575   0.990   7.363   3.676
 1206TIP3    H2 3576   0.882   7.304   3.765
 1207TIP3   OH2 3577   2.852   2.446   5.077
 1207TIP3    H1 3578   2.850   2.350   5.082
 1207TIP3    H2 3579   2.825   2.475   5.164
 1208TIP3   OH2 3580   6.148   2.168   3.241
 1208TIP3    H1 3581   6.147   2.128   3.328
 1208TIP3    H2 3582   6.233   2.213   3.237
 1209TIP3   OH2 3583   2.568   3.897   0.850
 1209TIP3    H1 3584   2.612   3.953   0.787
 1209TIP3    H2 3585   2.515   3.957   0.903
 1210TIP3   OH2 3586   5.169   3.224   2.747
 1210TIP3    H1 3587   5.198   3.198   2.659
 1210TIP3    H2 3588   5.196   3.151   2.803
 1211TIP3   OH2 3589   3.420   7.725   1.180
 1211TIP3    H1 3590   3.500   7.683   1.211
 1211TIP3    H2 3591   3.352   7.658   1.190
 1212TIP3   OH2 3592   2.493   4.304   5.702
 1212TIP3    H1 3593   2.533   4.272   5.783
 1212TIP3    H2 3594   2.454   4.226   5.662
 1213TIP3   OH2 3595   3.838   2.722   0.110
 1213TIP3    H1 3596   3.815   2.659   0.179
 1213TIP3    H2 3597   3.755   2.761   0.084
 1214TIP3   OH2 3598   1.548   4.527   6.535
 1214TIP3    H1 3599   1.567   4.618   6.557
 1214TIP3    H2 3600   1.506   4.492   6.613
 1215TIP3   OH2 3601   2.657   2.394   6.527
 1215TIP3    H1 3602   2.727   2.454   6.552
 1215TIP3    H2 3603   2.643   2.411   6.434
 1216TIP3   OH2 3604   7.540   2.065   0.579
 1216TIP3    H1 3605   7.577   2.016   0.652
 1216TIP3    H2 3606   7.524   2.152   0.615
 1217TIP3   OH2 3607   4.357   5.795   0.313
 1217TIP3    H1 3608   4.293   5.836   0.255
 1217TIP3    H2 3609   4.306   5.730   0.362
 1218TIP3   OH2 3610   4.781   6.309   1.418
 1218TIP3    H1 3611   4.843   6.292   1.489
 1218TIP3    H2 3612   4.706   6.253   1.438
 1219TIP3   OH2 3613   4.741   2.242   0.309
 1219TIP3    H1 3614   4.723   2.332   0.283
 1219TIP3    H2 3615   4.817   2.248   0.367
 1220TIP3   OH2 3616   1.043   6.526   5.303
 1220TIP3    H1 3617   1.088   6.609   5.291
 1220TIP3    H2 3618   1.098   6.478   5.365
 1221TIP3   OH2 3619   2.192   4.339   5.926
 1221TIP3    H1 3620   2.096   4.335   5.931
 1221TIP3    H2 3621   2.219   4.249   5.910
 1222TIP3   OH2 3622   5.705   0.373   1.565
 1222TIP3    H1 3623   5.766   0.376   1.491
 1222TIP3    H2 3624   5.631   0.426   1.537
 1223TIP3   OH2 3625   4.712   5.460   4.422
 1223TIP3    H1 3626   4.718   5.366   4.436
 1223TIP3    H2 3627   4.625   5.474   4.384
 1224TIP3   OH2 3628   4.703   5.132   1.768
 1224TIP3    H1 3629   4.681   5.095   1.683
 1224TIP3    H2 3630   4.798   5.141   1.766
 1225TIP3   OH2 3631   0.876   7.742   1.139
 1225TIP3    H1 3632   0.903   7.827   1.173
 1225TIP3    H2 3633   0.847   7.694   1.216
 1226TIP3   OH2 3634   6.651   4.921   2.363
 1226TIP3    H1 3635   6.567   4.924   2.409
 1226TIP3    H2 3636   6.649   4.996   2.303
 1227TIP3   OH2 3637   5.010   5.368   1.610
 1227TIP3    H1 3638   5.013   5.350   1.516
 1227TIP3    H2 3639   5.082   5.429   1.625
 1228TIP3   OH2 3640   6.601   1.070   0.071
 1228TIP3    H1 3641   6.577   1.149   0.120
 1228TIP3    H2 3642   6.548   1.000   0.111
 1229TIP3   OH2 3643   3.282   6.768   3.914
 1229TIP3    H1 3644   3.223   6.692   3.909
 1229TIP3    H2 3645   3.273   6.799   4.004
 1230TIP3   OH2 3646   5.929   7.409   2.638
 1230TIP3    H1 3647   5.857   7.410   2.575
 1230TIP3    H2 3648   5.886   7.406   2.723
 1231TIP3   OH2 3649   7.591   1.826   2.811
 1231TIP3    H1 3650   7.595   1.791   2.722
 1231TIP3    H2 3651   7.497   1.833   2.830
 1232TIP3   OH2 3652   4.107   5.973   6.387
 1232TIP3    H1 3653   4.062   5.951   6.305
 1232TIP3    H2 3654   4.099   5.893   6.440
 1233TIP3   OH2 3655   6.754   7.766   1.840
 1233TIP3    H1 3656   6.754   7.833   1.908
 1233TIP3    H2 3657   6.662   7.740   1.832
 1234TIP3   OH2 3658   7.409   0.642   4.122
 1234TIP3    H1 3659   7.479   0.668   4.182
 1234TIP3    H2 3660   7.422   0.697   4.045
 1235TIP3   OH2 3661   3.911   1.594   4.103
 1235TIP3    H1 3662   3.825   1.607   4.061
 1235TIP3    H2 3663   3.932   1.502   4.087
 1236TIP3   OH2 3664   6.844   7.118   4.785
 1236TIP3    H1 3665   6.873   7.031   4.757
 1236TIP3    H2 3666   6.919   7.175   4.767
 1237TIP3   OH2 3667   1.194   3.798   2.426
 1237TIP3    H1 3668   1.255   3.872   2.424
 1237TIP3    H2 3669   1.244   3.724   2.392
 1238TIP3   OH2 3670   4.340   7.296   6.141
 1238TIP3    H1 3671   4.290   7.368   6.179
 1238TIP3    H2 3672   4.431   7.327   6.142
 1239TIP3   OH2 3673   4.096   5.355   5.137
 1239TIP3    H1 3674   4.113   5.371   5.230
 1239TIP3    H2 3675   4.001   5.341   5.133
 1240TIP3   OH2 3676   5.930   1.546   4.097
 1240TIP3    H1 3677   5.995   1.476   4.086
 1240TIP3    H2 3678   5.979   1.626   4.081
 1241TIP3   OH2 3679   7.133   4.585   0.137
 1241TIP3    H1 3680   7.218   4.622   0.161
 1241TIP3    H2 3681   7.075   4.606   0.210
 1242TIP3   OH2 3682   7.754   6.874   3.478
 1242TIP3    H1 3683   7.722   6.920   3.556
 1242TIP3    H2 3684   7.759   6.782   3.505
 1243TIP3   OH2 3685   1.451   5.318   1.907
 1243TIP3    H1 3686   1.382   5.382   1.892
 1243TIP3    H2 3687   1.407   5.245   1.950
 1244TIP3   OH2 3688   4.720   0.570   2.090
 1244TIP3    H1 3689   4.800   0.583   2.038
 1244TIP3    H2 3690   4.670   0.505   2.040
 1245TIP3   OH2 3691   4.098   1.527   2.578
 1245TIP3    H1 3692   4.093   1.481   2.494
 1245TIP3    H2 3693   4.180   1.575   2.573
 1246TIP3   OH2 3694   6.972   3.140   0.161
 1246TIP3    H1 3695   6.958   3.230   0.190
 1246TIP3    H2 3696   7.026   3.101   0.230
 1247TIP3   OH2 3697   2.668   6.884   2.882
 1247TIP3    H1 3698   2.681   6.832   2.803
 1247TIP3    H2 3699   2.577   6.914   2.877
 1248TIP3   OH2 3700   0.607   4.481   5.218
 1248TIP3    H1 3701   0.567   4.512   5.137
 1248TIP3    H2 3702   0.537   4.436   5.264
 1249TIP3   OH2 3703   3.055   0.659   5.350
 1249TIP3    H1 3704   3.103   0.577   5.362
 1249TIP3    H2 3705   3.079   0.712   5.426
 1250TIP3   OH2 3706   7.947   2.091   4.839
 1250TIP3    H1 3707   8.009   2.149   4.795
 1250TIP3    H2 3708   7.864   2.137   4.834
 1251TIP3   OH2 3709   1.017   3.466   5.058
 1251TIP3    H1 3710   0.985   3.393   5.005
 1251TIP3    H2 3711   1.041   3.427   5.142
 1252TIP3   OH2 3712   0.402   1.582   6.097
 1252TIP3    H1 3713   0.350   1.504   6.077
 1252TIP3    H2 3714   0.400   1.588   6.193
 1253TIP3   OH2 3715   5.923   2.420   5.504
 1253TIP3    H1 3716   5.884   2.350   5.450
 1253TIP3    H2 3717   5.964   2.478   5.440
 1254TIP3   OH2 3718   8.220   3.882   6.547
 1254TIP3    H1 3719   8.267   3.872   6.629
 1254TIP3    H2 3720   8.186   3.794   6.528
 1255TIP3   OH2 3721   5.514   4.311   2.404
 1255TIP3    H1 3722   5.546   4.401   2.411
 1255TIP3    H2 3723   5.580   4.259   2.451
 1256TIP3   OH2 3724   0.795   0.323   5.278
 1256TIP3    H1 3725   0.724   0.363   5.227
 1256TIP3    H2 3726   0.776   0.346   5.368
 1257TIP3   OH2 3727   0.288   6.578   0.854
 1257TIP3    H1 3728   0.266   6.564   0.762
 1257TIP3    H2 3729   0.353   6.510   0.873
 1258TIP3   OH2 3730   7.724   5.810   5.311
 1258TIP3    H1 3731   7.644   5.780   5.355
 1258TIP3    H2 3732   7.794   5.760   5.352
 1259TIP3   OH2 3733   8.085   1.068   3.460
 1259TIP3    H1 3734   7.999   1.043   3.493
 1259TIP3    H2 3735   8.144   1.056   3.535
 1260TIP3   OH2 3736   6.604   7.606   3.183
 1260TIP3    H1 3737   6.589   7.595   3.277
 1260TIP3    H2 3738   6.534   7.555   3.141
 1261TIP3   OH2 3739   1.500   4.963   2.745
 1261TIP3    H1 3740   1.460   5.050   2.750
 1261TIP3    H2 3741   1.432   4.904   2.777
 1262TIP3   OH2 3742   3.133   3.907   6.326
 1262TIP3    H1 3743   3.122   3.916   6.420
 1262TIP3    H2 3744   3.225   3.884   6.315
 1263TIP3   OH2 3745   7.503   7.380   5.206
 1263TIP3    H1 3746   7.498   7.391   5.301
 1263TIP3    H2 3747   7.419   7.341   5.182
 1264TIP3   OH2 3748   5.246   3.302   3.070
 1264TIP3    H1 3749   5.187   3.295   3.145
 1264TIP3    H2 3750   5.251   3.213   3.035
 1265TIP3   OH2 3751   6.015   5.605   0.082
 1265TIP3    H1 3752   6.011   5.515   0.050
 1265TIP3    H2 3753   6.009   5.597   0.177
 1266TIP3   OH2 3754   7.754   7.542   4.743
 1266TIP3    H1 3755   7.733   7.560   4.834
 1266TIP3    H2 3756   7.806   7.462   4.745
 1267TIP3   OH2 3757   5.239   7.310   3.415
 1267TIP3    H1 3758   5.322   7.342   3.451
 1267TIP3    H2 3759   5.233   7.219   3.443
 1268TIP3   OH2 3760   6.033   0.609   5.966
 1268TIP3    H1 3761   6.022   0.683   6.026
 1268TIP3    H2 3762   6.116   0.569   5.992
 1269TIP3   OH2 3763   6.814   1.571   3.913
 1269TIP3    H1 3764   6.741   1.538   3.861
 1269TIP3    H2 3765   6.890   1.522   3.882
 1270TIP3   OH2 3766   0.629   0.946   0.740
 1270TIP3    H1 3767   0.687   0.875   0.714
 1270TIP3    H2 3768   0.548   0.930   0.691
 1271TIP3   OH2 3769   7.973   4.032   0.608
 1271TIP3    H1 3770   7.900   4.031   0.670
 1271TIP3    H2 3771   8.042   3.981   0.652
 1272TIP3   OH2 3772   4.236   2.101   2.152
 1272TIP3    H1 3773   4.221   2.135   2.240
 1272TIP3    H2 3774   4.160   2.130   2.101
 1273TIP3   OH2 3775   1.730   2.580   4.992
 1273TIP3    H1 3776   1.672   2.537   5.055
 1273TIP3    H2 3777   1.745   2.515   4.924
 1274TIP3   OH2 3778   2.543   5.143   4.228
 1274TIP3    H1 3779   2.509   5.228   4.202
 1274TIP3    H2 3780   2.548   5.148   4.323
 1275TIP3   OH2 3781   4.288   2.614   6.254
 1275TIP3    H1 3782   4.300   2.554   6.181
 1275TIP3    H2 3783   4.292   2.701   6.215
 1276TIP3   OH2 3784   6.464   5.580   1.567
 1276TIP3    H1 3785   6.422   5.531   1.496
 1276TIP3    H2 3786   6.522   5.641   1.522
 1277TIP3   OH2 3787   7.263   6.142   4.783
 1277TIP3    H1 3788   7.171   6.167   4.790
 1277TIP3    H2 3789   7.275   6.075   4.850
 1278TIP3   OH2 3790   3.479   0.513   2.248
 1278TIP3    H1 3791   3.537   0.536   2.320
 1278TIP3    H2 3792   3.396   0.554   2.270
 1279TIP3   OH2 3793   4.545   6.387   0.481
 1279TIP3    H1 3794   4.511   6.297   0.481
 1279TIP3    H2 3795   4.546   6.413   0.389
 1280TIP3   OH2 3796   1.937   7.650   6.202
 1280TIP3    H1 3797   2.004   7.645   6.270
 1280TIP3    H2 3798   1.981   7.693   6.128
 1281TIP3   OH2 3799   3.458   1.322   5.146
 1281TIP3    H1 3800   3.434   1.290   5.059
 1281TIP3    H2 3801   3.436   1.250   5.205
 1282TIP3   OH2 3802   4.384   6.677   4.766
 1282TIP3    H1 3803   4.310   6.680   4.706
 1282TIP3    H2 3804   4.384   6.763   4.808
 1283TIP3   OH2 3805   1.531   7.542   5.616
 1283TIP3    H1 3806   1.609   7.569   5.665
 1283TIP3    H2 3807   1.512   7.454   5.647
 1284TIP3   OH2 3808   7.015   1.639   5.307
 1284TIP3    H1 3809   7.106   1.635   5.277
 1284TIP3    H2 3810   6.972   1.566   5.264
 1285TIP3   OH2 3811   7.295   3.409   5.287
 1285TIP3    H1 3812   7.247   3.327   5.280
 1285TIP3    H2 3813   7.249   3.469   5.228
 1286TIP3   OH2 3814   1.393   5.534   6.718
 1286TIP3    H1 3815   1.355   5.620   6.699
 1286TIP3    H2 3816   1.484   5.543   6.690
 1287TIP3   OH2 3817   2.900   7.015   2.788
 1287TIP3    H1 3818   2.958   6.940   2.787
 1287TIP3    H2 3819   2.817   6.981   2.821
 1288TIP3   OH2 3820   5.551   2.760   5.782
 1288TIP3    H1 3821   5.635   2.716   5.771
 1288TIP3    H2 3822   5.571   2.839   5.831
 1289TIP3   OH2 3823   3.608   0.659   1.471
 1289TIP3    H1 3824   3.552   0.665   1.394
 1289TIP3    H2 3825   3.560   0.603   1.532
 1290TIP3   OH2 3826   0.086   4.426   0.085
 1290TIP3    H1 3827  -0.009   4.434   0.088
 1290TIP3    H2 3828   0.118   4.516   0.094
 1291TIP3   OH2 3829   5.992   4.045   2.109
 1291TIP3    H1 3830   5.904   4.033   2.074
 1291TIP3    H2 3831   6.040   3.966   2.083
 1292TIP3   OH2 3832   8.255   0.050   5.236
 1292TIP3    H1 3833   8.312  -0.027   5.225
 1292TIP3    H2 3834   8.310   0.124   5.208
 1293TIP3   OH2 3835   5.308   0.670   2.473
 1293TIP3    H1 3836   5.229   0.721   2.492
 1293TIP3    H2 3837   5.366   0.685   2.548
 1294TIP3   OH2 3838   3.306   5.012   5.052
 1294TIP3    H1 3839   3.291   5.014   4.957
 1294TIP3    H2 3840   3.314   4.919   5.072
 1295TIP3   OH2 3841   5.276   4.753   0.307
 1295TIP3    H1 3842   5.272   4.733   0.214
 1295TIP3    H2 3843   5.358   4.714   0.337
 1296TIP3   OH2 3844   0.582   5.184   2.543
 1296TIP3    H1 3845   0.533   5.199   2.624
 1296TIP3    H2 3846   0.522   5.135   2.487
 1297TIP3   OH2 3847   7.269   4.832   2.836
 1297TIP3    H1 3848   7.226   4.768   2.779
 1297TIP3    H2 3849   7.249   4.917   2.796
 1298TIP3   OH2 3850   7.285   4.804   2.037
 1298TIP3    H1 3851   7.313   4.729   1.984
 1298TIP3    H2 3852   7.199   4.779   2.071
 1299TIP3   OH2 3853   7.227   0.391   0.123
 1299TIP3    H1 3854   7.247   0.388   0.216
 1299TIP3    H2 3855   7.255   0.478   0.095
 1300TIP3   OH2 3856   3.134   2.490   6.546
 1300TIP3    H1 3857   3.197   2.507   6.616
 1300TIP3    H2 3858   3.050   2.521   6.581
 1301TIP3   OH2 3859   7.935   5.930   4.155
 1301TIP3    H1 3860   7.899   5.946   4.068
 1301TIP3    H2 3861   7.975   6.014   4.180
 1302TIP3   OH2 3862   2.305   1.056   2.116
 1302TIP3    H1 3863   2.271   1.098   2.037
 1302TIP3    H2 3864   2.311   0.963   2.094
 1303TIP3   OH2 3865   2.188   5.864   3.805
 1303TIP3    H1 3866   2.200   5.905   3.891
 1303TIP3    H2 3867   2.222   5.775   3.817
 1304TIP3   OH2 3868   6.680   0.513   3.510
 1304TIP3    H1 3869   6.754   0.519   3.571
 1304TIP3    H2 3870   6.684   0.594   3.459
 1305TIP3   OH2 3871   8.289   0.012   6.241
 1305TIP3    H1 3872   8.260   0.047   6.156
 1305TIP3    H2 3873   8.222   0.042   6.303
 1306TIP3   OH2 3874   1.727   6.922  -0.007
 1306TIP3    H1 3875   1.785   6.908  -0.082
 1306TIP3    H2 3876   1.733   6.840   0.042
 1307TIP3   OH2 3877   3.007   5.567   3.213
 1307TIP3    H1 3878   2.972   5.582   3.125
 1307TIP3    H2 3879   3.062   5.644   3.229
 1308TIP3   OH2 3880   7.611   5.006   4.815
 1308TIP3    H1 3881   7.629   5.009   4.721
 1308TIP3    H2 3882   7.517   5.026   4.823
 1309TIP3   OH2 3883   1.009   3.580   2.358
 1309TIP3    H1 3884   1.005   3.617   2.270
 1309TIP3    H2 3885   0.955   3.500   2.353
 1310TIP3   OH2 3886   0.689   2.208   3.319
 1310TIP3    H1 3887   0.696   2.285   3.376
 1310TIP3    H2 3888   0.714   2.240   3.232
 1311TIP3   OH2 3889   5.581   2.812   3.458
 1311TIP3    H1 3890   5.662   2.824   3.408
 1311TIP3    H2 3891   5.540   2.898   3.458
 1312TIP3   OH2 3892   2.809   4.912   0.656
 1312TIP3    H1 3893   2.726   4.924   0.703
 1312TIP3    H2 3894   2.873   4.955   0.712
 1313TIP3   OH2 3895   7.088   7.220   3.524
 1313TIP3    H1 3896   7.048   7.144   3.566
 1313TIP3    H2 3897   7.105   7.192   3.434
 1314TIP3   OH2 3898   6.985   6.203   1.865
 1314TIP3    H1 3899   6.925   6.209   1.939
 1314TIP3    H2 3900   7.034   6.285   1.867
 1315TIP3   OH2 3901   5.533   5.918   0.320
 1315TIP3    H1 3902   5.476   5.894   0.247
 1315TIP3    H2 3903   5.610   5.957   0.279
 1316TIP3   OH2 3904   2.722   7.290   4.737
 1316TIP3    H1 3905   2.728   7.255   4.826
 1316TIP3    H2 3906   2.812   7.287   4.704
 1317TIP3   OH2 3907   3.401   6.291   1.401
 1317TIP3    H1 3908   3.441   6.208   1.374
 1317TIP3    H2 3909   3.346   6.316   1.327
 1318TIP3   OH2 3910   1.081   5.143   1.513
 1318TIP3    H1 3911   1.095   5.218   1.571
 1318TIP3    H2 3912   1.160   5.090   1.524
 1319TIP3   OH2 3913   7.582   5.557   1.227
 1319TIP3    H1 3914   7.669   5.551   1.187
 1319TIP3    H2 3915   7.542   5.634   1.186
 1320TIP3   OH2 3916   0.285   3.353   5.094
 1320TIP3    H1 3917   0.376   3.368   5.120
 1320TIP3    H2 3918   0.281   3.382   5.003
 1321TIP3   OH2 3919   5.379   0.212   1.293
 1321TIP3    H1 3920   5.465   0.179   1.268
 1321TIP3    H2 3921   5.344   0.250   1.212
 1322TIP3   OH2 3922   5.175   7.488   2.451
 1322TIP3    H1 3923   5.100   7.441   2.415
 1322TIP3    H2 3924   5.144   7.578   2.460
 1323TIP3   OH2 3925   1.073   6.377   5.065
 1323TIP3    H1 3926   1.120   6.424   5.133
 1323TIP3    H2 3927   1.030   6.445   5.014
 1324TIP3   OH2 3928   2.497   6.714   4.399
 1324TIP3    H1 3929   2.540   6.795   4.427
 1324TIP3    H2 3930   2.413   6.714   4.445
 1325TIP3   OH2 3931   4.843   0.920   2.664
 1325TIP3    H1 3932   4.757   0.882   2.680
 1325TIP3    H2 3933   4.834   1.011   2.693
 1326TIP3   OH2 3934   4.003   5.381   1.199
 1326TIP3    H1 3935   4.077   5.390   1.140
 1326TIP3    H2 3936   4.005   5.290   1.226
 1327TIP3   OH2 3937   2.331   2.491   3.958
 1327TIP3    H1 3938   2.347   2.542   3.878
 1327TIP3    H2 3939   2.258   2.434   3.936
 1328TIP3   OH2 3940   7.699   6.634   6.121
 1328TIP3    H1 3941   7.769   6.615   6.184
 1328TIP3    H2 3942   7.623   6.587   6.155
 1329TIP3   OH2 3943   6.871   5.195   0.895
 1329TIP3    H1 3944   6.926   5.172   0.970
 1329TIP3    H2 3945   6.783   5.206   0.932
 1330TIP3   OH2 3946   6.512   1.583   4.828
 1330TIP3    H1 3947   6.565   1.643   4.776
 1330TIP3    H2 3948   6.466   1.529   4.763
 1331TIP3   OH2 3949   2.073   0.549   6.647
 1331TIP3    H1 3950   1.994   0.576   6.694
 1331TIP3    H2 3951   2.108   0.477   6.698
 1332TIP3   OH2 3952   7.123   4.373   6.271
 1332TIP3    H1 3953   7.038   4.373   6.315
 1332TIP3    H2 3954   7.118   4.300   6.209
 1333TIP3   OH2 3955   1.311   5.494   3.944
 1333TIP3    H1 3956   1.317   5.520   3.853
 1333TIP3    H2 3957   1.307   5.398   3.942
 1334TIP3   OH2 3958   1.603   1.092   5.869
 1334TIP3    H1 3959   1.642   1.004   5.863
 1334TIP3    H2 3960   1.613   1.129   5.781
 1335TIP3   OH2 3961   2.509   0.613   2.371
 1335TIP3    H1 3962   2.527   0.632   2.464
 1335TIP3    H2 3963   2.418   0.583   2.370
 1336TIP3   OH2 3964   2.621   7.302   3.782
 1336TIP3    H1 3965   2.711   7.304   3.749
 1336TIP3    H2 3966   2.626   7.254   3.864
 1337TIP3   OH2 3967   3.457   3.183   4.277
 1337TIP3    H1 3968   3.518   3.133   4.224
 1337TIP3    H2 3969   3.495   3.182   4.365
 1338TIP3   OH2 3970   5.162   5.152   2.652
 1338TIP3    H1 3971   5.199   5.183   2.734
 1338TIP3    H2 3972   5.128   5.064   2.672
 1339TIP3   OH2 3973   2.025   7.717   5.949
 1339TIP3    H1 3974   1.987   7.795   5.907
 1339TIP3    H2 3975   2.082   7.679   5.882
 1340TIP3   OH2 3976   1.946   6.637   4.946
 1340TIP3    H1 3977   1.960   6.621   4.853
 1340TIP3    H2 3978   1.897   6.561   4.977
 1341TIP3   OH2 3979   1.910   0.318   0.932
 1341TIP3    H1 3980   1.828   0.368   0.928
 1341TIP3    H2 3981   1.892   0.240   0.880
 1342TIP3   OH2 3982   2.425   2.222   1.483
 1342TIP3    H1 3983   2.427   2.145   1.540
 1342TIP3    H2 3984   2.475   2.197   1.406
 1343TIP3   OH2 3985   5.666   6.846   1.139
 1343TIP3    H1 3986   5.616   6.783   1.192
 1343TIP3    H2 3987   5.631   6.931   1.164
 1344TIP3   OH2 3988   2.734   7.380   6.507
 1344TIP3    H1 3989   2.715   7.381   6.601
 1344TIP3    H2 3990   2.821   7.419   6.501
 1345TIP3   OH2 3991   8.299   6.145   2.978
 1345TIP3    H1 3992   8.346   6.090   2.915
 1345TIP3    H2 3993   8.263   6.083   3.041
 1346TIP3   OH2 3994   0.940   1.234   1.128
 1346TIP3    H1 3995   0.936   1.308   1.188
 1346TIP3    H2 3996   0.850   1.203   1.121
 1347TIP3   OH2 3997   5.956   5.455   5.028
 1347TIP3    H1 3998   6.034   5.410   4.993
 1347TIP3    H2 3999   5.887   5.390   5.023
 1348TIP3   OH2 4000   6.680   1.141   5.779
 1348TIP3    H1 4001   6.731   1.109   5.705
 1348TIP3    H2 4002   6.715   1.229   5.796
 1349TIP3   OH2 4003   0.631   0.337   0.666
 1349TIP3    H1 4004   0.667   0.258   0.626
 1349TIP3    H2 4005   0.678   0.345   0.749
 1350TIP3   OH2 4006   5.900   6.619   0.877
 1350TIP3    H1 4007   5.978   6.569   0.904
 1350TIP3    H2 4008   5.877   6.583   0.792
 1351TIP3   OH2 4009   6.807   2.863   0.224
 1351TIP3    H1 4010   6.745   2.907   0.283
 1351TIP3    H2 4011   6.887   2.914   0.231
 1352TIP3   OH2 4012   4.565   1.896   3.383
 1352TIP3    H1 4013   4.598   1.985   3.368
 1352TIP3    H2 4014   4.594   1.874   3.471
 1353TIP3   OH2 4015   2.676   0.819   3.521
 1353TIP3    H1 4016   2.764   0.808   3.556
 1353TIP3    H2 4017   2.683   0.893   3.461
 1354TIP3   OH2 4018   2.863   2.867   1.829
 1354TIP3    H1 4019   2.866   2.867   1.925
 1354TIP3    H2 4020   2.781   2.822   1.808
 1355TIP3   OH2 4021   6.179   5.918   1.985
 1355TIP3    H1 4022   6.221   5.837   2.012
 1355TIP3    H2 4023   6.205   5.930   1.893
 1356TIP3   OH2 4024   5.899   6.006   1.833
 1356TIP3    H1 4025   5.974   5.952   1.859
 1356TIP3    H2 4026   5.841   6.004   1.909
 1357TIP3   OH2 4027   2.499   2.128   4.338
 1357TIP3    H1 4028   2.500   2.039   4.302
 1357TIP3    H2 4029   2.429   2.173   4.290
 1358TIP3   OH2 4030   1.422   6.911   0.035
 1358TIP3    H1 4031   1.357   6.960   0.086
 1358TIP3    H2 4032   1.503   6.920   0.085
 1359TIP3   OH2 4033   5.199   1.808   1.037
 1359TIP3    H1 4034   5.202   1.843   0.948
 1359TIP3    H2 4035   5.286   1.827   1.073
 1360TIP3   OH2 4036   1.745   3.843   4.419
 1360TIP3    H1 4037   1.797   3.924   4.421
 1360TIP3    H2 4038   1.710   3.834   4.507
 1361TIP3   OH2 4039   1.429   2.586   6.588
 1361TIP3    H1 4040   1.492   2.657   6.601
 1361TIP3    H2 4041   1.438   2.563   6.495
 1362TIP3   OH2 4042   4.876   3.455   6.467
 1362TIP3    H1 4043   4.844   3.453   6.557
 1362TIP3    H2 4044   4.935   3.379   6.461
 1363TIP3   OH2 4045   7.703   6.389   0.561
 1363TIP3    H1 4046   7.715   6.294   0.571
 1363TIP3    H2 4047   7.747   6.427   0.637
 1364TIP3   OH2 4048   0.401   3.977   5.921
 1364TIP3    H1 4049   0.460   4.052   5.915
 1364TIP3    H2 4050   0.458   3.904   5.945
 1365TIP3   OH2 4051   2.970   6.929   5.497
 1365TIP3    H1 4052   3.004   6.942   5.408
 1365TIP3    H2 4053   3.030   6.864   5.535
 1366TIP3   OH2 4054   3.079   4.200   5.443
 1366TIP3    H1 4055   3.163   4.224   5.481
 1366TIP3    H2 4056   3.102   4.150   5.364
 1367TIP3   OH2 4057   1.261   2.540   5.035
 1367TIP3    H1 4058   1.255   2.447   5.013
 1367TIP3    H2 4059   1.174   2.562   5.070
 1368TIP3   OH2 4060   5.768   0.413   3.422
 1368TIP3    H1 4061   5.828   0.478   3.385
 1368TIP3    H2 4062   5.699   0.465   3.463
 1369TIP3   OH2 4063   3.340   1.120   2.910
 1369TIP3    H1 4064   3.316   1.037   2.951
 1369TIP3    H2 4065   3.419   1.100   2.860
 1370TIP3   OH2 4066   4.778   1.044   6.376
 1370TIP3    H1 4067   4.792   0.950   6.392
 1370TIP3    H2 4068   4.701   1.065   6.428
 1371TIP3   OH2 4069   2.417   2.038   0.149
 1371TIP3    H1 4070   2.380   2.032   0.237
 1371TIP3    H2 4071   2.478   1.964   0.143
 1372TIP3   OH2 4072   2.570   1.974   2.529
 1372TIP3    H1 4073   2.634   2.027   2.481
 1372TIP3    H2 4074   2.622   1.931   2.597
 1373TIP3   OH2 4075   8.102   3.344   6.583
 1373TIP3    H1 4076   8.023   3.297   6.556
 1373TIP3    H2 4077   8.088   3.364   6.676
 1374TIP3   OH2 4078   3.768   3.184   1.247
 1374TIP3    H1 4079   3.689   3.238   1.259
 1374TIP3    H2 4080   3.758   3.113   1.310
 1375TIP3   OH2 4081   2.761   5.466   2.005
 1375TIP3    H1 4082   2.671   5.449   1.976
 1375TIP3    H2 4083   2.774   5.407   2.079
 1376TIP3   OH2 4084   0.821   3.251   5.922
 1376TIP3    H1 4085   0.876   3.303   5.981
 1376TIP3    H2 4086   0.822   3.300   5.840
 1377TIP3   OH2 4087   7.647   3.654   2.203
 1377TIP3    H1 4088   7.638   3.677   2.111
 1377TIP3    H2 4089   7.557   3.651   2.236
 1378TIP3   OH2 4090   6.725   1.962   4.520
 1378TIP3    H1 4091   6.764   1.942   4.606
 1378TIP3    H2 4092   6.679   2.045   4.534
 1379TIP3   OH2 4093   8.128   2.021   3.008
 1379TIP3    H1 4094   8.149   1.938   3.051
 1379TIP3    H2 4095   8.053   2.055   3.057
 1380TIP3   OH2 4096   3.612   3.174   4.525
 1380TIP3    H1 4097   3.704   3.152   4.518
 1380TIP3    H2 4098   3.592   3.163   4.618
 1381TIP3   OH2 4099   0.230   1.502   1.406
 1381TIP3    H1 4100   0.220   1.445   1.330
 1381TIP3    H2 4101   0.201   1.449   1.480
 1382TIP3   OH2 4102   5.916   6.774   1.085
 1382TIP3    H1 4103   5.906   6.707   1.018
 1382TIP3    H2 4104   5.826   6.799   1.108
 1383TIP3   OH2 4105   7.341   5.610   5.765
 1383TIP3    H1 4106   7.399   5.651   5.829
 1383TIP3    H2 4107   7.268   5.671   5.758
 1384TIP3   OH2 4108   5.613   5.714   6.712
 1384TIP3    H1 4109   5.559   5.743   6.785
 1384TIP3    H2 4110   5.605   5.783   6.646
 1385TIP3   OH2 4111   6.402   3.006   4.762
 1385TIP3    H1 4112   6.424   3.072   4.828
 1385TIP3    H2 4113   6.316   3.032   4.729
 1386TIP3   OH2 4114   1.094   7.469   1.261
 1386TIP3    H1 4115   1.123   7.465   1.170
 1386TIP3    H2 4116   1.051   7.385   1.276
 1387TIP3   OH2 4117   1.480   6.336   6.640
 1387TIP3    H1 4118   1.451   6.269   6.578
 1387TIP3    H2 4119   1.512   6.286   6.716
 1388TIP3   OH2 4120   2.496   6.184   5.400
 1388TIP3    H1 4121   2.508   6.123   5.473
 1388TIP3    H2 4122   2.456   6.132   5.331
 1389TIP3   OH2 4123   3.715   0.387   4.665
 1389TIP3    H1 4124   3.784   0.423   4.611
 1389TIP3    H2 4125   3.634   0.407   4.618
 1390TIP3   OH2 4126   1.347   3.965   4.036
 1390TIP3    H1 4127   1.398   3.949   4.116
 1390TIP3    H2 4128   1.323   4.057   4.040
 1391TIP3   OH2 4129   6.392   4.177   6.772
 1391TIP3    H1 4130   6.341   4.144   6.846
 1391TIP3    H2 4131   6.326   4.204   6.708
 1392TIP3   OH2 4132   2.276   7.766   1.798
 1392TIP3    H1 4133   2.229   7.685   1.779
 1392TIP3    H2 4134   2.261   7.782   1.891
 1393TIP3   OH2 4135   6.933   5.611   4.028
 1393TIP3    H1 4136   7.025   5.613   4.054
 1393TIP3    H2 4137   6.891   5.679   4.082
 1394TIP3   OH2 4138   5.284   5.769   0.900
 1394TIP3    H1 4139   5.322   5.841   0.849
 1394TIP3    H2 4140   5.320   5.690   0.859
 1395TIP3   OH2 4141   1.193   3.302   6.116
 1395TIP3    H1 4142   1.139   3.381   6.110
 1395TIP3    H2 4143   1.282   3.335   6.130
 1396TIP3   OH2 4144   2.456   0.279   3.562
 1396TIP3    H1 4145   2.409   0.198   3.584
 1396TIP3    H2 4146   2.399   0.349   3.594
 1397TIP3   OH2 4147   6.541   5.802   4.363
 1397TIP3    H1 4148   6.527   5.738   4.293
 1397TIP3    H2 4149   6.576   5.751   4.436
 1398TIP3   OH2 4150   1.232   6.206   2.519
 1398TIP3    H1 4151   1.215   6.239   2.430
 1398TIP3    H2 4152   1.232   6.111   2.509
 1399TIP3   OH2 4153   4.229   0.669   5.915
 1399TIP3    H1 4154   4.175   0.591   5.902
 1399TIP3    H2 4155   4.165   0.741   5.918
 1400TIP3   OH2 4156   5.780   7.414   3.470
 1400TIP3    H1 4157   5.719   7.483   3.495
 1400TIP3    H2 4158   5.725   7.337   3.456
 1401TIP3   OH2 4159   7.786   1.314   4.796
 1401TIP3    H1 4160   7.881   1.320   4.801
 1401TIP3    H2 4161   7.769   1.234   4.747
 1402TIP3   OH2 4162   0.907   5.675   1.668
 1402TIP3    H1 4163   0.844   5.634   1.608
 1402TIP3    H2 4164   0.854   5.717   1.735
 1403TIP3   OH2 4165   7.244   3.579   3.623
 1403TIP3    H1 4166   7.154   3.569   3.653
 1403TIP3    H2 4167   7.279   3.490   3.622
 1404TIP3   OH2 4168   0.849   3.813   2.380
 1404TIP3    H1 4169   0.931   3.773   2.408
 1404TIP3    H2 4170   0.783   3.745   2.395
 1405TIP3   OH2 4171   7.312   6.462   5.979
 1405TIP3    H1 4172   7.344   6.377   5.949
 1405TIP3    H2 4173   7.228   6.472   5.934
 1406TIP3   OH2 4174   6.013   3.462   4.788
 1406TIP3    H1 4175   5.968   3.454   4.704
 1406TIP3    H2 4176   6.104   3.479   4.765
 1407TIP3   OH2 4177   0.667   3.700   1.610
 1407TIP3    H1 4178   0.620   3.618   1.619
 1407TIP3    H2 4179   0.639   3.753   1.685
 1408TIP3   OH2 4180   7.281   7.714   4.977
 1408TIP3    H1 4181   7.355   7.723   5.037
 1408TIP3    H2 4182   7.240   7.631   5.002
 1409TIP3   OH2 4183   5.366   2.808   1.351
 1409TIP3    H1 4184   5.428   2.877   1.325
 1409TIP3    H2 4185   5.358   2.753   1.273
 1410TIP3   OH2 4186   7.121   3.884   4.808
 1410TIP3    H1 4187   7.091   3.975   4.809
 1410TIP3    H2 4188   7.216   3.889   4.817
 1411TIP3   OH2 4189   6.141   4.619   4.649
 1411TIP3    H1 4190   6.159   4.533   4.687
 1411TIP3    H2 4191   6.176   4.681   4.713
 1412TIP3   OH2 4192   5.993   2.301   2.234
 1412TIP3    H1 4193   6.067   2.243   2.253
 1412TIP3    H2 4194   5.981   2.294   2.139
 1413TIP3   OH2 4195   5.050   1.574   1.142
 1413TIP3    H1 4196   5.078   1.551   1.053
 1413TIP3    H2 4197   5.123   1.624   1.178
 1414TIP3   OH2 4198   7.305   1.814   6.757
 1414TIP3    H1 4199   7.359   1.791   6.682
 1414TIP3    H2 4200   7.260   1.733   6.781
 1415TIP3   OH2 4201   6.823   1.670   0.388
 1415TIP3    H1 4202   6.875   1.750   0.381
 1415TIP3    H2 4203   6.840   1.623   0.307
 1416TIP3   OH2 4204   1.329   5.409   4.434
 1416TIP3    H1 4205   1.329   5.314   4.445
 1416TIP3    H2 4206   1.357   5.443   4.519
 1417TIP3   OH2 4207   6.484   1.152   3.320
 1417TIP3    H1 4208   6.448   1.064   3.305
 1417TIP3    H2 4209   6.479   1.164   3.415
 1418TIP3   OH2 4210   3.852   4.979   5.784
 1418TIP3    H1 4211   3.838   4.972   5.690
 1418TIP3    H2 4212   3.774   5.024   5.817
 1419TIP3   OH2 4213   5.538   6.127   3.060
 1419TIP3    H1 4214   5.549   6.036   3.032
 1419TIP3    H2 4215   5.549   6.178   2.979
 1420TIP3   OH2 4216   6.460   3.625   3.475
 1420TIP3    H1 4217   6.394   3.619   3.406
 1420TIP3    H2 4218   6.514   3.547   3.462
 1421TIP3   OH2 4219   2.026   0.455   6.148
 1421TIP3    H1 4220   2.110   0.483   6.185
 1421TIP3    H2 4221   1.967   0.450   6.224
 1422TIP3   OH2 4222   5.725   4.205   3.576
 1422TIP3    H1 4223   5.716   4.292   3.616
 1422TIP3    H2 4224   5.695   4.217   3.486
 1423TIP3   OH2 4225   1.145   2.526   5.418
 1423TIP3    H1 4226   1.127   2.572   5.337
 1423TIP3    H2 4227   1.134   2.592   5.486
 1424TIP3   OH2 4228   4.701   1.420   4.942
 1424TIP3    H1 4229   4.657   1.455   5.020
 1424TIP3    H2 4230   4.714   1.327   4.961
 1425TIP3   OH2 4231   5.367   5.952   0.535
 1425TIP3    H1 4232   5.412   5.966   0.451
 1425TIP3    H2 4233   5.386   6.030   0.586
 1426TIP3   OH2 4234   8.270   3.890   2.139
 1426TIP3    H1 4235   8.250   3.980   2.112
 1426TIP3    H2 4236   8.270   3.840   2.057
 1427TIP3   OH2 4237   3.829   6.079   6.520
 1427TIP3    H1 4238   3.871   6.004   6.477
 1427TIP3    H2 4239   3.892   6.109   6.585
 1428TIP3   OH2 4240   6.197   6.538   1.733
 1428TIP3    H1 4241   6.148   6.456   1.737
 1428TIP3    H2 4242   6.151   6.596   1.793
 1429TIP3   OH2 4243   1.607   7.084   1.705
 1429TIP3    H1 4244   1.601   6.992   1.732
 1429TIP3    H2 4245   1.521   7.104   1.668
 1430TIP3   OH2 4246   6.844   7.879   5.559
 1430TIP3    H1 4247   6.858   7.805   5.618
 1430TIP3    H2 4248   6.904   7.863   5.486
 1431TIP3   OH2 4249   0.437   3.817   2.384
 1431TIP3    H1 4250   0.344   3.810   2.408
 1431TIP3    H2 4251   0.475   3.871   2.453
 1432TIP3   OH2 4252   0.338   2.138   4.304
 1432TIP3    H1 4253   0.324   2.138   4.209
 1432TIP3    H2 4254   0.345   2.045   4.327
 1433TIP3   OH2 4255   6.569   5.692   0.554
 1433TIP3    H1 4256   6.573   5.754   0.482
 1433TIP3    H2 4257   6.660   5.682   0.582
 1434TIP3   OH2 4258   1.811   1.977   3.096
 1434TIP3    H1 4259   1.759   1.902   3.067
 1434TIP3    H2 4260   1.852   2.010   3.016
 1435TIP3   OH2 4261   4.003   6.918   6.706
 1435TIP3    H1 4262   3.963   6.924   6.619
 1435TIP3    H2 4263   4.012   6.824   6.721
 1436TIP3   OH2 4264   7.291   4.294   5.352
 1436TIP3    H1 4265   7.198   4.285   5.331
 1436TIP3    H2 4266   7.314   4.211   5.395
 1437TIP3   OH2 4267   4.053   5.875   2.422
 1437TIP3    H1 4268   4.133   5.830   2.396
 1437TIP3    H2 4269   4.078   5.926   2.499
 1438TIP3   OH2 4270   4.397   2.053   5.514
 1438TIP3    H1 4271   4.456   1.985   5.546
 1438TIP3    H2 4272   4.385   2.112   5.589
 1439TIP3   OH2 4273   4.534   2.734   3.588
 1439TIP3    H1 4274   4.504   2.696   3.671
 1439TIP3    H2 4275   4.509   2.826   3.593
 1440TIP3   OH2 4276   4.900   0.210   4.913
 1440TIP3    H1 4277   4.858   0.168   4.838
 1440TIP3    H2 4278   4.959   0.274   4.873
 1441TIP3   OH2 4279   8.263   5.612   5.451
 1441TIP3    H1 4280   8.304   5.638   5.368
 1441TIP3    H2 4281   8.199   5.545   5.426
 1442TIP3   OH2 4282   5.709   4.369   3.833
 1442TIP3    H1 4283   5.668   4.449   3.866
 1442TIP3    H2 4284   5.736   4.321   3.912
 1443TIP3   OH2 4285   2.823   5.854   6.092
 1443TIP3    H1 4286   2.745   5.906   6.109
 1443TIP3    H2 4287   2.811   5.823   6.002
 1444TIP3   OH2 4288   7.317   6.595   1.941
 1444TIP3    H1 4289   7.329   6.688   1.922
 1444TIP3    H2 4290   7.406   6.562   1.960
 1445TIP3   OH2 4291   8.127   1.959   5.017
 1445TIP3    H1 4292   8.077   2.012   4.954
 1445TIP3    H2 4293   8.062   1.928   5.080
 1446TIP3   OH2 4294   5.719   1.155   3.880
 1446TIP3    H1 4295   5.650   1.094   3.906
 1446TIP3    H2 4296   5.673   1.223   3.831
 1447TIP3   OH2 4297   6.409   5.330   2.514
 1447TIP3    H1 4298   6.359   5.325   2.596
 1447TIP3    H2 4299   6.497   5.302   2.538
 1448TIP3   OH2 4300   7.104   6.821   5.207
 1448TIP3    H1 4301   7.111   6.859   5.295
 1448TIP3    H2 4302   7.032   6.869   5.166
 1449TIP3   OH2 4303   4.700   2.066   4.483
 1449TIP3    H1 4304   4.778   2.123   4.480
 1449TIP3    H2 4305   4.731   1.982   4.449
 1450TIP3   OH2 4306   5.965   3.622   4.207
 1450TIP3    H1 4307   5.960   3.710   4.245
 1450TIP3    H2 4308   5.879   3.584   4.223
 1451TIP3   OH2 4309   2.112   2.643   6.191
 1451TIP3    H1 4310   2.037   2.698   6.214
 1451TIP3    H2 4311   2.096   2.560   6.236
 1452TIP3   OH2 4312   4.457   6.697   3.613
 1452TIP3    H1 4313   4.455   6.720   3.706
 1452TIP3    H2 4314   4.548   6.708   3.587
 1453TIP3   OH2 4315   3.852   4.290   3.265
 1453TIP3    H1 4316   3.881   4.355   3.328
 1453TIP3    H2 4317   3.764   4.265   3.294
 1454TIP3   OH2 4318   0.712   2.048   2.981
 1454TIP3    H1 4319   0.687   2.128   2.935
 1454TIP3    H2 4320   0.636   1.990   2.972
 1455TIP3   OH2 4321   6.120   3.315   5.616
 1455TIP3    H1 4322   6.173   3.387   5.581
 1455TIP3    H2 4323   6.185   3.252   5.648
 1456TIP3   OH2 4324   5.041   0.072   2.488
 1456TIP3    H1 4325   5.030  -0.013   2.529
 1456TIP3    H2 4326   4.964   0.082   2.432
 1457TIP3   OH2 4327   3.696   0.227   5.960
 1457TIP3    H1 4328   3.779   0.211   5.916
 1457TIP3    H2 4329   3.641   0.269   5.894
 1458TIP3   OH2 4330   7.255   1.576   1.610
 1458TIP3    H1 4331   7.255   1.672   1.620
 1458TIP3    H2 4332   7.163   1.552   1.607
 1459TIP3   OH2 4333   7.781   7.805   1.318
 1459TIP3    H1 4334   7.819   7.803   1.230
 1459TIP3    H2 4335   7.689   7.826   1.304
 1460TIP3   OH2 4336   4.459   3.956   2.546
 1460TIP3    H1 4337   4.448   4.043   2.584
 1460TIP3    H2 4338   4.373   3.915   2.556
 1461TIP3   OH2 4339   4.349   5.561   4.115
 1461TIP3    H1 4340   4.398   5.526   4.189
 1461TIP3    H2 4341   4.258   5.561   4.145
 1462TIP3   OH2 4342   1.344   5.634   3.258
 1462TIP3    H1 4343   1.400   5.564   3.292
 1462TIP3    H2 4344   1.323   5.607   3.168
 1463TIP3   OH2 4345   0.062   4.902   2.653
 1463TIP3    H1 4346   0.005   4.939   2.720
 1463TIP3    H2 4347   0.052   4.961   2.578
 1464TIP3   OH2 4348   3.446   4.000   5.634
 1464TIP3    H1 4349   3.513   4.033   5.575
 1464TIP3    H2 4350   3.384   3.955   5.577
 1465TIP3   OH2 4351   3.574   1.366   2.252
 1465TIP3    H1 4352   3.508   1.370   2.322
 1465TIP3    H2 4353   3.650   1.411   2.289
 1466TIP3   OH2 4354   6.835   0.501   1.661
 1466TIP3    H1 4355   6.862   0.411   1.646
 1466TIP3    H2 4356   6.916   0.546   1.686
 1467TIP3   OH2 4357   6.515   4.688   2.812
 1467TIP3    H1 4358   6.546   4.668   2.900
 1467TIP3    H2 4359   6.490   4.604   2.775
 1468TIP3   OH2 4360   7.290   6.427   3.334
 1468TIP3    H1 4361   7.306   6.344   3.289
 1468TIP3    H2 4362   7.205   6.456   3.300
 1469TIP3   OH2 4363   1.560   1.373   4.688
 1469TIP3    H1 4364   1.550   1.323   4.769
 1469TIP3    H2 4365   1.622   1.321   4.636
 1470TIP3   OH2 4366   5.637   1.105   5.531
 1470TIP3    H1 4367   5.589   1.137   5.455
 1470TIP3    H2 4368   5.665   1.184   5.578
 1471TIP3   OH2 4369   7.147   7.232   5.183
 1471TIP3    H1 4370   7.060   7.226   5.142
 1471TIP3    H2 4371   7.208   7.227   5.109
 1472TIP3   OH2 4372   2.348   2.946   3.700
 1472TIP3    H1 4373   2.321   3.036   3.715
 1472TIP3    H2 4374   2.301   2.895   3.766
 1473TIP3   OH2 4375   1.190   7.616   6.224
 1473TIP3    H1 4376   1.207   7.542   6.282
 1473TIP3    H2 4377   1.199   7.693   6.280
 1474TIP3   OH2 4378   3.013   5.801   6.594
 1474TIP3    H1 4379   3.046   5.715   6.618
 1474TIP3    H2 4380   3.080   5.837   6.536
 1475TIP3   OH2 4381   2.655   5.276   1.419
 1475TIP3    H1 4382   2.731   5.276   1.361
 1475TIP3    H2 4383   2.602   5.201   1.389
 1476TIP3   OH2 4384   8.141   6.308   2.533
 1476TIP3    H1 4385   8.083   6.374   2.570
 1476TIP3    H2 4386   8.100   6.282   2.451
 1477TIP3   OH2 4387   0.666   3.375   1.499
 1477TIP3    H1 4388   0.659   3.373   1.594
 1477TIP3    H2 4389   0.589   3.328   1.467
 1478TIP3   OH2 4390   4.553   7.585   2.049
 1478TIP3    H1 4391   4.613   7.515   2.075
 1478TIP3    H2 4392   4.527   7.626   2.131
 1479TIP3   OH2 4393   0.818   3.243   1.016
 1479TIP3    H1 4394   0.865   3.225   1.098
 1479TIP3    H2 4395   0.884   3.280   0.958
 1480TIP3   OH2 4396   5.496   3.829   5.128
 1480TIP3    H1 4397   5.581   3.802   5.093
 1480TIP3    H2 4398   5.484   3.918   5.095
 1481TIP3   OH2 4399   4.133   6.173   1.890
 1481TIP3    H1 4400   4.109   6.130   1.972
 1481TIP3    H2 4401   4.215   6.130   1.864
 1482TIP3   OH2 4402   7.246   1.012   6.135
 1482TIP3    H1 4403   7.255   1.107   6.138
 1482TIP3    H2 4404   7.180   0.997   6.066
 1483TIP3   OH2 4405   5.301   1.185   0.411
 1483TIP3    H1 4406   5.379   1.229   0.447
 1483TIP3    H2 4407   5.275   1.241   0.337
 1484TIP3   OH2 4408   7.680   4.785   1.205
 1484TIP3    H1 4409   7.660   4.782   1.299
 1484TIP3    H2 4410   7.666   4.696   1.175
 1485TIP3   OH2 4411   1.174   4.460   0.961
 1485TIP3    H1 4412   1.086   4.423   0.962
 1485TIP3    H2 4413   1.196   4.469   0.868
 1486TIP3   OH2 4414   7.400   1.316   3.322
 1486TIP3    H1 4415   7.401   1.367   3.241
 1486TIP3    H2 4416   7.351   1.371   3.384
 1487TIP3   OH2 4417   4.192   6.361   5.971
 1487TIP3    H1 4418   4.256   6.432   5.960
 1487TIP3    H2 4419   4.242   6.282   5.948
 1488TIP3   OH2 4420   1.174   4.285   4.498
 1488TIP3    H1 4421   1.263   4.302   4.530
 1488TIP3    H2 4422   1.124   4.264   4.577
 1489TIP3   OH2 4423   1.597   1.189   1.570
 1489TIP3    H1 4424   1.514   1.221   1.604
 1489TIP3    H2 4425   1.658   1.195   1.644
 1490TIP3   OH2 4426   7.387   6.088   5.915
 1490TIP3    H1 4427   7.405   6.103   6.008
 1490TIP3    H2 4428   7.390   5.993   5.905
 1491TIP3   OH2 4429   3.517   3.522   0.990
 1491TIP3    H1 4430   3.535   3.604   0.944
 1491TIP3    H2 4431   3.431   3.536   1.029
 1492TIP3   OH2 4432   3.292   0.511   0.166
 1492TIP3    H1 4433   3.373   0.520   0.216
 1492TIP3    H2 4434   3.302   0.574   0.094
 1493TIP3   OH2 4435   1.808   4.560   3.209
 1493TIP3    H1 4436   1.900   4.578   3.187
 1493TIP3    H2 4437   1.761   4.638   3.179
 1494TIP3   OH2 4438   7.266   5.697   2.705
 1494TIP3    H1 4439   7.221   5.630   2.653
 1494TIP3    H2 4440   7.264   5.663   2.795
 1495TIP3   OH2 4441   5.632   2.484   5.056
 1495TIP3    H1 4442   5.648   2.567   5.102
 1495TIP3    H2 4443   5.577   2.434   5.117
 1496TIP3   OH2 4444   5.878   7.170   2.058
 1496TIP3    H1 4445   5.800   7.114   2.067
 1496TIP3    H2 4446   5.941   7.132   2.119
 1497TIP3   OH2 4447   1.132   0.453   2.612
 1497TIP3    H1 4448   1.192   0.493   2.675
 1497TIP3    H2 4449   1.045   0.477   2.643
 1498TIP3   OH2 4450   0.983   6.371   3.847
 1498TIP3    H1 4451   0.984   6.299   3.910
 1498TIP3    H2 4452   0.912   6.349   3.787
 1499TIP3   OH2 4453   6.608   2.365   1.754
 1499TIP3    H1 4454   6.702   2.351   1.740
 1499TIP3    H2 4455   6.565   2.321   1.681
 1500TIP3   OH2 4456   2.962   7.176   4.660
 1500TIP3    H1 4457   2.956   7.082   4.674
 1500TIP3    H2 4458   3.012   7.208   4.735
 1501TIP3   OH2 4459   1.251   0.754   3.749
 1501TIP3    H1 4460   1.257   0.717   3.837
 1501TIP3    H2 4461   1.341   0.752   3.716
 1502TIP3   OH2 4462   2.054   7.355   5.669
 1502TIP3    H1 4463   1.978   7.374   5.614
 1502TIP3    H2 4464   2.129   7.383   5.616
 1503TIP3   OH2 4465   0.100   3.603   3.684
 1503TIP3    H1 4466   0.143   3.664   3.744
 1503TIP3    H2 4467   0.074   3.529   3.740
 1504TIP3   OH2 4468   0.108   1.360   0.243
 1504TIP3    H1 4469   0.047   1.393   0.309
 1504TIP3    H2 4470   0.066   1.380   0.160
 1505TIP3   OH2 4471   4.302   7.573   2.779
 1505TIP3    H1 4472   4.241   7.643   2.802
 1505TIP3    H2 4473   4.360   7.614   2.715
 1506TIP3   OH2 4474   0.878   3.073   6.539
 1506TIP3    H1 4475   0.816   3.102   6.605
 1506TIP3    H2 4476   0.965   3.090   6.577
 1507TIP3   OH2 4477   5.160   7.335   2.966
 1507TIP3    H1 4478   5.152   7.350   2.872
 1507TIP3    H2 4479   5.074   7.357   3.002
 1508TIP3   OH2 4480   1.278   0.505   5.992
 1508TIP3    H1 4481   1.210   0.490   6.057
 1508TIP3    H2 4482   1.316   0.419   5.976
 1509TIP3   OH2 4483   3.545   4.014   3.591
 1509TIP3    H1 4484   3.523   3.923   3.611
 1509TIP3    H2 4485   3.522   4.062   3.671
 1510TIP3   OH2 4486   7.761   7.670   2.719
 1510TIP3    H1 4487   7.707   7.704   2.648
 1510TIP3    H2 4488   7.744   7.729   2.792
 1511TIP3   OH2 4489   8.309   5.374   2.636
 1511TIP3    H1 4490   8.261   5.292   2.626
 1511TIP3    H2 4491   8.254   5.439   2.593
 1512TIP3   OH2 4492   5.685   0.814   2.006
 1512TIP3    H1 4493   5.775   0.830   2.032
 1512TIP3    H2 4494   5.691   0.788   1.914
 1513TIP3   OH2 4495   2.569   4.474   0.465
 1513TIP3    H1 4496   2.637   4.499   0.528
 1513TIP3    H2 4497   2.491   4.458   0.518
 1514TIP3   OH2 4498   4.100   1.026   4.560
 1514TIP3    H1 4499   4.053   1.054   4.639
 1514TIP3    H2 4500   4.183   1.073   4.565
 1515TIP3   OH2 4501   3.449   5.542   4.012
 1515TIP3    H1 4502   3.392   5.610   4.047
 1515TIP3    H2 4503   3.449   5.556   3.917
 1516TIP3   OH2 4504   6.495   5.702   4.877
 1516TIP3    H1 4505   6.501   5.621   4.827
 1516TIP3    H2 4506   6.584   5.737   4.875
 1517TIP3   OH2 4507   0.523   2.509   3.049
 1517TIP3    H1 4508   0.616   2.488   3.041
 1517TIP3    H2 4509   0.511   2.530   3.141
 1518TIP3   OH2 4510   0.022   6.112   6.066
 1518TIP3    H1 4511   0.058   6.066   5.990
 1518TIP3    H2 4512   0.006   6.201   6.034
 1519TIP3   OH2 4513   8.005   0.018   3.871
 1519TIP3    H1 4514   7.962   0.068   3.940
 1519TIP3    H2 4515   8.087  -0.013   3.912
 1520TIP3   OH2 4516   2.767   3.288   0.583
 1520TIP3    H1 4517   2.823   3.229   0.631
 1520TIP3    H2 4518   2.811   3.373   0.588
 1521TIP3   OH2 4519   1.901   1.033   0.651
 1521TIP3    H1 4520   1.969   1.087   0.610
 1521TIP3    H2 4521   1.840   1.097   0.688
 1522TIP3   OH2 4522   5.529   1.394   0.417
 1522TIP3    H1 4523   5.559   1.319   0.366
 1522TIP3    H2 4524   5.598   1.410   0.480
 1523TIP3   OH2 4525   8.278   4.731   3.042
 1523TIP3    H1 4526   8.310   4.656   3.093
 1523TIP3    H2 4527   8.266   4.800   3.106
 1524TIP3   OH2 4528   4.374   5.842   1.924
 1524TIP3    H1 4529   4.401   5.848   2.016
 1524TIP3    H2 4530   4.299   5.783   1.925
 1525TIP3   OH2 4531   1.646   5.191   1.705
 1525TIP3    H1 4532   1.585   5.249   1.751
 1525TIP3    H2 4533   1.683   5.136   1.774
 1526TIP3   OH2 4534   6.482   6.486   0.120
 1526TIP3    H1 4535   6.545   6.420   0.090
 1526TIP3    H2 4536   6.451   6.527   0.039
 1527TIP3   OH2 4537   4.374   7.008   1.902
 1527TIP3    H1 4538   4.394   7.101   1.893
 1527TIP3    H2 4539   4.330   6.985   1.820
 1528TIP3   OH2 4540   3.177   0.046   2.447
 1528TIP3    H1 4541   3.222   0.042   2.531
 1528TIP3    H2 4542   3.159   0.139   2.434
 1529TIP3   OH2 4543   0.898   0.176   4.117
 1529TIP3    H1 4544   0.902   0.117   4.042
 1529TIP3    H2 4545   0.861   0.123   4.188
 1530TIP3   OH2 4546   0.643   0.767   5.704
 1530TIP3    H1 4547   0.645   0.680   5.663
 1530TIP3    H2 4548   0.550   0.791   5.704
 1531TIP3   OH2 4549   5.229   3.020   1.594
 1531TIP3    H1 4550   5.152   2.993   1.545
 1531TIP3    H2 4551   5.274   2.938   1.616
 1532TIP3   OH2 4552   2.350   3.486   1.884
 1532TIP3    H1 4553   2.323   3.400   1.852
 1532TIP3    H2 4554   2.272   3.522   1.925
 1533TIP3   OH2 4555   5.508   6.181   0.502
 1533TIP3    H1 4556   5.566   6.246   0.541
 1533TIP3    H2 4557   5.553   6.097   0.515
 1534TIP3   OH2 4558   0.923   3.504   3.802
 1534TIP3    H1 4559   0.999   3.544   3.844
 1534TIP3    H2 4560   0.959   3.449   3.732
 1535TIP3   OH2 4561   6.700   6.364   5.821
 1535TIP3    H1 4562   6.740   6.433   5.769
 1535TIP3    H2 4563   6.698   6.288   5.763
 1536TIP3   OH2 4564   3.887   1.661   0.526
 1536TIP3    H1 4565   3.841   1.733   0.483
 1536TIP3    H2 4566   3.932   1.616   0.455
 1537TIP3   OH2 4567   7.401   1.932   5.112
 1537TIP3    H1 4568   7.428   1.947   5.021
 1537TIP3    H2 4569   7.398   2.020   5.151
 1538TIP3   OH2 4570   1.617   4.197   1.127
 1538TIP3    H1 4571   1.658   4.171   1.209
 1538TIP3    H2 4572   1.584   4.286   1.143
 1539TIP3   OH2 4573   5.251   7.000   3.507
 1539TIP3    H1 4574   5.238   7.002   3.602
 1539TIP3    H2 4575   5.180   6.944   3.475
 1540TIP3   OH2 4576   7.051   1.027   2.892
 1540TIP3    H1 4577   7.017   1.057   2.808
 1540TIP3    H2 4578   7.146   1.034   2.883
 1541TIP3   OH2 4579   2.238   6.637   6.452
 1541TIP3    H1 4580   2.295   6.660   6.379
 1541TIP3    H2 4581   2.259   6.545   6.471
 1542TIP3   OH2 4582   2.202   0.545   1.858
 1542TIP3    H1 4583   2.233   0.541   1.948
 1542TIP3    H2 4584   2.106   0.543   1.866
 1543TIP3   OH2 4585   3.785   3.316   0.907
 1543TIP3    H1 4586   3.806   3.266   0.986
 1543TIP3    H2 4587   3.706   3.364   0.929
 1544TIP3   OH2 4588   5.309   5.679   0.561
 1544TIP3    H1 4589   5.235   5.672   0.501
 1544TIP3    H2 4590   5.336   5.770   0.556
 1545TIP3   OH2 4591   6.028   7.059   3.543
 1545TIP3    H1 4592   6.008   7.080   3.452
 1545TIP3    H2 4593   5.949   7.018   3.577
 1546TIP3   OH2 4594   3.953   3.291   6.304
 1546TIP3    H1 4595   3.913   3.244   6.376
 1546TIP3    H2 4596   3.888   3.358   6.280
 1547TIP3   OH2 4597   6.182   7.187   0.665
 1547TIP3    H1 4598   6.251   7.123   0.653
 1547TIP3    H2 4599   6.149   7.170   0.754
 1548TIP3   OH2 4600   6.944   2.033   5.523
 1548TIP3    H1 4601   6.860   2.079   5.522
 1548TIP3    H2 4602   6.934   1.962   5.459
 1549TIP3   OH2 4603   5.290   6.700   3.659
 1549TIP3    H1 4604   5.234   6.656   3.595
 1549TIP3    H2 4605   5.378   6.669   3.639
 1550TIP3   OH2 4606   6.756   3.612   0.587
 1550TIP3    H1 4607   6.844   3.650   0.592
 1550TIP3    H2 4608   6.725   3.633   0.499
 1551TIP3   OH2 4609   6.720   2.824   5.749
 1551TIP3    H1 4610   6.736   2.729   5.746
 1551TIP3    H2 4611   6.630   2.832   5.778
 1552TIP3   OH2 4612   7.912   3.574   5.939
 1552TIP3    H1 4613   7.927   3.661   5.978
 1552TIP3    H2 4614   7.997   3.531   5.944
 1553TIP3   OH2 4615   3.054   6.094   3.096
 1553TIP3    H1 4616   2.997   6.167   3.120
 1553TIP3    H2 4617   3.090   6.119   3.011
 1554TIP3   OH2 4618   7.983   5.045   5.500
 1554TIP3    H1 4619   7.943   5.097   5.430
 1554TIP3    H2 4620   8.025   5.110   5.556
 1555TIP3   OH2 4621   7.451   5.389   4.653
 1555TIP3    H1 4622   7.378   5.348   4.699
 1555TIP3    H2 4623   7.453   5.344   4.568
 1556TIP3   OH2 4624   6.719   1.080   2.840
 1556TIP3    H1 4625   6.674   1.074   2.756
 1556TIP3    H2 4626   6.793   1.138   2.823
 1557TIP3   OH2 4627   2.309   6.698   3.713
 1557TIP3    H1 4628   2.349   6.783   3.735
 1557TIP3    H2 4629   2.228   6.696   3.764
 1558TIP3   OH2 4630   8.099   7.428   3.729
 1558TIP3    H1 4631   8.009   7.460   3.734
 1558TIP3    H2 4632   8.105   7.360   3.796
 1559TIP3   OH2 4633   2.037   3.495   0.961
 1559TIP3    H1 4634   2.097   3.520   1.031
 1559TIP3    H2 4635   1.981   3.572   0.949
 1560TIP3   OH2 4636   4.185   4.771   4.172
 1560TIP3    H1 4637   4.267   4.723   4.167
 1560TIP3    H2 4638   4.139   4.733   4.247
 1561TIP3   OH2 4639   5.992   4.534   2.837
 1561TIP3    H1 4640   5.993   4.545   2.742
 1561TIP3    H2 4641   5.993   4.439   2.850
 1562TIP3   OH2 4642   6.271   0.321   0.395
 1562TIP3    H1 4643   6.249   0.327   0.488
 1562TIP3    H2 4644   6.317   0.238   0.386
 1563TIP3   OH2 4645   3.199   1.127   0.539
 1563TIP3    H1 4646   3.194   1.114   0.445
 1563TIP3    H2 4647   3.280   1.178   0.551
 1564TIP3   OH2 4648   8.281   2.061   5.400
 1564TIP3    H1 4649   8.339   2.070   5.324
 1564TIP3    H2 4650   8.229   2.141   5.400
 1565TIP3   OH2 4651   2.253   0.573   3.240
 1565TIP3    H1 4652   2.281   0.601   3.153
 1565TIP3    H2 4653   2.313   0.502   3.264
 1566TIP3   OH2 4654   2.182   7.756   1.026
 1566TIP3    H1 4655   2.133   7.687   1.070
 1566TIP3    H2 4656   2.225   7.711   0.953
 1567TIP3   OH2 4657   2.341   1.635   1.574
 1567TIP3    H1 4658   2.296   1.633   1.490
 1567TIP3    H2 4659   2.412   1.698   1.562
 1568TIP3   OH2 4660   0.773   0.047   4.322
 1568TIP3    H1 4661   0.741  -0.037   4.353
 1568TIP3    H2 4662   0.855   0.061   4.370
 1569TIP3   OH2 4663   7.325   2.771   5.507
 1569TIP3    H1 4664   7.381   2.830   5.458
 1569TIP3    H2 4665   7.352   2.781   5.598
 1570TIP3   OH2 4666   4.936   4.424   2.195
 1570TIP3    H1 4667   4.976   4.507   2.220
 1570TIP3    H2 4668   4.918   4.380   2.278
 1571TIP3   OH2 4669   0.049   3.830   5.227
 1571TIP3    H1 4670   0.079   3.777   5.154
 1571TIP3    H2 4671   0.123   3.886   5.249
 1572TIP3   OH2 4672   3.546   7.844   0.353
 1572TIP3    H1 4673   3.625   7.820   0.304
 1572TIP3    H2 4674   3.554   7.795   0.435
 1573TIP3   OH2 4675   0.550   6.851   3.882
 1573TIP3    H1 4676   0.630   6.863   3.933
 1573TIP3    H2 4677   0.542   6.931   3.831
 1574TIP3   OH2 4678   0.319   1.631   4.197
 1574TIP3    H1 4679   0.242   1.577   4.182
 1574TIP3    H2 4680   0.339   1.669   4.112
 1575TIP3   OH2 4681   0.247   5.837   3.512
 1575TIP3    H1 4682   0.334   5.847   3.473
 1575TIP3    H2 4683   0.189   5.820   3.438
 1576TIP3   OH2 4684   7.607   2.473   4.318
 1576TIP3    H1 4685   7.691   2.439   4.291
 1576TIP3    H2 4686   7.543   2.431   4.260
 1577TIP3   OH2 4687   0.992   3.737   6.259
 1577TIP3    H1 4688   0.961   3.807   6.200
 1577TIP3    H2 4689   1.086   3.734   6.245
 1578TIP3   OH2 4690   5.449   4.714   1.512
 1578TIP3    H1 4691   5.493   4.781   1.565
 1578TIP3    H2 4692   5.359   4.746   1.502
 1579TIP3   OH2 4693   0.815   1.891   0.417
 1579TIP3    H1 4694   0.869   1.958   0.375
 1579TIP3    H2 4695   0.784   1.836   0.344
 1580TIP3   OH2 4696   3.917   3.244   3.785
 1580TIP3    H1 4697   3.972   3.167   3.800
 1580TIP3    H2 4698   3.968   3.301   3.728
 1581TIP3   OH2 4699   8.055   4.533   1.342
 1581TIP3    H1 4700   8.103   4.450   1.337
 1581TIP3    H2 4701   7.975   4.512   1.389
 1582TIP3   OH2 4702   3.219   0.423   3.430
 1582TIP3    H1 4703   3.129   0.399   3.407
 1582TIP3    H2 4704   3.256   0.456   3.348
 1583TIP3   OH2 4705   3.030   2.837   4.526
 1583TIP3    H1 4706   3.094   2.867   4.591
 1583TIP3    H2 4707   3.039   2.742   4.526
 1584TIP3   OH2 4708   6.266   6.690   6.657
 1584TIP3    H1 4709   6.203   6.728   6.596
 1584TIP3    H2 4710   6.293   6.608   6.615
 1585TIP3   OH2 4711   2.302   1.264   1.106
 1585TIP3    H1 4712   2.335   1.280   1.195
 1585TIP3    H2 4713   2.238   1.334   1.092
 1586TIP3   OH2 4714   5.816   6.843   6.075
 1586TIP3    H1 4715   5.730   6.884   6.083
 1586TIP3    H2 4716   5.859   6.892   6.005
 1587TIP3   OH2 4717   6.647   3.554   2.587
 1587TIP3    H1 4718   6.730   3.536   2.631
 1587TIP3    H2 4719   6.652   3.646   2.564
 1588TIP3   OH2 4720   4.475   4.722   3.984
 1588TIP3    H1 4721   4.412   4.785   3.950
 1588TIP3    H2 4722   4.498   4.668   3.909
 1589TIP3   OH2 4723   5.125   1.354   1.492
 1589TIP3    H1 4724   5.209   1.380   1.531
 1589TIP3    H2 4725   5.093   1.283   1.548
 1590TIP3   OH2 4726   2.698   3.558   2.822
 1590TIP3    H1 4727   2.668   3.587   2.908
 1590TIP3    H2 4728   2.684   3.633   2.765
 1591TIP3   OH2 4729   4.202   5.358   2.172
 1591TIP3    H1 4730   4.165   5.383   2.087
 1591TIP3    H2 4731   4.160   5.275   2.192
 1592TIP3   OH2 4732   6.679   5.708   0.266
 1592TIP3    H1 4733   6.675   5.797   0.301
 1592TIP3    H2 4734   6.761   5.705   0.217
 1593TIP3   OH2 4735   2.383   7.719   0.147
 1593TIP3    H1 4736   2.306   7.664   0.158
 1593TIP3    H2 4737   2.353   7.791   0.091
 1594TIP3   OH2 4738   5.078   6.305   3.662
 1594TIP3    H1 4739   5.073   6.238   3.594
 1594TIP3    H2 4740   5.167   6.296   3.698
 1595TIP3   OH2 4741   7.934   1.648   5.101
 1595TIP3    H1 4742   7.945   1.653   5.196
 1595TIP3    H2 4743   7.952   1.556   5.079
 1596TIP3   OH2 4744   8.227   2.555   4.272
 1596TIP3    H1 4745   8.284   2.552   4.348
 1596TIP3    H2 4746   8.138   2.557   4.307
 1597TIP3   OH2 4747   1.829   5.468   3.179
 1597TIP3    H1 4748   1.817   5.413   3.256
 1597TIP3    H2 4749   1.799   5.555   3.207
 1598TIP3   OH2 4750   1.374   4.535   1.847
 1598TIP3    H1 4751   1.430   4.610   1.827
 1598TIP3    H2 4752   1.287   4.573   1.859
 1599TIP3   OH2 4753   3.037   1.433   1.199
 1599TIP3    H1 4754   2.963   1.388   1.241
 1599TIP3    H2 4755   3.004   1.456   1.112
 1600TIP3   OH2 4756   0.357   0.730   6.435
 1600TIP3    H1 4757   0.450   0.705   6.439
 1600TIP3    H2 4758   0.315   0.658   6.388
 1601TIP3   OH2 4759   4.125   6.610   4.340
 1601TIP3    H1 4760   4.132   6.526   4.384
 1601TIP3    H2 4761   4.056   6.597   4.274
 1602TIP3   OH2 4762   3.607   1.230   3.721
 1602TIP3    H1 4763   3.642   1.147   3.756
 1602TIP3    H2 4764   3.672   1.258   3.657
 1603TIP3   OH2 4765   1.290   5.376   0.428
 1603TIP3    H1 4766   1.208   5.345   0.391
 1603TIP3    H2 4767   1.271   5.466   0.456
 1604TIP3   OH2 4768   7.753   5.988   3.924
 1604TIP3    H1 4769   7.733   5.991   3.830
 1604TIP3    H2 4770   7.678   6.028   3.966
 1605TIP3   OH2 4771   8.190   5.653   6.630
 1605TIP3    H1 4772   8.216   5.568   6.593
 1605TIP3    H2 4773   8.180   5.710   6.554
 1606TIP3   OH2 4774   2.847   7.696   4.827
 1606TIP3    H1 4775   2.890   7.637   4.890
 1606TIP3    H2 4776   2.763   7.655   4.810
 1607TIP3   OH2 4777   2.932   2.862   1.220
 1607TIP3    H1 4778   2.976   2.783   1.189
 1607TIP3    H2 4779   2.840   2.838   1.226
 1608TIP3   OH2 4780   1.071   2.709   5.229
 1608TIP3    H1 4781   1.141   2.749   5.281
 1608TIP3    H2 4782   0.991   2.736   5.273
 1609TIP3   OH2 4783   2.614   0.816   1.596
 1609TIP3    H1 4784   2.559   0.779   1.527
 1609TIP3    H2 4785   2.681   0.865   1.549
 1610TIP3   OH2 4786   4.200   5.251   2.972
 1610TIP3    H1 4787   4.139   5.236   3.044
 1610TIP3    H2 4788   4.166   5.196   2.901
 1611TIP3   OH2 4789   4.021   4.262   1.792
 1611TIP3    H1 4790   3.992   4.303   1.711
 1611TIP3    H2 4791   4.021   4.168   1.772
 1612TIP3   OH2 4792   3.725   2.519   5.500
 1612TIP3    H1 4793   3.630   2.505   5.506
 1612TIP3    H2 4794   3.747   2.492   5.411
 1613TIP3   OH2 4795   2.440   2.695   4.145
 1613TIP3    H1 4796   2.433   2.613   4.097
 1613TIP3    H2 4797   2.532   2.719   4.138
 1614TIP3   OH2 4798   8.059   4.722   2.348
 1614TIP3    H1 4799   8.024   4.633   2.348
 1614TIP3    H2 4800   7.983   4.778   2.361
 1615TIP3   OH2 4801   3.701   3.884   6.129
 1615TIP3    H1 4802   3.757   3.818   6.088
 1615TIP3    H2 4803   3.762   3.944   6.172
 1616TIP3   OH2 4804   1.654   3.790   3.080
 1616TIP3    H1 4805   1.722   3.767   3.143
 1616TIP3    H2 4806   1.611   3.867   3.117
 1617TIP3   OH2 4807   3.646   4.085   0.692
 1617TIP3    H1 4808   3.575   4.068   0.630
 1617TIP3    H2 4809   3.605   4.133   0.764
 1618TIP3   OH2 4810   2.526   0.344   5.452
 1618TIP3    H1 4811   2.586   0.327   5.525
 1618TIP3    H2 4812   2.554   0.282   5.384
 1619TIP3   OH2 4813   8.181   2.095   0.166
 1619TIP3    H1 4814   8.235   2.119   0.241
 1619TIP3    H2 4815   8.239   2.102   0.091
 1620TIP3   OH2 4816   1.106   0.851   3.193
 1620TIP3    H1 4817   1.061   0.809   3.121
 1620TIP3    H2 4818   1.104   0.787   3.264
 1621TIP3   OH2 4819   6.144   4.751   2.934
 1621TIP3    H1 4820   6.090   4.680   2.899
 1621TIP3    H2 4821   6.191   4.711   3.007
 1622TIP3   OH2 4822   3.109   2.495   0.895
 1622TIP3    H1 4823   3.133   2.425   0.955
 1622TIP3    H2 4824   3.143   2.467   0.810
 1623TIP3   OH2 4825   6.289   0.779   2.935
 1623TIP3    H1 4826   6.218   0.755   2.995
 1623TIP3    H2 4827   6.367   0.779   2.990
 1624TIP3   OH2 4828   6.201   0.111   5.716
 1624TIP3    H1 4829   6.137   0.074   5.654
 1624TIP3    H2 4830   6.162   0.194   5.743
 1625TIP3   OH2 4831   6.896   6.910   6.435
 1625TIP3    H1 4832   6.866   6.991   6.392
 1625TIP3    H2 4833   6.824   6.849   6.423
 1626TIP3   OH2 4834   0.802   0.345   0.972
 1626TIP3    H1 4835   0.847   0.425   0.945
 1626TIP3    H2 4836   0.711   0.372   0.986
 1627TIP3   OH2 4837   7.416   6.813   5.519
 1627TIP3    H1 4838   7.421   6.859   5.435
 1627TIP3    H2 4839   7.423   6.721   5.496
 1628TIP3   OH2 4840   5.199   4.622   1.047
 1628TIP3    H1 4841   5.208   4.630   1.141
 1628TIP3    H2 4842   5.144   4.544   1.035
 1629TIP3   OH2 4843   6.341   2.005   6.720
 1629TIP3    H1 4844   6.307   1.926   6.763
 1629TIP3    H2 4845   6.263   2.054   6.695
 1630TIP3   OH2 4846   7.642   5.244   5.385
 1630TIP3    H1 4847   7.626   5.329   5.343
 1630TIP3    H2 4848   7.621   5.180   5.317
 1631TIP3   OH2 4849   2.239   2.985   2.619
 1631TIP3    H1 4850   2.254   3.003   2.527
 1631TIP3    H2 4851   2.224   3.071   2.658
 1632TIP3   OH2 4852   5.959   5.918   5.745
 1632TIP3    H1 4853   5.980   5.830   5.715
 1632TIP3    H2 4854   6.035   5.947   5.794
 1633TIP3   OH2 4855   7.614   6.009   6.179
 1633TIP3    H1 4856   7.667   6.089   6.184
 1633TIP3    H2 4857   7.586   5.994   6.269
 1634TIP3   OH2 4858   5.223   1.163   2.116
 1634TIP3    H1 4859   5.148   1.137   2.062
 1634TIP3    H2 4860   5.214   1.112   2.196
 1635TIP3   OH2 4861   5.887   1.384   5.026
 1635TIP3    H1 4862   5.882   1.413   4.935
 1635TIP3    H2 4863   5.798   1.361   5.049
 1636TIP3   OH2 4864   2.180   3.662   3.595
 1636TIP3    H1 4865   2.259   3.688   3.642
 1636TIP3    H2 4866   2.127   3.742   3.593
 1637TIP3   OH2 4867   5.835   2.133   3.599
 1637TIP3    H1 4868   5.803   2.168   3.516
 1637TIP3    H2 4869   5.766   2.075   3.629
 1638TIP3   OH2 4870   8.224   0.657   3.473
 1638TIP3    H1 4871   8.299   0.606   3.502
 1638TIP3    H2 4872   8.257   0.747   3.467
 1639TIP3   OH2 4873   3.352   7.720   6.253
 1639TIP3    H1 4874   3.277   7.746   6.306
 1639TIP3    H2 4875   3.389   7.803   6.222
 1640TIP3   OH2 4876   0.189   5.932   5.247
 1640TIP3    H1 4877   0.269   5.977   5.275
 1640TIP3    H2 4878   0.203   5.841   5.272
 1641TIP3   OH2 4879   5.324   4.244   4.395
 1641TIP3    H1 4880   5.390   4.307   4.425
 1641TIP3    H2 4881   5.309   4.266   4.303
 1642TIP3   OH2 4882   0.761   0.251   3.651
 1642TIP3    H1 4883   0.741   0.187   3.582
 1642TIP3    H2 4884   0.725   0.333   3.618
 1643TIP3   OH2 4885   8.143   0.849   5.300
 1643TIP3    H1 4886   8.179   0.825   5.385
 1643TIP3    H2 4887   8.212   0.825   5.238
 1644TIP3   OH2 4888   2.724   1.390   2.432
 1644TIP3    H1 4889   2.739   1.469   2.380
 1644TIP3    H2 4890   2.656   1.342   2.384
 1645TIP3   OH2 4891   7.577   6.238   0.264
 1645TIP3    H1 4892   7.574   6.155   0.311
 1645TIP3    H2 4893   7.486   6.265   0.256
 1646TIP3   OH2 4894   1.052   6.800   2.712
 1646TIP3    H1 4895   0.979   6.858   2.688
 1646TIP3    H2 4896   1.113   6.857   2.758
 1647TIP3   OH2 4897   7.357   1.874   1.079
 1647TIP3    H1 4898   7.358   1.780   1.099
 1647TIP3    H2 4899   7.445   1.904   1.101
 1648TIP3   OH2 4900   1.084   1.902   6.222
 1648TIP3    H1 4901   1.156   1.965   6.215
 1648TIP3    H2 4902   1.103   1.836   6.155
 1649TIP3   OH2 4903   3.119   3.848   5.092
 1649TIP3    H1 4904   3.186   3.807   5.145
 1649TIP3    H2 4905   3.113   3.938   5.125
 1650TIP3   OH2 4906   4.177   4.471   5.264
 1650TIP3    H1 4907   4.248   4.428   5.216
 1650TIP3    H2 4908   4.213   4.556   5.288
 1651TIP3   OH2 4909   4.263   4.143   1.326
 1651TIP3    H1 4910   4.214   4.065   1.352
 1651TIP3    H2 4911   4.326   4.112   1.261
 1652TIP3   OH2 4912   5.283   6.219   2.441
 1652TIP3    H1 4913   5.252   6.264   2.520
 1652TIP3    H2 4914   5.368   6.259   2.422
 1653TIP3   OH2 4915   6.508   4.143   3.394
 1653TIP3    H1 4916   6.538   4.062   3.353
 1653TIP3    H2 4917   6.421   4.158   3.356
 1654TIP3   OH2 4918   0.545   1.909   4.574
 1654TIP3    H1 4919   0.514   1.853   4.646
 1654TIP3    H2 4920   0.580   1.986   4.617
 1655TIP3   OH2 4921   1.887   7.141   6.033
 1655TIP3    H1 4922   1.833   7.096   5.969
 1655TIP3    H2 4923   1.866   7.098   6.116
 1656TIP3   OH2 4924   2.769   5.595   4.833
 1656TIP3    H1 4925   2.750   5.645   4.913
 1656TIP3    H2 4926   2.759   5.659   4.762
 1657TIP3   OH2 4927   6.243   6.528   4.583
 1657TIP3    H1 4928   6.325   6.483   4.602
 1657TIP3    H2 4929   6.175   6.465   4.605
 1658TIP3   OH2 4930   1.161   7.151   3.606
 1658TIP3    H1 4931   1.212   7.232   3.615
 1658TIP3    H2 4932   1.101   7.152   3.680
 1659TIP3   OH2 4933   6.033   5.914   3.250
 1659TIP3    H1 4934   6.070   5.828   3.230
 1659TIP3    H2 4935   5.949   5.894   3.292
 1660TIP3   OH2 4936   6.813   1.462   5.253
 1660TIP3    H1 4937   6.771   1.411   5.184
 1660TIP3    H2 4938   6.748   1.463   5.324
 1661TIP3   OH2 4939   2.364   5.706   2.943
 1661TIP3    H1 4940   2.398   5.715   3.031
 1661TIP3    H2 4941   2.298   5.637   2.949
 1662TIP3   OH2 4942   2.283   1.888   6.273
 1662TIP3    H1 4943   2.348   1.886   6.202
 1662TIP3    H2 4944   2.309   1.963   6.326
 1663TIP3   OH2 4945   5.302   1.194   1.294
 1663TIP3    H1 4946   5.227   1.226   1.344
 1663TIP3    H2 4947   5.270   1.115   1.251
 1664TIP3   OH2 4948   8.277   1.171   2.929
 1664TIP3    H1 4949   8.318   1.085   2.927
 1664TIP3    H2 4950   8.193   1.160   2.886
 1665TIP3   OH2 4951   1.069   4.681   4.444
 1665TIP3    H1 4952   1.162   4.706   4.439
 1665TIP3    H2 4953   1.031   4.742   4.507
 1666TIP3   OH2 4954   5.815   2.874   6.201
 1666TIP3    H1 4955   5.787   2.794   6.157
 1666TIP3    H2 4956   5.854   2.844   6.283
 1667TIP3   OH2 4957   1.921   0.598   1.917
 1667TIP3    H1 4958   1.885   0.648   1.843
 1667TIP3    H2 4959   1.846   0.550   1.951
 1668TIP3   OH2 4960   7.350   4.727   4.965
 1668TIP3    H1 4961   7.310   4.764   5.044
 1668TIP3    H2 4962   7.374   4.638   4.991
 1669TIP3   OH2 4963   8.198   5.640   5.943
 1669TIP3    H1 4964   8.280   5.649   5.894
 1669TIP3    H2 4965   8.133   5.682   5.888
 1670TIP3   OH2 4966   4.897   2.088   1.884
 1670TIP3    H1 4967   4.814   2.131   1.907
 1670TIP3    H2 4968   4.897   2.086   1.788
 1671TIP3   OH2 4969   6.196   7.623   4.133
 1671TIP3    H1 4970   6.203   7.640   4.039
 1671TIP3    H2 4971   6.129   7.685   4.163
 1672TIP3   OH2 4972   1.943   1.147   0.044
 1672TIP3    H1 4973   1.938   1.055   0.069
 1672TIP3    H2 4974   1.973   1.192   0.123
 1673TIP3   OH2 4975   2.493   5.613   6.711
 1673TIP3    H1 4976   2.582   5.637   6.682
 1673TIP3    H2 4977   2.436   5.648   6.642
 1674TIP3   OH2 4978   6.936   4.928   3.000
 1674TIP3    H1 4979   6.957   4.901   2.910
 1674TIP3    H2 4980   6.857   4.982   2.990
 1675TIP3   OH2 4981   5.624   5.017   3.797
 1675TIP3    H1 4982   5.710   4.983   3.819
 1675TIP3    H2 4983   5.634   5.052   3.708
 1676TIP3   OH2 4984   6.692   0.687   6.426
 1676TIP3    H1 4985   6.665   0.604   6.466
 1676TIP3    H2 4986   6.611   0.725   6.394
 1677TIP3   OH2 4987   4.319   3.750   4.679
 1677TIP3    H1 4988   4.332   3.796   4.762
 1677TIP3    H2 4989   4.400   3.767   4.630
 1678TIP3   OH2 4990   4.470   2.469   5.011
 1678TIP3    H1 4991   4.487   2.474   5.105
 1678TIP3    H2 4992   4.547   2.508   4.970
 1679TIP3   OH2 4993   4.870   7.533   4.006
 1679TIP3    H1 4994   4.913   7.448   4.008
 1679TIP3    H2 4995   4.923   7.587   3.947
 1680TIP3   OH2 4996   1.402   7.105   5.860
 1680TIP3    H1 4997   1.460   7.029   5.850
 1680TIP3    H2 4998   1.393   7.116   5.954
 1681TIP3   OH2 4999   6.881   5.426   5.816
 1681TIP3    H1 5000   6.856   5.518   5.829
 1681TIP3    H2 5001   6.953   5.412   5.877
 1682TIP3   OH2 5002   5.452   0.029   6.089
 1682TIP3    H1 5003   5.431  -0.030   6.162
 1682TIP3    H2 5004   5.367   0.060   6.058
 1683TIP3   OH2 5005   1.758   7.137   5.522
 1683TIP3    H1 5006   1.853   7.136   5.522
 1683TIP3    H2 5007   1.733   7.123   5.431
 1684TIP3   OH2 5008   4.859   4.357   0.554
 1684TIP3    H1 5009   4.923   4.324   0.616
 1684TIP3    H2 5010   4.832   4.442   0.589
 1685TIP3   OH2 5011   3.112   4.074   2.023
 1685TIP3    H1 5012   3.161   4.156   2.016
 1685TIP3    H2 5013   3.026   4.094   1.986
 1686TIP3   OH2 5014   0.078   7.035   0.356
 1686TIP3    H1 5015   0.036   7.075   0.279
 1686TIP3    H2 5016   0.064   6.941   0.344
 1687TIP3   OH2 5017   7.997   4.229   4.971
 1687TIP3    H1 5018   7.905   4.249   4.989
 1687TIP3    H2 5019   8.034   4.207   5.057
 1688TIP3   OH2 5020   4.987   4.403   6.169
 1688TIP3    H1 5021   5.019   4.348   6.241
 1688TIP3    H2 5022   4.923   4.348   6.124
 1689TIP3   OH2 5023   1.115   1.550   5.492
 1689TIP3    H1 5024   1.180   1.511   5.551
 1689TIP3    H2 5025   1.039   1.494   5.499
 1690TIP3   OH2 5026   2.235   3.871   0.579
 1690TIP3    H1 5027   2.144   3.870   0.609
 1690TIP3    H2 5028   2.264   3.961   0.596
 1691TIP3   OH2 5029   5.685   7.316   0.116
 1691TIP3    H1 5030   5.603   7.358   0.090
 1691TIP3    H2 5031   5.682   7.230   0.075
 1692TIP3   OH2 5032   1.550   5.417   3.390
 1692TIP3    H1 5033   1.607   5.341   3.382
 1692TIP3    H2 5034   1.600   5.481   3.441
 1693TIP3   OH2 5035   8.059   4.237   5.514
 1693TIP3    H1 5036   7.984   4.219   5.570
 1693TIP3    H2 5037   8.107   4.154   5.510
 1694TIP3   OH2 5038   1.029   5.536   1.256
 1694TIP3    H1 5039   0.951   5.588   1.238
 1694TIP3    H2 5040   0.995   5.449   1.275
 1695TIP3   OH2 5041   7.478   5.246   2.950
 1695TIP3    H1 5042   7.493   5.340   2.958
 1695TIP3    H2 5043   7.428   5.236   2.869
 1696TIP3   OH2 5044   4.795   7.268   0.032
 1696TIP3    H1 5045   4.850   7.312  -0.033
 1696TIP3    H2 5046   4.799   7.324   0.109
 1697TIP3   OH2 5047   3.765   7.103   3.100
 1697TIP3    H1 5048   3.754   7.171   3.033
 1697TIP3    H2 5049   3.676   7.082   3.128
 1698TIP3   OH2 5050   4.613   0.805   2.764
 1698TIP3    H1 5051   4.616   0.783   2.857
 1698TIP3    H2 5052   4.520   0.812   2.743
 1699TIP3   OH2 5053   2.554   6.117   0.574
 1699TIP3    H1 5054   2.501   6.097   0.497
 1699TIP3    H2 5055   2.490   6.135   0.643
 1700TIP3   OH2 5056   5.948   4.144   3.265
 1700TIP3    H1 5057   5.859   4.151   3.300
 1700TIP3    H2 5058   5.943   4.071   3.203
 1701TIP3   OH2 5059   7.487   3.771   1.652
 1701TIP3    H1 5060   7.438   3.806   1.726
 1701TIP3    H2 5061   7.428   3.782   1.577
 1702TIP3   OH2 5062   2.232   1.066   0.094
 1702TIP3    H1 5063   2.196   1.009   0.026
 1702TIP3    H2 5064   2.161   1.126   0.115
 1703TIP3   OH2 5065   3.974   3.616   0.577
 1703TIP3    H1 5066   4.021   3.586   0.499
 1703TIP3    H2 5067   4.042   3.660   0.630
 1704TIP3   OH2 5068   2.424   3.321   2.595
 1704TIP3    H1 5069   2.378   3.342   2.677
 1704TIP3    H2 5070   2.366   3.352   2.526
 1705TIP3   OH2 5071   7.078   4.356   4.958
 1705TIP3    H1 5072   7.004   4.403   4.919
 1705TIP3    H2 5073   7.057   4.264   4.944
 1706TIP3   OH2 5074   0.237   5.559   2.468
 1706TIP3    H1 5075   0.208   5.525   2.383
 1706TIP3    H2 5076   0.176   5.629   2.489
 1707TIP3   OH2 5077   8.249   6.365   5.163
 1707TIP3    H1 5078   8.266   6.368   5.257
 1707TIP3    H2 5079   8.211   6.279   5.147
 1708TIP3   OH2 5080   3.494   3.571   1.409
 1708TIP3    H1 5081   3.495   3.666   1.419
 1708TIP3    H2 5082   3.493   3.537   1.498
 1709TIP3   OH2 5083   7.909  -0.041   0.652
 1709TIP3    H1 5084   7.923   0.025   0.719
 1709TIP3    H2 5085   7.870   0.006   0.578
 1710TIP3   OH2 5086   5.889   4.900   2.854
 1710TIP3    H1 5087   5.961   4.947   2.896
 1710TIP3    H2 5088   5.915   4.892   2.763
 1711TIP3   OH2 5089   1.615   5.495   0.036
 1711TIP3    H1 5090   1.520   5.491   0.024
 1711TIP3    H2 5091   1.637   5.417   0.087
 1712TIP3   OH2 5092   7.668   4.915   3.504
 1712TIP3    H1 5093   7.673   4.831   3.458
 1712TIP3    H2 5094   7.692   4.979   3.437
 1713TIP3   OH2 5095   4.362   2.066   0.152
 1713TIP3    H1 5096   4.332   2.055   0.061
 1713TIP3    H2 5097   4.292   2.116   0.193
 1714TIP3   OH2 5098   4.257   1.472   4.246
 1714TIP3    H1 5099   4.236   1.487   4.154
 1714TIP3    H2 5100   4.181   1.423   4.280
 1715TIP3   OH2 5101   0.876   3.744   4.200
 1715TIP3    H1 5102   0.799   3.726   4.147
 1715TIP3    H2 5103   0.938   3.785   4.140
 1716TIP3   OH2 5104   5.088   4.492   4.491
 1716TIP3    H1 5105   4.995   4.493   4.470
 1716TIP3    H2 5106   5.132   4.476   4.408
 1717TIP3   OH2 5107   5.113   5.234   6.632
 1717TIP3    H1 5108   5.173   5.305   6.611
 1717TIP3    H2 5109   5.162   5.178   6.692
 1718TIP3   OH2 5110   4.932   5.995   2.736
 1718TIP3    H1 5111   5.023   6.020   2.721
 1718TIP3    H2 5112   4.889   6.008   2.652
 1719TIP3   OH2 5113   2.472   4.954   3.290
 1719TIP3    H1 5114   2.401   4.911   3.243
 1719TIP3    H2 5115   2.433   5.034   3.324
 1720TIP3   OH2 5116   0.260   6.171   0.448
 1720TIP3    H1 5117   0.167   6.192   0.456
 1720TIP3    H2 5118   0.267   6.081   0.478
 1721TIP3   OH2 5119   6.522   5.833   5.218
 1721TIP3    H1 5120   6.586   5.763   5.199
 1721TIP3    H2 5121   6.471   5.799   5.291
 1722TIP3   OH2 5122   0.029   6.801   5.919
 1722TIP3    H1 5123  -0.048   6.769   5.966
 1722TIP3    H2 5124  -0.001   6.879   5.873
 1723TIP3   OH2 5125   3.602   3.494   2.175
 1723TIP3    H1 5126   3.580   3.476   2.267
 1723TIP3    H2 5127   3.685   3.541   2.179
 1724TIP3   OH2 5128   2.757   7.583   3.750
 1724TIP3    H1 5129   2.790   7.493   3.752
 1724TIP3    H2 5130   2.782   7.620   3.835
 1725TIP3   OH2 5131   3.153   2.271   4.324
 1725TIP3    H1 5132   3.190   2.358   4.338
 1725TIP3    H2 5133   3.227   2.217   4.296
 1726TIP3   OH2 5134   5.381   6.831   0.833
 1726TIP3    H1 5135   5.331   6.775   0.893
 1726TIP3    H2 5136   5.471   6.799   0.839
 1727TIP3   OH2 5137   0.147   3.080   0.124
 1727TIP3    H1 5138   0.076   3.131   0.164
 1727TIP3    H2 5139   0.131   3.088   0.030
 1728TIP3   OH2 5140   6.441   5.316   4.930
 1728TIP3    H1 5141   6.434   5.350   4.841
 1728TIP3    H2 5142   6.381   5.241   4.932
 1729TIP3   OH2 5143   3.411   6.664   5.078
 1729TIP3    H1 5144   3.386   6.636   5.166
 1729TIP3    H2 5145   3.385   6.591   5.021
 1730TIP3   OH2 5146   4.857   3.077   0.665
 1730TIP3    H1 5147   4.837   3.156   0.616
 1730TIP3    H2 5148   4.841   3.005   0.604
 1731TIP3   OH2 5149   0.601   3.045   0.156
 1731TIP3    H1 5150   0.614   3.137   0.176
 1731TIP3    H2 5151   0.618   3.038   0.062
 1732TIP3   OH2 5152   5.733   0.684   3.215
 1732TIP3    H1 5153   5.749   0.687   3.121
 1732TIP3    H2 5154   5.813   0.645   3.252
 1733TIP3   OH2 5155   0.854   2.343   0.214
 1733TIP3    H1 5156   0.844   2.332   0.120
 1733TIP3    H2 5157   0.944   2.376   0.225
 1734TIP3   OH2 5158   5.609   7.375   3.937
 1734TIP3    H1 5159   5.666   7.304   3.906
 1734TIP3    H2 5160   5.549   7.333   3.998
 1735TIP3   OH2 5161   0.395   5.993   4.790
 1735TIP3    H1 5162   0.360   6.053   4.856
 1735TIP3    H2 5163   0.442   5.926   4.840
 1736TIP3   OH2 5164   1.387   2.050   1.156
 1736TIP3    H1 5165   1.302   2.051   1.113
 1736TIP3    H2 5166   1.376   2.105   1.234
 1737TIP3   OH2 5167   0.554   3.810   6.336
 1737TIP3    H1 5168   0.637   3.769   6.313
 1737TIP3    H2 5169   0.487   3.748   6.306
 1738TIP3   OH2 5170   6.693   7.623   5.322
 1738TIP3    H1 5171   6.625   7.556   5.315
 1738TIP3    H2 5172   6.661   7.682   5.390
 1739TIP3   OH2 5173   8.181   5.765   3.887
 1739TIP3    H1 5174   8.090   5.777   3.915
 1739TIP3    H2 5175   8.210   5.853   3.863
 1740TIP3   OH2 5176   5.556   0.668   1.155
 1740TIP3    H1 5177   5.489   0.619   1.203
 1740TIP3    H2 5178   5.614   0.601   1.119
 1741TIP3   OH2 5179   5.180   1.113   4.126
 1741TIP3    H1 5180   5.203   1.035   4.175
 1741TIP3    H2 5181   5.092   1.136   4.155
 1742TIP3   OH2 5182   5.274   7.728   5.074
 1742TIP3    H1 5183   5.204   7.756   5.133
 1742TIP3    H2 5184   5.354   7.763   5.113
 1743TIP3   OH2 5185   1.051   3.084   3.702
 1743TIP3    H1 5186   1.018   3.072   3.791
 1743TIP3    H2 5187   1.132   3.034   3.699
 1744TIP3   OH2 5188   6.910   5.733   0.592
 1744TIP3    H1 5189   6.987   5.713   0.645
 1744TIP3    H2 5190   6.942   5.792   0.524
 1745TIP3   OH2 5191   1.237   0.475   5.435
 1745TIP3    H1 5192   1.202   0.564   5.425
 1745TIP3    H2 5193   1.178   0.420   5.383
 1746TIP3   OH2 5194   5.133   5.606   1.132
 1746TIP3    H1 5195   5.104   5.572   1.048
 1746TIP3    H2 5196   5.160   5.696   1.113
 1747TIP3   OH2 5197   6.450   2.065   6.467
 1747TIP3    H1 5198   6.515   2.134   6.479
 1747TIP3    H2 5199   6.421   2.043   6.555
 1748TIP3   OH2 5200   2.183   2.380   4.962
 1748TIP3    H1 5201   2.243   2.405   4.892
 1748TIP3    H2 5202   2.188   2.452   5.025
 1749TIP3   OH2 5203   7.378   2.839   6.566
 1749TIP3    H1 5204   7.401   2.749   6.591
 1749TIP3    H2 5205   7.305   2.829   6.504
 1750TIP3   OH2 5206   4.926   0.954   6.086
 1750TIP3    H1 5207   5.006   0.977   6.133
 1750TIP3    H2 5208   4.949   0.965   5.993
 1751TIP3   OH2 5209   2.897   4.598   4.643
 1751TIP3    H1 5210   2.801   4.598   4.651
 1751TIP3    H2 5211   2.925   4.676   4.689
 1752TIP3   OH2 5212   5.708   7.427   2.232
 1752TIP3    H1 5213   5.632   7.481   2.253
 1752TIP3    H2 5214   5.745   7.467   2.153
 1753TIP3   OH2 5215   5.763   6.781   6.334
 1753TIP3    H1 5216   5.836   6.819   6.383
 1753TIP3    H2 5217   5.780   6.806   6.243
 1754TIP3   OH2 5218   2.850   4.101   6.507
 1754TIP3    H1 5219   2.907   4.168   6.468
 1754TIP3    H2 5220   2.811   4.056   6.432
 1755TIP3   OH2 5221   7.074   3.205   4.392
 1755TIP3    H1 5222   7.070   3.272   4.460
 1755TIP3    H2 5223   7.046   3.251   4.312
 1756TIP3   OH2 5224   5.983   3.719   2.283
 1756TIP3    H1 5225   6.076   3.705   2.301
 1756TIP3    H2 5226   5.981   3.801   2.234
 1757TIP3   OH2 5227   6.114   7.737   2.854
 1757TIP3    H1 5228   6.105   7.830   2.877
 1757TIP3    H2 5229   6.029   7.713   2.817
 1758TIP3   OH2 5230   0.715   1.854   2.506
 1758TIP3    H1 5231   0.745   1.768   2.537
 1758TIP3    H2 5232   0.646   1.879   2.567
 1759TIP3   OH2 5233   8.169   3.183   4.155
 1759TIP3    H1 5234   8.204   3.264   4.193
 1759TIP3    H2 5235   8.075   3.187   4.172
 1760TIP3   OH2 5236   4.762   6.173   0.469
 1760TIP3    H1 5237   4.781   6.123   0.389
 1760TIP3    H2 5238   4.673   6.146   0.492
 1761TIP3   OH2 5239   6.499   1.749   5.878
 1761TIP3    H1 5240   6.575   1.799   5.850
 1761TIP3    H2 5241   6.455   1.725   5.796
 1762TIP3   OH2 5242   5.660   5.687   6.208
 1762TIP3    H1 5243   5.659   5.718   6.117
 1762TIP3    H2 5244   5.669   5.592   6.201
 1763TIP3   OH2 5245   5.516   6.009   2.147
 1763TIP3    H1 5246   5.422   5.995   2.156
 1763TIP3    H2 5247   5.550   6.000   2.236
 1764TIP3   OH2 5248   0.844   2.826   5.685
 1764TIP3    H1 5249   0.786   2.821   5.762
 1764TIP3    H2 5250   0.850   2.920   5.666
 1765TIP3   OH2 5251   7.211   1.748   4.103
 1765TIP3    H1 5252   7.170   1.796   4.031
 1765TIP3    H2 5253   7.269   1.685   4.060
 1766TIP3   OH2 5254   4.585   2.065   0.812
 1766TIP3    H1 5255   4.616   2.058   0.902
 1766TIP3    H2 5256   4.490   2.057   0.819
 1767TIP3   OH2 5257   6.460   2.166   2.782
 1767TIP3    H1 5258   6.420   2.224   2.717
 1767TIP3    H2 5259   6.554   2.179   2.772
 1768TIP3   OH2 5260   2.607   2.905   2.107
 1768TIP3    H1 5261   2.534   2.916   2.168
 1768TIP3    H2 5262   2.582   2.830   2.053
 1769TIP3   OH2 5263   0.910   5.440   6.599
 1769TIP3    H1 5264   0.909   5.398   6.685
 1769TIP3    H2 5265   0.955   5.378   6.542
 1770TIP3   OH2 5266   0.167   1.688   1.788
 1770TIP3    H1 5267   0.243   1.635   1.762
 1770TIP3    H2 5268   0.205   1.761   1.836
 1771TIP3   OH2 5269   5.195   1.509   3.647
 1771TIP3    H1 5270   5.158   1.464   3.572
 1771TIP3    H2 5271   5.165   1.458   3.723
 1772TIP3   OH2 5272   4.886   1.979   1.598
 1772TIP3    H1 5273   4.861   2.001   1.509
 1772TIP3    H2 5274   4.866   1.886   1.606
 1773TIP3   OH2 5275   2.440   6.746   6.247
 1773TIP3    H1 5276   2.433   6.840   6.264
 1773TIP3    H2 5277   2.526   6.722   6.282
 1774TIP3   OH2 5278   1.762   0.778   4.949
 1774TIP3    H1 5279   1.736   0.688   4.971
 1774TIP3    H2 5280   1.747   0.827   5.030
 1775TIP3   OH2 5281   5.116   3.141   1.839
 1775TIP3    H1 5282   5.035   3.091   1.848
 1775TIP3    H2 5283   5.170   3.089   1.780
 1776TIP3   OH2 5284   3.691   1.426   0.528
 1776TIP3    H1 5285   3.646   1.497   0.482
 1776TIP3    H2 5286   3.782   1.453   0.532
 1777TIP3   OH2 5287   1.134   2.924   5.839
 1777TIP3    H1 5288   1.112   2.849   5.895
 1777TIP3    H2 5289   1.092   2.905   5.755
 1778TIP3   OH2 5290   4.216   4.595   2.753
 1778TIP3    H1 5291   4.204   4.576   2.660
 1778TIP3    H2 5292   4.307   4.575   2.771
 1779TIP3   OH2 5293   3.351   7.160   4.248
 1779TIP3    H1 5294   3.403   7.081   4.259
 1779TIP3    H2 5295   3.268   7.141   4.292
 1780TIP3   OH2 5296   8.182   6.661   3.232
 1780TIP3    H1 5297   8.274   6.677   3.211
 1780TIP3    H2 5298   8.134   6.694   3.155
 1781TIP3   OH2 5299   6.626   7.104   3.229
 1781TIP3    H1 5300   6.668   7.064   3.153
 1781TIP3    H2 5301   6.652   7.197   3.224
 1782TIP3   OH2 5302   2.744   4.670   2.485
 1782TIP3    H1 5303   2.711   4.760   2.484
 1782TIP3    H2 5304   2.775   4.655   2.396
 1783TIP3   OH2 5305   4.094   7.684   2.041
 1783TIP3    H1 5306   4.145   7.606   2.065
 1783TIP3    H2 5307   4.009   7.671   2.083
 1784TIP3   OH2 5308   4.187   6.474   2.744
 1784TIP3    H1 5309   4.183   6.379   2.753
 1784TIP3    H2 5310   4.105   6.497   2.699
 1785TIP3   OH2 5311   8.096   7.759   1.427
 1785TIP3    H1 5312   8.004   7.782   1.440
 1785TIP3    H2 5313   8.096   7.698   1.354
 1786TIP3   OH2 5314   4.215   5.210   3.802
 1786TIP3    H1 5315   4.236   5.301   3.820
 1786TIP3    H2 5316   4.121   5.211   3.781
 1787TIP3   OH2 5317   1.898   2.174   3.822
 1787TIP3    H1 5318   1.882   2.131   3.739
 1787TIP3    H2 5319   1.939   2.106   3.877
 1788TIP3   OH2 5320   3.330   4.591   6.472
 1788TIP3    H1 5321   3.263   4.553   6.416
 1788TIP3    H2 5322   3.338   4.531   6.546
 1789TIP3   OH2 5323   6.397   2.987   6.696
 1789TIP3    H1 5324   6.351   2.944   6.769
 1789TIP3    H2 5325   6.343   3.064   6.676
 1790TIP3   OH2 5326   0.226   5.479   0.468
 1790TIP3    H1 5327   0.226   5.537   0.544
 1790TIP3    H2 5328   0.166   5.520   0.406
 1791TIP3   OH2 5329   7.072   6.386   6.690
 1791TIP3    H1 5330   7.043   6.410   6.602
 1791TIP3    H2 5331   7.167   6.380   6.683
 1792TIP3   OH2 5332   2.338   0.691   4.132
 1792TIP3    H1 5333   2.383   0.767   4.096
 1792TIP3    H2 5334   2.252   0.724   4.159
 1793TIP3   OH2 5335   2.624   2.496   1.020
 1793TIP3    H1 5336   2.659   2.499   0.931
 1793TIP3    H2 5337   2.678   2.431   1.065
 1794TIP3   OH2 5338   7.186   6.571   5.283
 1794TIP3    H1 5339   7.153   6.513   5.214
 1794TIP3    H2 5340   7.147   6.656   5.262
 1795TIP3   OH2 5341   2.727   1.087   6.255
 1795TIP3    H1 5342   2.695   1.150   6.319
 1795TIP3    H2 5343   2.674   1.008   6.269
 1796TIP3   OH2 5344   6.877   3.699   0.863
 1796TIP3    H1 5345   6.813   3.761   0.828
 1796TIP3    H2 5346   6.944   3.755   0.904
 1797TIP3   OH2 5347   5.856   7.649   4.209
 1797TIP3    H1 5348   5.886   7.740   4.213
 1797TIP3    H2 5349   5.761   7.655   4.217
 1798TIP3   OH2 5350   5.955   0.954   4.268
 1798TIP3    H1 5351   5.940   0.980   4.177
 1798TIP3    H2 5352   6.048   0.972   4.283
 1799TIP3   OH2 5353   7.167   2.281   2.956
 1799TIP3    H1 5354   7.250   2.234   2.952
 1799TIP3    H2 5355   7.168   2.325   3.041
 1800TIP3   OH2 5356   4.869   2.076   0.958
 1800TIP3    H1 5357   4.950   2.123   0.942
 1800TIP3    H2 5358   4.829   2.122   1.032
 1801TIP3   OH2 5359   2.613   6.010   4.759
 1801TIP3    H1 5360   2.697   6.029   4.801
 1801TIP3    H2 5361   2.587   6.093   4.719
 1802TIP3   OH2 5362   3.569   1.974   3.394
 1802TIP3    H1 5363   3.589   1.950   3.304
 1802TIP3    H2 5364   3.523   1.898   3.429
 1803TIP3   OH2 5365   1.011   1.722   2.973
 1803TIP3    H1 5366   1.095   1.729   3.018
 1803TIP3    H2 5367   0.987   1.812   2.951
 1804TIP3   OH2 5368   0.317   6.897   1.381
 1804TIP3    H1 5369   0.284   6.838   1.313
 1804TIP3    H2 5370   0.343   6.976   1.333
 1805TIP3   OH2 5371   1.232   7.719   0.128
 1805TIP3    H1 5372   1.205   7.767   0.207
 1805TIP3    H2 5373   1.177   7.756   0.058
 1806TIP3   OH2 5374   1.414   1.264   3.048
 1806TIP3    H1 5375   1.376   1.338   3.000
 1806TIP3    H2 5376   1.478   1.227   2.987
 1807TIP3   OH2 5377   5.874   1.320   6.760
 1807TIP3    H1 5378   5.890   1.388   6.694
 1807TIP3    H2 5379   5.790   1.282   6.734
 1808TIP3   OH2 5380   3.372   6.624   2.415
 1808TIP3    H1 5381   3.361   6.535   2.447
 1808TIP3    H2 5382   3.467   6.638   2.413
 1809TIP3   OH2 5383   4.539   1.339   4.712
 1809TIP3    H1 5384   4.588   1.285   4.650
 1809TIP3    H2 5385   4.605   1.372   4.773
 1810TIP3   OH2 5386   3.779   7.420   5.241
 1810TIP3    H1 5387   3.764   7.478   5.167
 1810TIP3    H2 5388   3.836   7.470   5.300
 1811TIP3   OH2 5389   0.747   4.072   3.365
 1811TIP3    H1 5390   0.667   4.065   3.312
 1811TIP3    H2 5391   0.782   4.158   3.344
 1812TIP3   OH2 5392   7.195   4.336   0.937
 1812TIP3    H1 5393   7.195   4.318   1.031
 1812TIP3    H2 5394   7.113   4.297   0.906
 1813TIP3   OH2 5395   4.465   6.848   1.644
 1813TIP3    H1 5396   4.444   6.760   1.675
 1813TIP3    H2 5397   4.497   6.835   1.555
 1814TIP3   OH2 5398   8.123   2.771   3.858
 1814TIP3    H1 5399   8.142   2.764   3.951
 1814TIP3    H2 5400   8.206   2.750   3.815
 1815TIP3   OH2 5401   0.597   0.281   6.525
 1815TIP3    H1 5402   0.589   0.314   6.614
 1815TIP3    H2 5403   0.668   0.332   6.487
 1816TIP3   OH2 5404   3.692   2.809   2.524
 1816TIP3    H1 5405   3.598   2.808   2.542
 1816TIP3    H2 5406   3.714   2.719   2.501
 1817TIP3   OH2 5407   4.836   7.698   2.156
 1817TIP3    H1 5408   4.831   7.624   2.094
 1817TIP3    H2 5409   4.928   7.722   2.157
 1818TIP3   OH2 5410   7.512   1.135   2.550
 1818TIP3    H1 5411   7.449   1.127   2.622
 1818TIP3    H2 5412   7.596   1.110   2.588
 1819TIP3   OH2 5413   6.895   7.384   1.702
 1819TIP3    H1 5414   6.816   7.390   1.755
 1819TIP3    H2 5415   6.903   7.291   1.683
 1820TIP3   OH2 5416   4.858   0.878   5.327
 1820TIP3    H1 5417   4.843   0.851   5.418
 1820TIP3    H2 5418   4.771   0.876   5.287
 1821TIP3   OH2 5419   5.650   3.223   5.519
 1821TIP3    H1 5420   5.610   3.227   5.606
 1821TIP3    H2 5421   5.704   3.302   5.513
 1822TIP3   OH2 5422   0.991   2.154   3.510
 1822TIP3    H1 5423   0.972   2.094   3.582
 1822TIP3    H2 5424   0.945   2.115   3.435
 1823TIP3   OH2 5425   0.553   7.230   4.479
 1823TIP3    H1 5426   0.557   7.159   4.416
 1823TIP3    H2 5427   0.468   7.273   4.463
 1824TIP3   OH2 5428   5.368   6.767   0.068
 1824TIP3    H1 5429   5.313   6.734  -0.004
 1824TIP3    H2 5430   5.409   6.689   0.105
 1825TIP3   OH2 5431   1.189   2.265   0.676
 1825TIP3    H1 5432   1.117   2.268   0.739
 1825TIP3    H2 5433   1.247   2.197   0.709
 1826TIP3   OH2 5434   8.131   1.776   1.950
 1826TIP3    H1 5435   8.086   1.855   1.918
 1826TIP3    H2 5436   8.072   1.705   1.928
 1827TIP3   OH2 5437   6.072   0.641   6.545
 1827TIP3    H1 5438   6.048   0.682   6.462
 1827TIP3    H2 5439   6.081   0.548   6.524
 1828TIP3   OH2 5440   7.789   7.034   4.980
 1828TIP3    H1 5441   7.730   7.078   5.041
 1828TIP3    H2 5442   7.819   6.956   5.027
 1829TIP3   OH2 5443   2.516   5.317   1.639
 1829TIP3    H1 5444   2.461   5.392   1.615
 1829TIP3    H2 5445   2.571   5.302   1.562
 1830TIP3   OH2 5446   7.308   5.717   1.497
 1830TIP3    H1 5447   7.233   5.749   1.547
 1830TIP3    H2 5448   7.294   5.751   1.409
 1831TIP3   OH2 5449   0.986   5.088   4.917
 1831TIP3    H1 5450   0.911   5.032   4.939
 1831TIP3    H2 5451   1.052   5.067   4.983
 1832TIP3   OH2 5452   1.539  -0.016   6.003
 1832TIP3    H1 5453   1.490   0.065   6.018
 1832TIP3    H2 5454   1.616   0.012   5.953
 1833TIP3   OH2 5455   1.910   6.140   2.388
 1833TIP3    H1 5456   1.998   6.172   2.408
 1833TIP3    H2 5457   1.918   6.045   2.384
 1834TIP3   OH2 5458   7.901   5.362   0.270
 1834TIP3    H1 5459   7.817   5.408   0.276
 1834TIP3    H2 5460   7.946   5.383   0.351
 1835TIP3   OH2 5461   1.038   1.973   4.038
 1835TIP3    H1 5462   1.124   1.953   4.075
 1835TIP3    H2 5463   0.983   1.994   4.113
 1836TIP3   OH2 5464   2.641   1.898   5.881
 1836TIP3    H1 5465   2.693   1.891   5.801
 1836TIP3    H2 5466   2.551   1.883   5.852
 1837TIP3   OH2 5467   5.650   4.942   2.742
 1837TIP3    H1 5468   5.675   5.033   2.758
 1837TIP3    H2 5469   5.733   4.893   2.750
 1838TIP3   OH2 5470   7.328   1.528   3.473
 1838TIP3    H1 5471   7.311   1.621   3.458
 1838TIP3    H2 5472   7.333   1.520   3.568
 1839TIP3   OH2 5473   6.658   6.133   2.849
 1839TIP3    H1 5474   6.718   6.207   2.840
 1839TIP3    H2 5475   6.714   6.056   2.838
 1840TIP3   OH2 5476   2.062   0.895   5.332
 1840TIP3    H1 5477   2.044   0.938   5.248
 1840TIP3    H2 5478   2.139   0.940   5.366
 1841TIP3   OH2 5479   3.102   0.581   0.559
 1841TIP3    H1 5480   3.126   0.568   0.651
 1841TIP3    H2 5481   3.019   0.627   0.562
 1842TIP3   OH2 5482   3.587   6.717   5.991
 1842TIP3    H1 5483   3.682   6.714   5.984
 1842TIP3    H2 5484   3.563   6.630   6.024
 1843TIP3   OH2 5485   5.110   5.581   2.182
 1843TIP3    H1 5486   5.192   5.628   2.196
 1843TIP3    H2 5487   5.053   5.612   2.253
 1844TIP3   OH2 5488   0.049   2.774   5.971
 1844TIP3    H1 5489   0.131   2.823   5.972
 1844TIP3    H2 5490   0.074   2.684   5.952
 1845TIP3   OH2 5491   5.842   3.430   5.546
 1845TIP3    H1 5492   5.937   3.433   5.559
 1845TIP3    H2 5493   5.817   3.522   5.531
 1846TIP3   OH2 5494   4.501   4.238   6.047
 1846TIP3    H1 5495   4.590   4.249   6.082
 1846TIP3    H2 5496   4.468   4.327   6.038
 1847TIP3   OH2 5497   7.851   4.797   5.591
 1847TIP3    H1 5498   7.867   4.877   5.543
 1847TIP3    H2 5499   7.756   4.784   5.586
 1848TIP3   OH2 5500   7.368   2.691   4.080
 1848TIP3    H1 5501   7.359   2.648   4.166
 1848TIP3    H2 5502   7.389   2.620   4.020
 1849TIP3   OH2 5503   0.473   3.214   2.905
 1849TIP3    H1 5504   0.468   3.283   2.840
 1849TIP3    H2 5505   0.402   3.154   2.882
 1850TIP3   OH2 5506   4.940   7.424   2.276
 1850TIP3    H1 5507   4.960   7.451   2.186
 1850TIP3    H2 5508   4.848   7.398   2.273
 1851TIP3   OH2 5509   7.051   4.204   5.237
 1851TIP3    H1 5510   7.094   4.123   5.209
 1851TIP3    H2 5511   6.996   4.177   5.311
 1852TIP3   OH2 5512   3.296   1.234   4.661
 1852TIP3    H1 5513   3.218   1.247   4.606
 1852TIP3    H2 5514   3.333   1.151   4.631
 1853TIP3   OH2 5515   5.651   5.279   3.920
 1853TIP3    H1 5516   5.719   5.345   3.907
 1853TIP3    H2 5517   5.658   5.222   3.843
 1854TIP3   OH2 5518   2.189   2.280   1.371
 1854TIP3    H1 5519   2.274   2.263   1.409
 1854TIP3    H2 5520   2.157   2.194   1.343
 1855TIP3   OH2 5521   1.190   7.782   3.610
 1855TIP3    H1 5522   1.215   7.866   3.572
 1855TIP3    H2 5523   1.126   7.803   3.677
 1856TIP3   OH2 5524   6.326   0.047   3.512
 1856TIP3    H1 5525   6.334   0.105   3.587
 1856TIP3    H2 5526   6.373  -0.033   3.537
 1857TIP3   OH2 5527   1.243   2.336   6.458
 1857TIP3    H1 5528   1.266   2.399   6.526
 1857TIP3    H2 5529   1.241   2.252   6.504
 1858TIP3   OH2 5530   1.363   3.380   4.798
 1858TIP3    H1 5531   1.409   3.310   4.844
 1858TIP3    H2 5532   1.272   3.351   4.796
 1859TIP3   OH2 5533   7.446   0.309   2.533
 1859TIP3    H1 5534   7.392   0.384   2.510
 1859TIP3    H2 5535   7.412   0.280   2.617
 1860TIP3   OH2 5536   7.556   4.151   4.120
 1860TIP3    H1 5537   7.578   4.059   4.135
 1860TIP3    H2 5538   7.626   4.200   4.164
 1861TIP3   OH2 5539   1.659   3.526   6.133
 1861TIP3    H1 5540   1.703   3.556   6.213
 1861TIP3    H2 5541   1.632   3.436   6.153
 1862TIP3   OH2 5542   5.763   0.443   2.773
 1862TIP3    H1 5543   5.786   0.495   2.696
 1862TIP3    H2 5544   5.739   0.357   2.738
 1863TIP3   OH2 5545   3.924   4.408   3.514
 1863TIP3    H1 5546   3.917   4.480   3.577
 1863TIP3    H2 5547   4.013   4.374   3.527
 1864TIP3   OH2 5548   3.291   2.894   1.269
 1864TIP3    H1 5549   3.305   2.831   1.339
 1864TIP3    H2 5550   3.322   2.850   1.190
 1865TIP3   OH2 5551   0.865   4.514   3.676
 1865TIP3    H1 5552   0.804   4.451   3.715
 1865TIP3    H2 5553   0.809   4.569   3.620
 1866TIP3   OH2 5554   6.032   4.048   0.840
 1866TIP3    H1 5555   6.101   3.987   0.864
 1866TIP3    H2 5556   6.076   4.133   0.831
 1867TIP3   OH2 5557   5.668   2.716   4.035
 1867TIP3    H1 5558   5.659   2.621   4.022
 1867TIP3    H2 5559   5.703   2.724   4.123
 1868TIP3   OH2 5560   4.770   6.594   3.287
 1868TIP3    H1 5561   4.761   6.513   3.337
 1868TIP3    H2 5562   4.864   6.611   3.286
 1869TIP3   OH2 5563   1.045   1.594   0.872
 1869TIP3    H1 5564   1.008   1.577   0.959
 1869TIP3    H2 5565   0.975   1.640   0.824
 1870TIP3   OH2 5566   6.091   2.101   3.532
 1870TIP3    H1 5567   5.998   2.100   3.552
 1870TIP3    H2 5568   6.130   2.157   3.599
 1871TIP3   OH2 5569   4.220   6.267   2.280
 1871TIP3    H1 5570   4.219   6.363   2.276
 1871TIP3    H2 5571   4.310   6.243   2.258
 1872TIP3   OH2 5572   6.699   5.055   3.099
 1872TIP3    H1 5573   6.663   4.967   3.095
 1872TIP3    H2 5574   6.634   5.109   3.053
 1873TIP3   OH2 5575   6.174   4.498   2.138
 1873TIP3    H1 5576   6.181   4.593   2.128
 1873TIP3    H2 5577   6.263   4.470   2.160
 1874TIP3   OH2 5578   3.708   5.653   0.606
 1874TIP3    H1 5579   3.800   5.643   0.583
 1874TIP3    H2 5580   3.693   5.748   0.606
 1875TIP3   OH2 5581   4.213   3.610   4.339
 1875TIP3    H1 5582   4.121   3.620   4.316
 1875TIP3    H2 5583   4.261   3.644   4.263
 1876TIP3   OH2 5584   3.093   3.207   5.355
 1876TIP3    H1 5585   3.146   3.138   5.397
 1876TIP3    H2 5586   3.091   3.277   5.420
 1877TIP3   OH2 5587   4.856   4.457   2.912
 1877TIP3    H1 5588   4.898   4.470   2.997
 1877TIP3    H2 5589   4.862   4.363   2.897
 1878TIP3   OH2 5590   7.220   0.172   1.446
 1878TIP3    H1 5591   7.177   0.196   1.364
 1878TIP3    H2 5592   7.234   0.255   1.491
 1879TIP3   OH2 5593   1.285   0.331   0.018
 1879TIP3    H1 5594   1.280   0.282  -0.064
 1879TIP3    H2 5595   1.237   0.412   0.000
 1880TIP3   OH2 5596   6.009   1.226   3.708
 1880TIP3    H1 5597   6.020   1.165   3.781
 1880TIP3    H2 5598   6.028   1.175   3.630
 1881TIP3   OH2 5599   5.096   2.574   2.038
 1881TIP3    H1 5600   5.013   2.601   2.077
 1881TIP3    H2 5601   5.074   2.498   1.984
 1882TIP3   OH2 5602   0.241   3.809   3.815
 1882TIP3    H1 5603   0.323   3.764   3.835
 1882TIP3    H2 5604   0.264   3.901   3.814
 1883TIP3   OH2 5605   4.276   3.767   3.247
 1883TIP3    H1 5606   4.258   3.858   3.222
 1883TIP3    H2 5607   4.218   3.715   3.191
 1884TIP3   OH2 5608   4.705   1.143   1.060
 1884TIP3    H1 5609   4.654   1.073   1.102
 1884TIP3    H2 5610   4.773   1.164   1.123
 1885TIP3   OH2 5611   0.527   1.063   0.315
 1885TIP3    H1 5612   0.609   1.097   0.352
 1885TIP3    H2 5613   0.534   0.968   0.323
 1886TIP3   OH2 5614   2.943   7.291   0.259
 1886TIP3    H1 5615   2.936   7.233   0.184
 1886TIP3    H2 5616   2.857   7.334   0.264
 1887TIP3   OH2 5617   2.061   2.264   5.714
 1887TIP3    H1 5618   1.996   2.229   5.774
 1887TIP3    H2 5619   2.030   2.353   5.693
 1888TIP3   OH2 5620   2.660   4.731   2.038
 1888TIP3    H1 5621   2.708   4.764   1.962
 1888TIP3    H2 5622   2.669   4.636   2.032
 1889TIP3   OH2 5623   2.713   3.458   4.521
 1889TIP3    H1 5624   2.713   3.547   4.486
 1889TIP3    H2 5625   2.697   3.402   4.445
 1890TIP3   OH2 5626   2.968   1.757   0.453
 1890TIP3    H1 5627   3.052   1.800   0.437
 1890TIP3    H2 5628   2.956   1.698   0.378
 1891TIP3   OH2 5629   7.084   4.940   0.496
 1891TIP3    H1 5630   7.149   4.873   0.516
 1891TIP3    H2 5631   7.032   4.948   0.576
 1892TIP3   OH2 5632   0.160   4.670   6.192
 1892TIP3    H1 5633   0.086   4.726   6.216
 1892TIP3    H2 5634   0.123   4.581   6.191
 1893TIP3   OH2 5635   5.843   2.206   5.344
 1893TIP3    H1 5636   5.754   2.177   5.324
 1893TIP3    H2 5637   5.887   2.209   5.259
 1894TIP3   OH2 5638   4.434   3.050   2.171
 1894TIP3    H1 5639   4.447   3.134   2.215
 1894TIP3    H2 5640   4.521   3.025   2.140
 1895TIP3   OH2 5641   7.479   6.082   2.871
 1895TIP3    H1 5642   7.423   6.157   2.887
 1895TIP3    H2 5643   7.478   6.071   2.775
 1896TIP3   OH2 5644   1.361   0.710   6.215
 1896TIP3    H1 5645   1.402   0.667   6.290
 1896TIP3    H2 5646   1.377   0.650   6.142
 1897TIP3   OH2 5647   5.180  -0.023   2.918
 1897TIP3    H1 5648   5.274  -0.025   2.935
 1897TIP3    H2 5649   5.165   0.061   2.874
 1898TIP3   OH2 5650   2.764   1.913   2.172
 1898TIP3    H1 5651   2.812   1.832   2.153
 1898TIP3    H2 5652   2.709   1.926   2.094
 1899TIP3   OH2 5653   1.071   2.178   6.726
 1899TIP3    H1 5654   1.084   2.270   6.750
 1899TIP3    H2 5655   0.989   2.178   6.677
 1900TIP3   OH2 5656   7.898   5.705   1.416
 1900TIP3    H1 5657   7.922   5.623   1.372
 1900TIP3    H2 5658   7.879   5.679   1.506
 1901TIP3   OH2 5659   3.955   2.708   2.350
 1901TIP3    H1 5660   3.964   2.803   2.347
 1901TIP3    H2 5661   3.918   2.685   2.265
 1902TIP3   OH2 5662   7.684   2.297   6.095
 1902TIP3    H1 5663   7.701   2.260   6.008
 1902TIP3    H2 5664   7.593   2.275   6.113
 1903TIP3   OH2 5665   2.440   6.675   2.257
 1903TIP3    H1 5666   2.391   6.594   2.253
 1903TIP3    H2 5667   2.530   6.650   2.237
 1904TIP3   OH2 5668   3.770   3.996   2.110
 1904TIP3    H1 5669   3.718   3.916   2.117
 1904TIP3    H2 5670   3.859   3.968   2.130
 1905TIP3   OH2 5671   2.897   7.484   2.735
 1905TIP3    H1 5672   2.946   7.413   2.776
 1905TIP3    H2 5673   2.805   7.455   2.739
 1906TIP3   OH2 5674   5.092   2.048   5.176
 1906TIP3    H1 5675   5.035   2.117   5.209
 1906TIP3    H2 5676   5.172   2.093   5.150
 1907TIP3   OH2 5677   7.570   6.983   2.719
 1907TIP3    H1 5678   7.602   7.062   2.676
 1907TIP3    H2 5679   7.643   6.921   2.715
 1908TIP3   OH2 5680   7.670   1.491   1.972
 1908TIP3    H1 5681   7.694   1.575   1.932
 1908TIP3    H2 5682   7.575   1.487   1.964
 1909TIP3   OH2 5683   7.132   4.899   3.468
 1909TIP3    H1 5684   7.211   4.850   3.490
 1909TIP3    H2 5685   7.135   4.908   3.373
 1910TIP3   OH2 5686   7.777   4.367   4.111
 1910TIP3    H1 5687   7.812   4.456   4.103
 1910TIP3    H2 5688   7.735   4.350   4.027
 1911TIP3   OH2 5689   3.225   2.587   1.986
 1911TIP3    H1 5690   3.206   2.677   2.013
 1911TIP3    H2 5691   3.285   2.554   2.053
 1912TIP3   OH2 5692   6.288   7.517   5.130
 1912TIP3    H1 5693   6.378   7.488   5.145
 1912TIP3    H2 5694   6.248   7.517   5.218
 1913TIP3   OH2 5695   1.302   1.711   2.366
 1913TIP3    H1 5696   1.313   1.623   2.402
 1913TIP3    H2 5697   1.208   1.730   2.377
 1914TIP3   OH2 5698   0.559   7.333   3.466
 1914TIP3    H1 5699   0.636   7.277   3.458
 1914TIP3    H2 5700   0.491   7.286   3.416
 1915TIP3   OH2 5701   4.140   1.951   2.773
 1915TIP3    H1 5702   4.087   1.911   2.705
 1915TIP3    H2 5703   4.225   1.968   2.730
 1916TIP3   OH2 5704   3.700   4.984   4.588
 1916TIP3    H1 5705   3.756   5.018   4.657
 1916TIP3    H2 5706   3.748   4.910   4.553
 1917TIP3   OH2 5707   1.916   1.909   4.178
 1917TIP3    H1 5708   1.914   1.827   4.228
 1917TIP3    H2 5709   1.835   1.908   4.128
 1918TIP3   OH2 5710   4.764   4.076   4.047
 1918TIP3    H1 5711   4.787   4.057   3.956
 1918TIP3    H2 5712   4.843   4.052   4.097
 1919TIP3   OH2 5713   2.430   2.545   0.533
 1919TIP3    H1 5714   2.441   2.496   0.451
 1919TIP3    H2 5715   2.516   2.584   0.549
 1920TIP3   OH2 5716   1.586   0.261   2.620
 1920TIP3    H1 5717   1.567   0.340   2.570
 1920TIP3    H2 5718   1.609   0.293   2.707
 1921TIP3   OH2 5719   5.548   6.491   4.915
 1921TIP3    H1 5720   5.593   6.567   4.950
 1921TIP3    H2 5721   5.591   6.473   4.831
 1922TIP3   OH2 5722   5.142   5.364   4.531
 1922TIP3    H1 5723   5.217   5.306   4.546
 1922TIP3    H2 5724   5.074   5.306   4.497
 1923TIP3   OH2 5725   3.488   6.942   0.988
 1923TIP3    H1 5726   3.401   6.932   1.027
 1923TIP3    H2 5727   3.477   7.008   0.920
 1924TIP3   OH2 5728   3.905   0.088   0.877
 1924TIP3    H1 5729   3.947   0.085   0.964
 1924TIP3    H2 5730   3.845   0.163   0.882
 1925TIP3   OH2 5731   0.461   4.074   1.921
 1925TIP3    H1 5732   0.394   4.141   1.937
 1925TIP3    H2 5733   0.540   4.108   1.964
 1926TIP3   OH2 5734   1.495   0.746   0.881
 1926TIP3    H1 5735   1.450   0.704   0.954
 1926TIP3    H2 5736   1.441   0.726   0.804
 1927TIP3   OH2 5737   4.684   5.884   5.166
 1927TIP3    H1 5738   4.605   5.916   5.211
 1927TIP3    H2 5739   4.652   5.852   5.082
 1928TIP3   OH2 5740   3.280   4.836   5.772
 1928TIP3    H1 5741   3.187   4.832   5.794
 1928TIP3    H2 5742   3.297   4.929   5.758
 1929TIP3   OH2 5743   4.464   3.442   3.672
 1929TIP3    H1 5744   4.411   3.373   3.710
 1929TIP3    H2 5745   4.488   3.498   3.747
 1930TIP3   OH2 5746   0.142   2.250   1.764
 1930TIP3    H1 5747   0.185   2.318   1.816
 1930TIP3    H2 5748   0.115   2.295   1.684
 1931TIP3   OH2 5749   7.378   2.899   3.744
 1931TIP3    H1 5750   7.425   2.960   3.801
 1931TIP3    H2 5751   7.442   2.830   3.726
 1932TIP3   OH2 5752   7.545   0.335   3.869
 1932TIP3    H1 5753   7.599   0.344   3.947
 1932TIP3    H2 5754   7.458   0.363   3.897
 1933TIP3   OH2 5755   7.426   5.902   0.519
 1933TIP3    H1 5756   7.508   5.951   0.520
 1933TIP3    H2 5757   7.363   5.962   0.560
 1934TIP3   OH2 5758   2.444   7.033   1.827
 1934TIP3    H1 5759   2.360   7.056   1.869
 1934TIP3    H2 5760   2.467   7.111   1.777
 1935TIP3   OH2 5761   2.518   5.684   2.696
 1935TIP3    H1 5762   2.540   5.602   2.742
 1935TIP3    H2 5763   2.487   5.742   2.765
 1936TIP3   OH2 5764   5.905   0.996   1.494
 1936TIP3    H1 5765   5.960   1.023   1.568
 1936TIP3    H2 5766   5.825   1.049   1.504
 1937TIP3   OH2 5767   6.908   2.478   2.421
 1937TIP3    H1 5768   6.860   2.481   2.504
 1937TIP3    H2 5769   6.994   2.444   2.445
 1938TIP3   OH2 5770   3.163   0.790   5.938
 1938TIP3    H1 5771   3.249   0.820   5.966
 1938TIP3    H2 5772   3.114   0.870   5.920
 1939TIP3   OH2 5773   5.095   6.436   6.186
 1939TIP3    H1 5774   5.005   6.403   6.188
 1939TIP3    H2 5775   5.137   6.394   6.261
 1940TIP3   OH2 5776   6.233   4.765   1.466
 1940TIP3    H1 5777   6.146   4.727   1.481
 1940TIP3    H2 5778   6.294   4.694   1.486
 1941TIP3   OH2 5779   4.282   7.841   2.136
 1941TIP3    H1 5780   4.323   7.773   2.191
 1941TIP3    H2 5781   4.193   7.811   2.122
 1942TIP3   OH2 5782   0.467   4.535   2.824
 1942TIP3    H1 5783   0.495   4.513   2.736
 1942TIP3    H2 5784   0.526   4.486   2.881
 1943TIP3   OH2 5785   5.229   6.204   5.338
 1943TIP3    H1 5786   5.282   6.161   5.271
 1943TIP3    H2 5787   5.292   6.256   5.388
 1944TIP3   OH2 5788   6.151   6.372   5.774
 1944TIP3    H1 5789   6.139   6.435   5.704
 1944TIP3    H2 5790   6.241   6.342   5.765
 1945TIP3   OH2 5791   3.705   5.406   0.691
 1945TIP3    H1 5792   3.702   5.499   0.669
 1945TIP3    H2 5793   3.658   5.363   0.621
 1946TIP3   OH2 5794   1.531   0.218   1.843
 1946TIP3    H1 5795   1.546   0.304   1.880
 1946TIP3    H2 5796   1.470   0.176   1.903
 1947TIP3   OH2 5797   2.438   5.117   2.383
 1947TIP3    H1 5798   2.432   5.199   2.334
 1947TIP3    H2 5799   2.434   5.143   2.475
 1948TIP3   OH2 5800   6.108   2.073   2.367
 1948TIP3    H1 5801   6.098   2.054   2.461
 1948TIP3    H2 5802   6.203   2.078   2.355
 1949TIP3   OH2 5803   1.411   1.223   2.257
 1949TIP3    H1 5804   1.328   1.176   2.251
 1949TIP3    H2 5805   1.444   1.226   2.167
 1950TIP3   OH2 5806   1.456   1.437   5.048
 1950TIP3    H1 5807   1.529   1.495   5.027
 1950TIP3    H2 5808   1.469   1.361   4.991
 1951TIP3   OH2 5809   0.576   7.479   4.818
 1951TIP3    H1 5810   0.526   7.450   4.894
 1951TIP3    H2 5811   0.651   7.419   4.813
 1952TIP3   OH2 5812   6.455   1.638   6.617
 1952TIP3    H1 5813   6.454   1.677   6.530
 1952TIP3    H2 5814   6.372   1.664   6.657
 1953TIP3   OH2 5815   4.863   1.522   0.017
 1953TIP3    H1 5816   4.801   1.572  -0.037
 1953TIP3    H2 5817   4.827   1.527   0.105
 1954TIP3   OH2 5818   8.295   1.356   3.774
 1954TIP3    H1 5819   8.210   1.400   3.777
 1954TIP3    H2 5820   8.345   1.395   3.846
 1955TIP3   OH2 5821   7.397   0.792   1.232
 1955TIP3    H1 5822   7.433   0.867   1.185
 1955TIP3    H2 5823   7.311   0.820   1.262
 1956TIP3   OH2 5824   0.220   1.349   1.185
 1956TIP3    H1 5825   0.125   1.342   1.198
 1956TIP3    H2 5826   0.229   1.398   1.103
 1957TIP3   OH2 5827   1.776   6.382   3.562
 1957TIP3    H1 5828   1.721   6.342   3.629
 1957TIP3    H2 5829   1.724   6.454   3.527
 1958TIP3   OH2 5830   7.499   7.539   1.548
 1958TIP3    H1 5831   7.564   7.474   1.523
 1958TIP3    H2 5832   7.420   7.513   1.501
 1959TIP3   OH2 5833   7.102   4.497   4.647
 1959TIP3    H1 5834   7.190   4.493   4.608
 1959TIP3    H2 5835   7.105   4.571   4.707
 1960TIP3   OH2 5836   3.302   5.849   0.322
 1960TIP3    H1 5837   3.217   5.892   0.325
 1960TIP3    H2 5838   3.351   5.888   0.395
 1961TIP3   OH2 5839   3.469   3.249   3.862
 1961TIP3    H1 5840   3.420   3.252   3.780
 1961TIP3    H2 5841   3.446   3.331   3.906
 1962TIP3   OH2 5842   3.749   3.716   0.167
 1962TIP3    H1 5843   3.751   3.694   0.074
 1962TIP3    H2 5844   3.734   3.810   0.169
 1963TIP3   OH2 5845   6.962   0.039   4.282
 1963TIP3    H1 5846   7.057   0.026   4.276
 1963TIP3    H2 5847   6.951   0.133   4.292
 1964TIP3   OH2 5848   0.678   2.845   0.548
 1964TIP3    H1 5849   0.665   2.835   0.454
 1964TIP3    H2 5850   0.708   2.935   0.559
 1965TIP3   OH2 5851   6.245   4.477   3.355
 1965TIP3    H1 5852   6.306   4.529   3.408
 1965TIP3    H2 5853   6.267   4.386   3.376
 1966TIP3   OH2 5854   3.078   2.200   2.118
 1966TIP3    H1 5855   3.108   2.109   2.116
 1966TIP3    H2 5856   3.159   2.251   2.109
 1967TIP3   OH2 5857   0.847   3.146   5.312
 1967TIP3    H1 5858   0.765   3.176   5.353
 1967TIP3    H2 5859   0.910   3.216   5.330
 1968TIP3   OH2 5860   5.724   2.990   2.381
 1968TIP3    H1 5861   5.765   2.984   2.295
 1968TIP3    H2 5862   5.688   2.903   2.397
 1969TIP3   OH2 5863   2.132   2.701   3.146
 1969TIP3    H1 5864   2.102   2.708   3.237
 1969TIP3    H2 5865   2.185   2.779   3.131
 1970TIP3   OH2 5866   3.735   2.153   1.295
 1970TIP3    H1 5867   3.786   2.125   1.220
 1970TIP3    H2 5868   3.690   2.231   1.266
 1971TIP3   OH2 5869   4.133   3.201   1.426
 1971TIP3    H1 5870   4.166   3.251   1.351
 1971TIP3    H2 5871   4.183   3.119   1.425
 1972TIP3   OH2 5872   5.117   1.568   4.876
 1972TIP3    H1 5873   5.161   1.622   4.811
 1972TIP3    H2 5874   5.135   1.478   4.848
 1973TIP3   OH2 5875   5.555   5.929   6.527
 1973TIP3    H1 5876   5.560   6.022   6.504
 1973TIP3    H2 5877   5.494   5.892   6.463
 1974TIP3   OH2 5878   6.171   5.062   6.408
 1974TIP3    H1 5879   6.088   5.077   6.362
 1974TIP3    H2 5880   6.218   5.145   6.400
 1975TIP3   OH2 5881   7.367   1.289   0.069
 1975TIP3    H1 5882   7.369   1.279   0.164
 1975TIP3    H2 5883   7.455   1.317   0.046
 1976TIP3   OH2 5884   0.469   5.988   2.114
 1976TIP3    H1 5885   0.402   5.922   2.132
 1976TIP3    H2 5886   0.436   6.068   2.157
 1977TIP3   OH2 5887   7.533   3.139   4.698
 1977TIP3    H1 5888   7.556   3.185   4.779
 1977TIP3    H2 5889   7.617   3.129   4.653
 1978TIP3   OH2 5890   4.009   6.629   6.243
 1978TIP3    H1 5891   3.979   6.629   6.152
 1978TIP3    H2 5892   4.022   6.537   6.264
 1979TIP3   OH2 5893   0.101   7.469   0.609
 1979TIP3    H1 5894   0.142   7.424   0.683
 1979TIP3    H2 5895   0.172   7.482   0.546
 1980TIP3   OH2 5896   0.887   3.429   1.306
 1980TIP3    H1 5897   0.964   3.372   1.299
 1980TIP3    H2 5898   0.841   3.398   1.383
 1981TIP3   OH2 5899   1.637   2.744   4.694
 1981TIP3    H1 5900   1.674   2.773   4.611
 1981TIP3    H2 5901   1.583   2.668   4.672
 1982TIP3   OH2 5902   7.506   0.122   1.995
 1982TIP3    H1 5903   7.560   0.046   2.015
 1982TIP3    H2 5904   7.427   0.110   2.049
 1983TIP3   OH2 5905   5.105   5.851   3.161
 1983TIP3    H1 5906   5.104   5.941   3.131
 1983TIP3    H2 5907   5.186   5.814   3.126
 1984TIP3   OH2 5908   6.241   1.403   4.552
 1984TIP3    H1 5909   6.209   1.338   4.615
 1984TIP3    H2 5910   6.336   1.404   4.565
 1985TIP3   OH2 5911   0.372   7.220   4.759
 1985TIP3    H1 5912   0.375   7.248   4.850
 1985TIP3    H2 5913   0.441   7.271   4.716
 1986TIP3   OH2 5914   4.372   6.558   2.918
 1986TIP3    H1 5915   4.295   6.522   2.874
 1986TIP3    H2 5916   4.446   6.525   2.867
 1987TIP3   OH2 5917   5.308   5.643   3.119
 1987TIP3    H1 5918   5.401   5.635   3.099
 1987TIP3    H2 5919   5.297   5.597   3.202
 1988TIP3   OH2 5920   0.426   1.636   3.949
 1988TIP3    H1 5921   0.508   1.657   3.993
 1988TIP3    H2 5922   0.418   1.703   3.880
 1989TIP3   OH2 5923   1.407   1.261   1.323
 1989TIP3    H1 5924   1.482   1.293   1.373
 1989TIP3    H2 5925   1.365   1.197   1.380
 1990TIP3   OH2 5926   5.558   3.242   4.756
 1990TIP3    H1 5927   5.569   3.322   4.807
 1990TIP3    H2 5928   5.540   3.272   4.667
 1991TIP3   OH2 5929   4.342   0.517   4.681
 1991TIP3    H1 5930   4.254   0.553   4.685
 1991TIP3    H2 5931   4.387   0.555   4.756
 1992TIP3   OH2 5932   8.175   7.395   5.546
 1992TIP3    H1 5933   8.097   7.423   5.594
 1992TIP3    H2 5934   8.182   7.302   5.564
 1993TIP3   OH2 5935   4.364   6.359   3.115
 1993TIP3    H1 5936   4.383   6.408   3.196
 1993TIP3    H2 5937   4.378   6.424   3.046
 1994TIP3   OH2 5938   6.890   0.476   3.306
 1994TIP3    H1 5939   6.799   0.450   3.321
 1994TIP3    H2 5940   6.940   0.425   3.370
 1995TIP3   OH2 5941   6.916   6.373   5.428
 1995TIP3    H1 5942   6.857   6.344   5.359
 1995TIP3    H2 5943   7.004   6.361   5.392
 1996TIP3   OH2 5944   0.547   6.998   4.768
 1996TIP3    H1 5945   0.465   7.046   4.780
 1996TIP3    H2 5946   0.520   6.909   4.744
 1997TIP3   OH2 5947   0.682   3.883   3.061
 1997TIP3    H1 5948   0.740   3.921   2.995
 1997TIP3    H2 5949   0.651   3.958   3.112
 1998TIP3   OH2 5950   2.028   6.376   4.039
 1998TIP3    H1 5951   2.039   6.470   4.050
 1998TIP3    H2 5952   1.986   6.366   3.954
 1999TIP3   OH2 5953   7.329   2.708   0.626
 1999TIP3    H1 5954   7.279   2.636   0.588
 1999TIP3    H2 5955   7.399   2.665   0.675
 2000TIP3   OH2 5956   2.086   5.325   0.690
 2000TIP3    H1 5957   2.097   5.416   0.717
 2000TIP3    H2 5958   2.040   5.283   0.763
 2001TIP3   OH2 5959   6.843   4.474   4.831
 2001TIP3    H1 5960   6.857   4.535   4.758
 2001TIP3    H2 5961   6.758   4.499   4.867
 2002TIP3   OH2 5962   3.216   0.781   4.094
 2002TIP3    H1 5963   3.202   0.702   4.041
 2002TIP3    H2 5964   3.202   0.854   4.033
 2003TIP3   OH2 5965   1.708   0.037   1.936
 2003TIP3    H1 5966   1.634   0.000   1.985
 2003TIP3    H2 5967   1.672   0.117   1.898
 2004TIP3   OH2 5968   6.439   2.961   3.852
 2004TIP3    H1 5969   6.394   2.878   3.868
 2004TIP3    H2 5970   6.475   2.985   3.937
 2005TIP3   OH2 5971   4.851   7.231   1.473
 2005TIP3    H1 5972   4.854   7.209   1.380
 2005TIP3    H2 5973   4.895   7.158   1.517
 2006TIP3   OH2 5974   0.017   6.936   1.487
 2006TIP3    H1 5975   0.030   6.909   1.396
 2006TIP3    H2 5976   0.053   7.024   1.492
 2007TIP3   OH2 5977   8.222   5.650   0.887
 2007TIP3    H1 5978   8.178   5.735   0.893
 2007TIP3    H2 5979   8.150   5.586   0.890
 2008TIP3   OH2 5980   4.528   1.627   0.118
 2008TIP3    H1 5981   4.608   1.673   0.146
 2008TIP3    H2 5982   4.493   1.589   0.199
 2009TIP3   OH2 5983   4.862   6.765   6.578
 2009TIP3    H1 5984   4.905   6.680   6.563
 2009TIP3    H2 5985   4.858   6.772   6.674
 2010TIP3   OH2 5986   6.788   1.396   4.522
 2010TIP3    H1 5987   6.853   1.465   4.532
 2010TIP3    H2 5988   6.722   1.433   4.464
 2011TIP3   OH2 5989   7.985   4.901   4.357
 2011TIP3    H1 5990   8.064   4.889   4.409
 2011TIP3    H2 5991   7.942   4.977   4.395
 2012TIP3   OH2 5992   4.337   0.816   5.370
 2012TIP3    H1 5993   4.317   0.737   5.420
 2012TIP3    H2 5994   4.336   0.886   5.435
 2013TIP3   OH2 5995   2.974   3.398   4.075
 2013TIP3    H1 5996   2.973   3.320   4.131
 2013TIP3    H2 5997   3.013   3.368   3.993
 2014TIP3   OH2 5998   6.562   3.975   3.765
 2014TIP3    H1 5999   6.592   3.890   3.731
 2014TIP3    H2 6000   6.467   3.974   3.752
 2015TIP3   OH2 6001   4.721   7.184   0.779
 2015TIP3    H1 6002   4.698   7.267   0.738
 2015TIP3    H2 6003   4.802   7.157   0.736
 2016TIP3   OH2 6004   5.529   4.639   5.143
 2016TIP3    H1 6005   5.443   4.610   5.113
 2016TIP3    H2 6006   5.526   4.734   5.135
 2017TIP3   OH2 6007   4.463   7.733   6.671
 2017TIP3    H1 6008   4.444   7.720   6.763
 2017TIP3    H2 6009   4.502   7.651   6.642
 2018TIP3   OH2 6010   6.508   5.556   1.848
 2018TIP3    H1 6011   6.546   5.470   1.831
 2018TIP3    H2 6012   6.504   5.599   1.763
 2019TIP3   OH2 6013   8.221   5.524   3.720
 2019TIP3    H1 6014   8.212   5.586   3.793
 2019TIP3    H2 6015   8.164   5.451   3.745
 2020TIP3   OH2 6016   5.314   3.036   3.263
 2020TIP3    H1 6017   5.386   2.983   3.229
 2020TIP3    H2 6018   5.261   3.057   3.186
 2021TIP3   OH2 6019   1.397   4.010   2.387
 2021TIP3    H1 6020   1.409   4.082   2.324
 2021TIP3    H2 6021   1.481   3.964   2.387
 2022TIP3   OH2 6022   2.986   2.706   5.368
 2022TIP3    H1 6023   3.043   2.720   5.293
 2022TIP3    H2 6024   3.009   2.619   5.399
 2023TIP3   OH2 6025   5.594   2.219   1.869
 2023TIP3    H1 6026   5.632   2.163   1.937
 2023TIP3    H2 6027   5.666   2.234   1.808
 2024TIP3   OH2 6028   3.004   3.955   5.567
 2024TIP3    H1 6029   2.981   4.044   5.543
 2024TIP3    H2 6030   3.086   3.938   5.521
 2025TIP3   OH2 6031   2.558   5.941   3.410
 2025TIP3    H1 6032   2.486   5.949   3.473
 2025TIP3    H2 6033   2.609   5.866   3.442
 2026TIP3   OH2 6034   7.357   6.822   3.167
 2026TIP3    H1 6035   7.445   6.833   3.129
 2026TIP3    H2 6036   7.328   6.911   3.185
 2027TIP3   OH2 6037   7.876   0.980   1.422
 2027TIP3    H1 6038   7.926   0.926   1.484
 2027TIP3    H2 6039   7.932   1.056   1.406
 2028TIP3   OH2 6040   3.844   1.534   4.776
 2028TIP3    H1 6041   3.873   1.616   4.816
 2028TIP3    H2 6042   3.761   1.514   4.819
 2029TIP3   OH2 6043   3.211   1.290   1.520
 2029TIP3    H1 6044   3.276   1.326   1.459
 2029TIP3    H2 6045   3.254   1.294   1.606
 2030TIP3   OH2 6046   5.987   4.966   3.280
 2030TIP3    H1 6047   5.918   4.962   3.214
 2030TIP3    H2 6048   6.064   4.996   3.233
 2031TIP3   OH2 6049   4.993   5.244   5.004
 2031TIP3    H1 6050   4.915   5.249   5.059
 2031TIP3    H2 6051   5.054   5.306   5.045
 2032TIP3   OH2 6052   7.081   2.548   1.749
 2032TIP3    H1 6053   7.144   2.493   1.703
 2032TIP3    H2 6054   7.127   2.630   1.763
 2033TIP3   OH2 6055   4.831   0.667   4.110
 2033TIP3    H1 6056   4.740   0.665   4.080
 2033TIP3    H2 6057   4.832   0.734   4.179
 2034TIP3   OH2 6058   1.995   6.092   1.055
 2034TIP3    H1 6059   2.009   6.130   1.142
 2034TIP3    H2 6060   1.908   6.122   1.030
 2035TIP3   OH2 6061   7.357   5.031   6.587
 2035TIP3    H1 6062   7.381   5.018   6.678
 2035TIP3    H2 6063   7.359   4.944   6.548
 2036TIP3   OH2 6064   4.003   6.594   4.083
 2036TIP3    H1 6065   3.941   6.579   4.012
 2036TIP3    H2 6066   4.041   6.507   4.100
 2037TIP3   OH2 6067   7.145   3.585   5.152
 2037TIP3    H1 6068   7.083   3.644   5.109
 2037TIP3    H2 6069   7.090   3.530   5.208
 2038TIP3   OH2 6070   0.239   0.622   3.861
 2038TIP3    H1 6071   0.332   0.604   3.876
 2038TIP3    H2 6072   0.225   0.599   3.770
 2039TIP3   OH2 6073   1.380   5.978   1.959
 2039TIP3    H1 6074   1.298   5.945   1.995
 2039TIP3    H2 6075   1.447   5.919   1.994
 2040TIP3   OH2 6076   7.803   1.989   2.559
 2040TIP3    H1 6077   7.824   1.896   2.568
 2040TIP3    H2 6078   7.823   2.026   2.645
 2041TIP3   OH2 6079   3.165   1.261   0.846
 2041TIP3    H1 6080   3.176   1.166   0.848
 2041TIP3    H2 6081   3.237   1.292   0.790
 2042TIP3   OH2 6082   5.719   1.756   2.112
 2042TIP3    H1 6083   5.778   1.725   2.181
 2042TIP3    H2 6084   5.767   1.827   2.069
 2043TIP3   OH2 6085   6.479   6.078   0.259
 2043TIP3    H1 6086   6.534   6.129   0.199
 2043TIP3    H2 6087   6.405   6.051   0.205
 2044TIP3   OH2 6088   4.074   3.612   3.903
 2044TIP3    H1 6089   4.102   3.699   3.930
 2044TIP3    H2 6090   4.061   3.619   3.808
 2045TIP3   OH2 6091   7.129   1.244   1.930
 2045TIP3    H1 6092   7.157   1.254   1.839
 2045TIP3    H2 6093   7.081   1.161   1.932
 2046TIP3   OH2 6094   7.650   1.309   5.929
 2046TIP3    H1 6095   7.690   1.225   5.952
 2046TIP3    H2 6096   7.723   1.371   5.930
 2047TIP3   OH2 6097   1.517   3.960   1.567
 2047TIP3    H1 6098   1.595   3.989   1.613
 2047TIP3    H2 6099   1.445   4.004   1.612
 2048TIP3   OH2 6100   7.227   6.615   3.808
 2048TIP3    H1 6101   7.283   6.684   3.773
 2048TIP3    H2 6102   7.273   6.585   3.887
 2049TIP3   OH2 6103   5.972   0.911   2.342
 2049TIP3    H1 6104   6.042   0.975   2.335
 2049TIP3    H2 6105   5.999   0.854   2.414
 2050TIP3   OH2 6106   7.692   4.539   6.082
 2050TIP3    H1 6107   7.661   4.572   5.998
 2050TIP3    H2 6108   7.722   4.617   6.129
 2051TIP3   OH2 6109   0.351   1.422   1.869
 2051TIP3    H1 6110   0.368   1.365   1.944
 2051TIP3    H2 6111   0.387   1.507   1.894
 2052TIP3   OH2 6112   7.177   5.930   4.925
 2052TIP3    H1 6113   7.263   5.893   4.905
 2052TIP3    H2 6114   7.121   5.854   4.939
 2053TIP3   OH2 6115   5.559   2.522   1.142
 2053TIP3    H1 6116   5.534   2.466   1.215
 2053TIP3    H2 6117   5.480   2.570   1.120
 2054TIP3   OH2 6118   3.981   6.728   5.964
 2054TIP3    H1 6119   4.062   6.699   5.921
 2054TIP3    H2 6120   3.913   6.672   5.928
 2055TIP3   OH2 6121   4.628   0.900   1.175
 2055TIP3    H1 6122   4.688   0.857   1.114
 2055TIP3    H2 6123   4.572   0.829   1.207
 2056TIP3   OH2 6124   6.879   7.793   3.752
 2056TIP3    H1 6125   6.876   7.726   3.683
 2056TIP3    H2 6126   6.933   7.753   3.820
 2057TIP3   OH2 6127   8.289   1.063   1.950
 2057TIP3    H1 6128   8.224   1.130   1.932
 2057TIP3    H2 6129   8.373   1.108   1.939
 2058TIP3   OH2 6130   0.914   0.165   6.201
 2058TIP3    H1 6131   0.838   0.167   6.260
 2058TIP3    H2 6132   0.970   0.235   6.233
 2059TIP3   OH2 6133   4.557   3.897   1.508
 2059TIP3    H1 6134   4.643   3.857   1.523
 2059TIP3    H2 6135   4.514   3.839   1.446
 2060TIP3   OH2 6136   6.374   5.583   3.530
 2060TIP3    H1 6137   6.337   5.665   3.562
 2060TIP3    H2 6138   6.367   5.523   3.604
 2061TIP3   OH2 6139   6.707   2.709   0.475
 2061TIP3    H1 6140   6.616   2.683   0.485
 2061TIP3    H2 6141   6.711   2.799   0.506
 2062TIP3   OH2 6142   2.726   5.360   0.202
 2062TIP3    H1 6143   2.646   5.408   0.227
 2062TIP3    H2 6144   2.717   5.346   0.108
 2063TIP3   OH2 6145   4.426   7.639   2.285
 2063TIP3    H1 6146   4.449   7.673   2.371
 2063TIP3    H2 6147   4.410   7.545   2.300
 2064TIP3   OH2 6148   1.608   3.249   6.228
 2064TIP3    H1 6149   1.515   3.243   6.210
 2064TIP3    H2 6150   1.615   3.239   6.323
 2065TIP3   OH2 6151   1.452   0.300   6.726
 2065TIP3    H1 6152   1.545   0.286   6.745
 2065TIP3    H2 6153   1.407   0.269   6.805
 2066TIP3   OH2 6154   1.946   1.681   1.070
 2066TIP3    H1 6155   1.961   1.775   1.069
 2066TIP3    H2 6156   1.861   1.671   1.113
 2067TIP3   OH2 6157   2.217   4.301   4.134
 2067TIP3    H1 6158   2.292   4.356   4.109
 2067TIP3    H2 6159   2.238   4.214   4.098
 2068TIP3   OH2 6160   5.054   7.632   3.794
 2068TIP3    H1 6161   5.121   7.563   3.800
 2068TIP3    H2 6162   5.100   7.711   3.821
 2069TIP3   OH2 6163   4.246   4.262   4.608
 2069TIP3    H1 6164   4.291   4.178   4.596
 2069TIP3    H2 6165   4.280   4.296   4.691
 2070TIP3   OH2 6166   7.248   7.218   4.927
 2070TIP3    H1 6167   7.238   7.123   4.919
 2070TIP3    H2 6168   7.208   7.253   4.848
 2071TIP3   OH2 6169   8.041   1.488   4.127
 2071TIP3    H1 6170   8.131   1.456   4.140
 2071TIP3    H2 6171   8.029   1.487   4.032
 2072TIP3   OH2 6172   1.539   4.774   5.139
 2072TIP3    H1 6173   1.456   4.757   5.184
 2072TIP3    H2 6174   1.596   4.701   5.165
 2073TIP3   OH2 6175   0.717   5.477   5.534
 2073TIP3    H1 6176   0.635   5.459   5.580
 2073TIP3    H2 6177   0.690   5.506   5.447
 2074TIP3   OH2 6178   3.975   5.553   6.369
 2074TIP3    H1 6179   3.977   5.513   6.456
 2074TIP3    H2 6180   3.909   5.503   6.321
 2075TIP3   OH2 6181   4.656   5.095   0.962
 2075TIP3    H1 6182   4.728   5.033   0.953
 2075TIP3    H2 6183   4.577   5.042   0.955
 2076TIP3   OH2 6184   3.336   7.507   3.651
 2076TIP3    H1 6185   3.402   7.471   3.711
 2076TIP3    H2 6186   3.345   7.456   3.571
 2077TIP3   OH2 6187   6.729   4.172   6.618
 2077TIP3    H1 6188   6.680   4.197   6.540
 2077TIP3    H2 6189   6.662   4.151   6.683
 2078TIP3   OH2 6190   2.475   1.898   5.285
 2078TIP3    H1 6191   2.497   1.875   5.195
 2078TIP3    H2 6192   2.428   1.822   5.319
 2079TIP3   OH2 6193   5.445   4.173   5.828
 2079TIP3    H1 6194   5.464   4.091   5.782
 2079TIP3    H2 6195   5.415   4.233   5.760
 2080TIP3   OH2 6196   7.909   7.077   0.068
 2080TIP3    H1 6197   7.835   7.020   0.087
 2080TIP3    H2 6198   7.885   7.161   0.107
 2081TIP3   OH2 6199   4.137   7.409   2.634
 2081TIP3    H1 6200   4.198   7.338   2.615
 2081TIP3    H2 6201   4.192   7.479   2.670
 2082TIP3   OH2 6202   1.525   2.923   1.809
 2082TIP3    H1 6203   1.617   2.925   1.781
 2082TIP3    H2 6204   1.529   2.901   1.902
 2083TIP3   OH2 6205   2.510   0.123   4.024
 2083TIP3    H1 6206   2.549   0.159   3.945
 2083TIP3    H2 6207   2.416   0.121   4.006
 2084TIP3   OH2 6208   6.780   1.971   2.146
 2084TIP3    H1 6209   6.819   1.983   2.233
 2084TIP3    H2 6210   6.703   2.027   2.146
 2085TIP3   OH2 6211   5.704   0.435   4.293
 2085TIP3    H1 6212   5.744   0.427   4.206
 2085TIP3    H2 6213   5.669   0.348   4.311
 2086TIP3   OH2 6214   5.640   3.940   3.161
 2086TIP3    H1 6215   5.616   3.853   3.192
 2086TIP3    H2 6216   5.574   3.998   3.197
 2087TIP3   OH2 6217   4.512   6.116   0.204
 2087TIP3    H1 6218   4.596   6.094   0.245
 2087TIP3    H2 6219   4.526   6.204   0.168
 2088TIP3   OH2 6220   0.843   0.249   4.999
 2088TIP3    H1 6221   0.770   0.243   5.061
 2088TIP3    H2 6222   0.804   0.288   4.920
 2089TIP3   OH2 6223   0.248   3.465   4.082
 2089TIP3    H1 6224   0.175   3.527   4.081
 2089TIP3    H2 6225   0.208   3.379   4.070
 2090TIP3   OH2 6226   7.817   7.268   4.715
 2090TIP3    H1 6227   7.736   7.232   4.752
 2090TIP3    H2 6228   7.870   7.191   4.694
 2091TIP3   OH2 6229   4.230   1.433   0.490
 2091TIP3    H1 6230   4.242   1.371   0.418
 2091TIP3    H2 6231   4.187   1.508   0.449
 2092TIP3   OH2 6232   6.628   3.288   2.715
 2092TIP3    H1 6233   6.652   3.377   2.689
 2092TIP3    H2 6234   6.609   3.243   2.633
 2093TIP3   OH2 6235   1.639   0.610   0.679
 2093TIP3    H1 6236   1.576   0.544   0.649
 2093TIP3    H2 6237   1.589   0.665   0.739
 2094TIP3   OH2 6238   2.817   1.686   3.741
 2094TIP3    H1 6239   2.803   1.650   3.654
 2094TIP3    H2 6240   2.908   1.717   3.740
 2095TIP3   OH2 6241   3.949   3.786   4.809
 2095TIP3    H1 6242   3.973   3.694   4.822
 2095TIP3    H2 6243   3.996   3.812   4.730
 2096TIP3   OH2 6244   5.775   0.422   2.308
 2096TIP3    H1 6245   5.760   0.450   2.218
 2096TIP3    H2 6246   5.721   0.344   2.318
 2097TIP3   OH2 6247   1.357   4.171   1.002
 2097TIP3    H1 6248   1.323   4.193   0.916
 2097TIP3    H2 6249   1.303   4.223   1.063
 2098TIP3   OH2 6250   1.309   6.124   5.266
 2098TIP3    H1 6251   1.373   6.194   5.282
 2098TIP3    H2 6252   1.264   6.112   5.349
 2099TIP3   OH2 6253   2.701   6.543   2.300
 2099TIP3    H1 6254   2.667   6.502   2.380
 2099TIP3    H2 6255   2.793   6.515   2.297
 2100TIP3   OH2 6256   1.223   6.842   5.042
 2100TIP3    H1 6257   1.292   6.840   4.976
 2100TIP3    H2 6258   1.230   6.929   5.082
 2101TIP3   OH2 6259   2.502   3.922   4.937
 2101TIP3    H1 6260   2.430   3.921   4.874
 2101TIP3    H2 6261   2.463   3.957   5.017
 2102TIP3   OH2 6262   6.825   1.500   1.228
 2102TIP3    H1 6263   6.797   1.511   1.137
 2102TIP3    H2 6264   6.750   1.528   1.281
 2103TIP3   OH2 6265   0.223   2.702   4.040
 2103TIP3    H1 6266   0.279   2.734   4.110
 2103TIP3    H2 6267   0.265   2.732   3.960
 2104TIP3   OH2 6268   2.844   1.394   3.286
 2104TIP3    H1 6269   2.790   1.360   3.215
 2104TIP3    H2 6270   2.911   1.447   3.241
 2105TIP3   OH2 6271   2.531   2.803   6.411
 2105TIP3    H1 6272   2.613   2.790   6.362
 2105TIP3    H2 6273   2.472   2.845   6.349
 2106TIP3   OH2 6274   1.368   7.079   0.907
 2106TIP3    H1 6275   1.408   6.998   0.941
 2106TIP3    H2 6276   1.288   7.089   0.959
 2107TIP3   OH2 6277   6.562   0.738   0.527
 2107TIP3    H1 6278   6.597   0.816   0.484
 2107TIP3    H2 6279   6.559   0.671   0.458
 2108TIP3   OH2 6280   6.023   1.005   2.785
 2108TIP3    H1 6281   5.984   0.918   2.776
 2108TIP3    H2 6282   5.966   1.051   2.847
 2109TIP3   OH2 6283   0.037   4.211   4.903
 2109TIP3    H1 6284  -0.009   4.159   4.968
 2109TIP3    H2 6285   0.067   4.148   4.838
 2110TIP3   OH2 6286   4.555   3.260   4.550
 2110TIP3    H1 6287   4.577   3.249   4.642
 2110TIP3    H2 6288   4.628   3.311   4.514
 2111TIP3   OH2 6289   4.726   3.758   2.201
 2111TIP3    H1 6290   4.665   3.766   2.274
 2111TIP3    H2 6291   4.679   3.792   2.126
 2112TIP3   OH2 6292   5.204   6.915   3.784
 2112TIP3    H1 6293   5.289   6.959   3.787
 2112TIP3    H2 6294   5.224   6.824   3.762
 2113TIP3   OH2 6295   1.479   6.244   1.755
 2113TIP3    H1 6296   1.400   6.260   1.806
 2113TIP3    H2 6297   1.516   6.331   1.740
 2114TIP3   OH2 6298   8.245   4.831   0.064
 2114TIP3    H1 6299   8.254   4.772   0.139
 2114TIP3    H2 6300   8.334   4.865   0.051
 2115TIP3   OH2 6301   6.362   1.769   6.370
 2115TIP3    H1 6302   6.380   1.814   6.287
 2115TIP3    H2 6303   6.341   1.839   6.432
 2116TIP3   OH2 6304   3.741   1.796   4.595
 2116TIP3    H1 6305   3.733   1.861   4.665
 2116TIP3    H2 6306   3.662   1.743   4.602
 2117TIP3   OH2 6307   4.376   1.864   2.197
 2117TIP3    H1 6308   4.340   1.834   2.281
 2117TIP3    H2 6309   4.308   1.919   2.160
 2118TIP3   OH2 6310   2.215   5.626   2.073
 2118TIP3    H1 6311   2.151   5.606   2.004
 2118TIP3    H2 6312   2.195   5.562   2.142
 2119TIP3   OH2 6313   0.064   1.949   5.969
 2119TIP3    H1 6314   0.124   2.020   5.993
 2119TIP3    H2 6315   0.085   1.878   6.028
 2120TIP3   OH2 6316   4.576   1.299   2.010
 2120TIP3    H1 6317   4.562   1.240   2.084
 2120TIP3    H2 6318   4.611   1.243   1.941
 2121TIP3   OH2 6319   1.921   5.897   3.394
 2121TIP3    H1 6320   1.934   5.986   3.427
 2121TIP3    H2 6321   1.966   5.841   3.457
 2122TIP3   OH2 6322   7.534   5.238   1.538
 2122TIP3    H1 6323   7.627   5.235   1.561
 2122TIP3    H2 6324   7.497   5.303   1.598
 2123TIP3   OH2 6325   0.736   1.329   0.227
 2123TIP3    H1 6326   0.787   1.266   0.176
 2123TIP3    H2 6327   0.646   1.315   0.198
 2124TIP3   OH2 6328   4.069   4.135   0.173
 2124TIP3    H1 6329   4.094   4.170   0.258
 2124TIP3    H2 6330   3.976   4.157   0.164
 2125TIP3   OH2 6331   6.354   2.705   3.932
 2125TIP3    H1 6332   6.437   2.661   3.953
 2125TIP3    H2 6333   6.292   2.669   3.996
 2126TIP3   OH2 6334   2.805   0.319   2.343
 2126TIP3    H1 6335   2.836   0.262   2.273
 2126TIP3    H2 6336   2.885   0.354   2.383
 2127TIP3   OH2 6337   1.480   6.841   3.134
 2127TIP3    H1 6338   1.465   6.863   3.042
 2127TIP3    H2 6339   1.466   6.747   3.139
 2128TIP3   OH2 6340   3.516   1.643   2.829
 2128TIP3    H1 6341   3.523   1.553   2.860
 2128TIP3    H2 6342   3.491   1.693   2.906
 2129TIP3   OH2 6343   7.732   2.614   2.749
 2129TIP3    H1 6344   7.696   2.607   2.838
 2129TIP3    H2 6345   7.756   2.706   2.739
 2130TIP3   OH2 6346   3.245   3.747   5.687
 2130TIP3    H1 6347   3.255   3.680   5.620
 2130TIP3    H2 6348   3.153   3.744   5.710
 2131TIP3   OH2 6349   1.348   5.292   6.137
 2131TIP3    H1 6350   1.293   5.360   6.175
 2131TIP3    H2 6351   1.435   5.332   6.130
 2132TIP3   OH2 6352   1.585   3.878   2.096
 2132TIP3    H1 6353   1.502   3.892   2.050
 2132TIP3    H2 6354   1.611   3.789   2.071
 2133TIP3   OH2 6355   6.493   0.868   6.376
 2133TIP3    H1 6356   6.559   0.885   6.308
 2133TIP3    H2 6357   6.428   0.936   6.363
 2134TIP3   OH2 6358   0.691   4.074   3.647
 2134TIP3    H1 6359   0.695   3.978   3.645
 2134TIP3    H2 6360   0.704   4.100   3.556
 2135TIP3   OH2 6361   6.578   2.625   0.973
 2135TIP3    H1 6362   6.585   2.680   1.052
 2135TIP3    H2 6363   6.489   2.638   0.942
 2136TIP3   OH2 6364   0.837   7.686   4.663
 2136TIP3    H1 6365   0.784   7.653   4.735
 2136TIP3    H2 6366   0.785   7.758   4.627
 2137TIP3   OH2 6367   7.933   5.911   2.086
 2137TIP3    H1 6368   7.894   5.997   2.069
 2137TIP3    H2 6369   7.870   5.849   2.050
 2138TIP3   OH2 6370   2.675   1.378   3.784
 2138TIP3    H1 6371   2.726   1.297   3.783
 2138TIP3    H2 6372   2.691   1.416   3.697
 2139TIP3   OH2 6373   4.681   4.839   2.511
 2139TIP3    H1 6374   4.767   4.880   2.523
 2139TIP3    H2 6375   4.636   4.853   2.594
 2140TIP3   OH2 6376   2.066   6.753   3.235
 2140TIP3    H1 6377   2.109   6.782   3.316
 2140TIP3    H2 6378   1.981   6.719   3.263
 2141TIP3   OH2 6379   7.274   0.080   4.211
 2141TIP3    H1 6380   7.343   0.076   4.145
 2141TIP3    H2 6381   7.313   0.131   4.283
 2142TIP3   OH2 6382   3.441   0.419   5.057
 2142TIP3    H1 6383   3.444   0.389   4.966
 2142TIP3    H2 6384   3.525   0.462   5.071
 2143TIP3   OH2 6385   5.295   7.527   6.590
 2143TIP3    H1 6386   5.371   7.585   6.599
 2143TIP3    H2 6387   5.314   7.475   6.512
 2144TIP3   OH2 6388   0.212   3.510   1.349
 2144TIP3    H1 6389   0.195   3.587   1.404
 2144TIP3    H2 6390   0.305   3.516   1.327
 2145TIP3   OH2 6391   7.147   2.229   1.022
 2145TIP3    H1 6392   7.085   2.159   1.001
 2145TIP3    H2 6393   7.105   2.278   1.093
 2146TIP3   OH2 6394   4.745   1.175   5.028
 2146TIP3    H1 6395   4.832   1.187   4.991
 2146TIP3    H2 6396   4.760   1.125   5.108
 2147TIP3   OH2 6397   5.354   5.234   6.299
 2147TIP3    H1 6398   5.356   5.171   6.371
 2147TIP3    H2 6399   5.285   5.296   6.323
 2148TIP3   OH2 6400   5.025   0.250   3.604
 2148TIP3    H1 6401   5.072   0.187   3.549
 2148TIP3    H2 6402   4.938   0.210   3.617
 2149TIP3   OH2 6403   2.818   3.345   3.171
 2149TIP3    H1 6404   2.911   3.324   3.179
 2149TIP3    H2 6405   2.783   3.278   3.113
 2150TIP3   OH2 6406   2.425   4.563   6.680
 2150TIP3    H1 6407   2.495   4.563   6.616
 2150TIP3    H2 6408   2.375   4.643   6.661
 2151TIP3   OH2 6409   4.027   4.554   0.674
 2151TIP3    H1 6410   3.977   4.473   0.689
 2151TIP3    H2 6411   3.986   4.618   0.732
 2152TIP3   OH2 6412   3.406   2.792   5.346
 2152TIP3    H1 6413   3.398   2.720   5.409
 2152TIP3    H2 6414   3.412   2.747   5.261
 2153TIP3   OH2 6415   4.216   7.452   3.400
 2153TIP3    H1 6416   4.238   7.364   3.429
 2153TIP3    H2 6417   4.121   7.457   3.408
 2154TIP3   OH2 6418   6.882   2.931   3.115
 2154TIP3    H1 6419   6.792   2.958   3.099
 2154TIP3    H2 6420   6.911   2.893   3.032
 2155TIP3   OH2 6421   2.826   7.039   6.624
 2155TIP3    H1 6422   2.887   7.002   6.560
 2155TIP3    H2 6423   2.747   6.986   6.614
 2156TIP3   OH2 6424   2.714   6.847   4.797
 2156TIP3    H1 6425   2.750   6.758   4.791
 2156TIP3    H2 6426   2.741   6.878   4.883
 2157TIP3   OH2 6427   6.474   6.096   2.276
 2157TIP3    H1 6428   6.565   6.068   2.264
 2157TIP3    H2 6429   6.468   6.122   2.367
 2158TIP3   OH2 6430   2.195   1.275   3.600
 2158TIP3    H1 6431   2.267   1.234   3.552
 2158TIP3    H2 6432   2.116   1.249   3.554
 2159TIP3   OH2 6433   6.927   7.367   3.323
 2159TIP3    H1 6434   6.950   7.327   3.407
 2159TIP3    H2 6435   7.007   7.411   3.294
 2160TIP3   OH2 6436   2.519   3.813   1.244
 2160TIP3    H1 6437   2.509   3.744   1.310
 2160TIP3    H2 6438   2.606   3.797   1.207
 2161TIP3   OH2 6439   4.851   7.682   4.245
 2161TIP3    H1 6440   4.853   7.637   4.160
 2161TIP3    H2 6441   4.785   7.635   4.295
 2162TIP3   OH2 6442   1.942   1.683   3.432
 2162TIP3    H1 6443   1.885   1.619   3.390
 2162TIP3    H2 6444   2.005   1.630   3.482
 2163TIP3   OH2 6445   2.350   5.894   0.104
 2163TIP3    H1 6446   2.314   5.833   0.168
 2163TIP3    H2 6447   2.295   5.884   0.027
 2164TIP3   OH2 6448   1.543   0.208   3.663
 2164TIP3    H1 6449   1.533   0.124   3.709
 2164TIP3    H2 6450   1.515   0.189   3.573
 2165TIP3   OH2 6451   3.073   5.062   2.184
 2165TIP3    H1 6452   2.992   5.088   2.139
 2165TIP3    H2 6453   3.073   4.966   2.180
 2166TIP3   OH2 6454   0.540   6.104   0.581
 2166TIP3    H1 6455   0.496   6.068   0.504
 2166TIP3    H2 6456   0.490   6.182   0.603
 2167TIP3   OH2 6457   0.998   2.295   1.171
 2167TIP3    H1 6458   1.011   2.383   1.137
 2167TIP3    H2 6459   1.042   2.237   1.109
 2168TIP3   OH2 6460   6.368   7.432   3.690
 2168TIP3    H1 6461   6.378   7.388   3.606
 2168TIP3    H2 6462   6.457   7.448   3.720
 2169TIP3   OH2 6463   7.912   7.119   5.353
 2169TIP3    H1 6464   7.982   7.171   5.392
 2169TIP3    H2 6465   7.951   7.081   5.274
 2170TIP3   OH2 6466   1.518   7.292   3.382
 2170TIP3    H1 6467   1.536   7.198   3.380
 2170TIP3    H2 6468   1.595   7.331   3.341
 2171TIP3   OH2 6469   0.502   2.644   3.774
 2171TIP3    H1 6470   0.574   2.606   3.824
 2171TIP3    H2 6471   0.443   2.570   3.757
 2172TIP3   OH2 6472   7.586   7.216   5.850
 2172TIP3    H1 6473   7.510   7.269   5.874
 2172TIP3    H2 6474   7.661   7.272   5.869
 2173TIP3   OH2 6475   0.212   4.430   2.731
 2173TIP3    H1 6476   0.281   4.477   2.778
 2173TIP3    H2 6477   0.256   4.391   2.656
 2174TIP3   OH2 6478   7.141   0.750   3.336
 2174TIP3    H1 6479   7.085   0.758   3.413
 2174TIP3    H2 6480   7.080   0.746   3.262
 2175TIP3   OH2 6481   6.378   5.848   2.229
 2175TIP3    H1 6482   6.379   5.854   2.133
 2175TIP3    H2 6483   6.428   5.924   2.258
 2176TIP3   OH2 6484   6.746   5.631   5.560
 2176TIP3    H1 6485   6.767   5.537   5.553
 2176TIP3    H2 6486   6.714   5.642   5.649
 2177TIP3   OH2 6487   2.663   7.285   0.485
 2177TIP3    H1 6488   2.654   7.282   0.389
 2177TIP3    H2 6489   2.695   7.373   0.503
 2178TIP3   OH2 6490   1.010   3.470   6.021
 2178TIP3    H1 6491   1.050   3.441   5.939
 2178TIP3    H2 6492   0.964   3.551   5.998
 2179TIP3   OH2 6493   0.823   5.850   2.874
 2179TIP3    H1 6494   0.840   5.768   2.829
 2179TIP3    H2 6495   0.875   5.915   2.827
 2180TIP3   OH2 6496   3.125   7.404   0.595
 2180TIP3    H1 6497   3.183   7.468   0.636
 2180TIP3    H2 6498   3.046   7.405   0.649
 2181TIP3   OH2 6499   8.042   4.346   6.358
 2181TIP3    H1 6500   7.959   4.325   6.314
 2181TIP3    H2 6501   8.079   4.417   6.307
 2182TIP3   OH2 6502   5.496   0.254   6.397
 2182TIP3    H1 6503   5.573   0.226   6.349
 2182TIP3    H2 6504   5.469   0.177   6.447
 2183TIP3   OH2 6505   1.766   5.194   1.971
 2183TIP3    H1 6506   1.774   5.283   1.937
 2183TIP3    H2 6507   1.762   5.205   2.066
 2184TIP3   OH2 6508   3.947   7.049   5.940
 2184TIP3    H1 6509   3.914   7.002   5.864
 2184TIP3    H2 6510   4.030   7.007   5.960
 2185TIP3   OH2 6511   7.306   1.671   6.345
 2185TIP3    H1 6512   7.258   1.753   6.355
 2185TIP3    H2 6513   7.377   1.693   6.284
 2186TIP3   OH2 6514   1.085   0.685   2.912
 2186TIP3    H1 6515   1.137   0.756   2.876
 2186TIP3    H2 6516   1.146   0.611   2.919
 2187TIP3   OH2 6517   7.207   4.288   0.117
 2187TIP3    H1 6518   7.173   4.375   0.135
 2187TIP3    H2 6519   7.145   4.229   0.160
 2188TIP3   OH2 6520   1.963   6.129   3.862
 2188TIP3    H1 6521   2.051   6.094   3.845
 2188TIP3    H2 6522   1.965   6.217   3.824
 2189TIP3   OH2 6523   3.197   6.864   1.717
 2189TIP3    H1 6524   3.132   6.932   1.700
 2189TIP3    H2 6525   3.187   6.844   1.810
 2190TIP3   OH2 6526   0.843   4.484   2.130
 2190TIP3    H1 6527   0.792   4.558   2.161
 2190TIP3    H2 6528   0.861   4.504   2.038
 2191TIP3   OH2 6529   3.424   7.536   6.529
 2191TIP3    H1 6530   3.468   7.592   6.464
 2191TIP3    H2 6531   3.386   7.598   6.591
 2192TIP3   OH2 6532   0.846   0.847   3.647
 2192TIP3    H1 6533   0.828   0.866   3.555
 2192TIP3    H2 6534   0.941   0.858   3.656
 2193TIP3   OH2 6535   6.133   3.386   5.199
 2193TIP3    H1 6536   6.175   3.302   5.183
 2193TIP3    H2 6537   6.039   3.369   5.188
 2194TIP3   OH2 6538   4.112   5.589   4.608
 2194TIP3    H1 6539   4.024   5.622   4.591
 2194TIP3    H2 6540   4.170   5.655   4.570
 2195TIP3   OH2 6541   5.381   0.159   4.743
 2195TIP3    H1 6542   5.456   0.110   4.709
 2195TIP3    H2 6543   5.370   0.127   4.833
 2196TIP3   OH2 6544   2.914   1.812   3.089
 2196TIP3    H1 6545   2.889   1.736   3.036
 2196TIP3    H2 6546   2.922   1.884   3.026
 2197TIP3   OH2 6547   0.266   5.537   4.740
 2197TIP3    H1 6548   0.221   5.470   4.688
 2197TIP3    H2 6549   0.323   5.581   4.677
 2198TIP3   OH2 6550   2.329   1.709   1.967
 2198TIP3    H1 6551   2.320   1.647   2.040
 2198TIP3    H2 6552   2.318   1.795   2.007
 2199TIP3   OH2 6553   6.736   6.820   5.818
 2199TIP3    H1 6554   6.788   6.740   5.813
 2199TIP3    H2 6555   6.740   6.846   5.909
 2200TIP3   OH2 6556   5.794   1.052   6.562
 2200TIP3    H1 6557   5.722   1.013   6.512
 2200TIP3    H2 6558   5.833   0.978   6.609
 2201TIP3   OH2 6559   6.258   1.559   5.336
 2201TIP3    H1 6560   6.257   1.495   5.408
 2201TIP3    H2 6561   6.174   1.548   5.293
 2202TIP3   OH2 6562   2.831   2.604   3.661
 2202TIP3    H1 6563   2.749   2.606   3.611
 2202TIP3    H2 6564   2.812   2.656   3.739
 2203TIP3   OH2 6565   1.739   4.093   1.703
 2203TIP3    H1 6566   1.771   4.180   1.726
 2203TIP3    H2 6567   1.818   4.039   1.699
 2204TIP3   OH2 6568   1.625   3.731   0.932
 2204TIP3    H1 6569   1.683   3.658   0.911
 2204TIP3    H2 6570   1.538   3.703   0.905
 2205TIP3   OH2 6571   1.283   2.347   4.668
 2205TIP3    H1 6572   1.209   2.291   4.644
 2205TIP3    H2 6573   1.251   2.436   4.654
 2206TIP3   OH2 6574   2.783   1.036   0.124
 2206TIP3    H1 6575   2.783   1.068   0.214
 2206TIP3    H2 6576   2.873   1.045   0.095
 2207TIP3   OH2 6577   7.444   1.547   4.511
 2207TIP3    H1 6578   7.350   1.557   4.524
 2207TIP3    H2 6579   7.472   1.487   4.579
 2208TIP3   OH2 6580   7.492   3.198   1.726
 2208TIP3    H1 6581   7.452   3.202   1.639
 2208TIP3    H2 6582   7.557   3.268   1.725
 2209TIP3   OH2 6583   7.011   6.666   5.875
 2209TIP3    H1 6584   7.011   6.571   5.863
 2209TIP3    H2 6585   7.001   6.702   5.787
 2210TIP3   OH2 6586   0.369   2.217   4.589
 2210TIP3    H1 6587   0.382   2.179   4.503
 2210TIP3    H2 6588   0.284   2.261   4.583
 2211TIP3   OH2 6589   2.716   5.341   6.825
 2211TIP3    H1 6590   2.726   5.386   6.741
 2211TIP3    H2 6591   2.665   5.262   6.803
 2212TIP3   OH2 6592   0.459   5.345   0.380
 2212TIP3    H1 6593   0.451   5.265   0.431
 2212TIP3    H2 6594   0.394   5.404   0.419
 2213TIP3   OH2 6595   3.262   7.794   3.217
 2213TIP3    H1 6596   3.302   7.864   3.166
 2213TIP3    H2 6597   3.277   7.820   3.308
 2214TIP3   OH2 6598   4.430   2.350   3.357
 2214TIP3    H1 6599   4.381   2.334   3.277
 2214TIP3    H2 6600   4.522   2.335   3.333
 2215TIP3   OH2 6601   0.310   3.991   0.017
 2215TIP3    H1 6602   0.297   4.000   0.112
 2215TIP3    H2 6603   0.274   4.072  -0.019
 2216TIP3   OH2 6604   3.640   7.533   4.752
 2216TIP3    H1 6605   3.696   7.600   4.712
 2216TIP3    H2 6606   3.689   7.451   4.742
 2217TIP3   OH2 6607   3.786   4.213   4.727
 2217TIP3    H1 6608   3.729   4.152   4.775
 2217TIP3    H2 6609   3.772   4.298   4.771
 2218TIP3   OH2 6610   7.687   3.805   5.728
 2218TIP3    H1 6611   7.634   3.837   5.655
 2218TIP3    H2 6612   7.776   3.801   5.694
 2219TIP3   OH2 6613   6.117   1.679   3.099
 2219TIP3    H1 6614   6.187   1.656   3.161
 2219TIP3    H2 6615   6.106   1.773   3.109
 2220TIP3   OH2 6616   5.825   0.434   6.107
 2220TIP3    H1 6617   5.901   0.492   6.112
 2220TIP3    H2 6618   5.750   0.492   6.104
 2221TIP3   OH2 6619   0.534   7.526   1.452
 2221TIP3    H1 6620   0.539   7.541   1.546
 2221TIP3    H2 6621   0.611   7.472   1.432
 2222TIP3   OH2 6622   4.816   3.050   5.353
 2222TIP3    H1 6623   4.836   2.968   5.309
 2222TIP3    H2 6624   4.843   3.118   5.291
 2223TIP3   OH2 6625   5.874   2.883   0.953
 2223TIP3    H1 6626   5.813   2.809   0.952
 2223TIP3    H2 6627   5.961   2.842   0.962
 2224TIP3   OH2 6628   1.781   4.496   2.442
 2224TIP3    H1 6629   1.769   4.408   2.476
 2224TIP3    H2 6630   1.739   4.495   2.356
 2225TIP3   OH2 6631   7.814   1.434   3.379
 2225TIP3    H1 6632   7.851   1.431   3.291
 2225TIP3    H2 6633   7.869   1.497   3.426
 2226TIP3   OH2 6634   4.209   1.289   2.057
 2226TIP3    H1 6635   4.235   1.208   2.012
 2226TIP3    H2 6636   4.223   1.358   1.992
 2227TIP3   OH2 6637   5.453   3.073   1.859
 2227TIP3    H1 6638   5.477   2.981   1.850
 2227TIP3    H2 6639   5.535   3.120   1.843
 2228TIP3   OH2 6640   4.301   0.480   2.730
 2228TIP3    H1 6641   4.249   0.432   2.795
 2228TIP3    H2 6642   4.239   0.505   2.662
 2229TIP3   OH2 6643   6.311   1.009   5.347
 2229TIP3    H1 6644   6.240   0.995   5.409
 2229TIP3    H2 6645   6.377   0.944   5.370
 2230TIP3   OH2 6646   1.687   1.988   0.302
 2230TIP3    H1 6647   1.679   1.994   0.207
 2230TIP3    H2 6648   1.770   1.942   0.316
 2231TIP3   OH2 6649   6.464   4.560   4.495
 2231TIP3    H1 6650   6.456   4.655   4.489
 2231TIP3    H2 6651   6.438   4.540   4.585
 2232TIP3   OH2 6652   7.007   7.842   3.339
 2232TIP3    H1 6653   7.056   7.760   3.343
 2232TIP3    H2 6654   6.938   7.826   3.275
 2233TIP3   OH2 6655   0.374   0.744   4.446
 2233TIP3    H1 6656   0.334   0.782   4.368
 2233TIP3    H2 6657   0.463   0.780   4.448
 2234TIP3   OH2 6658   0.617   1.036   4.070
 2234TIP3    H1 6659   0.675   0.982   4.016
 2234TIP3    H2 6660   0.586   1.104   4.010
 2235TIP3   OH2 6661   6.541   6.565   6.146
 2235TIP3    H1 6662   6.476   6.635   6.143
 2235TIP3    H2 6663   6.625   6.610   6.154
 2236TIP3   OH2 6664   2.195   5.302   1.393
 2236TIP3    H1 6665   2.122   5.271   1.447
 2236TIP3    H2 6666   2.222   5.384   1.434
 2237TIP3   OH2 6667   7.474   1.058   3.254
 2237TIP3    H1 6668   7.415   1.121   3.295
 2237TIP3    H2 6669   7.528   1.110   3.195
 2238TIP3   OH2 6670   6.607   6.180   2.525
 2238TIP3    H1 6671   6.576   6.115   2.588
 2238TIP3    H2 6672   6.701   6.183   2.538
 2239TIP3   OH2 6673   2.948   6.811   1.200
 2239TIP3    H1 6674   2.999   6.746   1.248
 2239TIP3    H2 6675   2.878   6.762   1.158
 2240TIP3   OH2 6676   3.868   5.906   4.672
 2240TIP3    H1 6677   3.844   5.841   4.606
 2240TIP3    H2 6678   3.945   5.949   4.636
 2241TIP3   OH2 6679   0.120   0.284   0.688
 2241TIP3    H1 6680   0.179   0.216   0.719
 2241TIP3    H2 6681   0.177   0.360   0.672
 2242TIP3   OH2 6682   4.623   4.197   5.468
 2242TIP3    H1 6683   4.658   4.271   5.418
 2242TIP3    H2 6684   4.601   4.131   5.402
 2243TIP3   OH2 6685   6.381   4.688   2.431
 2243TIP3    H1 6686   6.349   4.773   2.402
 2243TIP3    H2 6687   6.310   4.627   2.409
 2244TIP3   OH2 6688   1.536   2.041   3.555
 2244TIP3    H1 6689   1.488   2.040   3.638
 2244TIP3    H2 6690   1.595   2.116   3.563
 2245TIP3   OH2 6691   5.349   1.873   5.239
 2245TIP3    H1 6692   5.306   1.945   5.286
 2245TIP3    H2 6693   5.277   1.818   5.209
 2246TIP3   OH2 6694   1.968   1.648   5.638
 2246TIP3    H1 6695   2.038   1.588   5.613
 2246TIP3    H2 6696   1.932   1.611   5.718
 2247TIP3   OH2 6697   6.072   5.631   6.437
 2247TIP3    H1 6698   6.128   5.602   6.508
 2247TIP3    H2 6699   6.028   5.551   6.407
 2248TIP3   OH2 6700   2.246   3.749   2.473
 2248TIP3    H1 6701   2.296   3.733   2.553
 2248TIP3    H2 6702   2.210   3.663   2.450
 2249TIP3   OH2 6703   0.440   3.309   0.549
 2249TIP3    H1 6704   0.357   3.262   0.555
 2249TIP3    H2 6705   0.415   3.401   0.541
 2250TIP3   OH2 6706   1.414   3.931   6.613
 2250TIP3    H1 6707   1.351   4.000   6.590
 2250TIP3    H2 6708   1.490   3.979   6.645
 2251TIP3   OH2 6709   0.982   2.682   4.812
 2251TIP3    H1 6710   1.005   2.635   4.732
 2251TIP3    H2 6711   0.948   2.614   4.870
 2252TIP3   OH2 6712   0.060   4.099   1.824
 2252TIP3    H1 6713   0.125   4.087   1.755
 2252TIP3    H2 6714   0.006   4.019   1.820
 2253TIP3   OH2 6715   0.629   4.165   1.042
 2253TIP3    H1 6716   0.619   4.249   0.996
 2253TIP3    H2 6717   0.641   4.188   1.134
 2254TIP3   OH2 6718   8.244   7.477   0.989
 2254TIP3    H1 6719   8.229   7.410   0.922
 2254TIP3    H2 6720   8.292   7.431   1.059
 2255TIP3   OH2 6721   6.184   2.748   2.476
 2255TIP3    H1 6722   6.239   2.823   2.498
 2255TIP3    H2 6723   6.227   2.673   2.516
 2256TIP3   OH2 6724   7.748   1.805   6.391
 2256TIP3    H1 6725   7.779   1.763   6.311
 2256TIP3    H2 6726   7.818   1.864   6.417
 2257TIP3   OH2 6727   0.885   1.573   1.103
 2257TIP3    H1 6728   0.909   1.508   1.169
 2257TIP3    H2 6729   0.791   1.560   1.089
 2258TIP3   OH2 6730   0.247   4.649   0.167
 2258TIP3    H1 6731   0.333   4.647   0.210
 2258TIP3    H2 6732   0.192   4.702   0.225
 2259TIP3   OH2 6733   4.430   4.494   5.973
 2259TIP3    H1 6734   4.456   4.551   6.045
 2259TIP3    H2 6735   4.465   4.537   5.895
 2260TIP3   OH2 6736   7.193   1.961   0.838
 2260TIP3    H1 6737   7.132   1.889   0.826
 2260TIP3    H2 6738   7.239   1.940   0.919
 2261TIP3   OH2 6739   0.738   1.702   3.812
 2261TIP3    H1 6740   0.727   1.611   3.841
 2261TIP3    H2 6741   0.720   1.754   3.891
 2262TIP3   OH2 6742   8.137   0.737   1.354
 2262TIP3    H1 6743   8.141   0.808   1.289
 2262TIP3    H2 6744   8.221   0.742   1.400
 2263TIP3   OH2 6745   6.209   4.042   4.457
 2263TIP3    H1 6746   6.114   4.036   4.449
 2263TIP3    H2 6747   6.243   3.987   4.386
 2264TIP3   OH2 6748   4.799   6.249   2.803
 2264TIP3    H1 6749   4.847   6.167   2.796
 2264TIP3    H2 6750   4.839   6.306   2.737
 2265TIP3   OH2 6751   5.788   6.816   2.996
 2265TIP3    H1 6752   5.802   6.784   3.085
 2265TIP3    H2 6753   5.734   6.894   3.007
 2266TIP3   OH2 6754   0.997   4.635   2.684
 2266TIP3    H1 6755   1.070   4.672   2.734
 2266TIP3    H2 6756   0.945   4.711   2.658
 2267TIP3   OH2 6757   8.039   7.462   0.395
 2267TIP3    H1 6758   8.117   7.420   0.431
 2267TIP3    H2 6759   7.972   7.450   0.463
 2268TIP3   OH2 6760   6.311   6.508   3.521
 2268TIP3    H1 6761   6.398   6.475   3.541
 2268TIP3    H2 6762   6.281   6.549   3.602
 2269TIP3   OH2 6763   5.134   0.492   2.657
 2269TIP3    H1 6764   5.045   0.466   2.632
 2269TIP3    H2 6765   5.187   0.471   2.581
 2270TIP3   OH2 6766   7.860   4.278   3.486
 2270TIP3    H1 6767   7.865   4.186   3.511
 2270TIP3    H2 6768   7.918   4.286   3.410
 2271TIP3   OH2 6769   0.271   0.517   2.667
 2271TIP3    H1 6770   0.223   0.555   2.593
 2271TIP3    H2 6771   0.295   0.593   2.721
 2272TIP3   OH2 6772   5.986   7.451   2.271
 2272TIP3    H1 6773   5.890   7.449   2.271
 2272TIP3    H2 6774   6.008   7.541   2.246
 2273TIP3   OH2 6775   5.903   1.019   4.015
 2273TIP3    H1 6776   5.851   1.088   3.974
 2273TIP3    H2 6777   5.986   1.019   3.966
 2274TIP3   OH2 6778   8.019   3.031   1.158
 2274TIP3    H1 6779   8.056   3.119   1.169
 2274TIP3    H2 6780   8.000   3.002   1.247
 2275TIP3   OH2 6781   3.556   1.074   2.762
 2275TIP3    H1 6782   3.599   1.016   2.699
 2275TIP3    H2 6783   3.625   1.099   2.823
 2276TIP3   OH2 6784   3.110   2.979   0.496
 2276TIP3    H1 6785   3.105   3.022   0.410
 2276TIP3    H2 6786   3.173   3.031   0.545
 2277TIP3   OH2 6787   1.247   7.210   2.212
 2277TIP3    H1 6788   1.322   7.150   2.213
 2277TIP3    H2 6789   1.280   7.289   2.169
 2278TIP3   OH2 6790   1.978   2.072   0.077
 2278TIP3    H1 6791   1.996   2.142   0.141
 2278TIP3    H2 6792   1.911   2.109   0.020
 2279TIP3   OH2 6793   0.924   5.338   4.957
 2279TIP3    H1 6794   0.944   5.249   4.931
 2279TIP3    H2 6795   0.903   5.383   4.875
 2280TIP3   OH2 6796   1.620   3.852   5.645
 2280TIP3    H1 6797   1.697   3.894   5.683
 2280TIP3    H2 6798   1.631   3.862   5.551
 2281TIP3   OH2 6799   4.683   6.723   4.688
 2281TIP3    H1 6800   4.724   6.715   4.602
 2281TIP3    H2 6801   4.652   6.635   4.708
 2282TIP3   OH2 6802   2.998   5.605   1.911
 2282TIP3    H1 6803   2.991   5.642   1.822
 2282TIP3    H2 6804   2.907   5.590   1.937
 2283TIP3   OH2 6805   8.143   4.256   1.350
 2283TIP3    H1 6806   8.208   4.229   1.414
 2283TIP3    H2 6807   8.082   4.182   1.345
 2284TIP3   OH2 6808   3.616   0.451   2.973
 2284TIP3    H1 6809   3.606   0.443   3.068
 2284TIP3    H2 6810   3.666   0.532   2.961
 2285TIP3   OH2 6811   7.376   2.953   4.053
 2285TIP3    H1 6812   7.371   2.860   4.074
 2285TIP3    H2 6813   7.285   2.982   4.049
 2286TIP3   OH2 6814   4.502   2.295   4.715
 2286TIP3    H1 6815   4.473   2.385   4.734
 2286TIP3    H2 6816   4.598   2.301   4.714
 2287TIP3   OH2 6817   1.258   0.925   5.931
 2287TIP3    H1 6818   1.230   0.990   5.867
 2287TIP3    H2 6819   1.316   0.866   5.883
 2288TIP3   OH2 6820   7.185   1.675   3.005
 2288TIP3    H1 6821   7.197   1.765   2.974
 2288TIP3    H2 6822   7.114   1.641   2.951
 2289TIP3   OH2 6823   1.452   1.002   6.148
 2289TIP3    H1 6824   1.419   1.041   6.067
 2289TIP3    H2 6825   1.404   0.920   6.156
 2290TIP3   OH2 6826   2.396   7.292   0.616
 2290TIP3    H1 6827   2.491   7.284   0.606
 2290TIP3    H2 6828   2.367   7.331   0.533
 2291TIP3   OH2 6829   5.827   2.217   1.680
 2291TIP3    H1 6830   5.810   2.123   1.687
 2291TIP3    H2 6831   5.897   2.225   1.615
 2292TIP3   OH2 6832   4.371   7.350   1.239
 2292TIP3    H1 6833   4.355   7.391   1.324
 2292TIP3    H2 6834   4.300   7.286   1.229
 2293TIP3   OH2 6835   2.418   7.165   4.834
 2293TIP3    H1 6836   2.483   7.172   4.764
 2293TIP3    H2 6837   2.407   7.071   4.847
 2294TIP3   OH2 6838   1.802   7.579   1.609
 2294TIP3    H1 6839   1.729   7.574   1.548
 2294TIP3    H2 6840   1.765   7.552   1.693
 2295TIP3   OH2 6841   0.956   6.501   4.204
 2295TIP3    H1 6842   0.877   6.460   4.169
 2295TIP3    H2 6843   0.923   6.564   4.269
 2296TIP3   OH2 6844   1.876   7.459   5.486
 2296TIP3    H1 6845   1.815   7.410   5.431
 2296TIP3    H2 6846   1.922   7.518   5.426
 2297TIP3   OH2 6847   1.632   7.096   4.454
 2297TIP3    H1 6848   1.724   7.089   4.429
 2297TIP3    H2 6849   1.592   7.147   4.384
 2298TIP3   OH2 6850   6.238   5.762   0.127
 2298TIP3    H1 6851   6.164   5.723   0.082
 2298TIP3    H2 6852   6.205   5.784   0.214
 2299TIP3   OH2 6853   1.829   0.099   0.804
 2299TIP3    H1 6854   1.749   0.048   0.811
 2299TIP3    H2 6855   1.894   0.037   0.770
 2300TIP3   OH2 6856   6.604   6.233   0.067
 2300TIP3    H1 6857   6.684   6.215   0.018
 2300TIP3    H2 6858   6.534   6.198   0.011
 2301TIP3   OH2 6859   4.009   4.138   6.549
 2301TIP3    H1 6860   3.981   4.218   6.505
 2301TIP3    H2 6861   3.959   4.068   6.506
 2302TIP3   OH2 6862   4.226   2.757   3.599
 2302TIP3    H1 6863   4.205   2.838   3.646
 2302TIP3    H2 6864   4.234   2.785   3.507
 2303TIP3   OH2 6865   2.309   5.464   5.353
 2303TIP3    H1 6866   2.348   5.412   5.283
 2303TIP3    H2 6867   2.374   5.462   5.424
 2304TIP3   OH2 6868   5.518   1.578   5.072
 2304TIP3    H1 6869   5.611   1.558   5.075
 2304TIP3    H2 6870   5.483   1.543   5.154
 2305TIP3   OH2 6871   0.058   5.587   6.219
 2305TIP3    H1 6872   0.013   5.599   6.135
 2305TIP3    H2 6873   0.137   5.640   6.211
 2306TIP3   OH2 6874   7.349   1.757   0.594
 2306TIP3    H1 6875   7.297   1.696   0.541
 2306TIP3    H2 6876   7.320   1.844   0.567
 2307TIP3   OH2 6877   5.300   2.619   3.935
 2307TIP3    H1 6878   5.375   2.612   3.993
 2307TIP3    H2 6879   5.297   2.535   3.889
 2308TIP3   OH2 6880   8.264   1.725   5.255
 2308TIP3    H1 6881   8.170   1.719   5.274
 2308TIP3    H2 6882   8.296   1.793   5.314
 2309TIP3   OH2 6883   2.024   1.717   4.369
 2309TIP3    H1 6884   2.027   1.631   4.327
 2309TIP3    H2 6885   2.109   1.757   4.349
 2310TIP3   OH2 6886   4.432   3.267   1.568
 2310TIP3    H1 6887   4.511   3.310   1.601
 2310TIP3    H2 6888   4.423   3.301   1.479
 2311TIP3   OH2 6889   7.007   0.902   5.770
 2311TIP3    H1 6890   6.966   0.925   5.686
 2311TIP3    H2 6891   7.088   0.859   5.746
 2312TIP3   OH2 6892   1.745   4.874   0.532
 2312TIP3    H1 6893   1.711   4.885   0.443
 2312TIP3    H2 6894   1.722   4.956   0.576
 2313TIP3   OH2 6895   7.299   4.773   6.116
 2313TIP3    H1 6896   7.208   4.748   6.128
 2313TIP3    H2 6897   7.331   4.715   6.047
 2314TIP3   OH2 6898   7.296   0.648   0.072
 2314TIP3    H1 6899   7.226   0.665   0.008
 2314TIP3    H2 6900   7.376   0.677   0.028
 2315TIP3   OH2 6901   7.924   0.141   0.873
 2315TIP3    H1 6902   8.018   0.151   0.860
 2315TIP3    H2 6903   7.915   0.125   0.967
 2316TIP3   OH2 6904   5.492   4.643   5.837
 2316TIP3    H1 6905   5.436   4.715   5.868
 2316TIP3    H2 6906   5.479   4.573   5.901
 2317TIP3   OH2 6907   2.314   5.164   6.141
 2317TIP3    H1 6908   2.283   5.085   6.097
 2317TIP3    H2 6909   2.273   5.161   6.227
 2318TIP3   OH2 6910   4.867   7.641   5.382
 2318TIP3    H1 6911   4.786   7.675   5.418
 2318TIP3    H2 6912   4.840   7.565   5.330
 2319TIP3   OH2 6913   7.666   1.972   0.816
 2319TIP3    H1 6914   7.667   2.021   0.898
 2319TIP3    H2 6915   7.605   1.900   0.832
 2320TIP3   OH2 6916   0.068   3.692   5.453
 2320TIP3    H1 6917   0.125   3.618   5.432
 2320TIP3    H2 6918   0.025   3.712   5.370
 2321TIP3   OH2 6919   2.396   3.009   5.514
 2321TIP3    H1 6920   2.452   3.044   5.444
 2321TIP3    H2 6921   2.367   3.086   5.562
 2322TIP3   OH2 6922   5.022   2.976   3.400
 2322TIP3    H1 6923   5.016   2.925   3.481
 2322TIP3    H2 6924   5.097   2.939   3.353
 2323TIP3   OH2 6925   3.123   6.271   3.389
 2323TIP3    H1 6926   3.074   6.247   3.310
 2323TIP3    H2 6927   3.059   6.316   3.444
 2324TIP3   OH2 6928   6.807   1.851   0.669
 2324TIP3    H1 6929   6.725   1.802   0.666
 2324TIP3    H2 6930   6.780   1.941   0.689
 2325TIP3   OH2 6931   0.861   3.108   4.436
 2325TIP3    H1 6932   0.876   3.191   4.392
 2325TIP3    H2 6933   0.768   3.089   4.422
 2326TIP3   OH2 6934   6.460   7.433   0.178
 2326TIP3    H1 6935   6.517   7.368   0.138
 2326TIP3    H2 6936   6.503   7.517   0.160
 2327TIP3   OH2 6937   1.214   0.762   2.082
 2327TIP3    H1 6938   1.256   0.764   2.168
 2327TIP3    H2 6939   1.282   0.790   2.021
 2328TIP3   OH2 6940   0.910   2.646   6.364
 2328TIP3    H1 6941   0.845   2.714   6.383
 2328TIP3    H2 6942   0.925   2.602   6.447
 2329TIP3   OH2 6943   4.638   4.575   6.402
 2329TIP3    H1 6944   4.580   4.614   6.467
 2329TIP3    H2 6945   4.726   4.594   6.434
 2330TIP3   OH2 6946   7.938   0.988   4.191
 2330TIP3    H1 6947   7.862   0.984   4.249
 2330TIP3    H2 6948   7.989   0.911   4.214
 2331TIP3   OH2 6949   0.951   3.822   4.579
 2331TIP3    H1 6950   1.024   3.785   4.629
 2331TIP3    H2 6951   0.890   3.853   4.646
 2332TIP3   OH2 6952   2.031   5.233   1.640
 2332TIP3    H1 6953   1.944   5.259   1.610
 2332TIP3    H2 6954   2.015   5.165   1.706
 2333TIP3   OH2 6955   5.489   4.181   4.777
 2333TIP3    H1 6956   5.458   4.271   4.784
 2333TIP3    H2 6957   5.467   4.154   4.688
 2334TIP3   OH2 6958   3.411   2.385   3.232
 2334TIP3    H1 6959   3.353   2.417   3.302
 2334TIP3    H2 6960   3.479   2.337   3.278
 2335TIP3   OH2 6961   0.096   3.781   3.346
 2335TIP3    H1 6962   0.076   3.839   3.419
 2335TIP3    H2 6963   0.015   3.779   3.294
 2336TIP3   OH2 6964   3.136   7.361   4.833
 2336TIP3    H1 6965   3.194   7.342   4.906
 2336TIP3    H2 6966   3.079   7.431   4.865
 2337TIP3   OH2 6967   2.995   5.077   0.782
 2337TIP3    H1 6968   3.014   5.125   0.701
 2337TIP3    H2 6969   2.989   5.145   0.849
 2338TIP3   OH2 6970   0.647   4.415   0.972
 2338TIP3    H1 6971   0.630   4.466   0.893
 2338TIP3    H2 6972   0.610   4.467   1.043
 2339TIP3   OH2 6973   4.295   5.763   2.398
 2339TIP3    H1 6974   4.238   5.687   2.391
 2339TIP3    H2 6975   4.364   5.737   2.459
 2340TIP3   OH2 6976   6.166   5.302   5.968
 2340TIP3    H1 6977   6.162   5.398   5.966
 2340TIP3    H2 6978   6.077   5.275   5.990
 2341TIP3   OH2 6979   5.490   7.623   1.886
 2341TIP3    H1 6980   5.408   7.668   1.908
 2341TIP3    H2 6981   5.475   7.590   1.797
 2342TIP3   OH2 6982   3.306   2.164   3.883
 2342TIP3    H1 6983   3.306   2.159   3.979
 2342TIP3    H2 6984   3.335   2.077   3.855
 2343TIP3   OH2 6985   7.632   5.809   2.965
 2343TIP3    H1 6986   7.646   5.798   3.059
 2343TIP3    H2 6987   7.717   5.840   2.932
 2344TIP3   OH2 6988   0.265   5.043   3.177
 2344TIP3    H1 6989   0.237   4.952   3.186
 2344TIP3    H2 6990   0.220   5.089   3.248
 2345TIP3   OH2 6991   3.791   4.094   3.658
 2345TIP3    H1 6992   3.817   4.147   3.582
 2345TIP3    H2 6993   3.738   4.024   3.621
 2346TIP3   OH2 6994   5.512   6.333   4.549
 2346TIP3    H1 6995   5.592   6.309   4.596
 2346TIP3    H2 6996   5.541   6.349   4.460
 2347TIP3   OH2 6997   3.395   4.423   6.717
 2347TIP3    H1 6998   3.339   4.347   6.736
 2347TIP3    H2 6999   3.465   4.387   6.663
 2348TIP3   OH2 7000   6.936   7.623   4.493
 2348TIP3    H1 7001   7.028   7.625   4.521
 2348TIP3    H2 7002   6.925   7.537   4.453
 2349TIP3   OH2 7003   2.498   4.110   2.206
 2349TIP3    H1 7004   2.581   4.062   2.205
 2349TIP3    H2 7005   2.482   4.128   2.299
 2350TIP3   OH2 7006   5.820   1.649   4.440
 2350TIP3    H1 7007   5.781   1.563   4.423
 2350TIP3    H2 7008   5.771   1.682   4.516
 2351TIP3   OH2 7009   5.332   0.279   2.825
 2351TIP3    H1 7010   5.319   0.219   2.751
 2351TIP3    H2 7011   5.372   0.357   2.786
 2352TIP3   OH2 7012   0.133   7.653   4.346
 2352TIP3    H1 7013   0.046   7.632   4.313
 2352TIP3    H2 7014   0.139   7.748   4.340
 2353TIP3   OH2 7015   4.202   3.235   2.091
 2353TIP3    H1 7016   4.274   3.173   2.103
 2353TIP3    H2 7017   4.161   3.208   2.009
 2354TIP3   OH2 7018   6.143   4.212   5.204
 2354TIP3    H1 7019   6.200   4.254   5.139
 2354TIP3    H2 7020   6.054   4.235   5.178
 2355TIP3   OH2 7021   3.119   7.150   0.942
 2355TIP3    H1 7022   3.045   7.166   0.884
 2355TIP3    H2 7023   3.119   7.056   0.957
 2356TIP3   OH2 7024   6.272   4.506   4.238
 2356TIP3    H1 7025   6.355   4.470   4.269
 2356TIP3    H2 7026   6.239   4.441   4.177
 2357TIP3   OH2 7027   7.534   0.155   5.065
 2357TIP3    H1 7028   7.550   0.065   5.038
 2357TIP3    H2 7029   7.462   0.184   5.010
 2358TIP3   OH2 7030   0.643   0.692   1.759
 2358TIP3    H1 7031   0.716   0.755   1.758
 2358TIP3    H2 7032   0.610   0.693   1.669
 2359TIP3   OH2 7033   4.257   4.605   1.933
 2359TIP3    H1 7034   4.169   4.567   1.944
 2359TIP3    H2 7035   4.289   4.616   2.022
 2360TIP3   OH2 7036   0.523   4.951   4.223
 2360TIP3    H1 7037   0.585   4.934   4.293
 2360TIP3    H2 7038   0.567   4.920   4.144
 2361TIP3   OH2 7039   6.113   7.518   6.391
 2361TIP3    H1 7040   6.208   7.528   6.388
 2361TIP3    H2 7041   6.085   7.533   6.301
 2362TIP3   OH2 7042   1.674   3.781   3.395
 2362TIP3    H1 7043   1.595   3.743   3.432
 2362TIP3    H2 7044   1.743   3.717   3.414
 2363TIP3   OH2 7045   1.369   6.712   5.938
 2363TIP3    H1 7046   1.388   6.753   6.023
 2363TIP3    H2 7047   1.293   6.657   5.955
 2364TIP3   OH2 7048   7.575   0.631   0.711
 2364TIP3    H1 7049   7.522   0.556   0.739
 2364TIP3    H2 7050   7.541   0.653   0.624
 2365TIP3   OH2 7051   7.620   6.534   2.514
 2365TIP3    H1 7052   7.657   6.620   2.495
 2365TIP3    H2 7053   7.693   6.473   2.501
 2366TIP3   OH2 7054   3.327   6.747   2.695
 2366TIP3    H1 7055   3.343   6.825   2.750
 2366TIP3    H2 7056   3.359   6.772   2.608
 2367TIP3   OH2 7057   3.013   5.880   3.561
 2367TIP3    H1 7058   3.098   5.914   3.534
 2367TIP3    H2 7059   2.953   5.955   3.553
 2368TIP3   OH2 7060   4.509   5.396   6.479
 2368TIP3    H1 7061   4.512   5.407   6.574
 2368TIP3    H2 7062   4.537   5.481   6.444
 2369TIP3   OH2 7063   1.649   5.428   5.378
 2369TIP3    H1 7064   1.608   5.392   5.456
 2369TIP3    H2 7065   1.589   5.498   5.350
 2370TIP3   OH2 7066   3.165   7.236   5.324
 2370TIP3    H1 7067   3.124   7.322   5.330
 2370TIP3    H2 7068   3.241   7.240   5.382
 2371TIP3   OH2 7069   1.065   5.546   0.979
 2371TIP3    H1 7070   1.153   5.538   0.943
 2371TIP3    H2 7071   1.073   5.513   1.068
 2372TIP3   OH2 7072   4.538   4.418   5.619
 2372TIP3    H1 7073   4.509   4.440   5.531
 2372TIP3    H2 7074   4.591   4.339   5.609
 2373TIP3   OH2 7075   2.304   6.232   5.093
 2373TIP3    H1 7076   2.323   6.153   5.144
 2373TIP3    H2 7077   2.256   6.201   5.017
 2374TIP3   OH2 7078   0.498   2.505   5.321
 2374TIP3    H1 7079   0.474   2.429   5.269
 2374TIP3    H2 7080   0.424   2.566   5.309
 2375TIP3   OH2 7081   3.843   5.498   4.288
 2375TIP3    H1 7082   3.841   5.453   4.372
 2375TIP3    H2 7083   3.812   5.434   4.224
 2376TIP3   OH2 7084   0.543   2.421   1.066
 2376TIP3    H1 7085   0.597   2.496   1.042
 2376TIP3    H2 7086   0.604   2.358   1.104
 2377TIP3   OH2 7087   3.267   2.271   0.084
 2377TIP3    H1 7088   3.287   2.363   0.066
 2377TIP3    H2 7089   3.347   2.224   0.060
 2378TIP3   OH2 7090   8.278   0.230   5.591
 2378TIP3    H1 7091   8.208   0.222   5.656
 2378TIP3    H2 7092   8.233   0.227   5.507
 2379TIP3   OH2 7093   2.955   0.279   1.219
 2379TIP3    H1 7094   2.989   0.301   1.132
 2379TIP3    H2 7095   3.025   0.228   1.260
 2380TIP3   OH2 7096   5.769   1.170   1.897
 2380TIP3    H1 7097   5.747   1.215   1.979
 2380TIP3    H2 7098   5.684   1.151   1.857
 2381TIP3   OH2 7099   5.311   2.627   1.137
 2381TIP3    H1 7100   5.283   2.659   1.051
 2381TIP3    H2 7101   5.230   2.597   1.179
 2382TIP3   OH2 7102   0.271   2.973   2.830
 2382TIP3    H1 7103   0.309   2.938   2.910
 2382TIP3    H2 7104   0.259   2.895   2.774
 2383TIP3   OH2 7105   0.836   6.046   6.328
 2383TIP3    H1 7106   0.917   6.019   6.372
 2383TIP3    H2 7107   0.819   6.134   6.362
 2384TIP3   OH2 7108   7.824   4.301   0.494
 2384TIP3    H1 7109   7.870   4.229   0.450
 2384TIP3    H2 7110   7.752   4.259   0.540
 2385TIP3   OH2 7111   5.721   4.511   2.322
 2385TIP3    H1 7112   5.693   4.585   2.268
 2385TIP3    H2 7113   5.768   4.454   2.261
 2386TIP3   OH2 7114   4.596   7.221   3.180
 2386TIP3    H1 7115   4.520   7.195   3.232
 2386TIP3    H2 7116   4.627   7.301   3.221
 2387TIP3   OH2 7117   7.732   2.220   2.478
 2387TIP3    H1 7118   7.751   2.129   2.499
 2387TIP3    H2 7119   7.641   2.232   2.505
 2388TIP3   OH2 7120   8.256   3.942   4.801
 2388TIP3    H1 7121   8.307   3.862   4.795
 2388TIP3    H2 7122   8.239   3.968   4.710
 2389TIP3   OH2 7123   7.343   7.728   4.088
 2389TIP3    H1 7124   7.424   7.778   4.102
 2389TIP3    H2 7125   7.352   7.652   4.145
 2390TIP3   OH2 7126   7.625   3.018   0.708
 2390TIP3    H1 7127   7.628   2.929   0.742
 2390TIP3    H2 7128   7.547   3.020   0.653
 2391TIP3   OH2 7129   3.677   3.533   5.354
 2391TIP3    H1 7130   3.640   3.619   5.333
 2391TIP3    H2 7131   3.609   3.471   5.326
 2392TIP3   OH2 7132   1.929   7.472   4.991
 2392TIP3    H1 7133   1.894   7.452   4.905
 2392TIP3    H2 7134   1.973   7.557   4.980
 2393TIP3   OH2 7135   5.190   3.902   1.467
 2393TIP3    H1 7136   5.242   3.843   1.412
 2393TIP3    H2 7137   5.154   3.846   1.536
 2394TIP3   OH2 7138   3.621   6.360   0.527
 2394TIP3    H1 7139   3.559   6.395   0.463
 2394TIP3    H2 7140   3.652   6.437   0.575
 2395TIP3   OH2 7141   3.757   5.925   6.010
 2395TIP3    H1 7142   3.768   5.854   5.947
 2395TIP3    H2 7143   3.683   5.898   6.064
 2396TIP3   OH2 7144   5.693   4.159   2.534
 2396TIP3    H1 7145   5.785   4.160   2.508
 2396TIP3    H2 7146   5.664   4.069   2.517
 2397TIP3   OH2 7147   1.435   0.267   5.877
 2397TIP3    H1 7148   1.473   0.252   5.790
 2397TIP3    H2 7149   1.497   0.326   5.921
 2398TIP3   OH2 7150   3.976   4.590   5.702
 2398TIP3    H1 7151   4.027   4.510   5.714
 2398TIP3    H2 7152   3.976   4.631   5.789
 2399TIP3   OH2 7153   5.168   2.502   4.430
 2399TIP3    H1 7154   5.102   2.468   4.369
 2399TIP3    H2 7155   5.118   2.548   4.496
 2400TIP3   OH2 7156   6.347   2.553   6.151
 2400TIP3    H1 7157   6.373   2.537   6.241
 2400TIP3    H2 7158   6.366   2.646   6.136
 2401TIP3   OH2 7159   2.335   2.019   0.416
 2401TIP3    H1 7160   2.255   2.062   0.448
 2401TIP3    H2 7161   2.406   2.073   0.451
 2402TIP3   OH2 7162   7.005   6.101   5.496
 2402TIP3    H1 7163   6.966   6.173   5.545
 2402TIP3    H2 7164   7.062   6.143   5.432
 2403TIP3   OH2 7165   1.225   6.529   0.728
 2403TIP3    H1 7166   1.246   6.516   0.821
 2403TIP3    H2 7167   1.179   6.449   0.702
 2404TIP3   OH2 7168   2.076   3.031   6.292
 2404TIP3    H1 7169   2.138   3.101   6.309
 2404TIP3    H2 7170   2.097   3.001   6.204
 2405TIP3   OH2 7171   0.837   4.928   0.480
 2405TIP3    H1 7172   0.852   4.939   0.386
 2405TIP3    H2 7173   0.830   5.017   0.514
 2406TIP3   OH2 7174   3.853   1.524   6.360
 2406TIP3    H1 7175   3.920   1.580   6.398
 2406TIP3    H2 7176   3.863   1.440   6.404
 2407TIP3   OH2 7177   0.154   2.769   5.185
 2407TIP3    H1 7178   0.091   2.697   5.176
 2407TIP3    H2 7179   0.117   2.841   5.134
 2408TIP3   OH2 7180   6.466   7.750   1.281
 2408TIP3    H1 7181   6.476   7.821   1.217
 2408TIP3    H2 7182   6.395   7.696   1.245
 2409TIP3   OH2 7183   3.916   7.478   6.541
 2409TIP3    H1 7184   3.951   7.564   6.516
 2409TIP3    H2 7185   3.862   7.452   6.466
 2410TIP3   OH2 7186   0.356   5.415   1.364
 2410TIP3    H1 7187   0.366   5.473   1.439
 2410TIP3    H2 7188   0.440   5.369   1.358
 2411TIP3   OH2 7189   6.108   0.122   6.673
 2411TIP3    H1 7190   6.161   0.114   6.753
 2411TIP3    H2 7191   6.064   0.037   6.665
 2412TIP3   OH2 7192   8.130   2.594   6.118
 2412TIP3    H1 7193   8.187   2.533   6.072
 2412TIP3    H2 7194   8.180   2.675   6.124
 2413TIP3   OH2 7195   6.140   5.470   4.645
 2413TIP3    H1 7196   6.117   5.385   4.682
 2413TIP3    H2 7197   6.056   5.512   4.626
 2414TIP3   OH2 7198   6.676   6.307   4.056
 2414TIP3    H1 7199   6.616   6.351   4.116
 2414TIP3    H2 7200   6.705   6.229   4.104
 2415TIP3   OH2 7201   7.420   0.047   6.204
 2415TIP3    H1 7202   7.456  -0.006   6.134
 2415TIP3    H2 7203   7.340   0.085   6.168
 2416TIP3   OH2 7204   3.528   1.325   4.735
 2416TIP3    H1 7205   3.444   1.287   4.708
 2416TIP3    H2 7206   3.505   1.398   4.791
 2417TIP3   OH2 7207   4.112   1.191   3.365
 2417TIP3    H1 7208   4.054   1.228   3.298
 2417TIP3    H2 7209   4.110   1.255   3.436
 2418TIP3   OH2 7210   8.144   4.692   0.457
 2418TIP3    H1 7211   8.125   4.598   0.460
 2418TIP3    H2 7212   8.133   4.722   0.547
 2419TIP3   OH2 7213   1.665   4.745   5.707
 2419TIP3    H1 7214   1.690   4.653   5.696
 2419TIP3    H2 7215   1.745   4.789   5.734
 2420TIP3   OH2 7216   6.653   2.267   6.487
 2420TIP3    H1 7217   6.702   2.317   6.551
 2420TIP3    H2 7218   6.629   2.330   6.419
 2421TIP3   OH2 7219   4.366   0.097   6.573
 2421TIP3    H1 7220   4.379   0.037   6.647
 2421TIP3    H2 7221   4.417   0.058   6.502
 2422TIP3   OH2 7222   0.999   5.893   5.454
 2422TIP3    H1 7223   1.003   5.807   5.495
 2422TIP3    H2 7224   0.989   5.874   5.360
 2423TIP3   OH2 7225   2.295   2.342   6.294
 2423TIP3    H1 7226   2.251   2.327   6.211
 2423TIP3    H2 7227   2.264   2.272   6.351
 2424TIP3   OH2 7228   2.385   6.589   1.532
 2424TIP3    H1 7229   2.352   6.667   1.488
 2424TIP3    H2 7230   2.334   6.584   1.613
 2425TIP3   OH2 7231   2.831   3.234   1.386
 2425TIP3    H1 7232   2.825   3.153   1.437
 2425TIP3    H2 7233   2.923   3.261   1.395
 2426TIP3   OH2 7234   3.628   1.715   0.682
 2426TIP3    H1 7235   3.598   1.771   0.611
 2426TIP3    H2 7236   3.717   1.690   0.658
 2427TIP3   OH2 7237   6.639   4.552   3.019
 2427TIP3    H1 7238   6.593   4.506   3.089
 2427TIP3    H2 7239   6.720   4.502   3.008
 2428TIP3   OH2 7240   2.007   3.219   5.517
 2428TIP3    H1 7241   2.071   3.220   5.589
 2428TIP3    H2 7242   1.929   3.260   5.554
 2429TIP3   OH2 7243   1.264   5.320   1.131
 2429TIP3    H1 7244   1.324   5.330   1.205
 2429TIP3    H2 7245   1.299   5.377   1.063
 2430TIP3   OH2 7246   3.479   4.242   1.946
 2430TIP3    H1 7247   3.548   4.231   2.012
 2430TIP3    H2 7248   3.501   4.178   1.878
 2431TIP3   OH2 7249   3.901   0.548   4.489
 2431TIP3    H1 7250   3.975   0.558   4.430
 2431TIP3    H2 7251   3.838   0.615   4.460
 2432TIP3   OH2 7252   1.154   2.594   6.237
 2432TIP3    H1 7253   1.126   2.619   6.149
 2432TIP3    H2 7254   1.096   2.643   6.295
 2433TIP3   OH2 7255   8.130   7.260   5.285
 2433TIP3    H1 7256   8.222   7.238   5.302
 2433TIP3    H2 7257   8.133   7.319   5.211
 2434TIP3   OH2 7258   6.043   5.759   2.917
 2434TIP3    H1 7259   6.089   5.814   2.854
 2434TIP3    H2 7260   6.111   5.702   2.954
 2435TIP3   OH2 7261   8.062   1.912   4.668
 2435TIP3    H1 7262   7.981   1.872   4.638
 2435TIP3    H2 7263   8.036   1.971   4.738
 2436TIP3   OH2 7264   3.865   5.293   2.318
 2436TIP3    H1 7265   3.942   5.257   2.274
 2436TIP3    H2 7266   3.875   5.388   2.310
 2437TIP3   OH2 7267   3.900   5.980   0.337
 2437TIP3    H1 7268   3.963   6.039   0.379
 2437TIP3    H2 7269   3.814   6.016   0.359
 2438TIP3   OH2 7270   0.463   3.270   4.155
 2438TIP3    H1 7271   0.394   3.319   4.109
 2438TIP3    H2 7272   0.545   3.301   4.116
 2439TIP3   OH2 7273   4.855   3.104   3.678
 2439TIP3    H1 7274   4.805   3.108   3.597
 2439TIP3    H2 7275   4.804   3.156   3.740
 2440TIP3   OH2 7276   2.230   1.444   6.505
 2440TIP3    H1 7277   2.225   1.474   6.596
 2440TIP3    H2 7278   2.296   1.501   6.465
 2441TIP3   OH2 7279   7.521   3.525   1.083
 2441TIP3    H1 7280   7.574   3.597   1.048
 2441TIP3    H2 7281   7.504   3.469   1.008
 2442TIP3   OH2 7282   4.618   0.532   3.504
 2442TIP3    H1 7283   4.678   0.506   3.435
 2442TIP3    H2 7284   4.555   0.589   3.461
 2443TIP3   OH2 7285   3.931   1.728   6.067
 2443TIP3    H1 7286   3.855   1.744   6.124
 2443TIP3    H2 7287   3.969   1.815   6.054
 2444TIP3   OH2 7288   2.307   6.645   5.167
 2444TIP3    H1 7289   2.364   6.585   5.213
 2444TIP3    H2 7290   2.237   6.665   5.229
 2445TIP3   OH2 7291   5.725   4.806   0.914
 2445TIP3    H1 7292   5.636   4.773   0.921
 2445TIP3    H2 7293   5.741   4.850   0.998
 2446TIP3   OH2 7294   0.940   3.709   1.041
 2446TIP3    H1 7295   0.861   3.659   1.058
 2446TIP3    H2 7296   0.909   3.795   1.014
 2447TIP3   OH2 7297   5.426   4.419   4.871
 2447TIP3    H1 7298   5.382   4.449   4.951
 2447TIP3    H2 7299   5.480   4.493   4.843
 2448TIP3   OH2 7300   2.099   2.898   4.781
 2448TIP3    H1 7301   2.039   2.954   4.732
 2448TIP3    H2 7302   2.158   2.862   4.715
 2449TIP3   OH2 7303   7.977   6.388   6.057
 2449TIP3    H1 7304   8.026   6.424   6.130
 2449TIP3    H2 7305   8.022   6.422   5.979
 2450TIP3   OH2 7306   7.068   1.583   1.929
 2450TIP3    H1 7307   7.039   1.533   1.853
 2450TIP3    H2 7308   6.989   1.628   1.960
 2451TIP3   OH2 7309   8.156   0.323   5.379
 2451TIP3    H1 7310   8.083   0.382   5.395
 2451TIP3    H2 7311   8.147   0.296   5.287
 2452TIP3   OH2 7312   0.920   3.218   3.483
 2452TIP3    H1 7313   0.979   3.179   3.548
 2452TIP3    H2 7314   0.856   3.267   3.535
 2453TIP3   OH2 7315   5.447   3.138   4.280
 2453TIP3    H1 7316   5.501   3.107   4.207
 2453TIP3    H2 7317   5.385   3.067   4.295
 2454TIP3   OH2 7318   7.734   2.706   0.058
 2454TIP3    H1 7319   7.801   2.638   0.048
 2454TIP3    H2 7320   7.710   2.729  -0.032
 2455TIP3   OH2 7321   4.844   7.711   3.373
 2455TIP3    H1 7322   4.848   7.712   3.469
 2455TIP3    H2 7323   4.768   7.656   3.353
 2456TIP3   OH2 7324   2.913   0.297   5.233
 2456TIP3    H1 7325   2.889   0.390   5.223
 2456TIP3    H2 7326   2.991   0.287   5.178
 2457TIP3   OH2 7327   4.028   2.349   3.096
 2457TIP3    H1 7328   4.121   2.328   3.083
 2457TIP3    H2 7329   4.020   2.441   3.069
 2458TIP3   OH2 7330   7.320   0.937   2.133
 2458TIP3    H1 7331   7.238   0.902   2.168
 2458TIP3    H2 7332   7.372   0.859   2.112
 2459TIP3   OH2 7333   5.169   6.473   0.668
 2459TIP3    H1 7334   5.171   6.567   0.652
 2459TIP3    H2 7335   5.109   6.439   0.601
 2460TIP3   OH2 7336   2.456   1.621   2.766
 2460TIP3    H1 7337   2.393   1.693   2.755
 2460TIP3    H2 7338   2.402   1.546   2.791
 2461TIP3   OH2 7339   6.743   0.831   3.667
 2461TIP3    H1 7340   6.721   0.760   3.727
 2461TIP3    H2 7341   6.697   0.907   3.702
 2462TIP3   OH2 7342   5.772   1.785   2.834
 2462TIP3    H1 7343   5.679   1.782   2.856
 2462TIP3    H2 7344   5.815   1.746   2.910
 2463TIP3   OH2 7345   6.361   1.882   4.765
 2463TIP3    H1 7346   6.277   1.899   4.721
 2463TIP3    H2 7347   6.402   1.815   4.711
 2464TIP3   OH2 7348   0.192   0.117   3.687
 2464TIP3    H1 7349   0.139   0.038   3.693
 2464TIP3    H2 7350   0.154   0.178   3.750
 2465TIP3   OH2 7351   5.179   1.787   1.902
 2465TIP3    H1 7352   5.153   1.869   1.943
 2465TIP3    H2 7353   5.264   1.766   1.941
 2466TIP3   OH2 7354   4.042   0.947   5.055
 2466TIP3    H1 7355   3.994   1.030   5.065
 2466TIP3    H2 7356   4.014   0.913   4.971
 2467TIP3   OH2 7357   0.883   7.059   4.365
 2467TIP3    H1 7358   0.829   7.061   4.286
 2467TIP3    H2 7359   0.903   7.151   4.383
 2468TIP3   OH2 7360   8.117   1.688   6.782
 2468TIP3    H1 7361   8.077   1.619   6.835
 2468TIP3    H2 7362   8.090   1.667   6.692
 2469TIP3   OH2 7363   6.979   6.119   4.805
 2469TIP3    H1 7364   6.970   6.043   4.748
 2469TIP3    H2 7365   6.905   6.113   4.865
 2470TIP3   OH2 7366   2.409   3.474   0.543
 2470TIP3    H1 7367   2.487   3.505   0.495
 2470TIP3    H2 7368   2.398   3.537   0.614
 2471TIP3   OH2 7369   6.909   7.137   1.909
 2471TIP3    H1 7370   6.840   7.074   1.932
 2471TIP3    H2 7371   6.894   7.211   1.967
 2472TIP3   OH2 7372   6.091   2.495   2.822
 2472TIP3    H1 7373   6.167   2.440   2.842
 2472TIP3    H2 7374   6.061   2.527   2.907
 2473TIP3   OH2 7375   6.387   5.627   2.480
 2473TIP3    H1 7376   6.393   5.645   2.386
 2473TIP3    H2 7377   6.363   5.535   2.486
 2474TIP3   OH2 7378   1.476   4.021   0.225
 2474TIP3    H1 7379   1.400   4.068   0.260
 2474TIP3    H2 7380   1.527   4.089   0.181
 2475TIP3   OH2 7381   4.397   0.495   4.412
 2475TIP3    H1 7382   4.367   0.409   4.383
 2475TIP3    H2 7383   4.365   0.502   4.502
 2476TIP3   OH2 7384   3.955   6.385   3.914
 2476TIP3    H1 7385   4.029   6.439   3.886
 2476TIP3    H2 7386   3.987   6.295   3.905
 2477TIP3   OH2 7387   5.002   5.732   1.344
 2477TIP3    H1 7388   5.016   5.803   1.282
 2477TIP3    H2 7389   5.029   5.653   1.297
 2478TIP3   OH2 7390   7.544   1.036   1.203
 2478TIP3    H1 7391   7.507   1.062   1.119
 2478TIP3    H2 7392   7.627   1.082   1.209
 2479TIP3   OH2 7393   0.448   3.800   0.250
 2479TIP3    H1 7394   0.390   3.860   0.298
 2479TIP3    H2 7395   0.427   3.816   0.158
 2480TIP3   OH2 7396   7.527   0.745   4.849
 2480TIP3    H1 7397   7.474   0.803   4.904
 2480TIP3    H2 7398   7.485   0.748   4.763
 2481TIP3   OH2 7399   8.334   5.158   6.278
 2481TIP3    H1 7400   8.285   5.078   6.295
 2481TIP3    H2 7401   8.275   5.211   6.225
 2482TIP3   OH2 7402   3.391   6.461   4.598
 2482TIP3    H1 7403   3.410   6.475   4.690
 2482TIP3    H2 7404   3.349   6.374   4.595
 2483TIP3   OH2 7405   5.331   5.481   2.679
 2483TIP3    H1 7406   5.413   5.457   2.635
 2483TIP3    H2 7407   5.294   5.549   2.624
 2484TIP3   OH2 7408   3.333   3.278   3.284
 2484TIP3    H1 7409   3.423   3.289   3.251
 2484TIP3    H2 7410   3.340   3.207   3.348
 2485TIP3   OH2 7411   2.910   0.753   0.596
 2485TIP3    H1 7412   2.898   0.784   0.686
 2485TIP3    H2 7413   2.948   0.827   0.549
 2486TIP3   OH2 7414   7.021   3.715   0.531
 2486TIP3    H1 7415   7.103   3.675   0.559
 2486TIP3    H2 7416   7.044   3.769   0.455
 2487TIP3   OH2 7417   7.160   1.011   6.526
 2487TIP3    H1 7418   7.169   1.106   6.522
 2487TIP3    H2 7419   7.186   0.981   6.439
 2488TIP3   OH2 7420   0.844   6.654   0.330
 2488TIP3    H1 7421   0.818   6.573   0.374
 2488TIP3    H2 7422   0.921   6.684   0.377
 2489TIP3   OH2 7423   3.311   2.506   0.650
 2489TIP3    H1 7424   3.405   2.518   0.640
 2489TIP3    H2 7425   3.272   2.580   0.604
 2490TIP3   OH2 7426   3.612   1.876   0.921
 2490TIP3    H1 7427   3.584   1.843   0.836
 2490TIP3    H2 7428   3.589   1.806   0.982
 2491TIP3   OH2 7429   4.166   6.605   3.540
 2491TIP3    H1 7430   4.260   6.606   3.555
 2491TIP3    H2 7431   4.128   6.644   3.618
 2492TIP3   OH2 7432   3.121   0.906   1.976
 2492TIP3    H1 7433   3.107   0.832   1.917
 2492TIP3    H2 7434   3.215   0.907   1.993
 2493TIP3   OH2 7435   5.120   0.473   4.159
 2493TIP3    H1 7436   5.097   0.528   4.085
 2493TIP3    H2 7437   5.205   0.436   4.136
 2494TIP3   OH2 7438   0.145   3.152   6.519
 2494TIP3    H1 7439   0.233   3.129   6.487
 2494TIP3    H2 7440   0.112   3.215   6.455
 2495TIP3   OH2 7441   3.274   6.635   0.847
 2495TIP3    H1 7442   3.359   6.636   0.890
 2495TIP3    H2 7443   3.291   6.601   0.759
 2496TIP3   OH2 7444   7.575   2.337   6.433
 2496TIP3    H1 7445   7.605   2.419   6.472
 2496TIP3    H2 7446   7.644   2.274   6.454
 2497TIP3   OH2 7447   3.383   3.902   4.358
 2497TIP3    H1 7448   3.323   3.848   4.306
 2497TIP3    H2 7449   3.398   3.851   4.438
 2498TIP3   OH2 7450   3.673   4.736   3.058
 2498TIP3    H1 7451   3.614   4.662   3.066
 2498TIP3    H2 7452   3.738   4.708   2.993
 2499TIP3   OH2 7453   3.793   0.538   1.990
 2499TIP3    H1 7454   3.709   0.501   1.964
 2499TIP3    H2 7455   3.777   0.632   1.996
 2500TIP3   OH2 7456   3.957   3.742   3.585
 2500TIP3    H1 7457   4.011   3.821   3.576
 2500TIP3    H2 7458   3.903   3.740   3.506
 2501TIP3   OH2 7459   0.846   7.683   6.394
 2501TIP3    H1 7460   0.871   7.596   6.362
 2501TIP3    H2 7461   0.910   7.704   6.462
 2502TIP3   OH2 7462   7.264   4.701   0.513
 2502TIP3    H1 7463   7.342   4.667   0.555
 2502TIP3    H2 7464   7.290   4.718   0.422
 2503TIP3   OH2 7465   4.818   5.303   6.340
 2503TIP3    H1 7466   4.813   5.262   6.426
 2503TIP3    H2 7467   4.764   5.382   6.349
 2504TIP3   OH2 7468   5.426   4.323   5.601
 2504TIP3    H1 7469   5.355   4.385   5.583
 2504TIP3    H2 7470   5.499   4.353   5.547
 2505TIP3   OH2 7471   7.545   4.985   1.411
 2505TIP3    H1 7472   7.536   5.059   1.471
 2505TIP3    H2 7473   7.519   4.909   1.463
 2506TIP3   OH2 7474   6.137   4.624   1.745
 2506TIP3    H1 7475   6.171   4.702   1.789
 2506TIP3    H2 7476   6.093   4.657   1.667
 2507TIP3   OH2 7477   0.029   7.057   1.165
 2507TIP3    H1 7478   0.094   6.994   1.195
 2507TIP3    H2 7479  -0.053   7.008   1.160
 2508TIP3   OH2 7480   7.262   3.581   5.543
 2508TIP3    H1 7481   7.169   3.559   5.544
 2508TIP3    H2 7482   7.295   3.542   5.462
 2509TIP3   OH2 7483   5.542   1.879   2.933
 2509TIP3    H1 7484   5.531   1.881   3.028
 2509TIP3    H2 7485   5.507   1.963   2.903
 2510TIP3   OH2 7486   0.925   1.202   0.825
 2510TIP3    H1 7487   0.920   1.247   0.909
 2510TIP3    H2 7488   1.017   1.211   0.799
 2511TIP3   OH2 7489   0.329   7.372   1.314
 2511TIP3    H1 7490   0.403   7.358   1.255
 2511TIP3    H2 7491   0.348   7.454   1.358
 2512TIP3   OH2 7492   6.353   2.902   5.117
 2512TIP3    H1 7493   6.290   2.838   5.084
 2512TIP3    H2 7494   6.428   2.895   5.058
 2513TIP3   OH2 7495   8.236   6.725   6.701
 2513TIP3    H1 7496   8.314   6.775   6.723
 2513TIP3    H2 7497   8.266   6.634   6.699
 2514TIP3   OH2 7498   1.738   2.484   5.783
 2514TIP3    H1 7499   1.764   2.460   5.872
 2514TIP3    H2 7500   1.693   2.407   5.749
 2515TIP3   OH2 7501   2.046   0.160   3.585
 2515TIP3    H1 7502   2.117   0.147   3.522
 2515TIP3    H2 7503   1.967   0.135   3.537
 2516TIP3   OH2 7504   4.279   0.540   1.211
 2516TIP3    H1 7505   4.210   0.519   1.148
 2516TIP3    H2 7506   4.235   0.593   1.277
 2517TIP3   OH2 7507   3.678   4.316   3.792
 2517TIP3    H1 7508   3.725   4.236   3.764
 2517TIP3    H2 7509   3.586   4.292   3.787
 2518TIP3   OH2 7510   2.199   7.550   5.825
 2518TIP3    H1 7511   2.164   7.467   5.791
 2518TIP3    H2 7512   2.275   7.524   5.876
 2519TIP3   OH2 7513   7.257   3.296   6.703
 2519TIP3    H1 7514   7.322   3.356   6.740
 2519TIP3    H2 7515   7.250   3.226   6.767
 2520TIP3   OH2 7516   6.839   3.053   1.023
 2520TIP3    H1 7517   6.880   3.117   0.965
 2520TIP3    H2 7518   6.820   2.978   0.966
 2521TIP3   OH2 7519   2.344   0.726   5.433
 2521TIP3    H1 7520   2.389   0.698   5.514
 2521TIP3    H2 7521   2.370   0.817   5.421
 2522TIP3   OH2 7522   2.073   2.031   3.985
 2522TIP3    H1 7523   2.035   1.982   4.058
 2522TIP3    H2 7524   2.166   2.008   3.987
 2523TIP3   OH2 7525   5.111   1.834   3.963
 2523TIP3    H1 7526   5.080   1.799   3.879
 2523TIP3    H2 7527   5.039   1.819   4.024
 2524TIP3   OH2 7528   4.474   0.661   0.486
 2524TIP3    H1 7529   4.443   0.748   0.512
 2524TIP3    H2 7530   4.396   0.606   0.492
 2525TIP3   OH2 7531   6.420   6.627   1.331
 2525TIP3    H1 7532   6.493   6.572   1.302
 2525TIP3    H2 7533   6.348   6.565   1.347
 2526TIP3   OH2 7534   8.102   2.911   5.964
 2526TIP3    H1 7535   8.110   2.956   5.879
 2526TIP3    H2 7536   8.182   2.861   5.972
 2527TIP3   OH2 7537   5.271   2.184   0.502
 2527TIP3    H1 7538   5.197   2.128   0.526
 2527TIP3    H2 7539   5.233   2.250   0.444
 2528TIP3   OH2 7540   5.782   7.020   6.668
 2528TIP3    H1 7541   5.744   7.075   6.599
 2528TIP3    H2 7542   5.705   6.981   6.712
 2529TIP3   OH2 7543   6.928   1.579   4.665
 2529TIP3    H1 7544   6.924   1.553   4.757
 2529TIP3    H2 7545   6.854   1.638   4.653
 2530TIP3   OH2 7546   0.217   0.534   3.569
 2530TIP3    H1 7547   0.142   0.474   3.564
 2530TIP3    H2 7548   0.292   0.478   3.589
 2531TIP3   OH2 7549   0.017   2.383   3.843
 2531TIP3    H1 7550   0.029   2.288   3.855
 2531TIP3    H2 7551   0.023   2.419   3.931
 2532TIP3   OH2 7552   3.370   2.551   2.218
 2532TIP3    H1 7553   3.391   2.643   2.236
 2532TIP3    H2 7554   3.333   2.519   2.300
 2533TIP3   OH2 7555   1.456   2.766   4.458
 2533TIP3    H1 7556   1.460   2.673   4.481
 2533TIP3    H2 7557   1.547   2.789   4.438
 2534TIP3   OH2 7558   6.482   4.071   2.372
 2534TIP3    H1 7559   6.493   3.981   2.401
 2534TIP3    H2 7560   6.430   4.064   2.292
 2535TIP3   OH2 7561   7.311   7.138   2.661
 2535TIP3    H1 7562   7.390   7.084   2.669
 2535TIP3    H2 7563   7.324   7.188   2.581
 2536TIP3   OH2 7564   4.290   7.644   0.505
 2536TIP3    H1 7565   4.343   7.570   0.535
 2536TIP3    H2 7566   4.264   7.689   0.586
 2537TIP3   OH2 7567   5.302   0.229   4.336
 2537TIP3    H1 7568   5.307   0.138   4.306
 2537TIP3    H2 7569   5.311   0.281   4.256
 2538TIP3   OH2 7570   1.528   3.530   3.005
 2538TIP3    H1 7571   1.547   3.495   3.092
 2538TIP3    H2 7572   1.584   3.608   2.999
 2539TIP3   OH2 7573   6.521   0.011   0.166
 2539TIP3    H1 7574   6.538   0.098   0.128
 2539TIP3    H2 7575   6.603  -0.012   0.210
 2540TIP3   OH2 7576   6.313   6.687   5.300
 2540TIP3    H1 7577   6.276   6.697   5.388
 2540TIP3    H2 7578   6.325   6.777   5.269
 2541TIP3   OH2 7579   4.527   7.482   5.240
 2541TIP3    H1 7580   4.618   7.488   5.269
 2541TIP3    H2 7581   4.530   7.502   5.147
 2542TIP3   OH2 7582   1.461   0.790   4.170
 2542TIP3    H1 7583   1.517   0.825   4.100
 2542TIP3    H2 7584   1.409   0.722   4.126
 2543TIP3   OH2 7585   2.516   3.726   5.310
 2543TIP3    H1 7586   2.530   3.682   5.393
 2543TIP3    H2 7587   2.532   3.659   5.244
 2544TIP3   OH2 7588   6.269   6.354   6.628
 2544TIP3    H1 7589   6.290   6.387   6.715
 2544TIP3    H2 7590   6.318   6.410   6.568
 2545TIP3   OH2 7591   0.309   1.510   0.675
 2545TIP3    H1 7592   0.399   1.477   0.676
 2545TIP3    H2 7593   0.304   1.563   0.596
 2546TIP3   OH2 7594   2.319   6.321   3.215
 2546TIP3    H1 7595   2.348   6.386   3.150
 2546TIP3    H2 7596   2.232   6.351   3.242
 2547TIP3   OH2 7597   5.694   4.700   2.124
 2547TIP3    H1 7598   5.722   4.786   2.090
 2547TIP3    H2 7599   5.727   4.637   2.060
 2548TIP3   OH2 7600   0.779   2.459   1.363
 2548TIP3    H1 7601   0.747   2.536   1.409
 2548TIP3    H2 7602   0.737   2.385   1.406
 2549TIP3   OH2 7603   0.289   4.265   4.715
 2549TIP3    H1 7604   0.294   4.288   4.808
 2549TIP3    H2 7605   0.198   4.238   4.702
 2550TIP3   OH2 7606   7.105   2.909   3.774
 2550TIP3    H1 7607   7.197   2.885   3.760
 2550TIP3    H2 7608   7.105   2.957   3.856
 2551TIP3   OH2 7609   7.724   0.234   0.191
 2551TIP3    H1 7610   7.716   0.259   0.099
 2551TIP3    H2 7611   7.793   0.292   0.225
 2552TIP3   OH2 7612   1.979   3.961   1.205
 2552TIP3    H1 7613   1.908   3.897   1.213
 2552TIP3    H2 7614   1.958   4.011   1.126
 2553TIP3   OH2 7615   6.091   2.629   1.280
 2553TIP3    H1 7616   6.172   2.624   1.331
 2553TIP3    H2 7617   6.021   2.629   1.345
 2554TIP3   OH2 7618   0.946   5.601   4.504
 2554TIP3    H1 7619   0.923   5.512   4.477
 2554TIP3    H2 7620   0.935   5.654   4.425
 2555TIP3   OH2 7621   6.708   1.870   2.664
 2555TIP3    H1 7622   6.695   1.775   2.668
 2555TIP3    H2 7623   6.738   1.893   2.752
 2556TIP3   OH2 7624   0.985   3.195   2.698
 2556TIP3    H1 7625   1.000   3.103   2.718
 2556TIP3    H2 7626   0.944   3.194   2.611
 2557TIP3   OH2 7627   7.535   5.469   4.166
 2557TIP3    H1 7628   7.444   5.447   4.147
 2557TIP3    H2 7629   7.587   5.411   4.111
 2558TIP3   OH2 7630   2.015   1.054   0.952
 2558TIP3    H1 7631   1.957   1.109   0.899
 2558TIP3    H2 7632   1.985   1.069   1.042
 2559TIP3   OH2 7633   0.764   2.815   3.535
 2559TIP3    H1 7634   0.686   2.870   3.532
 2559TIP3    H2 7635   0.806   2.838   3.617
 2560TIP3   OH2 7636   7.320   4.447   4.955
 2560TIP3    H1 7637   7.227   4.423   4.948
 2560TIP3    H2 7638   7.352   4.397   5.030
 2561TIP3   OH2 7639   7.232   3.917   6.320
 2561TIP3    H1 7640   7.273   3.900   6.404
 2561TIP3    H2 7641   7.305   3.935   6.260
 2562TIP3   OH2 7642   5.299   2.297   6.570
 2562TIP3    H1 7643   5.388   2.331   6.565
 2562TIP3    H2 7644   5.293   2.236   6.496
 2563TIP3   OH2 7645   4.062   7.553   6.250
 2563TIP3    H1 7646   4.039   7.622   6.312
 2563TIP3    H2 7647   3.997   7.560   6.180
 2564TIP3   OH2 7648   0.469   1.560   4.470
 2564TIP3    H1 7649   0.415   1.556   4.391
 2564TIP3    H2 7650   0.407   1.580   4.541
 2565TIP3   OH2 7651   5.840   4.341   4.516
 2565TIP3    H1 7652   5.786   4.404   4.468
 2565TIP3    H2 7653   5.928   4.351   4.479
 2566TIP3   OH2 7654   4.301   1.248   0.300
 2566TIP3    H1 7655   4.351   1.326   0.276
 2566TIP3    H2 7656   4.363   1.176   0.287
 2567TIP3   OH2 7657   1.647   0.486   6.238
 2567TIP3    H1 7658   1.712   0.460   6.303
 2567TIP3    H2 7659   1.585   0.541   6.286
 2568TIP3   OH2 7660   6.118   4.737   4.271
 2568TIP3    H1 7661   6.102   4.773   4.184
 2568TIP3    H2 7662   6.185   4.670   4.257
 2569TIP3   OH2 7663   8.046   4.846   6.084
 2569TIP3    H1 7664   8.118   4.841   6.147
 2569TIP3    H2 7665   8.017   4.937   6.088
 2570TIP3   OH2 7666  -0.017   3.507   1.980
 2570TIP3    H1 7667   0.018   3.511   1.891
 2570TIP3    H2 7668   0.045   3.452   2.028
 2571TIP3   OH2 7669   2.199   6.980   5.285
 2571TIP3    H1 7670   2.287   6.954   5.314
 2571TIP3    H2 7671   2.166   6.905   5.236
 2572TIP3   OH2 7672   7.379   2.568   1.452
 2572TIP3    H1 7673   7.369   2.498   1.516
 2572TIP3    H2 7674   7.290   2.601   1.438
 2573TIP3   OH2 7675   7.962   0.752   2.616
 2573TIP3    H1 7676   7.950   0.841   2.582
 2573TIP3    H2 7677   7.891   0.741   2.679
 2574TIP3   OH2 7678   1.839   2.831   1.516
 2574TIP3    H1 7679   1.747   2.806   1.512
 2574TIP3    H2 7680   1.858   2.866   1.429
 2575TIP3   OH2 7681   3.758   2.382   2.830
 2575TIP3    H1 7682   3.805   2.324   2.890
 2575TIP3    H2 7683   3.666   2.355   2.839
 2576TIP3   OH2 7684   3.280   5.603   1.139
 2576TIP3    H1 7685   3.299   5.673   1.202
 2576TIP3    H2 7686   3.360   5.550   1.138
 2577TIP3   OH2 7687   3.753   7.211   1.580
 2577TIP3    H1 7688   3.766   7.223   1.486
 2577TIP3    H2 7689   3.760   7.299   1.617
 2578TIP3   OH2 7690   5.348   3.148   6.071
 2578TIP3    H1 7691   5.253   3.137   6.078
 2578TIP3    H2 7692   5.358   3.233   6.028
 2579TIP3   OH2 7693   3.417   2.565   5.499
 2579TIP3    H1 7694   3.398   2.510   5.423
 2579TIP3    H2 7695   3.380   2.517   5.574
 2580TIP3   OH2 7696   8.114   4.946   3.943
 2580TIP3    H1 7697   8.068   4.886   4.002
 2580TIP3    H2 7698   8.188   4.894   3.909
 2581TIP3   OH2 7699   0.508   6.102   3.000
 2581TIP3    H1 7700   0.503   6.154   3.080
 2581TIP3    H2 7701   0.454   6.151   2.937
 2582TIP3   OH2 7702   7.944   5.631   5.411
 2582TIP3    H1 7703   7.953   5.537   5.399
 2582TIP3    H2 7704   7.941   5.644   5.505
 2583TIP3   OH2 7705   8.255   1.402   5.859
 2583TIP3    H1 7706   8.228   1.315   5.886
 2583TIP3    H2 7707   8.344   1.390   5.826
 2584TIP3   OH2 7708   3.101   0.056   0.327
 2584TIP3    H1 7709   3.096   0.151   0.323
 2584TIP3    H2 7710   3.013   0.026   0.302
 2585TIP3   OH2 7711   6.789   4.532   0.308
 2585TIP3    H1 7712   6.872   4.516   0.351
 2585TIP3    H2 7713   6.787   4.627   0.295
 2586TIP3   OH2 7714   5.871   3.967   5.642
 2586TIP3    H1 7715   5.831   4.024   5.708
 2586TIP3    H2 7716   5.890   4.026   5.569
 2587TIP3   OH2 7717   7.890   0.627   1.290
 2587TIP3    H1 7718   7.979   0.660   1.286
 2587TIP3    H2 7719   7.837   0.694   1.248
 2588TIP3   OH2 7720   0.147   6.952   6.293
 2588TIP3    H1 7721   0.091   6.993   6.359
 2588TIP3    H2 7722   0.170   6.867   6.332
 2589TIP3   OH2 7723   6.503   4.667   3.347
 2589TIP3    H1 7724   6.542   4.580   3.339
 2589TIP3    H2 7725   6.477   4.673   3.439
 2590TIP3   OH2 7726   5.157   2.998   4.528
 2590TIP3    H1 7727   5.172   2.915   4.483
 2590TIP3    H2 7728   5.166   2.978   4.621
 2591TIP3   OH2 7729   5.563   4.511   5.402
 2591TIP3    H1 7730   5.555   4.549   5.314
 2591TIP3    H2 7731   5.519   4.574   5.459
 2592TIP3   OH2 7732   4.047  -0.014   6.379
 2592TIP3    H1 7733   4.138   0.014   6.389
 2592TIP3    H2 7734   3.997   0.068   6.376
 2593TIP3   OH2 7735   1.800   2.014   4.962
 2593TIP3    H1 7736   1.831   2.093   5.005
 2593TIP3    H2 7737   1.875   1.982   4.912
 2594TIP3   OH2 7738   7.511   0.958   4.471
 2594TIP3    H1 7739   7.478   0.961   4.381
 2594TIP3    H2 7740   7.461   0.887   4.512
 2595TIP3   OH2 7741   4.680   6.187   3.206
 2595TIP3    H1 7742   4.757   6.196   3.262
 2595TIP3    H2 7743   4.610   6.162   3.265
 2596TIP3   OH2 7744  -0.008   6.583   4.453
 2596TIP3    H1 7745   0.050   6.580   4.529
 2596TIP3    H2 7746   0.049   6.601   4.379
 2597TIP3   OH2 7747   7.058   2.754   2.103
 2597TIP3    H1 7748   7.111   2.697   2.047
 2597TIP3    H2 7749   7.060   2.839   2.060
 2598TIP3   OH2 7750   3.814   1.488   3.481
 2598TIP3    H1 7751   3.737   1.501   3.425
 2598TIP3    H2 7752   3.815   1.393   3.497
 2599TIP3   OH2 7753   6.988   1.355   0.529
 2599TIP3    H1 7754   7.058   1.412   0.496
 2599TIP3    H2 7755   7.027   1.268   0.533
 2600TIP3   OH2 7756   8.063   2.630   1.503
 2600TIP3    H1 7757   8.107   2.636   1.588
 2600TIP3    H2 7758   8.115   2.684   1.444
 2601TIP3   OH2 7759   0.758   5.280   0.311
 2601TIP3    H1 7760   0.706   5.294   0.390
 2601TIP3    H2 7761   0.698   5.236   0.250
 2602TIP3   OH2 7762   5.287   5.110   5.320
 2602TIP3    H1 7763   5.375   5.134   5.291
 2602TIP3    H2 7764   5.294   5.018   5.345
 2603TIP3   OH2 7765   6.337   4.344   2.503
 2603TIP3    H1 7766   6.408   4.372   2.446
 2603TIP3    H2 7767   6.264   4.402   2.482
 2604TIP3   OH2 7768   7.867   1.861   0.157
 2604TIP3    H1 7769   7.872   1.766   0.169
 2604TIP3    H2 7770   7.944   1.882   0.104
 2605TIP3   OH2 7771   1.198   4.148   0.028
 2605TIP3    H1 7772   1.218   4.149   0.121
 2605TIP3    H2 7773   1.182   4.056   0.007
 2606TIP3   OH2 7774   6.240   1.497   3.443
 2606TIP3    H1 7775   6.268   1.550   3.369
 2606TIP3    H2 7776   6.191   1.424   3.403
 2607TIP3   OH2 7777   5.546   4.010   1.551
 2607TIP3    H1 7778   5.620   4.064   1.522
 2607TIP3    H2 7779   5.484   4.072   1.588
 2608TIP3   OH2 7780   0.873   2.776   5.399
 2608TIP3    H1 7781   0.863   2.797   5.492
 2608TIP3    H2 7782   0.852   2.858   5.354
 2609TIP3   OH2 7783   7.034   2.796   4.070
 2609TIP3    H1 7784   6.955   2.843   4.046
 2609TIP3    H2 7785   7.091   2.862   4.108
 2610TIP3   OH2 7786   4.308   4.149   5.891
 2610TIP3    H1 7787   4.388   4.139   5.840
 2610TIP3    H2 7788   4.338   4.171   5.979
 2611TIP3   OH2 7789   3.160   3.873   2.214
 2611TIP3    H1 7790   3.072   3.836   2.216
 2611TIP3    H2 7791   3.151   3.952   2.160
 2612TIP3   OH2 7792   5.041   1.536   6.406
 2612TIP3    H1 7793   5.086   1.516   6.323
 2612TIP3    H2 7794   5.077   1.621   6.432
 2613TIP3   OH2 7795   7.136   1.931   1.255
 2613TIP3    H1 7796   7.059   1.912   1.202
 2613TIP3    H2 7797   7.209   1.927   1.194
 2614TIP3   OH2 7798   1.215   3.747   2.104
 2614TIP3    H1 7799   1.243   3.718   2.191
 2614TIP3    H2 7800   1.296   3.773   2.061
 2615TIP3   OH2 7801   3.666   4.033   5.329
 2615TIP3    H1 7802   3.751   4.072   5.350
 2615TIP3    H2 7803   3.682   3.983   5.249
 2616TIP3   OH2 7804   2.358   3.833   1.619
 2616TIP3    H1 7805   2.274   3.843   1.665
 2616TIP3    H2 7806   2.346   3.881   1.537
 2617TIP3   OH2 7807   5.737   2.412   4.790
 2617TIP3    H1 7808   5.780   2.443   4.869
 2617TIP3    H2 7809   5.646   2.442   4.798
 2618TIP3   OH2 7810   1.955   3.314   1.635
 2618TIP3    H1 7811   1.965   3.407   1.617
 2618TIP3    H2 7812   1.995   3.270   1.560
 2619TIP3   OH2 7813   3.636   3.427   2.796
 2619TIP3    H1 7814   3.597   3.357   2.849
 2619TIP3    H2 7815   3.700   3.382   2.741
 2620TIP3   OH2 7816   6.723   0.626   0.792
 2620TIP3    H1 7817   6.676   0.667   0.865
 2620TIP3    H2 7818   6.679   0.657   0.714
 2621TIP3   OH2 7819   3.844   1.183   5.588
 2621TIP3    H1 7820   3.756   1.219   5.574
 2621TIP3    H2 7821   3.835   1.090   5.565
 2622TIP3   OH2 7822   6.041   7.002   4.157
 2622TIP3    H1 7823   6.021   7.044   4.073
 2622TIP3    H2 7824   6.029   7.071   4.222
 2623TIP3   OH2 7825   0.933   6.327   6.187
 2623TIP3    H1 7826   1.016   6.289   6.215
 2623TIP3    H2 7827   0.871   6.302   6.256
 2624TIP3   OH2 7828   2.214   1.212   5.713
 2624TIP3    H1 7829   2.138   1.173   5.755
 2624TIP3    H2 7830   2.280   1.216   5.782
 2625TIP3   OH2 7831   6.407   0.921   5.632
 2625TIP3    H1 7832   6.428   0.976   5.707
 2625TIP3    H2 7833   6.456   0.840   5.648
 2626TIP3   OH2 7834   1.079   0.532   3.826
 2626TIP3    H1 7835   1.015   0.486   3.880
 2626TIP3    H2 7836   1.038   0.616   3.807
 2627TIP3   OH2 7837   5.727   6.324   6.723
 2627TIP3    H1 7838   5.734   6.244   6.775
 2627TIP3    H2 7839   5.756   6.297   6.635
 2628TIP3   OH2 7840   0.633   5.783   4.596
 2628TIP3    H1 7841   0.673   5.843   4.533
 2628TIP3    H2 7842   0.539   5.799   4.590
 2629TIP3   OH2 7843   7.299   3.094   3.268
 2629TIP3    H1 7844   7.351   3.110   3.189
 2629TIP3    H2 7845   7.362   3.061   3.332
 2630TIP3   OH2 7846   0.194   1.359   5.758
 2630TIP3    H1 7847   0.240   1.388   5.679
 2630TIP3    H2 7848   0.184   1.265   5.747
 2631TIP3   OH2 7849   2.793   3.155   3.541
 2631TIP3    H1 7850   2.785   3.148   3.636
 2631TIP3    H2 7851   2.865   3.217   3.528
 2632TIP3   OH2 7852   1.346   6.298   4.195
 2632TIP3    H1 7853   1.337   6.382   4.150
 2632TIP3    H2 7854   1.268   6.291   4.249
 2633TIP3   OH2 7855   0.442   1.374   3.534
 2633TIP3    H1 7856   0.424   1.288   3.573
 2633TIP3    H2 7857   0.532   1.394   3.561
 2634TIP3   OH2 7858   0.716   5.039   5.595
 2634TIP3    H1 7859   0.666   5.117   5.619
 2634TIP3    H2 7860   0.789   5.038   5.657
 2635TIP3   OH2 7861   2.309   3.426   1.324
 2635TIP3    H1 7862   2.381   3.486   1.347
 2635TIP3    H2 7863   2.282   3.454   1.236
 2636TIP3   OH2 7864   7.653   0.093   4.784
 2636TIP3    H1 7865   7.602   0.167   4.752
 2636TIP3    H2 7866   7.701   0.128   4.859
 2637TIP3   OH2 7867   4.202   0.796   3.377
 2637TIP3    H1 7868   4.130   0.859   3.380
 2637TIP3    H2 7869   4.161   0.713   3.352
 2638TIP3   OH2 7870   0.545   5.389   2.199
 2638TIP3    H1 7871   0.461   5.362   2.163
 2638TIP3    H2 7872   0.537   5.374   2.293
 2639TIP3   OH2 7873   0.483   4.332   3.819
 2639TIP3    H1 7874   0.430   4.360   3.893
 2639TIP3    H2 7875   0.560   4.389   3.820
 2640TIP3   OH2 7876   3.155   5.627   0.525
 2640TIP3    H1 7877   3.233   5.676   0.550
 2640TIP3    H2 7878   3.142   5.649   0.433
 2641TIP3   OH2 7879   3.783   0.868   3.905
 2641TIP3    H1 7880   3.817   0.780   3.919
 2641TIP3    H2 7881   3.781   0.878   3.810
 2642TIP3   OH2 7882   2.563   6.038   1.179
 2642TIP3    H1 7883   2.649   6.069   1.206
 2642TIP3    H2 7884   2.520   6.114   1.140
 2643TIP3   OH2 7885   7.163   0.261   5.680
 2643TIP3    H1 7886   7.093   0.219   5.630
 2643TIP3    H2 7887   7.130   0.263   5.770
 2644TIP3   OH2 7888   6.690   0.954   0.396
 2644TIP3    H1 7889   6.735   0.981   0.476
 2644TIP3    H2 7890   6.632   1.028   0.375
 2645TIP3   OH2 7891   7.746   6.256   4.911
 2645TIP3    H1 7892   7.774   6.164   4.915
 2645TIP3    H2 7893   7.723   6.278   5.001
 2646TIP3   OH2 7894   4.264   4.152   1.587
 2646TIP3    H1 7895   4.223   4.237   1.603
 2646TIP3    H2 7896   4.237   4.128   1.499
 2647TIP3   OH2 7897   1.762   0.170   5.324
 2647TIP3    H1 7898   1.762   0.220   5.405
 2647TIP3    H2 7899   1.781   0.080   5.351
 2648TIP3   OH2 7900   1.342   5.136   5.905
 2648TIP3    H1 7901   1.413   5.173   5.852
 2648TIP3    H2 7902   1.353   5.176   5.991
 2649TIP3   OH2 7903   3.518   7.243   6.220
 2649TIP3    H1 7904   3.565   7.181   6.164
 2649TIP3    H2 7905   3.586   7.286   6.271
 2650TIP3   OH2 7906   3.484   1.552   4.842
 2650TIP3    H1 7907   3.444   1.638   4.855
 2650TIP3    H2 7908   3.549   1.544   4.912
 2651TIP3   OH2 7909   5.378   4.027   6.054
 2651TIP3    H1 7910   5.438   4.050   5.982
 2651TIP3    H2 7911   5.420   4.063   6.132
 2652TIP3   OH2 7912   2.957   6.275   2.719
 2652TIP3    H1 7913   3.006   6.214   2.774
 2652TIP3    H2 7914   3.012   6.288   2.642
 2653TIP3   OH2 7915   4.749   2.709   0.131
 2653TIP3    H1 7916   4.686   2.780   0.142
 2653TIP3    H2 7917   4.743   2.685   0.039
 2654TIP3   OH2 7918   3.911   4.225   2.999
 2654TIP3    H1 7919   3.888   4.289   3.066
 2654TIP3    H2 7920   3.838   4.227   2.938
 2655TIP3   OH2 7921   8.074   7.685   0.954
 2655TIP3    H1 7922   8.111   7.597   0.946
 2655TIP3    H2 7923   8.114   7.735   0.882
 2656TIP3   OH2 7924   7.725   2.201   5.847
 2656TIP3    H1 7925   7.780   2.232   5.775
 2656TIP3    H2 7926   7.727   2.105   5.839
 2657TIP3   OH2 7927   8.097   7.113   5.598
 2657TIP3    H1 7928   8.164   7.087   5.661
 2657TIP3    H2 7929   8.031   7.043   5.603
 2658TIP3   OH2 7930   5.832   6.097   3.946
 2658TIP3    H1 7931   5.927   6.104   3.937
 2658TIP3    H2 7932   5.796   6.155   3.879
 2659TIP3   OH2 7933   2.076   6.649   3.884
 2659TIP3    H1 7934   2.070   6.734   3.928
 2659TIP3    H2 7935   1.986   6.618   3.881
 2660TIP3   OH2 7936   2.648   4.663   5.008
 2660TIP3    H1 7937   2.656   4.758   5.000
 2660TIP3    H2 7938   2.739   4.632   5.007
 2661TIP3   OH2 7939   0.350   3.490   4.527
 2661TIP3    H1 7940   0.414   3.534   4.472
 2661TIP3    H2 7941   0.394   3.410   4.557
 2662TIP3   OH2 7942   7.551   5.611   1.496
 2662TIP3    H1 7943   7.583   5.574   1.414
 2662TIP3    H2 7944   7.456   5.600   1.493
 2663TIP3   OH2 7945   0.180   3.693   6.768
 2663TIP3    H1 7946   0.152   3.678   6.678
 2663TIP3    H2 7947   0.219   3.781   6.767
 2664TIP3   OH2 7948   7.053   1.353   2.283
 2664TIP3    H1 7949   7.070   1.335   2.375
 2664TIP3    H2 7950   7.138   1.348   2.241
 2665TIP3   OH2 7951   5.451   5.030   4.836
 2665TIP3    H1 7952   5.457   5.001   4.927
 2665TIP3    H2 7953   5.382   4.975   4.798
 2666TIP3   OH2 7954   2.129   5.541   0.864
 2666TIP3    H1 7955   2.163   5.629   0.849
 2666TIP3    H2 7956   2.200   5.495   0.910
 2667TIP3   OH2 7957   6.878   6.707   4.133
 2667TIP3    H1 7958   6.953   6.648   4.147
 2667TIP3    H2 7959   6.811   6.675   4.193
 2668TIP3   OH2 7960   2.466   2.938   5.850
 2668TIP3    H1 7961   2.377   2.905   5.843
 2668TIP3    H2 7962   2.471   3.009   5.786
 2669TIP3   OH2 7963   1.820   7.234   3.989
 2669TIP3    H1 7964   1.854   7.322   4.006
 2669TIP3    H2 7965   1.856   7.211   3.903
 2670TIP3   OH2 7966   0.379   7.502   5.632
 2670TIP3    H1 7967   0.406   7.591   5.657
 2670TIP3    H2 7968   0.453   7.447   5.656
 2671TIP3   OH2 7969   0.713   4.188   1.298
 2671TIP3    H1 7970   0.770   4.112   1.313
 2671TIP3    H2 7971   0.625   4.155   1.315
 2672TIP3   OH2 7972   1.949   4.805   3.370
 2672TIP3    H1 7973   1.913   4.821   3.283
 2672TIP3    H2 7974   1.872   4.807   3.428
 2673TIP3   OH2 7975   3.986   5.426   0.371
 2673TIP3    H1 7976   4.034   5.343   0.371
 2673TIP3    H2 7977   3.974   5.446   0.279
 2674TIP3   OH2 7978   3.158   4.886   3.393
 2674TIP3    H1 7979   3.163   4.981   3.404
 2674TIP3    H2 7980   3.209   4.850   3.464
 2675TIP3   OH2 7981   6.783   3.736   6.026
 2675TIP3    H1 7982   6.767   3.737   5.932
 2675TIP3    H2 7983   6.797   3.828   6.049
 2676TIP3   OH2 7984   3.185   4.233   4.564
 2676TIP3    H1 7985   3.161   4.168   4.499
 2676TIP3    H2 7986   3.107   4.242   4.619
 2677TIP3   OH2 7987   7.474   0.697   5.298
 2677TIP3    H1 7988   7.462   0.791   5.289
 2677TIP3    H2 7989   7.536   0.686   5.370
 2678TIP3   OH2 7990   7.255   0.211   1.059
 2678TIP3    H1 7991   7.176   0.190   1.008
 2678TIP3    H2 7992   7.222   0.260   1.134
 2679TIP3   OH2 7993   7.474   5.313   1.265
 2679TIP3    H1 7994   7.499   5.405   1.261
 2679TIP3    H2 7995   7.503   5.285   1.352
 2680TIP3   OH2 7996   0.227   4.182   1.297
 2680TIP3    H1 7997   0.287   4.121   1.341
 2680TIP3    H2 7998   0.272   4.266   1.300
 2681TIP3   OH2 7999   2.853   5.357   1.683
 2681TIP3    H1 8000   2.860   5.361   1.778
 2681TIP3    H2 8001   2.929   5.307   1.655
 2682TIP3   OH2 8002   2.591   6.524   3.232
 2682TIP3    H1 8003   2.533   6.577   3.177
 2682TIP3    H2 8004   2.626   6.458   3.172
 2683TIP3   OH2 8005   3.971   7.284   3.196
 2683TIP3    H1 8006   3.905   7.224   3.161
 2683TIP3    H2 8007   4.052   7.233   3.199
 2684TIP3   OH2 8008   0.260   3.973   0.295
 2684TIP3    H1 8009   0.251   4.068   0.301
 2684TIP3    H2 8010   0.200   3.939   0.362
 2685TIP3   OH2 8011   2.938   1.973   2.883
 2685TIP3    H1 8012   2.925   2.006   2.794
 2685TIP3    H2 8013   3.033   1.960   2.889
 2686TIP3   OH2 8014   4.376   6.006   4.238
 2686TIP3    H1 8015   4.415   5.937   4.185
 2686TIP3    H2 8016   4.288   6.016   4.203
 2687TIP3   OH2 8017   4.374   4.255   2.681
 2687TIP3    H1 8018   4.301   4.253   2.744
 2687TIP3    H2 8019   4.364   4.339   2.637
 2688TIP3   OH2 8020   7.791   4.000   4.345
 2688TIP3    H1 8021   7.868   4.056   4.354
 2688TIP3    H2 8022   7.720   4.051   4.383
 2689TIP3   OH2 8023   0.661   3.081   6.049
 2689TIP3    H1 8024   0.687   3.091   6.141
 2689TIP3    H2 8025   0.721   3.140   6.002
 2690TIP3   OH2 8026   5.612   5.216   2.641
 2690TIP3    H1 8027   5.524   5.177   2.638
 2690TIP3    H2 8028   5.654   5.187   2.560
 2691TIP3   OH2 8029   0.709   5.683   2.460
 2691TIP3    H1 8030   0.771   5.756   2.461
 2691TIP3    H2 8031   0.744   5.621   2.524
 2692TIP3   OH2 8032   5.671   5.681   3.088
 2692TIP3    H1 8033   5.603   5.671   3.021
 2692TIP3    H2 8034   5.713   5.764   3.068
 2693TIP3   OH2 8035   5.629   4.604   4.831
 2693TIP3    H1 8036   5.687   4.568   4.897
 2693TIP3    H2 8037   5.674   4.683   4.801
 2694TIP3   OH2 8038   5.784   0.587   4.789
 2694TIP3    H1 8039   5.797   0.527   4.863
 2694TIP3    H2 8040   5.746   0.532   4.720
 2695TIP3   OH2 8041   2.338   7.655   4.618
 2695TIP3    H1 8042   2.339   7.684   4.709
 2695TIP3    H2 8043   2.428   7.625   4.602
 2696TIP3   OH2 8044   5.242   7.739   1.919
 2696TIP3    H1 8045   5.183   7.754   1.845
 2696TIP3    H2 8046   5.184   7.738   1.996
 2697TIP3   OH2 8047   5.354   5.919   6.002
 2697TIP3    H1 8048   5.269   5.948   6.036
 2697TIP3    H2 8049   5.391   5.997   5.961
 2698TIP3   OH2 8050   4.465   3.212   1.296
 2698TIP3    H1 8051   4.553   3.186   1.323
 2698TIP3    H2 8052   4.422   3.130   1.273
 2699TIP3   OH2 8053   1.272   7.698   4.425
 2699TIP3    H1 8054   1.240   7.712   4.514
 2699TIP3    H2 8055   1.208   7.640   4.384
 2700TIP3   OH2 8056   6.350   6.061   5.191
 2700TIP3    H1 8057   6.259   6.037   5.207
 2700TIP3    H2 8058   6.390   5.980   5.159
 2701TIP3   OH2 8059   1.133   1.537   6.474
 2701TIP3    H1 8060   1.215   1.578   6.443
 2701TIP3    H2 8061   1.108   1.589   6.550
 2702TIP3   OH2 8062   7.115   6.533   4.642
 2702TIP3    H1 8063   7.037   6.477   4.636
 2702TIP3    H2 8064   7.183   6.483   4.597
 2703TIP3   OH2 8065   5.235   1.128   3.783
 2703TIP3    H1 8066   5.236   1.086   3.870
 2703TIP3    H2 8067   5.219   1.220   3.801
 2704TIP3   OH2 8068   5.432   1.659   1.529
 2704TIP3    H1 8069   5.380   1.720   1.476
 2704TIP3    H2 8070   5.477   1.715   1.592
 2705TIP3   OH2 8071   6.851   3.576   3.051
 2705TIP3    H1 8072   6.896   3.560   3.134
 2705TIP3    H2 8073   6.805   3.659   3.063
 2706TIP3   OH2 8074   1.101   2.442   0.266
 2706TIP3    H1 8075   1.126   2.476   0.180
 2706TIP3    H2 8076   1.180   2.399   0.299
 2707TIP3   OH2 8077   2.530   7.567   5.560
 2707TIP3    H1 8078   2.533   7.656   5.526
 2707TIP3    H2 8079   2.598   7.563   5.627
 2708TIP3   OH2 8080   8.233   7.741   6.266
 2708TIP3    H1 8081   8.142   7.741   6.295
 2708TIP3    H2 8082   8.267   7.656   6.295
 2709TIP3   OH2 8083   5.301   3.763   3.032
 2709TIP3    H1 8084   5.280   3.840   3.084
 2709TIP3    H2 8085   5.279   3.788   2.942
 2710TIP3   OH2 8086   5.886   3.546   6.466
 2710TIP3    H1 8087   5.954   3.613   6.466
 2710TIP3    H2 8088   5.828   3.571   6.537
 2711TIP3   OH2 8089   0.663   5.397   3.618
 2711TIP3    H1 8090   0.641   5.362   3.704
 2711TIP3    H2 8091   0.582   5.392   3.568
 2712TIP3   OH2 8092   7.632   1.121   5.363
 2712TIP3    H1 8093   7.724   1.146   5.354
 2712TIP3    H2 8094   7.620   1.105   5.456
 2713TIP3   OH2 8095   5.043   7.615   0.407
 2713TIP3    H1 8096   5.103   7.647   0.339
 2713TIP3    H2 8097   5.096   7.613   0.486
 2714TIP3   OH2 8098   4.998   1.352   2.577
 2714TIP3    H1 8099   4.904   1.368   2.586
 2714TIP3    H2 8100   5.006   1.298   2.498
 2715TIP3   OH2 8101   4.992   5.874   3.517
 2715TIP3    H1 8102   4.918   5.855   3.459
 2715TIP3    H2 8103   4.951   5.905   3.599
 2716TIP3   OH2 8104   1.606   4.402   0.055
 2716TIP3    H1 8105   1.518   4.374   0.027
 2716TIP3    H2 8106   1.658   4.399  -0.026
 2717TIP3   OH2 8107   8.106   0.348   0.115
 2717TIP3    H1 8108   8.200   0.355   0.131
 2717TIP3    H2 8109   8.066   0.359   0.201
 2718TIP3   OH2 8110   3.048   0.043   6.662
 2718TIP3    H1 8111   3.093   0.074   6.584
 2718TIP3    H2 8112   3.092   0.087   6.734
 2719TIP3   OH2 8113   0.963   0.862   2.174
 2719TIP3    H1 8114   1.033   0.824   2.122
 2719TIP3    H2 8115   0.920   0.787   2.215
 2720TIP3   OH2 8116   1.949   2.937   5.208
 2720TIP3    H1 8117   1.969   2.893   5.125
 2720TIP3    H2 8118   1.853   2.937   5.212
 2721TIP3   OH2 8119   6.440   1.835   1.115
 2721TIP3    H1 8120   6.460   1.874   1.030
 2721TIP3    H2 8121   6.521   1.791   1.141
 2722TIP3   OH2 8122   6.089   2.510   3.548
 2722TIP3    H1 8123   6.070   2.422   3.581
 2722TIP3    H2 8124   6.013   2.562   3.572
 2723TIP3   OH2 8125   2.013   0.699   0.926
 2723TIP3    H1 8126   1.961   0.689   0.846
 2723TIP3    H2 8127   2.001   0.790   0.952
 2724TIP3   OH2 8128   0.071   5.594   5.704
 2724TIP3    H1 8129   0.002   5.586   5.637
 2724TIP3    H2 8130   0.128   5.519   5.688
 2725TIP3   OH2 8131   7.990   3.046   0.247
 2725TIP3    H1 8132   8.041   2.982   0.196
 2725TIP3    H2 8133   7.909   2.999   0.269
 2726TIP3   OH2 8134   3.353   4.246   2.789
 2726TIP3    H1 8135   3.381   4.155   2.802
 2726TIP3    H2 8136   3.302   4.266   2.867
 2727TIP3   OH2 8137   7.243   5.827   4.536
 2727TIP3    H1 8138   7.198   5.743   4.531
 2727TIP3    H2 8139   7.329   5.806   4.574
 2728TIP3   OH2 8140   4.582   7.178   1.203
 2728TIP3    H1 8141   4.645   7.242   1.170
 2728TIP3    H2 8142   4.502   7.229   1.217
 2729TIP3   OH2 8143   0.768   4.182   1.997
 2729TIP3    H1 8144   0.718   4.264   1.990
 2729TIP3    H2 8145   0.855   4.208   2.027
 2730TIP3   OH2 8146   3.406   1.904   5.859
 2730TIP3    H1 8147   3.490   1.925   5.899
 2730TIP3    H2 8148   3.400   1.965   5.785
 2731TIP3   OH2 8149   2.299   7.087   3.653
 2731TIP3    H1 8150   2.341   7.101   3.569
 2731TIP3    H2 8151   2.214   7.131   3.645
 2732TIP3   OH2 8152   7.712   4.219   5.015
 2732TIP3    H1 8153   7.725   4.195   5.107
 2732TIP3    H2 8154   7.620   4.246   5.010
 2733TIP3   OH2 8155   0.279   0.839   4.213
 2733TIP3    H1 8156   0.199   0.882   4.183
 2733TIP3    H2 8157   0.340   0.848   4.140
 2734TIP3   OH2 8158   1.086   6.425   5.888
 2734TIP3    H1 8159   1.181   6.418   5.886
 2734TIP3    H2 8160   1.067   6.467   5.972
 2735TIP3   OH2 8161   5.023   5.010   0.280
 2735TIP3    H1 8162   5.065   5.030   0.364
 2735TIP3    H2 8163   5.023   4.915   0.275
 2736TIP3   OH2 8164   3.134   3.473   2.906
 2736TIP3    H1 8165   3.128   3.564   2.934
 2736TIP3    H2 8166   3.048   3.435   2.928
 2737TIP3   OH2 8167   2.799   0.918   1.842
 2737TIP3    H1 8168   2.760   0.896   1.758
 2737TIP3    H2 8169   2.874   0.859   1.850
 2738TIP3   OH2 8170   0.316   7.243   2.068
 2738TIP3    H1 8171   0.383   7.177   2.050
 2738TIP3    H2 8172   0.300   7.285   1.983
 2739TIP3   OH2 8173   0.123   6.697   2.027
 2739TIP3    H1 8174   0.181   6.700   1.951
 2739TIP3    H2 8175   0.049   6.643   1.999
 2740TIP3   OH2 8176   0.568   5.458   6.605
 2740TIP3    H1 8177   0.533   5.448   6.516
 2740TIP3    H2 8178   0.660   5.435   6.597
 2741TIP3   OH2 8179   3.382   0.367   4.784
 2741TIP3    H1 8180   3.292   0.339   4.766
 2741TIP3    H2 8181   3.393   0.446   4.732
 2742TIP3   OH2 8182   3.583   5.980   4.107
 2742TIP3    H1 8183   3.554   5.907   4.052
 2742TIP3    H2 8184   3.531   6.055   4.078
 2743TIP3   OH2 8185   7.237   7.534   4.546
 2743TIP3    H1 8186   7.215   7.553   4.637
 2743TIP3    H2 8187   7.303   7.600   4.522
 2744TIP3   OH2 8188   5.281   2.536   5.366
 2744TIP3    H1 8189   5.193   2.537   5.327
 2744TIP3    H2 8190   5.277   2.602   5.435
 2745TIP3   OH2 8191   6.950   3.864   3.708
 2745TIP3    H1 8192   6.974   3.789   3.763
 2745TIP3    H2 8193   6.864   3.890   3.740
 2746TIP3   OH2 8194   2.936   2.103   0.085
 2746TIP3    H1 8195   2.903   2.027   0.133
 2746TIP3    H2 8196   2.981   2.156   0.151
 2747TIP3   OH2 8197   1.617   7.363   1.711
 2747TIP3    H1 8198   1.595   7.271   1.719
 2747TIP3    H2 8199   1.550   7.398   1.651
 2748TIP3   OH2 8200   0.250   1.370   5.450
 2748TIP3    H1 8201   0.239   1.454   5.494
 2748TIP3    H2 8202   0.190   1.372   5.376
 2749TIP3   OH2 8203   7.663   7.318   4.026
 2749TIP3    H1 8204   7.632   7.367   4.102
 2749TIP3    H2 8205   7.646   7.226   4.049
 2750TIP3   OH2 8206   4.972   7.447   4.417
 2750TIP3    H1 8207   4.916   7.385   4.464
 2750TIP3    H2 8208   5.047   7.461   4.475
 2751TIP3   OH2 8209   1.670   6.872   1.974
 2751TIP3    H1 8210   1.646   6.792   2.021
 2751TIP3    H2 8211   1.679   6.844   1.882
 2752TIP3   OH2 8212   5.230   0.987   2.313
 2752TIP3    H1 8213   5.205   0.902   2.277
 2752TIP3    H2 8214   5.321   0.975   2.341
 2753TIP3   OH2 8215   0.586   7.665   5.136
 2753TIP3    H1 8216   0.605   7.584   5.184
 2753TIP3    H2 8217   0.575   7.731   5.204
 2754TIP3   OH2 8218   0.444   5.629   0.797
 2754TIP3    H1 8219   0.500   5.647   0.722
 2754TIP3    H2 8220   0.462   5.700   0.859
 2755TIP3   OH2 8221   5.444   6.222   3.529
 2755TIP3    H1 8222   5.377   6.153   3.532
 2755TIP3    H2 8223   5.522   6.178   3.496
 2756TIP3   OH2 8224   7.133   4.432   2.123
 2756TIP3    H1 8225   7.094   4.519   2.132
 2756TIP3    H2 8226   7.211   4.435   2.179
 2757TIP3   OH2 8227   3.841   3.471   2.982
 2757TIP3    H1 8228   3.765   3.471   2.924
 2757TIP3    H2 8229   3.915   3.493   2.925
 2758TIP3   OH2 8230   7.660   5.524   2.696
 2758TIP3    H1 8231   7.686   5.495   2.784
 2758TIP3    H2 8232   7.597   5.595   2.712
 2759TIP3   OH2 8233   1.769   0.798   1.777
 2759TIP3    H1 8234   1.689   0.800   1.724
 2759TIP3    H2 8235   1.761   0.873   1.836
 2760TIP3   OH2 8236   1.204   0.888   5.432
 2760TIP3    H1 8237   1.238   0.973   5.461
 2760TIP3    H2 8238   1.247   0.824   5.490
 2761TIP3   OH2 8239   1.828   6.862   4.120
 2761TIP3    H1 8240   1.809   6.820   4.036
 2761TIP3    H2 8241   1.742   6.871   4.162
 2762TIP3   OH2 8242   7.153   3.551   0.841
 2762TIP3    H1 8243   7.142   3.646   0.837
 2762TIP3    H2 8244   7.084   3.521   0.900
 2763TIP3   OH2 8245   1.668   5.821   0.222
 2763TIP3    H1 8246   1.711   5.781   0.146
 2763TIP3    H2 8247   1.579   5.838   0.193
 2764TIP3   OH2 8248   6.887   2.215   0.084
 2764TIP3    H1 8249   6.872   2.202  -0.009
 2764TIP3    H2 8250   6.813   2.172   0.127
 2765TIP3   OH2 8251   1.340   5.802   6.739
 2765TIP3    H1 8252   1.423   5.795   6.786
 2765TIP3    H2 8253   1.352   5.876   6.680
 2766TIP3   OH2 8254   0.261   0.948   2.814
 2766TIP3    H1 8255   0.316   1.023   2.837
 2766TIP3    H2 8256   0.213   0.976   2.736
 2767TIP3   OH2 8257   4.906   0.766   0.533
 2767TIP3    H1 8258   4.927   0.711   0.608
 2767TIP3    H2 8259   4.824   0.809   0.556
 2768TIP3   OH2 8260   5.003   4.910   1.823
 2768TIP3    H1 8261   5.003   5.004   1.840
 2768TIP3    H2 8262   4.911   4.888   1.810
 2769TIP3   OH2 8263   3.892   7.458   4.686
 2769TIP3    H1 8264   3.964   7.507   4.726
 2769TIP3    H2 8265   3.909   7.463   4.592
 2770TIP3   OH2 8266   7.084   5.490   2.950
 2770TIP3    H1 8267   7.061   5.438   3.027
 2770TIP3    H2 8268   7.164   5.537   2.976
 2771TIP3   OH2 8269   4.465   5.466   2.099
 2771TIP3    H1 8270   4.384   5.429   2.135
 2771TIP3    H2 8271   4.487   5.407   2.026
 2772TIP3   OH2 8272   2.297   6.455   0.961
 2772TIP3    H1 8273   2.212   6.430   0.924
 2772TIP3    H2 8274   2.317   6.539   0.921
 2773TIP3   OH2 8275   5.551   2.175   4.954
 2773TIP3    H1 8276   5.502   2.255   4.934
 2773TIP3    H2 8277   5.574   2.138   4.869
 2774TIP3   OH2 8278   4.625   2.130   6.569
 2774TIP3    H1 8279   4.628   2.034   6.561
 2774TIP3    H2 8280   4.698   2.151   6.626
 2775TIP3   OH2 8281   7.213   6.111   0.473
 2775TIP3    H1 8282   7.237   6.188   0.525
 2775TIP3    H2 8283   7.238   6.135   0.384
 2776TIP3   OH2 8284   1.760   1.780   2.467
 2776TIP3    H1 8285   1.783   1.697   2.425
 2776TIP3    H2 8286   1.773   1.764   2.560
 2777TIP3   OH2 8287   0.810   0.111   3.373
 2777TIP3    H1 8288   0.737   0.165   3.341
 2777TIP3    H2 8289   0.855   0.082   3.294
 2778TIP3   OH2 8290   1.361   0.332   6.261
 2778TIP3    H1 8291   1.455   0.318   6.270
 2778TIP3    H2 8292   1.330   0.342   6.351
 2779TIP3   OH2 8293   7.407   0.842   0.780
 2779TIP3    H1 8294   7.478   0.785   0.751
 2779TIP3    H2 8295   7.332   0.783   0.792
 2780TIP3   OH2 8296   3.942   5.587   4.936
 2780TIP3    H1 8297   3.946   5.498   4.901
 2780TIP3    H2 8298   3.866   5.586   4.994
 2781TIP3   OH2 8299   8.291   6.760   4.022
 2781TIP3    H1 8300   8.218   6.700   4.037
 2781TIP3    H2 8301   8.366   6.703   4.003
 2782TIP3   OH2 8302   6.458   1.826   4.051
 2782TIP3    H1 8303   6.499   1.905   4.086
 2782TIP3    H2 8304   6.440   1.848   3.959
 2783TIP3   OH2 8305   5.996   6.395   4.669
 2783TIP3    H1 8306   5.904   6.371   4.661
 2783TIP3    H2 8307   6.040   6.316   4.700
 2784TIP3   OH2 8308   0.495   0.142   3.644
 2784TIP3    H1 8309   0.403   0.114   3.643
 2784TIP3    H2 8310   0.539   0.078   3.588
 2785TIP3   OH2 8311   2.253   5.673   6.568
 2785TIP3    H1 8312   2.271   5.591   6.523
 2785TIP3    H2 8313   2.162   5.666   6.596
 2786TIP3   OH2 8314   6.180   1.232   4.775
 2786TIP3    H1 8315   6.165   1.309   4.829
 2786TIP3    H2 8316   6.179   1.159   4.837
 2787TIP3   OH2 8317   2.359   0.556   3.894
 2787TIP3    H1 8318   2.358   0.598   3.980
 2787TIP3    H2 8319   2.388   0.625   3.835
 2788TIP3   OH2 8320   5.502   6.223   6.452
 2788TIP3    H1 8321   5.585   6.255   6.416
 2788TIP3    H2 8322   5.463   6.171   6.382
 2789TIP3   OH2 8323   3.031   5.205   0.046
 2789TIP3    H1 8324   3.108   5.261   0.038
 2789TIP3    H2 8325   2.993   5.229   0.131
 2790TIP3   OH2 8326   7.151   6.197   2.722
 2790TIP3    H1 8327   7.184   6.109   2.739
 2790TIP3    H2 8328   7.130   6.232   2.808
 2791TIP3   OH2 8329   2.074   5.858   2.368
 2791TIP3    H1 8330   2.138   5.811   2.422
 2791TIP3    H2 8331   2.123   5.883   2.289
 2792TIP3   OH2 8332   2.825   0.726   1.250
 2792TIP3    H1 8333   2.884   0.656   1.280
 2792TIP3    H2 8334   2.813   0.708   1.157
 2793TIP3   OH2 8335   4.209   4.963   2.011
 2793TIP3    H1 8336   4.214   4.868   1.999
 2793TIP3    H2 8337   4.187   4.997   1.924
 2794TIP3   OH2 8338   5.899   6.222   2.355
 2794TIP3    H1 8339   5.841   6.201   2.282
 2794TIP3    H2 8340   5.966   6.153   2.353
 2795TIP3   OH2 8341   0.803   0.859   5.399
 2795TIP3    H1 8342   0.775   0.943   5.364
 2795TIP3    H2 8343   0.725   0.804   5.394
 2796TIP3   OH2 8344   2.343   1.406   0.678
 2796TIP3    H1 8345   2.430   1.410   0.640
 2796TIP3    H2 8346   2.351   1.346   0.752
 2797TIP3   OH2 8347   0.631   3.823   4.954
 2797TIP3    H1 8348   0.566   3.836   5.024
 2797TIP3    H2 8349   0.710   3.793   5.000
 2798TIP3   OH2 8350   4.985   3.809   5.365
 2798TIP3    H1 8351   5.067   3.855   5.344
 2798TIP3    H2 8352   4.981   3.809   5.460
 2799TIP3   OH2 8353   4.962   7.102   0.671
 2799TIP3    H1 8354   4.961   7.070   0.582
 2799TIP3    H2 8355   5.041   7.157   0.676
 2800TIP3   OH2 8356   0.581   3.178   5.397
 2800TIP3    H1 8357   0.560   3.176   5.491
 2800TIP3    H2 8358   0.543   3.098   5.363
 2801TIP3   OH2 8359   2.340   0.744   0.467
 2801TIP3    H1 8360   2.255   0.768   0.503
 2801TIP3    H2 8361   2.380   0.828   0.443
 2802TIP3   OH2 8362   2.516   7.331   4.535
 2802TIP3    H1 8363   2.562   7.311   4.617
 2802TIP3    H2 8364   2.493   7.246   4.500
 2803TIP3   OH2 8365   1.481   3.719   3.637
 2803TIP3    H1 8366   1.438   3.686   3.557
 2803TIP3    H2 8367   1.417   3.780   3.674
 2804TIP3   OH2 8368   7.842   4.551   0.091
 2804TIP3    H1 8369   7.929   4.536   0.128
 2804TIP3    H2 8370   7.858   4.603   0.012
 2805TIP3   OH2 8371   0.921   2.936   1.100
 2805TIP3    H1 8372   0.843   2.950   1.046
 2805TIP3    H2 8373   0.901   2.981   1.183
 2806TIP3   OH2 8374   0.452   2.618   0.534
 2806TIP3    H1 8375   0.529   2.663   0.568
 2806TIP3    H2 8376   0.485   2.533   0.505
 2807TIP3   OH2 8377   3.170   5.194   2.577
 2807TIP3    H1 8378   3.256   5.152   2.582
 2807TIP3    H2 8379   3.164   5.224   2.486
 2808TIP3   OH2 8380   1.926   5.546   4.380
 2808TIP3    H1 8381   1.906   5.638   4.398
 2808TIP3    H2 8382   1.972   5.547   4.296
 2809TIP3   OH2 8383   6.073   0.386   2.201
 2809TIP3    H1 8384   5.991   0.366   2.247
 2809TIP3    H2 8385   6.047   0.452   2.136
 2810TIP3   OH2 8386   6.319   5.525   5.129
 2810TIP3    H1 8387   6.346   5.455   5.070
 2810TIP3    H2 8388   6.399   5.571   5.151
 2811TIP3   OH2 8389   2.035   1.063   5.848
 2811TIP3    H1 8390   2.082   0.980   5.851
 2811TIP3    H2 8391   1.970   1.051   5.779
 2812TIP3   OH2 8392   1.720   6.200   3.332
 2812TIP3    H1 8393   1.735   6.244   3.417
 2812TIP3    H2 8394   1.745   6.109   3.348
 2813TIP3   OH2 8395   6.714   5.321   4.559
 2813TIP3    H1 8396   6.761   5.292   4.637
 2813TIP3    H2 8397   6.782   5.354   4.501
 2814TIP3   OH2 8398   6.992   4.235   5.787
 2814TIP3    H1 8399   6.950   4.162   5.742
 2814TIP3    H2 8400   7.083   4.207   5.797
 2815TIP3   OH2 8401   5.577   0.717   3.753
 2815TIP3    H1 8402   5.557   0.805   3.784
 2815TIP3    H2 8403   5.491   0.675   3.744
 2816TIP3   OH2 8404   3.172   4.489   4.794
 2816TIP3    H1 8405   3.199   4.401   4.822
 2816TIP3    H2 8406   3.083   4.498   4.829
 2817TIP3   OH2 8407   5.475   7.458   2.840
 2817TIP3    H1 8408   5.409   7.524   2.860
 2817TIP3    H2 8409   5.441   7.378   2.879
 2818TIP3   OH2 8410   4.566   3.529   5.476
 2818TIP3    H1 8411   4.489   3.584   5.459
 2818TIP3    H2 8412   4.559   3.507   5.569
 2819TIP3   OH2 8413   6.952   3.021   2.261
 2819TIP3    H1 8414   7.046   3.034   2.272
 2819TIP3    H2 8415   6.927   3.085   2.194
 2820TIP3   OH2 8416   2.829   6.327   5.299
 2820TIP3    H1 8417   2.851   6.418   5.323
 2820TIP3    H2 8418   2.745   6.334   5.254
 2821TIP3   OH2 8419   0.454   3.835   2.924
 2821TIP3    H1 8420   0.394   3.790   2.982
 2821TIP3    H2 8421   0.537   3.838   2.973
 2822TIP3   OH2 8422   4.705   5.818   4.032
 2822TIP3    H1 8423   4.796   5.821   4.002
 2822TIP3    H2 8424   4.712   5.820   4.128
 2823TIP3   OH2 8425   5.484   5.437   4.740
 2823TIP3    H1 8426   5.518   5.522   4.765
 2823TIP3    H2 8427   5.424   5.413   4.811
 2824TIP3   OH2 8428   7.187   2.494   2.044
 2824TIP3    H1 8429   7.253   2.499   1.974
 2824TIP3    H2 8430   7.119   2.438   2.009
 2825TIP3   OH2 8431   2.275   2.048   0.938
 2825TIP3    H1 8432   2.348   2.011   0.888
 2825TIP3    H2 8433   2.197   2.018   0.891
 2826TIP3   OH2 8434   6.118   7.785   0.969
 2826TIP3    H1 8435   6.109   7.765   0.875
 2826TIP3    H2 8436   6.055   7.727   1.012
 2827TIP3   OH2 8437   6.871   2.100   4.039
 2827TIP3    H1 8438   6.898   2.133   4.126
 2827TIP3    H2 8439   6.838   2.012   4.056
 2828TIP3   OH2 8440   4.697   2.734   1.936
 2828TIP3    H1 8441   4.768   2.695   1.988
 2828TIP3    H2 8442   4.619   2.684   1.961
 2829TIP3   OH2 8443   0.898   6.232   0.498
 2829TIP3    H1 8444   0.939   6.214   0.583
 2829TIP3    H2 8445   0.840   6.306   0.515
 2830TIP3   OH2 8446   3.529   3.427   1.660
 2830TIP3    H1 8447   3.439   3.422   1.692
 2830TIP3    H2 8448   3.580   3.461   1.733
 2831TIP3   OH2 8449   1.242   5.107   3.809
 2831TIP3    H1 8450   1.268   5.030   3.859
 2831TIP3    H2 8451   1.263   5.085   3.718
 2832TIP3   OH2 8452   2.283   0.760   4.816
 2832TIP3    H1 8453   2.234   0.682   4.789
 2832TIP3    H2 8454   2.216   0.828   4.824
 2833TIP3   OH2 8455   2.116   3.688   0.244
 2833TIP3    H1 8456   2.050   3.639   0.294
 2833TIP3    H2 8457   2.146   3.626   0.177
 2834TIP3   OH2 8458   6.955   6.986   3.612
 2834TIP3    H1 8459   6.960   6.918   3.679
 2834TIP3    H2 8460   6.863   6.985   3.584
 2835TIP3   OH2 8461   6.300   3.276   0.866
 2835TIP3    H1 8462   6.209   3.248   0.862
 2835TIP3    H2 8463   6.350   3.198   0.839
 2836TIP3   OH2 8464   0.495   4.591   2.337
 2836TIP3    H1 8465   0.422   4.651   2.353
 2836TIP3    H2 8466   0.455   4.516   2.294
 2837TIP3   OH2 8467   4.291   1.220   5.991
 2837TIP3    H1 8468   4.284   1.183   6.079
 2837TIP3    H2 8469   4.381   1.251   5.985
 2838TIP3   OH2 8470   7.360   2.146   5.810
 2838TIP3    H1 8471   7.428   2.094   5.768
 2838TIP3    H2 8472   7.339   2.098   5.890
 2839TIP3   OH2 8473   3.998   3.950   6.220
 2839TIP3    H1 8474   4.089   3.956   6.248
 2839TIP3    H2 8475   3.949   3.996   6.288
 2840TIP3   OH2 8476   7.524   4.426   6.514
 2840TIP3    H1 8477   7.457   4.402   6.450
 2840TIP3    H2 8478   7.532   4.348   6.570
 2841TIP3   OH2 8479   2.782   7.060   1.648
 2841TIP3    H1 8480   2.704   7.113   1.663
 2841TIP3    H2 8481   2.766   6.979   1.696
 2842TIP3   OH2 8482   3.786   6.251   1.322
 2842TIP3    H1 8483   3.876   6.218   1.323
 2842TIP3    H2 8484   3.750   6.218   1.239
 2843TIP3   OH2 8485   0.654   6.153   5.041
 2843TIP3    H1 8486   0.638   6.060   5.059
 2843TIP3    H2 8487   0.719   6.179   5.106
 2844TIP3   OH2 8488   3.818   5.519   0.975
 2844TIP3    H1 8489   3.857   5.478   1.052
 2844TIP3    H2 8490   3.864   5.479   0.901
 2845TIP3   OH2 8491   0.963   5.238   1.055
 2845TIP3    H1 8492   1.053   5.269   1.042
 2845TIP3    H2 8493   0.960   5.210   1.146
 2846TIP3   OH2 8494   6.436   5.307   5.860
 2846TIP3    H1 8495   6.359   5.264   5.898
 2846TIP3    H2 8496   6.402   5.355   5.784
 2847TIP3   OH2 8497   4.356   4.289   5.180
 2847TIP3    H1 8498   4.311   4.208   5.202
 2847TIP3    H2 8499   4.377   4.280   5.087
 2848TIP3   OH2 8500   6.998   5.912   6.700
 2848TIP3    H1 8501   7.027   5.952   6.619
 2848TIP3    H2 8502   6.904   5.898   6.688
 2849TIP3   OH2 8503   3.382   5.829   5.559
 2849TIP3    H1 8504   3.372   5.896   5.491
 2849TIP3    H2 8505   3.382   5.746   5.511
 2850TIP3   OH2 8506   7.808   0.423   2.967
 2850TIP3    H1 8507   7.718   0.398   2.948
 2850TIP3    H2 8508   7.823   0.393   3.056
 2851TIP3   OH2 8509   4.875   1.671   4.897
 2851TIP3    H1 8510   4.959   1.627   4.910
 2851TIP3    H2 8511   4.811   1.612   4.938
 2852TIP3   OH2 8512   2.388   0.343   3.247
 2852TIP3    H1 8513   2.422   0.304   3.166
 2852TIP3    H2 8514   2.394   0.272   3.311
 2853TIP3   OH2 8515   0.468   2.694   4.637
 2853TIP3    H1 8516   0.469   2.757   4.708
 2853TIP3    H2 8517   0.497   2.612   4.677
 2854TIP3   OH2 8518   7.027   4.110   3.600
 2854TIP3    H1 8519   7.018   4.095   3.506
 2854TIP3    H2 8520   7.012   4.024   3.639
 2855TIP3   OH2 8521   5.168   1.300   0.725
 2855TIP3    H1 8522   5.133   1.240   0.791
 2855TIP3    H2 8523   5.240   1.252   0.685
 2856TIP3   OH2 8524   7.785   4.397   4.772
 2856TIP3    H1 8525   7.772   4.385   4.677
 2856TIP3    H2 8526   7.729   4.330   4.812
 2857TIP3   OH2 8527   0.781   0.427   6.385
 2857TIP3    H1 8528   0.871   0.421   6.416
 2857TIP3    H2 8529   0.789   0.457   6.294
 2858TIP3   OH2 8530   7.698   5.301   4.024
 2858TIP3    H1 8531   7.781   5.252   4.023
 2858TIP3    H2 8532   7.643   5.254   3.962
 2859TIP3   OH2 8533   4.924   6.755   0.774
 2859TIP3    H1 8534   4.897   6.664   0.763
 2859TIP3    H2 8535   4.843   6.805   0.766
 2860TIP3   OH2 8536   2.629   3.525   5.170
 2860TIP3    H1 8537   2.683   3.544   5.094
 2860TIP3    H2 8538   2.689   3.487   5.234
 2861TIP3   OH2 8539   3.606   7.125   2.692
 2861TIP3    H1 8540   3.696   7.156   2.706
 2861TIP3    H2 8541   3.577   7.171   2.614
 2862TIP3   OH2 8542   5.848   1.676   4.975
 2862TIP3    H1 8543   5.850   1.608   4.908
 2862TIP3    H2 8544   5.863   1.758   4.927
 2863TIP3   OH2 8545   4.686   4.923   5.743
 2863TIP3    H1 8546   4.664   4.912   5.836
 2863TIP3    H2 8547   4.603   4.916   5.697
 2864TIP3   OH2 8548   7.278   1.591   5.588
 2864TIP3    H1 8549   7.183   1.591   5.578
 2864TIP3    H2 8550   7.292   1.562   5.679
 2865TIP3   OH2 8551   2.173   5.200   3.157
 2865TIP3    H1 8552   2.103   5.194   3.092
 2865TIP3    H2 8553   2.247   5.238   3.109
 2866TIP3   OH2 8554   1.268   3.612   6.242
 2866TIP3    H1 8555   1.295   3.578   6.156
 2866TIP3    H2 8556   1.249   3.534   6.294
 2867TIP3   OH2 8557   0.288   0.979   1.948
 2867TIP3    H1 8558   0.226   0.954   1.879
 2867TIP3    H2 8559   0.374   0.972   1.907
 2868TIP3   OH2 8560   8.049   6.161   4.163
 2868TIP3    H1 8561   8.062   6.189   4.072
 2868TIP3    H2 8562   8.084   6.233   4.216
 2869TIP3   OH2 8563   2.513   3.294   0.708
 2869TIP3    H1 8564   2.478   3.358   0.646
 2869TIP3    H2 8565   2.594   3.263   0.667
 2870TIP3   OH2 8566   4.264   6.331   0.909
 2870TIP3    H1 8567   4.254   6.236   0.913
 2870TIP3    H2 8568   4.358   6.345   0.902
 2871TIP3   OH2 8569   1.876   3.949   5.729
 2871TIP3    H1 8570   1.867   3.992   5.814
 2871TIP3    H2 8571   1.962   3.908   5.732
 2872TIP3   OH2 8572   4.368   2.944   4.765
 2872TIP3    H1 8573   4.358   3.004   4.691
 2872TIP3    H2 8574   4.361   3.001   4.842
 2873TIP3   OH2 8575   5.996   6.667   4.629
 2873TIP3    H1 8576   5.998   6.574   4.655
 2873TIP3    H2 8577   6.056   6.672   4.555
 2874TIP3   OH2 8578   3.853   5.216   2.793
 2874TIP3    H1 8579   3.850   5.311   2.802
 2874TIP3    H2 8580   3.836   5.200   2.700
 2875TIP3   OH2 8581   8.001   6.809   0.257
 2875TIP3    H1 8582   8.029   6.824   0.166
 2875TIP3    H2 8583   7.929   6.747   0.250
 2876TIP3   OH2 8584   3.645   1.460   0.823
 2876TIP3    H1 8585   3.686   1.373   0.828
 2876TIP3    H2 8586   3.643   1.479   0.729
 2877TIP3   OH2 8587   4.489   4.160   0.005
 2877TIP3    H1 8588   4.502   4.137   0.097
 2877TIP3    H2 8589   4.578   4.161  -0.032
 2878TIP3   OH2 8590   2.877   7.008   4.403
 2878TIP3    H1 8591   2.937   7.074   4.369
 2878TIP3    H2 8592   2.915   6.981   4.487
 2879TIP3   OH2 8593   6.206   7.535   1.798
 2879TIP3    H1 8594   6.180   7.617   1.839
 2879TIP3    H2 8595   6.186   7.468   1.863
 2880TIP3   OH2 8596   2.325   3.158   0.261
 2880TIP3    H1 8597   2.401   3.116   0.223
 2880TIP3    H2 8598   2.306   3.107   0.340
 2881TIP3   OH2 8599   3.904   2.890   0.980
 2881TIP3    H1 8600   3.926   2.797   0.965
 2881TIP3    H2 8601   3.839   2.910   0.913
 2882TIP3   OH2 8602   3.032   4.380   1.218
 2882TIP3    H1 8603   2.956   4.334   1.252
 2882TIP3    H2 8604   3.019   4.382   1.123
 2883TIP3   OH2 8605   4.373   3.711   5.877
 2883TIP3    H1 8606   4.327   3.768   5.816
 2883TIP3    H2 8607   4.465   3.737   5.870
 2884TIP3   OH2 8608   6.135   1.579   0.188
 2884TIP3    H1 8609   6.124   1.652   0.249
 2884TIP3    H2 8610   6.074   1.513   0.218
 2885TIP3   OH2 8611   5.791   5.571   4.652
 2885TIP3    H1 8612   5.717   5.614   4.692
 2885TIP3    H2 8613   5.758   5.486   4.624
 2886TIP3   OH2 8614   4.067   3.557   1.247
 2886TIP3    H1 8615   4.049   3.585   1.337
 2886TIP3    H2 8616   3.988   3.579   1.198
 2887TIP3   OH2 8617   2.364   4.813   5.684
 2887TIP3    H1 8618   2.359   4.809   5.589
 2887TIP3    H2 8619   2.334   4.727   5.714
 2888TIP3   OH2 8620   2.715   1.712   5.593
 2888TIP3    H1 8621   2.622   1.719   5.614
 2888TIP3    H2 8622   2.749   1.801   5.604
 2889TIP3   OH2 8623   3.196   1.364   5.605
 2889TIP3    H1 8624   3.242   1.334   5.526
 2889TIP3    H2 8625   3.110   1.393   5.572
 2890TIP3   OH2 8626   6.455   3.542   0.168
 2890TIP3    H1 8627   6.375   3.520   0.121
 2890TIP3    H2 8628   6.453   3.638   0.176
 2891TIP3   OH2 8629   5.747   7.196   3.767
 2891TIP3    H1 8630   5.749   7.251   3.689
 2891TIP3    H2 8631   5.745   7.106   3.733
 2892TIP3   OH2 8632   5.074   1.223   6.590
 2892TIP3    H1 8633   5.065   1.215   6.685
 2892TIP3    H2 8634   5.005   1.284   6.565
 2893TIP3   OH2 8635   4.229   1.107   4.903
 2893TIP3    H1 8636   4.172   1.044   4.948
 2893TIP3    H2 8637   4.311   1.059   4.889
 2894TIP3   OH2 8638   0.472   0.086   5.468
 2894TIP3    H1 8639   0.452   0.178   5.452
 2894TIP3    H2 8640   0.399   0.053   5.520
 2895TIP3   OH2 8641   2.371   4.723   2.971
 2895TIP3    H1 8642   2.388   4.694   2.882
 2895TIP3    H2 8643   2.448   4.774   2.996
 2896TIP3   OH2 8644   5.421   1.536   2.291
 2896TIP3    H1 8645   5.513   1.510   2.286
 2896TIP3    H2 8646   5.422   1.616   2.344
 2897TIP3   OH2 8647   1.334   4.475   2.307
 2897TIP3    H1 8648   1.295   4.509   2.388
 2897TIP3    H2 8649   1.277   4.507   2.237
 2898TIP3   OH2 8650   1.941   0.918   2.954
 2898TIP3    H1 8651   1.888   0.914   2.875
 2898TIP3    H2 8652   2.004   0.846   2.944
 2899TIP3   OH2 8653   2.541   0.259   2.436
 2899TIP3    H1 8654   2.617   0.312   2.411
 2899TIP3    H2 8655   2.571   0.168   2.427
 2900TIP3   OH2 8656   8.016   1.597   6.493
 2900TIP3    H1 8657   8.015   1.513   6.447
 2900TIP3    H2 8658   8.086   1.647   6.450
 2901TIP3   OH2 8659   2.421   4.908   5.108
 2901TIP3    H1 8660   2.497   4.857   5.137
 2901TIP3    H2 8661   2.407   4.972   5.178
 2902TIP3   OH2 8662   4.217   2.912   2.247
 2902TIP3    H1 8663   4.304   2.928   2.212
 2902TIP3    H2 8664   4.158   2.922   2.173
 2903TIP3   OH2 8665   6.744   4.979   6.194
 2903TIP3    H1 8666   6.685   4.986   6.120
 2903TIP3    H2 8667   6.749   4.885   6.212
 2904TIP3   OH2 8668   3.002   7.631   5.877
 2904TIP3    H1 8669   3.075   7.573   5.898
 2904TIP3    H2 8670   2.926   7.572   5.871
 2905TIP3   OH2 8671   8.108   0.899   0.502
 2905TIP3    H1 8672   8.139   0.985   0.530
 2905TIP3    H2 8673   8.106   0.904   0.407
 2906TIP3   OH2 8674   3.100   3.308   3.178
 2906TIP3    H1 8675   3.193   3.315   3.202
 2906TIP3    H2 8676   3.093   3.222   3.137
 2907TIP3   OH2 8677   1.510   3.153   4.852
 2907TIP3    H1 8678   1.592   3.134   4.806
 2907TIP3    H2 8679   1.460   3.071   4.847
 2908TIP3   OH2 8680   1.780   6.660   4.495
 2908TIP3    H1 8681   1.823   6.636   4.412
 2908TIP3    H2 8682   1.836   6.624   4.563
 2909TIP3   OH2 8683   7.999   2.991   3.614
 2909TIP3    H1 8684   8.039   3.063   3.664
 2909TIP3    H2 8685   8.074   2.940   3.583
 2910TIP3   OH2 8686   0.164   7.551   2.529
 2910TIP3    H1 8687   0.254   7.523   2.542
 2910TIP3    H2 8688   0.167   7.610   2.454
 2911TIP3   OH2 8689   2.843   7.448   3.446
 2911TIP3    H1 8690   2.937   7.467   3.448
 2911TIP3    H2 8691   2.801   7.534   3.451
 2912TIP3   OH2 8692   6.684   3.995   4.830
 2912TIP3    H1 8693   6.608   4.023   4.882
 2912TIP3    H2 8694   6.700   4.069   4.771
 2913TIP3   OH2 8695   4.732   5.324   0.610
 2913TIP3    H1 8696   4.763   5.413   0.598
 2913TIP3    H2 8697   4.778   5.293   0.689
 2914TIP3   OH2 8698   4.744   5.234   2.497
 2914TIP3    H1 8699   4.765   5.313   2.547
 2914TIP3    H2 8700   4.768   5.256   2.406
 2915TIP3   OH2 8701   8.191   5.188   5.631
 2915TIP3    H1 8702   8.211   5.193   5.724
 2915TIP3    H2 8703   8.276   5.193   5.587
 2916TIP3   OH2 8704   7.118   3.942   3.048
 2916TIP3    H1 8705   7.119   3.849   3.067
 2916TIP3    H2 8706   7.207   3.961   3.017
 2917TIP3   OH2 8707   7.755   6.020   4.492
 2917TIP3    H1 8708   7.723   6.094   4.544
 2917TIP3    H2 8709   7.753   6.051   4.401
 2918TIP3   OH2 8710   7.832   4.011   3.560
 2918TIP3    H1 8711   7.757   4.014   3.620
 2918TIP3    H2 8712   7.904   3.978   3.614
 2919TIP3   OH2 8713   5.403   4.063   3.311
 2919TIP3    H1 8714   5.391   4.158   3.303
 2919TIP3    H2 8715   5.320   4.026   3.282
 2920TIP3   OH2 8716   6.711   3.115   4.718
 2920TIP3    H1 8717   6.641   3.180   4.718
 2920TIP3    H2 8718   6.792   3.165   4.727
 2921TIP3   OH2 8719   0.659   0.070   4.778
 2921TIP3    H1 8720   0.691   0.136   4.840
 2921TIP3    H2 8721   0.619   0.003   4.833
 2922TIP3   OH2 8722   5.164   4.341   2.487
 2922TIP3    H1 8723   5.182   4.435   2.486
 2922TIP3    H2 8724   5.106   4.329   2.561
 2923TIP3   OH2 8725   4.995   2.614   4.050
 2923TIP3    H1 8726   5.037   2.700   4.048
 2923TIP3    H2 8727   4.953   2.606   3.964
 2924TIP3   OH2 8728   1.096   2.414   3.609
 2924TIP3    H1 8729   1.159   2.357   3.654
 2924TIP3    H2 8730   1.014   2.364   3.610
 2925TIP3   OH2 8731   4.381   1.224   3.091
 2925TIP3    H1 8732   4.337   1.172   3.025
 2925TIP3    H2 8733   4.454   1.169   3.120
 2926TIP3   OH2 8734   3.173   2.924   3.173
 2926TIP3    H1 8735   3.140   2.946   3.260
 2926TIP3    H2 8736   3.095   2.913   3.120
 2927TIP3   OH2 8737   2.361   0.863   2.631
 2927TIP3    H1 8738   2.362   0.871   2.726
 2927TIP3    H2 8739   2.308   0.937   2.601
 2928TIP3   OH2 8740   3.613   2.264   3.900
 2928TIP3    H1 8741   3.655   2.308   3.827
 2928TIP3    H2 8742   3.574   2.185   3.862
 2929TIP3   OH2 8743   1.171   6.479   4.032
 2929TIP3    H1 8744   1.120   6.478   4.113
 2929TIP3    H2 8745   1.120   6.425   3.971
 2930TIP3   OH2 8746   7.019   6.515   6.434
 2930TIP3    H1 8747   6.928   6.545   6.436
 2930TIP3    H2 8748   7.062   6.571   6.370
 2931TIP3   OH2 8749   4.080   3.496   2.055
 2931TIP3    H1 8750   4.116   3.408   2.069
 2931TIP3    H2 8751   4.042   3.493   1.968
 2932TIP3   OH2 8752   8.031   3.334   5.326
 2932TIP3    H1 8753   8.052   3.421   5.293
 2932TIP3    H2 8754   7.950   3.346   5.375
 2933TIP3   OH2 8755   1.382   2.037   2.331
 2933TIP3    H1 8756   1.413   1.947   2.325
 2933TIP3    H2 8757   1.436   2.085   2.268
 2934TIP3   OH2 8758   2.556   2.423   4.880
 2934TIP3    H1 8759   2.566   2.410   4.974
 2934TIP3    H2 8760   2.591   2.343   4.840
 2935TIP3   OH2 8761   0.211   6.622   4.292
 2935TIP3    H1 8762   0.290   6.623   4.346
 2935TIP3    H2 8763   0.233   6.673   4.214
 2936TIP3   OH2 8764   1.658   1.390   2.863
 2936TIP3    H1 8765   1.664   1.335   2.785
 2936TIP3    H2 8766   1.674   1.329   2.936
 2937TIP3   OH2 8767   0.740   3.885   6.521
 2937TIP3    H1 8768   0.784   3.943   6.458
 2937TIP3    H2 8769   0.654   3.869   6.483
 2938TIP3   OH2 8770   5.603   5.199   1.543
 2938TIP3    H1 8771   5.610   5.106   1.565
 2938TIP3    H2 8772   5.690   5.222   1.510
 2939TIP3   OH2 8773   6.558   6.484   1.567
 2939TIP3    H1 8774   6.597   6.397   1.576
 2939TIP3    H2 8775   6.470   6.468   1.534
 2940TIP3   OH2 8776   5.654   4.916   6.051
 2940TIP3    H1 8777   5.578   4.973   6.065
 2940TIP3    H2 8778   5.635   4.838   6.104
 2941TIP3   OH2 8779   4.227   0.462   5.681
 2941TIP3    H1 8780   4.133   0.448   5.677
 2941TIP3    H2 8781   4.265   0.374   5.679
 2942TIP3   OH2 8782   5.981   3.230   4.949
 2942TIP3    H1 8783   5.975   3.312   4.899
 2942TIP3    H2 8784   5.926   3.244   5.026
 2943TIP3   OH2 8785   3.221   1.127   5.760
 2943TIP3    H1 8786   3.192   1.037   5.747
 2943TIP3    H2 8787   3.183   1.175   5.686
 2944TIP3   OH2 8788   2.051   1.020   4.641
 2944TIP3    H1 8789   2.070   1.050   4.553
 2944TIP3    H2 8790   2.058   1.099   4.696
 2945TIP3   OH2 8791   2.140   2.014   0.646
 2945TIP3    H1 8792   2.195   2.086   0.677
 2945TIP3    H2 8793   2.064   2.016   0.704
 2946TIP3   OH2 8794   0.281   2.229   6.553
 2946TIP3    H1 8795   0.205   2.220   6.496
 2946TIP3    H2 8796   0.338   2.290   6.507
 2947TIP3   OH2 8797   7.092   0.401   2.595
 2947TIP3    H1 8798   7.143   0.460   2.539
 2947TIP3    H2 8799   7.115   0.428   2.684
 2948TIP3   OH2 8800   7.853   4.002   4.735
 2948TIP3    H1 8801   7.926   4.012   4.795
 2948TIP3    H2 8802   7.876   3.927   4.679
 2949TIP3   OH2 8803   0.663   1.403   1.572
 2949TIP3    H1 8804   0.682   1.334   1.637
 2949TIP3    H2 8805   0.675   1.485   1.620
 2950TIP3   OH2 8806   1.008   1.949   5.841
 2950TIP3    H1 8807   0.982   1.873   5.892
 2950TIP3    H2 8808   0.926   1.992   5.818
 2951TIP3   OH2 8809   8.139   6.048   3.584
 2951TIP3    H1 8810   8.223   6.047   3.539
 2951TIP3    H2 8811   8.085   6.108   3.532
 2952TIP3   OH2 8812   1.957   1.651   2.972
 2952TIP3    H1 8813   1.893   1.699   2.919
 2952TIP3    H2 8814   1.918   1.646   3.059
 2953TIP3   OH2 8815   4.589   4.126   1.351
 2953TIP3    H1 8816   4.565   4.056   1.412
 2953TIP3    H2 8817   4.684   4.127   1.351
 2954TIP3   OH2 8818   2.610   5.557   5.994
 2954TIP3    H1 8819   2.650   5.539   6.079
 2954TIP3    H2 8820   2.517   5.539   6.007
 2955TIP3   OH2 8821   4.204   1.604   6.673
 2955TIP3    H1 8822   4.275   1.612   6.609
 2955TIP3    H2 8823   4.194   1.510   6.687
 2956TIP3   OH2 8824   7.601   4.679   1.461
 2956TIP3    H1 8825   7.543   4.619   1.415
 2956TIP3    H2 8826   7.548   4.713   1.533
 2957TIP3   OH2 8827   3.495   5.943   0.984
 2957TIP3    H1 8828   3.567   5.887   0.956
 2957TIP3    H2 8829   3.417   5.898   0.952
 2958TIP3   OH2 8830   2.219   0.034   4.528
 2958TIP3    H1 8831   2.311   0.025   4.553
 2958TIP3    H2 8832   2.221   0.071   4.440
 2959TIP3   OH2 8833   6.907   1.238   6.092
 2959TIP3    H1 8834   6.836   1.182   6.122
 2959TIP3    H2 8835   6.961   1.182   6.036
 2960TIP3   OH2 8836   4.274   6.923   2.559
 2960TIP3    H1 8837   4.313   6.838   2.538
 2960TIP3    H2 8838   4.221   6.906   2.636
 2961TIP3   OH2 8839   0.070   1.859   1.578
 2961TIP3    H1 8840   0.100   1.852   1.668
 2961TIP3    H2 8841  -0.014   1.813   1.576
 2962TIP3   OH2 8842   1.811   4.254   0.924
 2962TIP3    H1 8843   1.747   4.256   0.995
 2962TIP3    H2 8844   1.870   4.328   0.943
 2963TIP3   OH2 8845   1.383   7.453   4.838
 2963TIP3    H1 8846   1.420   7.420   4.920
 2963TIP3    H2 8847   1.452   7.510   4.802
 2964TIP3   OH2 8848   7.427   5.552   6.622
 2964TIP3    H1 8849   7.383   5.555   6.537
 2964TIP3    H2 8850   7.389   5.476   6.665
 2965TIP3   OH2 8851   3.354   1.493   6.458
 2965TIP3    H1 8852   3.283   1.492   6.394
 2965TIP3    H2 8853   3.434   1.499   6.405
 2966TIP3   OH2 8854   7.267   3.515   0.199
 2966TIP3    H1 8855   7.325   3.569   0.144
 2966TIP3    H2 8856   7.220   3.459   0.137
 2967TIP3   OH2 8857   5.041   7.025   3.978
 2967TIP3    H1 8858   5.008   6.967   4.047
 2967TIP3    H2 8859   5.108   6.974   3.933
 2968TIP3   OH2 8860   0.061   4.737   1.842
 2968TIP3    H1 8861   0.067   4.695   1.756
 2968TIP3    H2 8862  -0.023   4.708   1.877
 2969TIP3   OH2 8863   0.585   3.820   1.844
 2969TIP3    H1 8864   0.560   3.912   1.849
 2969TIP3    H2 8865   0.591   3.792   1.936
 2970TIP3   OH2 8866   1.184   5.823   1.049
 2970TIP3    H1 8867   1.128   5.777   0.986
 2970TIP3    H2 8868   1.262   5.846   0.999
 2971TIP3   OH2 8869   3.205   2.377   6.297
 2971TIP3    H1 8870   3.245   2.464   6.306
 2971TIP3    H2 8871   3.159   2.362   6.380
 2972TIP3   OH2 8872   0.863   0.520   2.654
 2972TIP3    H1 8873   0.772   0.526   2.625
 2972TIP3    H2 8874   0.874   0.593   2.715
 2973TIP3   OH2 8875   4.057   0.715   2.841
 2973TIP3    H1 8876   4.033   0.649   2.776
 2973TIP3    H2 8877   4.112   0.668   2.903
 2974TIP3   OH2 8878   2.025   0.829   3.954
 2974TIP3    H1 8879   2.046   0.899   3.891
 2974TIP3    H2 8880   2.037   0.748   3.904
 2975TIP3   OH2 8881   1.883   7.402   3.561
 2975TIP3    H1 8882   1.888   7.451   3.479
 2975TIP3    H2 8883   1.793   7.414   3.591
 2976TIP3   OH2 8884   7.977   7.700   2.154
 2976TIP3    H1 8885   8.027   7.620   2.136
 2976TIP3    H2 8886   7.902   7.670   2.205
 2977TIP3   OH2 8887   6.257   1.817   1.529
 2977TIP3    H1 8888   6.275   1.853   1.442
 2977TIP3    H2 8889   6.275   1.723   1.520
 2978TIP3   OH2 8890   1.877   0.250   4.777
 2978TIP3    H1 8891   1.803   0.192   4.797
 2978TIP3    H2 8892   1.841   0.338   4.788
 2979TIP3   OH2 8893   4.622   7.656   3.969
 2979TIP3    H1 8894   4.700   7.603   3.983
 2979TIP3    H2 8895   4.646   7.715   3.898
 2980TIP3   OH2 8896   2.948   0.550   6.693
 2980TIP3    H1 8897   3.017   0.559   6.760
 2980TIP3    H2 8898   2.962   0.625   6.635
 2981TIP3   OH2 8899   1.725   6.718   0.171
 2981TIP3    H1 8900   1.761   6.719   0.260
 2981TIP3    H2 8901   1.642   6.672   0.179
 2982TIP3   OH2 8902   3.493   6.091   1.247
 2982TIP3    H1 8903   3.465   6.035   1.175
 2982TIP3    H2 8904   3.543   6.032   1.305
 2983TIP3   OH2 8905   5.330   5.114   1.804
 2983TIP3    H1 8906   5.273   5.121   1.881
 2983TIP3    H2 8907   5.385   5.038   1.822
 2984TIP3   OH2 8908   1.209   2.118   5.757
 2984TIP3    H1 8909   1.141   2.172   5.798
 2984TIP3    H2 8910   1.169   2.032   5.745
 2985TIP3   OH2 8911   2.906   4.923   3.120
 2985TIP3    H1 8912   2.831   4.978   3.095
 2985TIP3    H2 8913   2.902   4.849   3.060
 2986TIP3   OH2 8914   5.967   0.925   6.231
 2986TIP3    H1 8915   5.883   0.970   6.221
 2986TIP3    H2 8916   6.022   0.960   6.161
 2987TIP3   OH2 8917   8.112   1.571   2.679
 2987TIP3    H1 8918   8.171   1.511   2.725
 2987TIP3    H2 8919   8.024   1.544   2.707
 2988TIP3   OH2 8920   7.130   3.897   2.569
 2988TIP3    H1 8921   7.161   3.897   2.478
 2988TIP3    H2 8922   7.162   3.980   2.605
 2989TIP3   OH2 8923   1.649   4.300   2.717
 2989TIP3    H1 8924   1.697   4.366   2.767
 2989TIP3    H2 8925   1.560   4.335   2.711
 2990TIP3   OH2 8926   4.247   6.171   0.205
 2990TIP3    H1 8927   4.331   6.136   0.232
 2990TIP3    H2 8928   4.189   6.157   0.280
 2991TIP3   OH2 8929   1.272   3.941   1.346
 2991TIP3    H1 8930   1.195   3.887   1.362
 2991TIP3    H2 8931   1.309   3.956   1.433
 2992TIP3   OH2 8932   3.219   3.517   2.592
 2992TIP3    H1 8933   3.232   3.422   2.584
 2992TIP3    H2 8934   3.251   3.537   2.680
 2993TIP3   OH2 8935   0.658   7.005   2.263
 2993TIP3    H1 8936   0.646   7.018   2.169
 2993TIP3    H2 8937   0.639   7.091   2.301
 2994TIP3   OH2 8938   2.752   7.180   3.464
 2994TIP3    H1 8939   2.760   7.276   3.457
 2994TIP3    H2 8940   2.827   7.155   3.519
 2995TIP3   OH2 8941   1.566   5.623   5.590
 2995TIP3    H1 8942   1.626   5.696   5.572
 2995TIP3    H2 8943   1.479   5.658   5.570
 2996TIP3   OH2 8944   0.677   3.690   4.499
 2996TIP3    H1 8945   0.638   3.652   4.421
 2996TIP3    H2 8946   0.770   3.695   4.480
 2997TIP3   OH2 8947   2.340   4.072   3.327
 2997TIP3    H1 8948   2.323   4.097   3.418
 2997TIP3    H2 8949   2.366   4.154   3.285
 2998TIP3   OH2 8950   7.615   2.085   1.762
 2998TIP3    H1 8951   7.690   2.142   1.779
 2998TIP3    H2 8952   7.616   2.073   1.667
 2999TIP3   OH2 8953   1.487   5.163  -0.010
 2999TIP3    H1 8954   1.579   5.141   0.005
 2999TIP3    H2 8955   1.439   5.101   0.045
 3000TIP3   OH2 8956   6.069   3.279   5.924
 3000TIP3    H1 8957   6.044   3.256   6.013
 3000TIP3    H2 8958   6.133   3.213   5.899
 3001TIP3   OH2 8959   2.355   1.393   1.750
 3001TIP3    H1 8960   2.335   1.485   1.734
 3001TIP3    H2 8961   2.400   1.364   1.671
 3002TIP3   OH2 8962   2.039   2.033   1.984
 3002TIP3    H1 8963   1.972   2.064   2.044
 3002TIP3    H2 8964   2.051   2.105   1.922
 3003TIP3   OH2 8965   6.178   2.495   0.164
 3003TIP3    H1 8966   6.176   2.484   0.069
 3003TIP3    H2 8967   6.208   2.410   0.197
 3004TIP3   OH2 8968   2.009   6.885   2.323
 3004TIP3    H1 8969   1.918   6.885   2.352
 3004TIP3    H2 8970   2.015   6.811   2.262
 3005TIP3   OH2 8971   2.318   6.508   2.667
 3005TIP3    H1 8972   2.234   6.486   2.708
 3005TIP3    H2 8973   2.381   6.451   2.711
 3006TIP3   OH2 8974   8.148   7.029   0.183
 3006TIP3    H1 8975   8.136   6.967   0.255
 3006TIP3    H2 8976   8.063   7.032   0.139
 3007TIP3   OH2 8977   7.770   5.200   3.761
 3007TIP3    H1 8978   7.820   5.119   3.748
 3007TIP3    H2 8979   7.683   5.170   3.785
 3008TIP3   OH2 8980   4.734   7.419   3.492
 3008TIP3    H1 8981   4.752   7.341   3.544
 3008TIP3    H2 8982   4.646   7.405   3.458
 3009TIP3   OH2 8983   1.497   5.900   1.697
 3009TIP3    H1 8984   1.453   5.816   1.687
 3009TIP3    H2 8985   1.446   5.946   1.764
 3010TIP3   OH2 8986   1.366   7.756   3.881
 3010TIP3    H1 8987   1.275   7.731   3.865
 3010TIP3    H2 8988   1.361   7.844   3.918
 3011TIP3   OH2 8989   1.834   6.689   3.419
 3011TIP3    H1 8990   1.783   6.751   3.471
 3011TIP3    H2 8991   1.914   6.674   3.471
 3012TIP3   OH2 8992   5.540   1.912   5.432
 3012TIP3    H1 8993   5.553   2.003   5.457
 3012TIP3    H2 8994   5.490   1.916   5.351
 3013TIP3   OH2 8995   5.986   6.516   1.502
 3013TIP3    H1 8996   5.993   6.470   1.586
 3013TIP3    H2 8997   5.937   6.456   1.446
 3014TIP3   OH2 8998   7.940   1.288   6.474
 3014TIP3    H1 8999   8.033   1.265   6.470
 3014TIP3    H2 9000   7.902   1.227   6.537
 3015TIP3   OH2 9001   8.108   0.364   4.059
 3015TIP3    H1 9002   8.166   0.288   4.065
 3015TIP3    H2 9003   8.157   0.435   4.100
 3016TIP3   OH2 9004   4.020   4.631   2.965
 3016TIP3    H1 9005   3.939   4.583   2.946
 3016TIP3    H2 9006   4.082   4.601   2.898
 3017TIP3   OH2 9007   3.641   4.627   0.550
 3017TIP3    H1 9008   3.641   4.666   0.637
 3017TIP3    H2 9009   3.553   4.643   0.516
 3018TIP3   OH2 9010   1.986   2.604   0.639
 3018TIP3    H1 9011   1.939   2.548   0.700
 3018TIP3    H2 9012   2.065   2.555   0.617
 3019TIP3   OH2 9013   6.172   0.234   0.674
 3019TIP3    H1 9014   6.151   0.141   0.674
 3019TIP3    H2 9015   6.098   0.276   0.717
 3020TIP3   OH2 9016   3.620   3.296   3.208
 3020TIP3    H1 9017   3.642   3.274   3.117
 3020TIP3    H2 9018   3.691   3.353   3.237
 3021TIP3   OH2 9019   7.569   1.863   3.172
 3021TIP3    H1 9020   7.639   1.907   3.220
 3021TIP3    H2 9021   7.580   1.770   3.192
 3022TIP3   OH2 9022   5.146   3.412   0.859
 3022TIP3    H1 9023   5.067   3.387   0.811
 3022TIP3    H2 9024   5.147   3.508   0.854
 3023TIP3   OH2 9025   3.142   6.215   5.743
 3023TIP3    H1 9026   3.231   6.250   5.748
 3023TIP3    H2 9027   3.117   6.201   5.834
 3024TIP3   OH2 9028   4.486   5.653   1.759
 3024TIP3    H1 9029   4.575   5.668   1.728
 3024TIP3    H2 9030   4.463   5.733   1.807
 3025TIP3   OH2 9031   7.770   6.996   1.632
 3025TIP3    H1 9032   7.709   7.018   1.702
 3025TIP3    H2 9033   7.815   6.917   1.662
 3026TIP3   OH2 9034   1.229   2.557   5.815
 3026TIP3    H1 9035   1.311   2.573   5.769
 3026TIP3    H2 9036   1.162   2.593   5.757
 3027TIP3   OH2 9037   5.389   2.449   4.272
 3027TIP3    H1 9038   5.323   2.513   4.301
 3027TIP3    H2 9039   5.343   2.365   4.274
 3028TIP3   OH2 9040   1.303   3.133   5.068
 3028TIP3    H1 9041   1.286   3.040   5.053
 3028TIP3    H2 9042   1.236   3.178   5.017
 3029TIP3   OH2 9043   7.004   2.908   1.376
 3029TIP3    H1 9044   6.912   2.883   1.372
 3029TIP3    H2 9045   7.011   2.983   1.317
 3030TIP3   OH2 9046   2.828   3.969   2.155
 3030TIP3    H1 9047   2.800   3.934   2.071
 3030TIP3    H2 9048   2.837   3.892   2.211
 3031TIP3   OH2 9049   3.825   7.089   6.491
 3031TIP3    H1 9050   3.849   7.165   6.438
 3031TIP3    H2 9051   3.769   7.037   6.434
 3032TIP3   OH2 9052   0.376   4.006   3.477
 3032TIP3    H1 9053   0.349   4.091   3.442
 3032TIP3    H2 9054   0.393   3.953   3.399
 3033TIP3   OH2 9055   4.576   4.801   6.627
 3033TIP3    H1 9056   4.496   4.797   6.680
 3033TIP3    H2 9057   4.556   4.864   6.558
 3034TIP3   OH2 9058   1.290   5.035   1.874
 3034TIP3    H1 9059   1.263   4.948   1.905
 3034TIP3    H2 9060   1.224   5.095   1.908
 3035TIP3   OH2 9061   5.793   7.104   5.132
 3035TIP3    H1 9062   5.723   7.039   5.140
 3035TIP3    H2 9063   5.864   7.057   5.086
 3036TIP3   OH2 9064   6.709   4.187   5.938
 3036TIP3    H1 9065   6.795   4.229   5.931
 3036TIP3    H2 9066   6.652   4.256   5.971
 3037TIP3   OH2 9067   5.729   2.663   6.065
 3037TIP3    H1 9068   5.712   2.576   6.101
 3037TIP3    H2 9069   5.773   2.646   5.981
 3038TIP3   OH2 9070   5.744   1.280   6.423
 3038TIP3    H1 9071   5.656   1.314   6.436
 3038TIP3    H2 9072   5.743   1.193   6.461
 3039TIP3   OH2 9073   1.815   1.034   3.950
 3039TIP3    H1 9074   1.902   1.006   3.921
 3039TIP3    H2 9075   1.759   0.958   3.935
 3040TIP3   OH2 9076   5.859   0.831   6.709
 3040TIP3    H1 9077   5.933   0.771   6.721
 3040TIP3    H2 9078   5.794   0.800   6.773
 3041TIP3   OH2 9079   1.125   0.864  -0.030
 3041TIP3    H1 9080   1.047   0.808  -0.025
 3041TIP3    H2 9081   1.159   0.866   0.059
 3042TIP3   OH2 9082   8.257   4.369   5.129
 3042TIP3    H1 9083   8.212   4.453   5.119
 3042TIP3    H2 9084   8.286   4.346   5.041
 3043TIP3   OH2 9085   6.285   2.104   5.784
 3043TIP3    H1 9086   6.200   2.124   5.824
 3043TIP3    H2 9087   6.307   2.017   5.817
 3044TIP3   OH2 9088   2.925   7.577   4.595
 3044TIP3    H1 9089   3.021   7.580   4.592
 3044TIP3    H2 9090   2.900   7.636   4.666
 3045TIP3   OH2 9091   7.381   4.606   5.921
 3045TIP3    H1 9092   7.310   4.552   5.887
 3045TIP3    H2 9093   7.461   4.560   5.893
 3046TIP3   OH2 9094   4.831   3.817   1.523
 3046TIP3    H1 9095   4.885   3.746   1.556
 3046TIP3    H2 9096   4.884   3.896   1.534
 3047TIP3   OH2 9097   3.388   3.825   1.502
 3047TIP3    H1 9098   3.294   3.820   1.522
 3047TIP3    H2 9099   3.431   3.813   1.586
 3048TIP3   OH2 9100   3.257   0.533   4.288
 3048TIP3    H1 9101   3.270   0.541   4.194
 3048TIP3    H2 9102   3.262   0.622   4.321
 3049TIP3   OH2 9103   3.653   6.885   5.223
 3049TIP3    H1 9104   3.561   6.904   5.242
 3049TIP3    H2 9105   3.653   6.855   5.132
 3050TIP3   OH2 9106   1.543   0.234   5.617
 3050TIP3    H1 9107   1.513   0.255   5.528
 3050TIP3    H2 9108   1.594   0.154   5.607
 3051TIP3   OH2 9109   4.374   6.761   0.406
 3051TIP3    H1 9110   4.457   6.714   0.407
 3051TIP3    H2 9111   4.399   6.854   0.409
 3052TIP3   OH2 9112   7.679   4.724   5.847
 3052TIP3    H1 9113   7.760   4.775   5.841
 3052TIP3    H2 9114   7.640   4.730   5.759
 3053TIP3   OH2 9115   6.586   3.115   2.461
 3053TIP3    H1 9116   6.601   3.040   2.404
 3053TIP3    H2 9117   6.587   3.191   2.403
 3054TIP3   OH2 9118   4.359   5.864   3.218
 3054TIP3    H1 9119   4.307   5.914   3.155
 3054TIP3    H2 9120   4.423   5.926   3.252
 3055TIP3   OH2 9121   0.246   1.464   3.347
 3055TIP3    H1 9122   0.314   1.437   3.408
 3055TIP3    H2 9123   0.239   1.392   3.284
 3056TIP3   OH2 9124   6.792   3.286   3.641
 3056TIP3    H1 9125   6.699   3.307   3.632
 3056TIP3    H2 9126   6.792   3.195   3.673
 3057TIP3   OH2 9127   4.912   2.350   6.481
 3057TIP3    H1 9128   4.882   2.269   6.524
 3057TIP3    H2 9129   4.955   2.400   6.550
 3058TIP3   OH2 9130   2.635   1.168   4.286
 3058TIP3    H1 9131   2.713   1.222   4.274
 3058TIP3    H2 9132   2.666   1.091   4.333
 3059TIP3   OH2 9133   4.473   4.252   3.239
 3059TIP3    H1 9134   4.536   4.296   3.296
 3059TIP3    H2 9135   4.524   4.184   3.195
 3060TIP3   OH2 9136   0.846   6.212   2.426
 3060TIP3    H1 9137   0.769   6.267   2.411
 3060TIP3    H2 9138   0.907   6.268   2.475
 3061TIP3   OH2 9139   0.226   2.223   3.649
 3061TIP3    H1 9140   0.147   2.232   3.596
 3061TIP3    H2 9141   0.210   2.147   3.704
 3062TIP3   OH2 9142   1.765   2.334   1.726
 3062TIP3    H1 9143   1.707   2.296   1.659
 3062TIP3    H2 9144   1.850   2.341   1.683
 3063TIP3   OH2 9145   5.442   6.123   3.836
 3063TIP3    H1 9146   5.410   6.046   3.882
 3063TIP3    H2 9147   5.386   6.195   3.866
 3064TIP3   OH2 9148   2.605   2.608   2.561
 3064TIP3    H1 9149   2.559   2.685   2.595
 3064TIP3    H2 9150   2.585   2.608   2.467
 3065TIP3   OH2 9151   3.712   6.220   2.052
 3065TIP3    H1 9152   3.655   6.239   1.978
 3065TIP3    H2 9153   3.760   6.141   2.026
 3066TIP3   OH2 9154   3.285   0.390   3.717
 3066TIP3    H1 9155   3.199   0.371   3.756
 3066TIP3    H2 9156   3.270   0.390   3.623
 3067TIP3   OH2 9157   1.793   0.687   3.407
 3067TIP3    H1 9158   1.864   0.657   3.350
 3067TIP3    H2 9159   1.718   0.696   3.349
 3068TIP3   OH2 9160   0.237   5.372   1.726
 3068TIP3    H1 9161   0.194   5.362   1.811
 3068TIP3    H2 9162   0.312   5.428   1.743
 3069TIP3   OH2 9163   8.259   5.854   6.425
 3069TIP3    H1 9164   8.174   5.895   6.408
 3069TIP3    H2 9165   8.284   5.815   6.341
 3070TIP3   OH2 9166   6.651   5.223   1.451
 3070TIP3    H1 9167   6.696   5.300   1.486
 3070TIP3    H2 9168   6.567   5.258   1.420
 3071TIP3   OH2 9169   7.499   1.278   6.373
 3071TIP3    H1 9170   7.479   1.185   6.364
 3071TIP3    H2 9171   7.456   1.319   6.298
 3072TIP3   OH2 9172   0.419   3.139   6.465
 3072TIP3    H1 9173   0.446   3.178   6.548
 3072TIP3    H2 9174   0.450   3.200   6.399
 3073TIP3   OH2 9175   0.963   5.618   5.549
 3073TIP3    H1 9176   0.879   5.618   5.594
 3073TIP3    H2 9177   0.966   5.533   5.504
 3074TIP3   OH2 9178   7.399   3.196   4.310
 3074TIP3    H1 9179   7.490   3.173   4.329
 3074TIP3    H2 9180   7.357   3.200   4.396
 3075TIP3   OH2 9181   7.609   4.524   4.987
 3075TIP3    H1 9182   7.658   4.512   4.906
 3075TIP3    H2 9183   7.538   4.460   4.982
 3076TIP3   OH2 9184   3.009   0.098   0.006
 3076TIP3    H1 9185   3.027   0.042  -0.069
 3076TIP3    H2 9186   3.068   0.172  -0.005
 3077TIP3   OH2 9187   6.560   4.348   1.244
 3077TIP3    H1 9188   6.649   4.359   1.278
 3077TIP3    H2 9189   6.539   4.256   1.260
 3078TIP3   OH2 9190   4.191   4.698   1.453
 3078TIP3    H1 9191   4.221   4.775   1.405
 3078TIP3    H2 9192   4.241   4.699   1.535
 3079TIP3   OH2 9193   6.601   1.363   0.166
 3079TIP3    H1 9194   6.677   1.351   0.223
 3079TIP3    H2 9195   6.557   1.441   0.201
 3080TIP3   OH2 9196   1.816   5.217   2.499
 3080TIP3    H1 9197   1.773   5.132   2.505
 3080TIP3    H2 9198   1.746   5.278   2.475
 3081TIP3   OH2 9199   1.779   7.680   0.153
 3081TIP3    H1 9200   1.685   7.662   0.146
 3081TIP3    H2 9201   1.788   7.729   0.235
 3082TIP3   OH2 9202   2.760   2.608   6.242
 3082TIP3    H1 9203   2.823   2.542   6.213
 3082TIP3    H2 9204   2.676   2.562   6.242
 3083TIP3   OH2 9205   2.666   0.461   0.855
 3083TIP3    H1 9206   2.603   0.520   0.815
 3083TIP3    H2 9207   2.612   0.395   0.899
 3084TIP3   OH2 9208   0.247   2.120   1.537
 3084TIP3    H1 9209   0.181   2.100   1.471
 3084TIP3    H2 9210   0.200   2.117   1.620
 3085TIP3   OH2 9211   5.328   4.159   2.625
 3085TIP3    H1 9212   5.391   4.232   2.617
 3085TIP3    H2 9213   5.246   4.195   2.592
 3086TIP3   OH2 9214   5.858   3.705   5.506
 3086TIP3    H1 9215   5.929   3.729   5.446
 3086TIP3    H2 9216   5.818   3.788   5.531
 3087TIP3   OH2 9217   5.025   6.321   5.201
 3087TIP3    H1 9218   5.071   6.243   5.232
 3087TIP3    H2 9219   4.968   6.290   5.132
 3088TIP3   OH2 9220   1.881   5.678   3.894
 3088TIP3    H1 9221   1.812   5.654   3.955
 3088TIP3    H2 9222   1.962   5.656   3.940
 3089TIP3   OH2 9223   3.556   6.253   4.600
 3089TIP3    H1 9224   3.527   6.336   4.563
 3089TIP3    H2 9225   3.542   6.189   4.531
 3090TIP3   OH2 9226   4.933   7.035   1.718
 3090TIP3    H1 9227   4.950   6.998   1.804
 3090TIP3    H2 9228   4.861   7.096   1.732
 3091TIP3   OH2 9229   4.932   2.717   2.448
 3091TIP3    H1 9230   5.005   2.771   2.480
 3091TIP3    H2 9231   4.854   2.768   2.470
 3092TIP3   OH2 9232   5.805   2.076   5.594
 3092TIP3    H1 9233   5.866   2.003   5.590
 3092TIP3    H2 9234   5.804   2.110   5.504
 3093TIP3   OH2 9235   6.692   3.913   2.659
 3093TIP3    H1 9236   6.661   3.870   2.739
 3093TIP3    H2 9237   6.631   3.886   2.591
 3094TIP3   OH2 9238   7.072   2.236   3.477
 3094TIP3    H1 9239   7.164   2.249   3.501
 3094TIP3    H2 9240   7.069   2.147   3.441
 3095TIP3   OH2 9241   3.538   7.599   1.919
 3095TIP3    H1 9242   3.597   7.643   1.980
 3095TIP3    H2 9243   3.471   7.665   1.898
 3096TIP3   OH2 9244   7.886   4.829   4.090
 3096TIP3    H1 9245   7.930   4.835   4.175
 3096TIP3    H2 9246   7.798   4.797   4.111
 3097TIP3   OH2 9247   5.890   1.584   0.011
 3097TIP3    H1 9248   5.965   1.554  -0.041
 3097TIP3    H2 9249   5.904   1.545   0.098
 3098TIP3   OH2 9250   2.831   1.121   2.334
 3098TIP3    H1 9251   2.779   1.082   2.264
 3098TIP3    H2 9252   2.852   1.209   2.303
 3099TIP3   OH2 9253   7.934   4.976   2.691
 3099TIP3    H1 9254   7.847   4.982   2.732
 3099TIP3    H2 9255   7.993   4.959   2.764
 3100TIP3   OH2 9256   2.233   6.822   5.943
 3100TIP3    H1 9257   2.327   6.832   5.928
 3100TIP3    H2 9258   2.199   6.911   5.946
 3101TIP3   OH2 9259   2.913   4.703   2.930
 3101TIP3    H1 9260   2.968   4.633   2.895
 3101TIP3    H2 9261   2.823   4.673   2.916
 3102TIP3   OH2 9262   6.286   2.357   2.607
 3102TIP3    H1 9263   6.216   2.413   2.573
 3102TIP3    H2 9264   6.240   2.283   2.647
 3103TIP3   OH2 9265   8.223   5.004   0.737
 3103TIP3    H1 9266   8.187   4.917   0.725
 3103TIP3    H2 9267   8.244   5.009   0.831
 3104TIP3   OH2 9268   5.765   2.068   0.579
 3104TIP3    H1 9269   5.671   2.063   0.562
 3104TIP3    H2 9270   5.801   2.109   0.500
 3105TIP3   OH2 9271   0.480   2.029   6.624
 3105TIP3    H1 9272   0.438   2.094   6.681
 3105TIP3    H2 9273   0.438   2.042   6.539
 3106TIP3   OH2 9274   1.551   2.248   6.717
 3106TIP3    H1 9275   1.531   2.234   6.810
 3106TIP3    H2 9276   1.468   2.232   6.672
 3107TIP3   OH2 9277   1.528   6.493   2.837
 3107TIP3    H1 9278   1.539   6.401   2.860
 3107TIP3    H2 9279   1.513   6.538   2.920
 3108TIP3   OH2 9280   4.794   4.504   0.267
 3108TIP3    H1 9281   4.870   4.456   0.235
 3108TIP3    H2 9282   4.780   4.472   0.356
 3109TIP3   OH2 9283   8.331   6.100   2.579
 3109TIP3    H1 9284   8.330   6.053   2.496
 3109TIP3    H2 9285   8.279   6.179   2.563
 3110TIP3   OH2 9286   2.244   7.778   3.884
 3110TIP3    H1 9287   2.170   7.833   3.909
 3110TIP3    H2 9288   2.292   7.764   3.966
 3111TIP3   OH2 9289   7.448   6.533   6.207
 3111TIP3    H1 9290   7.424   6.528   6.114
 3111TIP3    H2 9291   7.394   6.604   6.242
 3112TIP3   OH2 9292   3.876   7.767   2.885
 3112TIP3    H1 9293   3.937   7.805   2.821
 3112TIP3    H2 9294   3.927   7.762   2.966
 3113TIP3   OH2 9295   4.510   1.849   2.871
 3113TIP3    H1 9296   4.519   1.846   2.776
 3113TIP3    H2 9297   4.475   1.763   2.895
 3114TIP3   OH2 9298   4.166   4.585   6.078
 3114TIP3    H1 9299   4.229   4.543   6.020
 3114TIP3    H2 9300   4.117   4.644   6.021
 3115TIP3   OH2 9301   4.767   5.219   5.673
 3115TIP3    H1 9302   4.796   5.279   5.604
 3115TIP3    H2 9303   4.750   5.137   5.627
 3116TIP3   OH2 9304   5.651   6.387   0.668
 3116TIP3    H1 9305   5.650   6.415   0.760
 3116TIP3    H2 9306   5.742   6.397   0.641
 3117TIP3   OH2 9307   5.473   2.225   5.887
 3117TIP3    H1 9308   5.520   2.149   5.854
 3117TIP3    H2 9309   5.539   2.294   5.894
 3118TIP3   OH2 9310   4.746   7.353   1.008
 3118TIP3    H1 9311   4.803   7.297   1.060
 3118TIP3    H2 9312   4.759   7.323   0.918
 3119TIP3   OH2 9313   5.466   3.810   1.021
 3119TIP3    H1 9314   5.557   3.824   0.992
 3119TIP3    H2 9315   5.457   3.865   1.099
 3120TIP3   OH2 9316   5.251   6.358   1.863
 3120TIP3    H1 9317   5.345   6.349   1.850
 3120TIP3    H2 9318   5.240   6.361   1.958
 3121TIP3   OH2 9319   1.597   3.828   3.931
 3121TIP3    H1 9320   1.540   3.787   3.866
 3121TIP3    H2 9321   1.607   3.918   3.901
 3122TIP3   OH2 9322   3.404   1.822   6.508
 3122TIP3    H1 9323   3.461   1.784   6.575
 3122TIP3    H2 9324   3.357   1.747   6.472
 3123TIP3   OH2 9325   1.349   0.747   2.299
 3123TIP3    H1 9326   1.287   0.678   2.323
 3123TIP3    H2 9327   1.347   0.808   2.372
 3124TIP3   OH2 9328   2.250   4.643   4.047
 3124TIP3    H1 9329   2.197   4.717   4.018
 3124TIP3    H2 9330   2.233   4.636   4.141
 3125TIP3   OH2 9331   6.530   7.736   3.518
 3125TIP3    H1 9332   6.586   7.812   3.536
 3125TIP3    H2 9333   6.466   7.769   3.455
 3126TIP3   OH2 9334   0.922   6.267   0.233
 3126TIP3    H1 9335   0.913   6.217   0.314
 3126TIP3    H2 9336   0.844   6.323   0.230
 3127TIP3   OH2 9337   7.116   5.789   1.713
 3127TIP3    H1 9338   7.134   5.730   1.786
 3127TIP3    H2 9339   7.021   5.793   1.708
 3128TIP3   OH2 9340   3.270   5.266   5.005
 3128TIP3    H1 9341   3.316   5.183   5.017
 3128TIP3    H2 9342   3.204   5.247   4.939
 3129TIP3   OH2 9343   3.574   6.798   1.719
 3129TIP3    H1 9344   3.511   6.735   1.684
 3129TIP3    H2 9345   3.578   6.867   1.653
 3130TIP3   OH2 9346   7.111   1.552   1.307
 3130TIP3    H1 9347   7.086   1.612   1.378
 3130TIP3    H2 9348   7.031   1.503   1.288
 3131TIP3   OH2 9349   6.150   7.440   5.828
 3131TIP3    H1 9350   6.206   7.457   5.904
 3131TIP3    H2 9351   6.122   7.527   5.800
 3132TIP3   OH2 9352   5.002   1.758   0.208
 3132TIP3    H1 9353   5.044   1.741   0.123
 3132TIP3    H2 9354   4.908   1.754   0.189
 3133TIP3   OH2 9355   3.364   6.908   5.589
 3133TIP3    H1 9356   3.311   6.856   5.529
 3133TIP3    H2 9357   3.304   6.973   5.625
 3134TIP3   OH2 9358   7.220   7.727   3.627
 3134TIP3    H1 9359   7.225   7.631   3.636
 3134TIP3    H2 9360   7.200   7.758   3.715
 3135TIP3   OH2 9361   1.749   3.014   6.221
 3135TIP3    H1 9362   1.787   3.024   6.308
 3135TIP3    H2 9363   1.705   3.097   6.205
 3136TIP3   OH2 9364   3.314   3.649   2.136
 3136TIP3    H1 9365   3.315   3.583   2.205
 3136TIP3    H2 9366   3.255   3.717   2.169
 3137TIP3   OH2 9367   2.441   2.269   5.923
 3137TIP3    H1 9368   2.371   2.306   5.976
 3137TIP3    H2 9369   2.499   2.226   5.985
 3138TIP3   OH2 9370   2.666   4.184   1.011
 3138TIP3    H1 9371   2.629   4.236   0.940
 3138TIP3    H2 9372   2.604   4.112   1.022
 3139TIP3   OH2 9373   2.807   7.072   0.606
 3139TIP3    H1 9374   2.819   7.111   0.693
 3139TIP3    H2 9375   2.783   7.146   0.550
 3140TIP3   OH2 9376   7.798   0.714   6.068
 3140TIP3    H1 9377   7.777   0.634   6.020
 3140TIP3    H2 9378   7.894   0.717   6.069
 3141TIP3   OH2 9379   6.795   6.596   1.425
 3141TIP3    H1 9380   6.709   6.580   1.464
 3141TIP3    H2 9381   6.777   6.605   1.331
 3142TIP3   OH2 9382   1.201   0.235   0.415
 3142TIP3    H1 9383   1.225   0.325   0.391
 3142TIP3    H2 9384   1.159   0.244   0.500
 3143TIP3   OH2 9385   7.664   6.644   1.654
 3143TIP3    H1 9386   7.584   6.601   1.685
 3143TIP3    H2 9387   7.639   6.687   1.573
 3144TIP3   OH2 9388   6.839   4.025   2.966
 3144TIP3    H1 9389   6.926   3.992   2.990
 3144TIP3    H2 9390   6.833   4.012   2.872
 3145TIP3   OH2 9391   5.462   0.441   2.617
 3145TIP3    H1 9392   5.503   0.423   2.532
 3145TIP3    H2 9393   5.494   0.527   2.642
 3146TIP3   OH2 9394   5.306   2.753   2.529
 3146TIP3    H1 9395   5.299   2.752   2.434
 3146TIP3    H2 9396   5.303   2.660   2.555
 3147TIP3   OH2 9397   0.669   3.325   5.623
 3147TIP3    H1 9398   0.647   3.339   5.531
 3147TIP3    H2 9399   0.648   3.407   5.666
 3148TIP3   OH2 9400   7.615   3.689   0.134
 3148TIP3    H1 9401   7.605   3.610   0.187
 3148TIP3    H2 9402   7.576   3.758   0.187
 3149TIP3   OH2 9403   4.190   5.697   3.391
 3149TIP3    H1 9404   4.262   5.742   3.346
 3149TIP3    H2 9405   4.209   5.604   3.380
 3150TIP3   OH2 9406   3.489   7.436   1.545
 3150TIP3    H1 9407   3.521   7.389   1.622
 3150TIP3    H2 9408   3.420   7.380   1.509
 3151TIP3   OH2 9409   6.012   6.384   5.154
 3151TIP3    H1 9410   6.047   6.434   5.081
 3151TIP3    H2 9411   6.088   6.364   5.208
 3152TIP3   OH2 9412   2.296   7.199   0.989
 3152TIP3    H1 9413   2.270   7.219   1.079
 3152TIP3    H2 9414   2.343   7.116   0.995
 3153TIP3   OH2 9415   2.339   6.948   5.563
 3153TIP3    H1 9416   2.408   6.997   5.608
 3153TIP3    H2 9417   2.285   6.913   5.634
 3154TIP3   OH2 9418   5.364   2.130  -0.022
 3154TIP3    H1 9419   5.319   2.178   0.048
 3154TIP3    H2 9420   5.455   2.123   0.008
 3155TIP3   OH2 9421   0.521   0.469   4.265
 3155TIP3    H1 9422   0.570   0.392   4.295
 3155TIP3    H2 9423   0.574   0.543   4.293
 3156TIP3   OH2 9424   1.329   4.690   2.495
 3156TIP3    H1 9425   1.338   4.731   2.582
 3156TIP3    H2 9426   1.247   4.641   2.500
 3157TIP3   OH2 9427   2.184   0.145   2.213
 3157TIP3    H1 9428   2.099   0.130   2.170
 3157TIP3    H2 9429   2.161   0.179   2.299
 3158TIP3   OH2 9430   6.795   5.914   2.773
 3158TIP3    H1 9431   6.722   5.893   2.714
 3158TIP3    H2 9432   6.839   5.831   2.786
 3159TIP3   OH2 9433   6.451   0.057   2.585
 3159TIP3    H1 9434   6.450   0.153   2.574
 3159TIP3    H2 9435   6.540   0.038   2.616
 3160TIP3   OH2 9436   1.693   2.105   1.868
 3160TIP3    H1 9437   1.619   2.066   1.821
 3160TIP3    H2 9438   1.706   2.190   1.827
 3161TIP3   OH2 9439   6.560   7.226   0.955
 3161TIP3    H1 9440   6.617   7.302   0.966
 3161TIP3    H2 9441   6.499   7.229   1.029
 3162TIP3   OH2 9442   3.983   6.453   0.445
 3162TIP3    H1 9443   4.050   6.477   0.382
 3162TIP3    H2 9444   4.004   6.503   0.524
 3163TIP3   OH2 9445   0.081   1.517   6.546
 3163TIP3    H1 9446   0.144   1.521   6.619
 3163TIP3    H2 9447   0.118   1.453   6.486
 3164TIP3   OH2 9448   8.087   6.108   5.251
 3164TIP3    H1 9449   8.163   6.110   5.310
 3164TIP3    H2 9450   8.041   6.027   5.274
 3165TIP3   OH2 9451   0.155   6.053   6.289
 3165TIP3    H1 9452   0.096   6.003   6.346
 3165TIP3    H2 9453   0.106   6.065   6.208
 3166TIP3   OH2 9454   4.189   3.820   0.051
 3166TIP3    H1 9455   4.170   3.870   0.130
 3166TIP3    H2 9456   4.112   3.832  -0.004
 3167TIP3   OH2 9457   3.829   4.259   0.123
 3167TIP3    H1 9458   3.827   4.320   0.197
 3167TIP3    H2 9459   3.779   4.302   0.054
 3168TIP3   OH2 9460   2.861   0.730   0.924
 3168TIP3    H1 9461   2.893   0.819   0.909
 3168TIP3    H2 9462   2.779   0.725   0.875
 3169TIP3   OH2 9463   5.901   5.932   4.796
 3169TIP3    H1 9464   5.947   5.891   4.723
 3169TIP3    H2 9465   5.904   5.867   4.866
 3170TIP3   OH2 9466   3.926   0.205   5.843
 3170TIP3    H1 9467   3.935   0.162   5.758
 3170TIP3    H2 9468   3.956   0.140   5.906
 3171TIP3   OH2 9469   5.524   7.289   5.593
 3171TIP3    H1 9470   5.430   7.303   5.599
 3171TIP3    H2 9471   5.550   7.333   5.513
 3172TIP3   OH2 9472   6.376   0.528   5.623
 3172TIP3    H1 9473   6.415   0.444   5.648
 3172TIP3    H2 9474   6.294   0.504   5.579
 3173TIP3   OH2 9475   3.625   6.361   1.541
 3173TIP3    H1 9476   3.539   6.334   1.507
 3173TIP3    H2 9477   3.688   6.316   1.486
 3174TIP3   OH2 9478   6.567   5.266   1.812
 3174TIP3    H1 9479   6.473   5.263   1.798
 3174TIP3    H2 9480   6.588   5.180   1.850
 3175TIP3   OH2 9481   1.913   5.564   6.283
 3175TIP3    H1 9482   1.904   5.519   6.198
 3175TIP3    H2 9483   1.855   5.639   6.277
 3176TIP3   OH2 9484   2.990   0.647   4.504
 3176TIP3    H1 9485   2.965   0.616   4.417
 3176TIP3    H2 9486   2.915   0.624   4.560
 3177TIP3   OH2 9487   1.005   2.842   0.144
 3177TIP3    H1 9488   0.993   2.800   0.059
 3177TIP3    H2 9489   0.942   2.914   0.144
 3178TIP3   OH2 9490   8.155   2.299   5.396
 3178TIP3    H1 9491   8.210   2.348   5.335
 3178TIP3    H2 9492   8.067   2.332   5.382
 3179TIP3   OH2 9493   5.701   3.945   3.926
 3179TIP3    H1 9494   5.795   3.931   3.920
 3179TIP3    H2 9495   5.663   3.858   3.913
 3180TIP3   OH2 9496   0.450   1.365   0.342
 3180TIP3    H1 9497   0.409   1.449   0.364
 3180TIP3    H2 9498   0.403   1.301   0.394
 3181TIP3   OH2 9499   0.060   1.772   0.230
 3181TIP3    H1 9500  -0.004   1.720   0.279
 3181TIP3    H2 9501   0.034   1.863   0.245
 3182TIP3   OH2 9502   2.506   4.603   5.259
 3182TIP3    H1 9503   2.417   4.576   5.234
 3182TIP3    H2 9504   2.560   4.577   5.184
 3183TIP3   OH2 9505   1.836   3.272   4.616
 3183TIP3    H1 9506   1.820   3.226   4.698
 3183TIP3    H2 9507   1.778   3.230   4.553
 3184TIP3   OH2 9508   0.710   1.571   0.827
 3184TIP3    H1 9509   0.727   1.539   0.916
 3184TIP3    H2 9510   0.627   1.618   0.834
 3185TIP3   OH2 9511   2.633   2.244   2.569
 3185TIP3    H1 9512   2.561   2.291   2.610
 3185TIP3    H2 9513   2.663   2.183   2.636
 3186TIP3   OH2 9514   0.759   3.020   2.866
 3186TIP3    H1 9515   0.804   2.969   2.933
 3186TIP3    H2 9516   0.751   3.107   2.904
 3187TIP3   OH2 9517   4.197   6.343   5.019
 3187TIP3    H1 9518   4.177   6.250   5.036
 3187TIP3    H2 9519   4.268   6.363   5.079
 3188TIP3   OH2 9520   7.695   4.872   3.787
 3188TIP3    H1 9521   7.684   4.879   3.692
 3188TIP3    H2 9522   7.627   4.927   3.823
 3189TIP3   OH2 9523   7.524   7.131   0.623
 3189TIP3    H1 9524   7.432   7.128   0.597
 3189TIP3    H2 9525   7.572   7.100   0.546
 3190TIP3   OH2 9526   0.899   7.317   4.509
 3190TIP3    H1 9527   0.849   7.395   4.486
 3190TIP3    H2 9528   0.937   7.337   4.594
 3191TIP3   OH2 9529   5.549   5.604   4.478
 3191TIP3    H1 9530   5.518   5.694   4.489
 3191TIP3    H2 9531   5.511   5.556   4.552
 3192TIP3   OH2 9532   1.840   7.124   4.258
 3192TIP3    H1 9533   1.812   7.176   4.183
 3192TIP3    H2 9534   1.856   7.037   4.222
 3193TIP3   OH2 9535   6.808   2.505   1.148
 3193TIP3    H1 9536   6.885   2.518   1.093
 3193TIP3    H2 9537   6.737   2.488   1.086
 3194TIP3   OH2 9538   4.592   6.047   1.993
 3194TIP3    H1 9539   4.581   5.957   2.022
 3194TIP3    H2 9540   4.683   6.052   1.963
 3195TIP3   OH2 9541   6.901   6.791   2.742
 3195TIP3    H1 9542   6.807   6.776   2.749
 3195TIP3    H2 9543   6.909   6.884   2.720
 3196TIP3   OH2 9544   2.182   3.897   1.825
 3196TIP3    H1 9545   2.104   3.954   1.821
 3196TIP3    H2 9546   2.178   3.859   1.913
 3197TIP3   OH2 9547   8.099   1.249   1.949
 3197TIP3    H1 9548   8.043   1.279   1.878
 3197TIP3    H2 9549   8.091   1.317   2.016
 3198TIP3   OH2 9550   1.630   1.967   6.595
 3198TIP3    H1 9551   1.671   1.888   6.630
 3198TIP3    H2 9552   1.646   2.034   6.662
 3199TIP3   OH2 9553   0.629   5.601   2.045
 3199TIP3    H1 9554   0.653   5.617   2.136
 3199TIP3    H2 9555   0.585   5.516   2.046
 3200TIP3   OH2 9556   7.140   2.143   1.714
 3200TIP3    H1 9557   7.077   2.142   1.786
 3200TIP3    H2 9558   7.223   2.116   1.753
 3201TIP3   OH2 9559   2.450   4.249   5.144
 3201TIP3    H1 9560   2.538   4.280   5.125
 3201TIP3    H2 9561   2.445   4.164   5.100
 3202TIP3   OH2 9562   3.290   6.481   5.286
 3202TIP3    H1 9563   3.240   6.471   5.367
 3202TIP3    H2 9564   3.256   6.413   5.228
 3203TIP3   OH2 9565   6.860   6.075   5.145
 3203TIP3    H1 9566   6.832   6.060   5.235
 3203TIP3    H2 9567   6.948   6.036   5.141
 3204TIP3   OH2 9568   0.662   4.534   6.533
 3204TIP3    H1 9569   0.678   4.440   6.545
 3204TIP3    H2 9570   0.728   4.577   6.588
 3205TIP3   OH2 9571   6.091   2.050   3.941
 3205TIP3    H1 9572   6.084   2.079   4.032
 3205TIP3    H2 9573   6.022   1.985   3.931
 3206TIP3   OH2 9574   0.124   4.536   3.159
 3206TIP3    H1 9575   0.197   4.560   3.102
 3206TIP3    H2 9576   0.161   4.539   3.247
 3207TIP3   OH2 9577   6.481   3.659   1.522
 3207TIP3    H1 9578   6.446   3.617   1.444
 3207TIP3    H2 9579   6.573   3.675   1.501
 3208TIP3   OH2 9580   4.121   3.880   1.345
 3208TIP3    H1 9581   4.049   3.879   1.281
 3208TIP3    H2 9582   4.091   3.823   1.416
 3209TIP3   OH2 9583   6.448   2.824   2.825
 3209TIP3    H1 9584   6.400   2.753   2.782
 3209TIP3    H2 9585   6.388   2.856   2.892
 3210TIP3   OH2 9586   7.073   6.410   2.291
 3210TIP3    H1 9587   7.141   6.452   2.239
 3210TIP3    H2 9588   7.118   6.383   2.371
 3211TIP3   OH2 9589   5.511   1.711   4.201
 3211TIP3    H1 9590   5.565   1.637   4.232
 3211TIP3    H2 9591   5.498   1.693   4.108
 3212TIP3   OH2 9592   2.367   4.503   0.652
 3212TIP3    H1 9593   2.316   4.458   0.584
 3212TIP3    H2 9594   2.311   4.574   0.682
 3213TIP3   OH2 9595   0.345   4.206   6.357
 3213TIP3    H1 9596   0.403   4.270   6.318
 3213TIP3    H2 9597   0.309   4.251   6.434
 3214TIP3   OH2 9598   8.082   0.361   0.617
 3214TIP3    H1 9599   8.110   0.310   0.693
 3214TIP3    H2 9600   7.988   0.348   0.612
 3215TIP3   OH2 9601   3.533   2.382   6.414
 3215TIP3    H1 9602   3.497   2.420   6.494
 3215TIP3    H2 9603   3.535   2.288   6.431
 3216TIP3   OH2 9604   5.382   1.630   0.778
 3216TIP3    H1 9605   5.362   1.723   0.791
 3216TIP3    H2 9606   5.426   1.627   0.693
 3217TIP3   OH2 9607   0.042   5.642   4.223
 3217TIP3    H1 9608   0.132   5.657   4.194
 3217TIP3    H2 9609  -0.002   5.726   4.212
 3218TIP3   OH2 9610   6.880   6.199   3.135
 3218TIP3    H1 9611   6.930   6.278   3.158
 3218TIP3    H2 9612   6.945   6.139   3.099
 3219TIP3   OH2 9613   3.991   4.792   1.713
 3219TIP3    H1 9614   4.047   4.733   1.763
 3219TIP3    H2 9615   3.982   4.751   1.627
 3220TIP3   OH2 9616   5.513   0.672   1.590
 3220TIP3    H1 9617   5.485   0.603   1.530
 3220TIP3    H2 9618   5.438   0.731   1.595
 3221TIP3   OH2 9619   0.331   1.722   1.534
 3221TIP3    H1 9620   0.293   1.641   1.499
 3221TIP3    H2 9621   0.256   1.782   1.542
 3222TIP3   OH2 9622   3.204   5.847   2.878
 3222TIP3    H1 9623   3.191   5.798   2.959
 3222TIP3    H2 9624   3.127   5.903   2.870
 3223TIP3   OH2 9625   3.349   4.463   1.794
 3223TIP3    H1 9626   3.433   4.508   1.804
 3223TIP3    H2 9627   3.366   4.375   1.827
 3224TIP3   OH2 9628   6.248   0.887   0.169
 3224TIP3    H1 9629   6.244   0.914   0.260
 3224TIP3    H2 9630   6.316   0.819   0.167
 3225TIP3   OH2 9631   3.165   3.520   6.502
 3225TIP3    H1 9632   3.084   3.516   6.552
 3225TIP3    H2 9633   3.137   3.517   6.410
 3226TIP3   OH2 9634   2.985   7.101   3.609
 3226TIP3    H1 9635   3.057   7.148   3.650
 3226TIP3    H2 9636   2.996   7.010   3.638
 3227TIP3   OH2 9637   6.468   6.889   5.833
 3227TIP3    H1 9638   6.471   6.937   5.915
 3227TIP3    H2 9639   6.557   6.856   5.821
 3228TIP3   OH2 9640   4.086   3.911   5.516
 3228TIP3    H1 9641   4.145   3.914   5.591
 3228TIP3    H2 9642   4.053   3.821   5.515
 3229TIP3   OH2 9643   4.806   0.940   3.016
 3229TIP3    H1 9644   4.874   0.894   2.967
 3229TIP3    H2 9645   4.853   1.006   3.068
 3230TIP3   OH2 9646   3.010   1.464   3.472
 3230TIP3    H1 9647   2.968   1.415   3.401
 3230TIP3    H2 9648   3.083   1.408   3.500
 3231TIP3   OH2 9649   5.786   1.384   3.706
 3231TIP3    H1 9650   5.857   1.320   3.708
 3231TIP3    H2 9651   5.829   1.466   3.680
 3232TIP3   OH2 9652   4.344   2.197   1.749
 3232TIP3    H1 9653   4.319   2.126   1.808
 3232TIP3    H2 9654   4.406   2.249   1.800
 3233TIP3   OH2 9655   0.070   3.013   1.421
 3233TIP3    H1 9656   0.097   3.033   1.331
 3233TIP3    H2 9657   0.051   2.919   1.420
 3234TIP3   OH2 9658   6.312   6.681   4.010
 3234TIP3    H1 9659   6.404   6.660   4.024
 3234TIP3    H2 9660   6.282   6.715   4.094
 3235TIP3   OH2 9661   3.966   2.137   3.869
 3235TIP3    H1 9662   3.884   2.153   3.915
 3235TIP3    H2 9663   4.018   2.085   3.931
 3236TIP3   OH2 9664   2.939   0.041   6.105
 3236TIP3    H1 9665   2.883  -0.034   6.124
 3236TIP3    H2 9666   3.028   0.006   6.109
 3237TIP3   OH2 9667   6.067   1.672   6.618
 3237TIP3    H1 9668   6.072   1.706   6.528
 3237TIP3    H2 9669   5.974   1.674   6.639
 3238TIP3   OH2 9670   5.017   5.626   6.044
 3238TIP3    H1 9671   5.047   5.670   6.123
 3238TIP3    H2 9672   5.091   5.633   5.983
 3239TIP3   OH2 9673   5.292   3.975   3.985
 3239TIP3    H1 9674   5.302   4.058   3.939
 3239TIP3    H2 9675   5.328   3.909   3.926
 3240TIP3   OH2 9676  -0.010   4.130   1.530
 3240TIP3    H1 9677  -0.051   4.045   1.545
 3240TIP3    H2 9678   0.084   4.112   1.538
 3241TIP3   OH2 9679   5.529   3.814   0.138
 3241TIP3    H1 9680   5.472   3.861   0.198
 3241TIP3    H2 9681   5.514   3.722   0.157
 3242TIP3   OH2 9682   2.019   1.351   6.074
 3242TIP3    H1 9683   2.110   1.381   6.074
 3242TIP3    H2 9684   1.996   1.342   6.167
 3243TIP3   OH2 9685   0.224   7.574   0.901
 3243TIP3    H1 9686   0.197   7.483   0.919
 3243TIP3    H2 9687   0.234   7.613   0.988
 3244TIP3   OH2 9688   3.231   6.803   4.200
 3244TIP3    H1 9689   3.194   6.716   4.214
 3244TIP3    H2 9690   3.326   6.790   4.209
 3245TIP3   OH2 9691   3.369   2.300   5.651
 3245TIP3    H1 9692   3.391   2.270   5.563
 3245TIP3    H2 9693   3.429   2.253   5.709
 3246TIP3   OH2 9694   3.448   0.219   0.187
 3246TIP3    H1 9695   3.488   0.294   0.231
 3246TIP3    H2 9696   3.353   0.235   0.193
 3247TIP3   OH2 9697   5.975   0.874   0.395
 3247TIP3    H1 9698   6.059   0.915   0.417
 3247TIP3    H2 9699   5.995   0.818   0.319
 3248TIP3   OH2 9700   5.319   4.126   2.252
 3248TIP3    H1 9701   5.248   4.091   2.306
 3248TIP3    H2 9702   5.353   4.200   2.302
 3249TIP3   OH2 9703   3.551   6.695   3.882
 3249TIP3    H1 9704   3.532   6.604   3.858
 3249TIP3    H2 9705   3.467   6.731   3.909
 3250TIP3   OH2 9706   0.308   3.721   5.813
 3250TIP3    H1 9707   0.396   3.685   5.804
 3250TIP3    H2 9708   0.317   3.790   5.879
 3251TIP3   OH2 9709   0.179   3.651   2.259
 3251TIP3    H1 9710   0.092   3.609   2.260
 3251TIP3    H2 9711   0.163   3.738   2.295
 3252TIP3   OH2 9712   4.217   7.428   2.043
 3252TIP3    H1 9713   4.138   7.397   2.000
 3252TIP3    H2 9714   4.277   7.449   1.971
 3253TIP3   OH2 9715   3.108   5.816   3.218
 3253TIP3    H1 9716   3.101   5.898   3.169
 3253TIP3    H2 9717   3.175   5.833   3.283
 3254TIP3   OH2 9718   1.574   5.248   0.376
 3254TIP3    H1 9719   1.524   5.330   0.380
 3254TIP3    H2 9720   1.585   5.222   0.467
 3255TIP3   OH2 9721   6.419   2.137   4.833
 3255TIP3    H1 9722   6.377   2.180   4.759
 3255TIP3    H2 9723   6.402   2.044   4.820
 3256TIP3   OH2 9724   8.093   0.562   2.441
 3256TIP3    H1 9725   8.045   0.493   2.394
 3256TIP3    H2 9726   8.027   0.628   2.460
 3257TIP3   OH2 9727   7.807   3.271   3.253
 3257TIP3    H1 9728   7.747   3.250   3.325
 3257TIP3    H2 9729   7.821   3.188   3.208
 3258TIP3   OH2 9730   7.030   0.815   2.572
 3258TIP3    H1 9731   6.982   0.755   2.515
 3258TIP3    H2 9732   6.974   0.893   2.578
 3259TIP3   OH2 9733   5.633   3.665   3.841
 3259TIP3    H1 9734   5.721   3.639   3.812
 3259TIP3    H2 9735   5.602   3.590   3.892
 3260TIP3   OH2 9736   3.567   3.953   0.472
 3260TIP3    H1 9737   3.478   3.920   0.467
 3260TIP3    H2 9738   3.619   3.878   0.501
 3261TIP3   OH2 9739   0.344   2.349   2.940
 3261TIP3    H1 9740   0.397   2.428   2.949
 3261TIP3    H2 9741   0.352   2.303   3.023
 3262TIP3   OH2 9742   2.925   0.123   0.905
 3262TIP3    H1 9743   2.941   0.210   0.869
 3262TIP3    H2 9744   2.874   0.139   0.985
 3263TIP3   OH2 9745   6.706   5.353   3.418
 3263TIP3    H1 9746   6.754   5.295   3.359
 3263TIP3    H2 9747   6.655   5.294   3.474
 3264TIP3   OH2 9748   5.063   6.661   5.701
 3264TIP3    H1 9749   5.033   6.574   5.725
 3264TIP3    H2 9750   5.076   6.656   5.606
 3265TIP3   OH2 9751   0.405   1.095   3.204
 3265TIP3    H1 9752   0.342   1.166   3.197
 3265TIP3    H2 9753   0.418   1.084   3.298
 3266TIP3   OH2 9754   5.482   7.013   3.355
 3266TIP3    H1 9755   5.405   7.006   3.412
 3266TIP3    H2 9756   5.454   7.070   3.283
 3267TIP3   OH2 9757   0.565   3.809   1.227
 3267TIP3    H1 9758   0.660   3.801   1.226
 3267TIP3    H2 9759   0.538   3.784   1.139
 3268TIP3   OH2 9760   1.888   0.290   5.747
 3268TIP3    H1 9761   1.837   0.313   5.669
 3268TIP3    H2 9762   1.961   0.238   5.713
 3269TIP3   OH2 9763   5.273   3.910   2.482
 3269TIP3    H1 9764   5.303   3.974   2.546
 3269TIP3    H2 9765   5.195   3.949   2.443
 3270TIP3   OH2 9766   3.359   1.743   1.691
 3270TIP3    H1 9767   3.422   1.806   1.724
 3270TIP3    H2 9768   3.358   1.756   1.596
 3271TIP3   OH2 9769   8.279   1.536   1.920
 3271TIP3    H1 9770   8.353   1.577   1.876
 3271TIP3    H2 9771   8.213   1.605   1.927
 3272TIP3   OH2 9772   0.324   5.700   6.302
 3272TIP3    H1 9773   0.393   5.731   6.244
 3272TIP3    H2 9774   0.306   5.775   6.359
 3273TIP3   OH2 9775   0.568   0.699   5.327
 3273TIP3    H1 9776   0.581   0.613   5.367
 3273TIP3    H2 9777   0.496   0.685   5.265
 3274TIP3   OH2 9778   5.033   1.921   6.501
 3274TIP3    H1 9779   4.952   1.885   6.539
 3274TIP3    H2 9780   5.103   1.877   6.548
 3275TIP3   OH2 9781   4.385   0.988   1.378
 3275TIP3    H1 9782   4.427   0.902   1.375
 3275TIP3    H2 9783   4.307   0.975   1.431
 3276TIP3   OH2 9784   0.121   5.183   5.842
 3276TIP3    H1 9785   0.197   5.192   5.784
 3276TIP3    H2 9786   0.146   5.112   5.902
 3277TIP3   OH2 9787   1.329   0.938   2.514
 3277TIP3    H1 9788   1.264   1.008   2.519
 3277TIP3    H2 9789   1.309   0.881   2.588
 3278TIP3   OH2 9790   3.266   4.873   6.347
 3278TIP3    H1 9791   3.268   4.948   6.406
 3278TIP3    H2 9792   3.249   4.798   6.404
 3279TIP3   OH2 9793   6.017   0.661   6.257
 3279TIP3    H1 9794   6.110   0.639   6.258
 3279TIP3    H2 9795   6.015   0.755   6.272
 3280TIP3   OH2 9796   2.612   5.174   5.092
 3280TIP3    H1 9797   2.542   5.113   5.112
 3280TIP3    H2 9798   2.587   5.255   5.138
 3281TIP3   OH2 9799   7.410   1.455   0.928
 3281TIP3    H1 9800   7.453   1.371   0.945
 3281TIP3    H2 9801   7.317   1.436   0.932
 3282TIP3   OH2 9802   1.555   1.220   4.924
 3282TIP3    H1 9803   1.620   1.167   4.878
 3282TIP3    H2 9804   1.555   1.185   5.013
 3283TIP3   OH2 9805   6.696   0.068   4.439
 3283TIP3    H1 9806   6.649   0.092   4.359
 3283TIP3    H2 9807   6.764   0.007   4.409
 3284TIP3   OH2 9808   3.662   6.603   6.306
 3284TIP3    H1 9809   3.703   6.526   6.345
 3284TIP3    H2 9810   3.612   6.567   6.232
 3285TIP3   OH2 9811   2.084   5.350   0.406
 3285TIP3    H1 9812   2.098   5.347   0.501
 3285TIP3    H2 9813   1.993   5.325   0.394
 3286TIP3   OH2 9814   7.533   5.267   0.979
 3286TIP3    H1 9815   7.449   5.222   0.964
 3286TIP3    H2 9816   7.538   5.278   1.074
 3287TIP3   OH2 9817   5.878   0.545   2.542
 3287TIP3    H1 9818   5.910   0.455   2.542
 3287TIP3    H2 9819   5.832   0.554   2.458
 3288TIP3   OH2 9820   5.937   4.260   2.421
 3288TIP3    H1 9821   6.028   4.234   2.436
 3288TIP3    H2 9822   5.930   4.266   2.325
 3289TIP3   OH2 9823   4.642   4.372   6.673
 3289TIP3    H1 9824   4.560   4.325   6.686
 3289TIP3    H2 9825   4.618   4.446   6.617
 3290TIP3   OH2 9826   7.945   1.575   1.908
 3290TIP3    H1 9827   7.889   1.652   1.914
 3290TIP3    H2 9828   7.888   1.505   1.876
 3291TIP3   OH2 9829   1.728   3.371   0.749
 3291TIP3    H1 9830   1.720   3.380   0.844
 3291TIP3    H2 9831   1.814   3.407   0.728
 3292TIP3   OH2 9832   1.529   7.249   2.510
 3292TIP3    H1 9833   1.561   7.189   2.442
 3292TIP3    H2 9834   1.570   7.218   2.591
 3293TIP3   OH2 9835   2.255   2.621   2.900
 3293TIP3    H1 9836   2.344   2.654   2.913
 3293TIP3    H2 9837   2.211   2.638   2.984
 3294TIP3   OH2 9838   2.986   7.256   5.929
 3294TIP3    H1 9839   2.921   7.240   5.861
 3294TIP3    H2 9840   3.055   7.306   5.885
 3295TIP3   OH2 9841   5.580   1.418   5.967
 3295TIP3    H1 9842   5.603   1.498   5.919
 3295TIP3    H2 9843   5.660   1.394   6.013
 3296TIP3   OH2 9844   3.479   5.416   1.190
 3296TIP3    H1 9845   3.561   5.452   1.223
 3296TIP3    H2 9846   3.499   5.324   1.173
 3297TIP3   OH2 9847   5.839   6.490   1.216
 3297TIP3    H1 9848   5.923   6.469   1.175
 3297TIP3    H2 9849   5.786   6.525   1.145
 3298TIP3   OH2 9850   3.372   5.322   3.082
 3298TIP3    H1 9851   3.300   5.323   3.144
 3298TIP3    H2 9852   3.356   5.396   3.024
 3299TIP3   OH2 9853   2.945   7.099   5.219
 3299TIP3    H1 9854   3.032   7.135   5.237
 3299TIP3    H2 9855   2.957   7.042   5.144
 3300TIP3   OH2 9856   1.298   6.409   3.273
 3300TIP3    H1 9857   1.317   6.410   3.366
 3300TIP3    H2 9858   1.279   6.317   3.253
 3301TIP3   OH2 9859   4.612   7.518   5.542
 3301TIP3    H1 9860   4.670   7.452   5.580
 3301TIP3    H2 9861   4.525   7.478   5.546
 3302TIP3   OH2 9862   7.783   3.095   4.621
 3302TIP3    H1 9863   7.814   3.093   4.711
 3302TIP3    H2 9864   7.847   3.043   4.572
 3303TIP3   OH2 9865   5.117   6.831   1.602
 3303TIP3    H1 9866   5.208   6.859   1.586
 3303TIP3    H2 9867   5.073   6.909   1.635
 3304TIP3   OH2 9868   5.258   5.873   1.177
 3304TIP3    H1 9869   5.294   5.825   1.102
 3304TIP3    H2 9870   5.238   5.960   1.143
 3305TIP3   OH2 9871   7.183   5.332   4.691
 3305TIP3    H1 9872   7.143   5.336   4.778
 3305TIP3    H2 9873   7.171   5.241   4.664
 3306TIP3   OH2 9874   2.616   0.554   6.684
 3306TIP3    H1 9875   2.638   0.504   6.605
 3306TIP3    H2 9876   2.688   0.536   6.745
 3307TIP3   OH2 9877   0.223   2.373   0.784
 3307TIP3    H1 9878   0.215   2.318   0.706
 3307TIP3    H2 9879   0.289   2.329   0.838
 3308TIP3   OH2 9880   2.228   0.097   6.321
 3308TIP3    H1 9881   2.166   0.024   6.315
 3308TIP3    H2 9882   2.173   0.175   6.321
 3309TIP3   OH2 9883   3.822   0.573   4.834
 3309TIP3    H1 9884   3.758   0.514   4.793
 3309TIP3    H2 9885   3.904   0.524   4.832
 3310TIP3   OH2 9886   4.735   6.958   3.176
 3310TIP3    H1 9887   4.827   6.971   3.200
 3310TIP3    H2 9888   4.694   7.043   3.191
 3311TIP3   OH2 9889   1.976   2.500   5.618
 3311TIP3    H1 9890   1.976   2.577   5.561
 3311TIP3    H2 9891   1.920   2.524   5.692
 3312TIP3   OH2 9892   0.785   4.239   5.006
 3312TIP3    H1 9893   0.780   4.195   4.921
 3312TIP3    H2 9894   0.815   4.170   5.066
 3313TIP3   OH2 9895   4.709   0.931   3.963
 3313TIP3    H1 9896   4.731   0.865   3.897
 3313TIP3    H2 9897   4.784   0.991   3.963
 3314TIP3   OH2 9898   5.226   7.635   4.816
 3314TIP3    H1 9899   5.206   7.718   4.773
 3314TIP3    H2 9900   5.260   7.661   4.902
 3315TIP3   OH2 9901   5.969   5.086   1.035
 3315TIP3    H1 9902   5.997   5.077   0.944
 3315TIP3    H2 9903   5.905   5.158   1.033
 3316TIP3   OH2 9904   5.138   6.054   1.695
 3316TIP3    H1 9905   5.133   6.048   1.791
 3316TIP3    H2 9906   5.118   5.966   1.664
 3317TIP3   OH2 9907   3.338   0.843   1.616
 3317TIP3    H1 9908   3.384   0.921   1.585
 3317TIP3    H2 9909   3.355   0.840   1.710
 3318TIP3   OH2 9910   2.377   3.716   5.977
 3318TIP3    H1 9911   2.391   3.799   6.022
 3318TIP3    H2 9912   2.417   3.650   6.034
 3319TIP3   OH2 9913   2.837   3.673   0.525
 3319TIP3    H1 9914   2.852   3.604   0.590
 3319TIP3    H2 9915   2.875   3.751   0.564
 3320TIP3   OH2 9916   1.807   1.807   0.666
 3320TIP3    H1 9917   1.838   1.886   0.621
 3320TIP3    H2 9918   1.721   1.831   0.700
 3321TIP3   OH2 9919   2.948   0.574   4.872
 3321TIP3    H1 9920   3.003   0.496   4.863
 3321TIP3    H2 9921   2.861   0.544   4.848
 3322TIP3   OH2 9922   0.901   1.406   6.468
 3322TIP3    H1 9923   0.886   1.382   6.377
 3322TIP3    H2 9924   0.986   1.449   6.469
 3323TIP3   OH2 9925   5.689   4.266   1.476
 3323TIP3    H1 9926   5.782   4.267   1.498
 3323TIP3    H2 9927   5.683   4.310   1.391
 3324TIP3   OH2 9928   2.253   4.481   1.754
 3324TIP3    H1 9929   2.234   4.434   1.835
 3324TIP3    H2 9930   2.342   4.515   1.767
 3325TIP3   OH2 9931   1.111   3.235   4.868
 3325TIP3    H1 9932   1.096   3.204   4.779
 3325TIP3    H2 9933   1.049   3.186   4.921
 3326TIP3   OH2 9934   6.092   2.187   6.690
 3326TIP3    H1 9935   6.085   2.279   6.716
 3326TIP3    H2 9936   6.021   2.143   6.738
 3327TIP3   OH2 9937   7.396   3.643   2.313
 3327TIP3    H1 9938   7.434   3.633   2.400
 3327TIP3    H2 9939   7.381   3.553   2.284
 3328TIP3   OH2 9940   0.088   7.171   4.686
 3328TIP3    H1 9941   0.175   7.170   4.726
 3328TIP3    H2 9942   0.056   7.081   4.694
 3329TIP3   OH2 9943   3.246   1.982   1.281
 3329TIP3    H1 9944   3.286   1.941   1.358
 3329TIP3    H2 9945   3.262   1.920   1.210
 3330TIP3   OH2 9946   4.416   2.897   5.203
 3330TIP3    H1 9947   4.360   2.974   5.198
 3330TIP3    H2 9948   4.360   2.828   5.239
 3331TIP3   OH2 9949   1.139   3.759   6.758
 3331TIP3    H1 9950   1.074   3.775   6.827
 3331TIP3    H2 9951   1.087   3.745   6.679
 3332TIP3   OH2 9952   8.160   0.314   5.103
 3332TIP3    H1 9953   8.107   0.391   5.082
 3332TIP3    H2 9954   8.152   0.257   5.027
 3333TIP3   OH2 9955   3.959   2.390   1.210
 3333TIP3    H1 9956   3.971   2.295   1.200
 3333TIP3    H2 9957   4.037   2.419   1.258
 3334TIP3   OH2 9958   3.605   1.236   1.202
 3334TIP3    H1 9959   3.519   1.217   1.240
 3334TIP3    H2 9960   3.590   1.237   1.107
 3335TIP3   OH2 9961   1.539   6.102   4.234
 3335TIP3    H1 9962   1.516   6.194   4.224
 3335TIP3    H2 9963   1.631   6.097   4.210
 3336TIP3   OH2 9964   1.161   3.628   3.916
 3336TIP3    H1 9965   1.213   3.678   3.852
 3336TIP3    H2 9966   1.093   3.690   3.944
 3337TIP3   OH2 9967   2.105   1.251   1.468
 3337TIP3    H1 9968   2.140   1.203   1.543
 3337TIP3    H2 9969   2.074   1.334   1.505
 3338TIP3   OH2 9970   5.236   6.297   2.172
 3338TIP3    H1 9971   5.192   6.377   2.201
 3338TIP3    H2 9972   5.288   6.269   2.247
 3339TIP3   OH2 9973   1.058   6.904   1.410
 3339TIP3    H1 9974   1.086   6.827   1.360
 3339TIP3    H2 9975   0.967   6.887   1.432
 3340TIP3   OH2 9976   3.153   5.279   5.415
 3340TIP3    H1 9977   3.194   5.276   5.329
 3340TIP3    H2 9978   3.060   5.261   5.399
 3341TIP3   OH2 9979   1.231   4.105   0.314
 3341TIP3    H1 9980   1.225   4.019   0.357
 3341TIP3    H2 9981   1.165   4.158   0.359
 3342TIP3   OH2 9982   1.133   3.397   2.166
 3342TIP3    H1 9983   1.065   3.330   2.155
 3342TIP3    H2 9984   1.119   3.431   2.255
 3343TIP3   OH2 9985   7.466   4.966   1.151
 3343TIP3    H1 9986   7.498   4.877   1.133
 3343TIP3    H2 9987   7.494   4.984   1.241
 3344TIP3   OH2 9988   4.517   3.698   3.359
 3344TIP3    H1 9989   4.429   3.715   3.326
 3344TIP3    H2 9990   4.572   3.697   3.280
 3345TIP3   OH2 9991   5.382   1.433   0.031
 3345TIP3    H1 9992   5.316   1.502   0.024
 3345TIP3    H2 9993   5.454   1.475   0.078
 3346TIP3   OH2 9994   3.897   5.705   3.721
 3346TIP3    H1 9995   3.802   5.703   3.710
 3346TIP3    H2 9996   3.928   5.627   3.677
 3347TIP3   OH2 9997   1.838   4.331   1.770
 3347TIP3    H1 9998   1.837   4.405   1.831
 3347TIP3    H2 9999   1.928   4.327   1.739
 3348TIP3   OH210000   1.603   4.498   3.693
 3348TIP3    H110001   1.552   4.429   3.736
 3348TIP3    H210002   1.661   4.451   3.633
 3349TIP3   OH210003   5.452   5.561   1.920
 3349TIP3    H110004   5.459   5.493   1.853
 3349TIP3    H210005   5.400   5.520   1.990
 3350TIP3   OH210006   7.532   4.592   4.015
 3350TIP3    H110007   7.602   4.562   3.957
 3350TIP3    H210008   7.576   4.645   4.081
 3351TIP3   OH210009   4.356   2.656   4.753
 3351TIP3    H110010   4.411   2.637   4.829
 3351TIP3    H210011   4.354   2.751   4.748
 3352TIP3   OH210012   7.571   0.729   5.829
 3352TIP3    H110013   7.509   0.667   5.868
 3352TIP3    H210014   7.562   0.809   5.880
 3353TIP3   OH210015   2.672   0.119   3.744
 3353TIP3    H110016   2.654   0.050   3.681
 3353TIP3    H210017   2.682   0.198   3.692
 3354TIP3   OH210018   5.557   6.554   2.957
 3354TIP3    H110019   5.624   6.619   2.936
 3354TIP3    H210020   5.606   6.472   2.971
 3355TIP3   OH210021   8.153   7.399   2.186
 3355TIP3    H110022   8.229   7.342   2.192
 3355TIP3    H210023   8.189   7.486   2.166
 3356TIP3   OH210024   6.554   1.393   2.149
 3356TIP3    H110025   6.535   1.365   2.238
 3356TIP3    H210026   6.563   1.311   2.100
 3357TIP3   OH210027   7.398   0.557   3.681
 3357TIP3    H110028   7.436   0.527   3.598
 3357TIP3    H210029   7.461   0.621   3.714
 3358TIP3   OH210030   6.441   1.559   0.288
 3358TIP3    H110031   6.488   1.631   0.330
 3358TIP3    H210032   6.375   1.602   0.233
 3359TIP3   OH210033   7.178   4.024   4.515
 3359TIP3    H110034   7.248   3.988   4.461
 3359TIP3    H210035   7.101   4.024   4.457
 3360TIP3   OH210036   6.479   0.052   5.142
 3360TIP3    H110037   6.448   0.133   5.180
 3360TIP3    H210038   6.400   0.001   5.123
 3361TIP3   OH210039   3.176   0.723   3.269
 3361TIP3    H110040   3.082   0.738   3.268
 3361TIP3    H210041   3.192   0.676   3.351
 3362TIP3   OH210042   1.577   2.421   0.672
 3362TIP3    H110043   1.619   2.373   0.601
 3362TIP3    H210044   1.497   2.456   0.633
 3363TIP3   OH210045   8.207   1.157   0.556
 3363TIP3    H110046   8.293   1.199   0.546
 3363TIP3    H210047   8.160   1.214   0.617
 3364TIP3   OH210048   7.233   1.068   3.588
 3364TIP3    H110049   7.322   1.095   3.612
 3364TIP3    H210050   7.232   0.974   3.606
 3365TIP3   OH210051   1.276   2.168   5.335
 3365TIP3    H110052   1.256   2.116   5.257
 3365TIP3    H210053   1.192   2.177   5.380
 3366TIP3   OH210054   5.386   7.198   2.831
 3366TIP3    H110055   5.317   7.244   2.784
 3366TIP3    H210056   5.420   7.134   2.768
 3367TIP3   OH210057   2.639   3.546   0.339
 3367TIP3    H110058   2.601   3.602   0.271
 3367TIP3    H210059   2.698   3.604   0.387
 3368TIP3   OH210060   7.406  -0.020   6.461
 3368TIP3    H110061   7.424  -0.014   6.367
 3368TIP3    H210062   7.375   0.068   6.486
 3369TIP3   OH210063   0.300   0.851   5.377
 3369TIP3    H110064   0.266   0.775   5.423
 3369TIP3    H210065   0.368   0.816   5.319
 3370TIP3   OH210066   0.131   7.588   5.986
 3370TIP3    H110067   0.137   7.565   6.079
 3370TIP3    H210068   0.135   7.505   5.940
 3371TIP3   OH210069   0.279   5.770   0.217
 3371TIP3    H110070   0.227   5.689   0.216
 3371TIP3    H210071   0.220   5.836   0.252
 3372TIP3   OH210072   2.002   0.538   0.233
 3372TIP3    H110073   2.014   0.463   0.291
 3372TIP3    H210074   1.991   0.500   0.146
 3373TIP3   OH210075   6.729   5.959   5.357
 3373TIP3    H110076   6.659   5.947   5.293
 3373TIP3    H210077   6.776   5.876   5.357
 3374TIP3   OH210078   2.942   0.153   3.836
 3374TIP3    H110079   2.951   0.248   3.836
 3374TIP3    H210080   2.850   0.138   3.817
 3375TIP3   OH210081   5.872   6.355   3.342
 3375TIP3    H110082   5.947   6.355   3.401
 3375TIP3    H210083   5.903   6.396   3.262
 3376TIP3   OH210084   6.039   0.241   3.032
 3376TIP3    H110085   6.002   0.298   3.099
 3376TIP3    H210086   6.132   0.262   3.031
 3377TIP3   OH210087   7.276   3.392   2.198
 3377TIP3    H110088   7.207   3.337   2.162
 3377TIP3    H210089   7.330   3.416   2.123
 3378TIP3   OH210090   7.558   1.979   3.968
 3378TIP3    H110091   7.605   1.942   3.893
 3378TIP3    H210092   7.556   1.909   4.033
 3379TIP3   OH210093   2.605   0.176   6.199
 3379TIP3    H110094   2.583   0.201   6.288
 3379TIP3    H210095   2.649   0.091   6.207
 3380TIP3   OH210096   1.668   4.807   5.432
 3380TIP3    H110097   1.667   4.760   5.516
 3380TIP3    H210098   1.634   4.894   5.453
 3381TIP3   OH210099   1.866   3.357   3.740
 3381TIP3    H110100   1.822   3.442   3.749
 3381TIP3    H210101   1.957   3.379   3.720
 3382TIP3   OH210102   3.673   5.629   1.201
 3382TIP3    H110103   3.673   5.715   1.244
 3382TIP3    H210104   3.705   5.647   1.112
 3383TIP3   OH210105   5.737   0.476   1.074
 3383TIP3    H110106   5.777   0.523   1.001
 3383TIP3    H210107   5.759   0.384   1.060
 3384TIP3   OH210108   4.563   6.025   4.583
 3384TIP3    H110109   4.571   6.060   4.671
 3384TIP3    H210110   4.633   6.068   4.533
 3385TIP3   OH210111   5.250   5.022   4.455
 3385TIP3    H110112   5.156   5.016   4.471
 3385TIP3    H210113   5.283   5.074   4.529
 3386TIP3   OH210114   4.281   4.158   6.471
 3386TIP3    H110115   4.263   4.249   6.445
 3386TIP3    H210116   4.198   4.127   6.507
 3387TIP3   OH210117   5.211   2.213   4.245
 3387TIP3    H110118   5.179   2.136   4.293
 3387TIP3    H210119   5.135   2.271   4.239
 3388TIP3   OH210120   3.027   0.153   2.821
 3388TIP3    H110121   3.105   0.201   2.794
 3388TIP3    H210122   2.980   0.134   2.740
 3389TIP3   OH210123   0.847   1.788   4.823
 3389TIP3    H110124   0.932   1.745   4.814
 3389TIP3    H210125   0.792   1.748   4.755
 3390TIP3   OH210126   1.585   2.746   1.182
 3390TIP3    H110127   1.621   2.731   1.094
 3390TIP3    H210128   1.611   2.668   1.231
 3391TIP3   OH210129   3.389   7.500   4.063
 3391TIP3    H110130   3.320   7.563   4.044
 3391TIP3    H210131   3.468   7.539   4.027
 3392TIP3   OH210132   5.356   1.750   3.645
 3392TIP3    H110133   5.333   1.662   3.676
 3392TIP3    H210134   5.285   1.774   3.585
 3393TIP3   OH210135   2.378   6.544   6.058
 3393TIP3    H110136   2.406   6.618   6.112
 3393TIP3    H210137   2.382   6.576   5.968
 3394TIP3   OH210138   7.166   1.538   4.534
 3394TIP3    H110139   7.151   1.564   4.443
 3394TIP3    H210140   7.088   1.569   4.581
 3395TIP3   OH210141   3.483   5.337   3.486
 3395TIP3    H110142   3.440   5.332   3.401
 3395TIP3    H210143   3.456   5.256   3.531
 3396TIP3   OH210144   7.302   4.377   1.479
 3396TIP3    H110145   7.323   4.286   1.459
 3396TIP3    H210146   7.333   4.389   1.569
 3397TIP3   OH210147   7.280   2.073   6.662
 3397TIP3    H110148   7.279   1.990   6.709
 3397TIP3    H210149   7.358   2.119   6.695
 3398TIP3   OH210150   3.608   3.462   5.843
 3398TIP3    H110151   3.688   3.491   5.888
 3398TIP3    H210152   3.638   3.391   5.786
 3399TIP3   OH210153   4.680   6.115   0.927
 3399TIP3    H110154   4.742   6.186   0.946
 3399TIP3    H210155   4.720   6.067   0.855
 3400TIP3   OH210156   2.831   3.026   1.569
 3400TIP3    H110157   2.912   2.985   1.539
 3400TIP3    H210158   2.843   3.039   1.663
 3401TIP3   OH210159   3.561   5.274   1.773
 3401TIP3    H110160   3.467   5.272   1.788
 3401TIP3    H210161   3.571   5.279   1.678
 3402TIP3   OH210162   7.267   4.238   4.708
 3402TIP3    H110163   7.227   4.157   4.677
 3402TIP3    H210164   7.196   4.302   4.704
 3403TIP3   OH210165   6.490   6.990   4.752
 3403TIP3    H110166   6.439   6.961   4.828
 3403TIP3    H210167   6.553   7.053   4.787
 3404TIP3   OH210168   1.166   0.692   4.814
 3404TIP3    H110169   1.233   0.761   4.817
 3404TIP3    H210170   1.208   0.620   4.767
 3405TIP3   OH210171   6.155   5.900   3.810
 3405TIP3    H110172   6.063   5.915   3.787
 3405TIP3    H210173   6.161   5.927   3.902
 3406TIP3   OH210174   3.284   0.722   6.233
 3406TIP3    H110175   3.349   0.754   6.295
 3406TIP3    H210176   3.208   0.702   6.287
 3407TIP3   OH210177   0.973   4.746   6.036
 3407TIP3    H110178   0.880   4.761   6.056
 3407TIP3    H210179   1.014   4.831   6.050
 3408TIP3   OH210180   2.720   4.028   6.218
 3408TIP3    H110181   2.788   4.096   6.215
 3408TIP3    H210182   2.714   3.997   6.127
 3409TIP3   OH210183   5.213   0.105   5.998
 3409TIP3    H110184   5.139   0.118   6.057
 3409TIP3    H210185   5.183   0.137   5.913
 3410TIP3   OH210186   6.485   6.008   1.963
 3410TIP3    H110187   6.566   6.050   1.935
 3410TIP3    H210188   6.444   6.071   2.022
 3411TIP3   OH210189   3.215   5.443   5.208
 3411TIP3    H110190   3.129   5.423   5.245
 3411TIP3    H210191   3.206   5.421   5.115
 3412TIP3   OH210192   8.128   0.889   1.126
 3412TIP3    H110193   8.042   0.931   1.126
 3412TIP3    H210194   8.123   0.823   1.057
 3413TIP3   OH210195   7.305   0.127   2.745
 3413TIP3    H110196   7.394   0.101   2.770
 3413TIP3    H210197   7.249   0.089   2.812
 3414TIP3   OH210198   5.394   6.699   5.498
 3414TIP3    H110199   5.449   6.678   5.423
 3414TIP3    H210200   5.408   6.626   5.559
 3415TIP3   OH210201   2.062   3.915   3.811
 3415TIP3    H110202   2.075   4.004   3.777
 3415TIP3    H210203   2.150   3.876   3.808
 3416TIP3   OH210204   1.288   6.832   2.925
 3416TIP3    H110205   1.235   6.911   2.937
 3416TIP3    H210206   1.358   6.859   2.866
 3417TIP3   OH210207   7.345   5.847   3.780
 3417TIP3    H110208   7.417   5.784   3.794
 3417TIP3    H210209   7.316   5.831   3.691
 3418TIP3   OH210210   2.783   3.064   5.573
 3418TIP3    H110211   2.871   3.093   5.596
 3418TIP3    H210212   2.789   3.036   5.482
 3419TIP3   OH210213   1.720   6.965   6.230
 3419TIP3    H110214   1.710   7.039   6.289
 3419TIP3    H210215   1.681   6.891   6.277
 3420TIP3   OH210216   4.166   2.259   3.530
 3420TIP3    H110217   4.091   2.317   3.545
 3420TIP3    H210218   4.220   2.305   3.466
 3421TIP3   OH210219   0.387   1.696   5.841
 3421TIP3    H110220   0.409   1.661   5.927
 3421TIP3    H210221   0.324   1.766   5.859
 3422TIP3   OH210222   3.239   1.392   1.788
 3422TIP3    H110223   3.281   1.343   1.859
 3422TIP3    H210224   3.287   1.475   1.784
 3423TIP3   OH210225   1.533   1.154   4.472
 3423TIP3    H110226   1.544   1.181   4.381
 3423TIP3    H210227   1.542   1.059   4.470
 3424TIP3   OH210228   3.903   3.703   6.037
 3424TIP3    H110229   3.979   3.741   6.082
 3424TIP3    H210230   3.921   3.713   5.944
 3425TIP3   OH210231   7.866   4.466   2.772
 3425TIP3    H110232   7.835   4.542   2.722
 3425TIP3    H210233   7.900   4.504   2.853
 3426TIP3   OH210234   3.890   2.133   2.863
 3426TIP3    H110235   3.917   2.044   2.887
 3426TIP3    H210236   3.960   2.164   2.806
 3427TIP3   OH210237   2.113   0.667   3.746
 3427TIP3    H110238   2.158   0.606   3.688
 3427TIP3    H210239   2.047   0.709   3.691
 3428TIP3   OH210240   4.503   5.204   4.833
 3428TIP3    H110241   4.450   5.232   4.908
 3428TIP3    H210242   4.527   5.285   4.789
 3429TIP3   OH210243   4.458   0.392   5.126
 3429TIP3    H110244   4.542   0.359   5.093
 3429TIP3    H210245   4.476   0.422   5.214
 3430TIP3   OH210246   3.075   0.914   1.459
 3430TIP3    H110247   3.124   0.887   1.536
 3430TIP3    H210248   3.058   0.832   1.412
 3431TIP3   OH210249   7.048   5.338   3.480
 3431TIP3    H110250   7.050   5.296   3.566
 3431TIP3    H210251   6.959   5.371   3.472
 3432TIP3   OH210252   7.122   4.575   1.582
 3432TIP3    H110253   7.073   4.652   1.555
 3432TIP3    H210254   7.125   4.520   1.504
 3433TIP3   OH210255   4.272   5.423   4.754
 3433TIP3    H110256   4.343   5.482   4.777
 3433TIP3    H210257   4.214   5.476   4.699
 3434TIP3   OH210258   5.048   6.057   1.049
 3434TIP3    H110259   5.017   6.115   1.119
 3434TIP3    H210260   5.068   6.116   0.977
 3435TIP3   OH210261   2.759   5.961   2.220
 3435TIP3    H110262   2.719   5.874   2.232
 3435TIP3    H210263   2.853   5.945   2.228
 3436TIP3   OH210264   0.484   6.786   1.592
 3436TIP3    H110265   0.440   6.870   1.603
 3436TIP3    H210266   0.490   6.774   1.497
 3437TIP3   OH210267   4.723   5.495   3.530
 3437TIP3    H110268   4.750   5.512   3.440
 3437TIP3    H210269   4.742   5.576   3.577
 3438TIP3   OH210270   1.292   1.667   0.804
 3438TIP3    H110271   1.198   1.664   0.824
 3438TIP3    H210272   1.335   1.658   0.890
 3439TIP3   OH210273   0.299   6.716   0.568
 3439TIP3    H110274   0.369   6.654   0.547
 3439TIP3    H210275   0.219   6.668   0.552
 3440TIP3   OH210276   4.699   7.464   0.731
 3440TIP3    H110277   4.750   7.535   0.692
 3440TIP3    H210278   4.615   7.468   0.686
 3441TIP3   OH210279   1.943   2.323   2.417
 3441TIP3    H110280   1.902   2.353   2.498
 3441TIP3    H210281   2.022   2.277   2.445
 3442TIP3   OH210282   8.144   2.671   1.141
 3442TIP3    H110283   8.049   2.676   1.153
 3442TIP3    H210284   8.157   2.592   1.087
 3443TIP3   OH210285   1.589   6.485   0.541
 3443TIP3    H110286   1.554   6.440   0.618
 3443TIP3    H210287   1.618   6.415   0.483
 3444TIP3   OH210288   0.670   2.062   5.210
 3444TIP3    H110289   0.683   2.102   5.124
 3444TIP3    H210290   0.702   2.127   5.272
 3445TIP3   OH210291   2.905   5.205   2.940
 3445TIP3    H110292   2.870   5.264   3.006
 3445TIP3    H210293   2.984   5.168   2.980
 3446TIP3   OH210294   6.706   3.121   0.057
 3446TIP3    H110295   6.793   3.119   0.096
 3446TIP3    H210296   6.687   3.214   0.046
 3447TIP3   OH210297   3.821   3.387   1.849
 3447TIP3    H110298   3.860   3.354   1.768
 3447TIP3    H210299   3.764   3.316   1.879
 3448TIP3   OH210300   8.135   3.726   5.812
 3448TIP3    H110301   8.193   3.654   5.787
 3448TIP3    H210302   8.193   3.791   5.851
 3449TIP3   OH210303   0.107   5.383   5.250
 3449TIP3    H110304   0.040   5.450   5.239
 3449TIP3    H210305   0.185   5.418   5.206
 3450TIP3   OH210306   4.053   0.279   1.992
 3450TIP3    H110307   3.972   0.328   1.973
 3450TIP3    H210308   4.069   0.228   1.912
 3451TIP3   OH210309   2.617   1.804   4.717
 3451TIP3    H110310   2.548   1.862   4.750
 3451TIP3    H210311   2.658   1.770   4.797
 3452TIP3   OH210312   5.090   5.610  -0.041
 3452TIP3    H110313   5.112   5.703  -0.034
 3452TIP3    H210314   5.057   5.587   0.046
 3453TIP3   OH210315   7.492   1.096   3.669
 3453TIP3    H110316   7.552   1.031   3.705
 3453TIP3    H210317   7.549   1.160   3.626
 3454TIP3   OH210318   0.380   4.078   3.755
 3454TIP3    H110319   0.438   4.153   3.766
 3454TIP3    H210320   0.399   4.045   3.668
 3455TIP3   OH210321   1.396   1.936   3.352
 3455TIP3    H110322   1.448   2.000   3.400
 3455TIP3    H210323   1.333   1.989   3.302
 3456TIP3   OH210324   2.737   6.212   2.102
 3456TIP3    H110325   2.738   6.137   2.161
 3456TIP3    H210326   2.827   6.219   2.070
 3457TIP3   OH210327   3.072   6.131   6.028
 3457TIP3    H110328   3.071   6.195   6.099
 3457TIP3    H210329   3.074   6.046   6.072
 3458TIP3   OH210330   0.684   4.183   0.423
 3458TIP3    H110331   0.597   4.223   0.428
 3458TIP3    H210332   0.742   4.248   0.461
 3459TIP3   OH210333   5.215   7.334   1.639
 3459TIP3    H110334   5.226   7.303   1.549
 3459TIP3    H210335   5.205   7.254   1.691
 3460TIP3   OH210336   7.559   5.611   5.552
 3460TIP3    H110337   7.613   5.688   5.571
 3460TIP3    H210338   7.475   5.629   5.595
 3461TIP3   OH210339   7.434   7.266   1.895
 3461TIP3    H110340   7.388   7.186   1.920
 3461TIP3    H210341   7.369   7.317   1.847
 3462TIP3   OH210342   8.260   7.119   3.524
 3462TIP3    H110343   8.234   7.204   3.489
 3462TIP3    H210344   8.247   7.058   3.452
 3463TIP3   OH210345   4.058   5.348   1.923
 3463TIP3    H110346   4.069   5.378   1.833
 3463TIP3    H210347   3.980   5.292   1.920
 3464TIP3   OH210348   1.658   2.127   1.550
 3464TIP3    H110349   1.677   2.033   1.553
 3464TIP3    H210350   1.582   2.135   1.492
 3465TIP3   OH210351   1.808   7.485   1.222
 3465TIP3    H110352   1.748   7.489   1.296
 3465TIP3    H210353   1.756   7.449   1.151
 3466TIP3   OH210354   2.113   4.404   5.384
 3466TIP3    H110355   2.209   4.409   5.379
 3466TIP3    H210356   2.094   4.310   5.385
 3467TIP3   OH210357   7.879   2.497   4.573
 3467TIP3    H110358   7.889   2.537   4.660
 3467TIP3    H210359   7.857   2.406   4.591
 3468TIP3   OH210360   5.497   5.862   4.518
 3468TIP3    H110361   5.543   5.881   4.600
 3468TIP3    H210362   5.435   5.934   4.508
 3469TIP3   OH210363   0.955   7.399   1.705
 3469TIP3    H110364   1.029   7.394   1.765
 3469TIP3    H210365   0.924   7.308   1.698
 3470TIP3   OH210366   2.365   2.658   6.120
 3470TIP3    H110367   2.409   2.588   6.169
 3470TIP3    H210368   2.272   2.646   6.139
 3471TIP3   OH210369   8.274   3.663   6.217
 3471TIP3    H110370   8.276   3.756   6.196
 3471TIP3    H210371   8.236   3.659   6.305
 3472TIP3   OH210372   1.784   2.486   4.407
 3472TIP3    H110373   1.794   2.407   4.354
 3472TIP3    H210374   1.754   2.553   4.345
 3473TIP3   OH210375   6.100   2.494   2.443
 3473TIP3    H110376   6.033   2.555   2.411
 3473TIP3    H210377   6.128   2.447   2.365
 3474TIP3   OH210378   5.190   4.088   5.663
 3474TIP3    H110379   5.100   4.055   5.673
 3474TIP3    H210380   5.217   4.112   5.751
 3475TIP3   OH210381   4.319   4.843   0.523
 3475TIP3    H110382   4.412   4.833   0.503
 3475TIP3    H210383   4.277   4.770   0.478
 3476TIP3   OH210384   0.518   6.260   6.465
 3476TIP3    H110385   0.447   6.255   6.529
 3476TIP3    H210386   0.478   6.303   6.389
 3477TIP3   OH210387   7.863   7.300   3.252
 3477TIP3    H110388   7.824   7.377   3.212
 3477TIP3    H210389   7.872   7.322   3.344
 3478TIP3   OH210390   7.881   1.838   5.631
 3478TIP3    H110391   7.976   1.853   5.636
 3478TIP3    H210392   7.860   1.792   5.713
 3479TIP3   OH210393   7.078   1.473   3.878
 3479TIP3    H110394   7.084   1.399   3.817
 3479TIP3    H210395   7.063   1.432   3.963
 3480TIP3   OH210396   2.190   2.846   5.760
 3480TIP3    H110397   2.101   2.880   5.762
 3480TIP3    H210398   2.217   2.852   5.669
 3481TIP3   OH210399   5.075   7.800   5.278
 3481TIP3    H110400   5.067   7.880   5.331
 3481TIP3    H210401   4.994   7.752   5.296
 3482TIP3   OH210402   6.396   0.924   3.186
 3482TIP3    H110403   6.463   0.898   3.123
 3482TIP3    H210404   6.359   0.842   3.217
 3483TIP3   OH210405   3.802   3.050   0.767
 3483TIP3    H110406   3.823   3.081   0.679
 3483TIP3    H210407   3.775   3.128   0.814
 3484TIP3   OH210408   1.901   4.607   3.996
 3484TIP3    H110409   1.806   4.610   3.984
 3484TIP3    H210410   1.916   4.527   4.045
 3485TIP3   OH210411   4.949   3.958   2.038
 3485TIP3    H110412   4.934   3.874   1.994
 3485TIP3    H210413   5.038   3.952   2.072
 3486TIP3   OH210414   3.612   2.536   3.078
 3486TIP3    H110415   3.541   2.504   3.133
 3486TIP3    H210416   3.662   2.457   3.056
 3487TIP3   OH210417   5.093   7.602   5.547
 3487TIP3    H110418   5.158   7.663   5.513
 3487TIP3    H210419   5.024   7.600   5.481
 3488TIP3   OH210420   7.436   0.287   4.476
 3488TIP3    H110421   7.427   0.356   4.542
 3488TIP3    H210422   7.528   0.261   4.480
 3489TIP3   OH210423   0.568   7.770   0.268
 3489TIP3    H110424   0.482   7.804   0.292
 3489TIP3    H210425   0.563   7.756   0.174
 3490TIP3   OH210426   2.696   1.566   2.210
 3490TIP3    H110427   2.783   1.585   2.176
 3490TIP3    H210428   2.666   1.491   2.159
 3491TIP3   OH210429   2.773   1.180   2.617
 3491TIP3    H110430   2.766   1.254   2.556
 3491TIP3    H210431   2.805   1.108   2.563
 3492TIP3   OH210432   4.639   2.216   1.912
 3492TIP3    H110433   4.570   2.152   1.930
 3492TIP3    H210434   4.636   2.276   1.987
 3493TIP3   OH210435   5.738   5.389   2.816
 3493TIP3    H110436   5.676   5.378   2.744
 3493TIP3    H210437   5.823   5.371   2.778
 3494TIP3   OH210438   0.400   7.373   5.002
 3494TIP3    H110439   0.342   7.446   5.025
 3494TIP3    H210440   0.432   7.340   5.086
 3495TIP3   OH210441   8.304   3.244   5.358
 3495TIP3    H110442   8.215   3.256   5.324
 3495TIP3    H210443   8.297   3.261   5.452
 3496TIP3   OH210444   0.274   2.368   6.201
 3496TIP3    H110445   0.248   2.426   6.130
 3496TIP3    H210446   0.349   2.413   6.242
 3497TIP3   OH210447   6.727   5.802   4.828
 3497TIP3    H110448   6.733   5.893   4.856
 3497TIP3    H210449   6.779   5.798   4.747
 3498TIP3   OH210450   4.466   0.582   6.022
 3498TIP3    H110451   4.438   0.558   6.111
 3498TIP3    H210452   4.386   0.576   5.970
 3499TIP3   OH210453   8.093   4.026   0.981
 3499TIP3    H110454   8.164   3.989   1.033
 3499TIP3    H210455   8.057   3.952   0.932
 3500TIP3   OH210456   2.110   6.101   3.204
 3500TIP3    H110457   2.130   6.037   3.272
 3500TIP3    H210458   2.185   6.161   3.205
 3501TIP3   OH210459   4.476   6.079   3.368
 3501TIP3    H110460   4.460   6.048   3.457
 3501TIP3    H210461   4.401   6.136   3.349
 3502TIP3   OH210462   7.784   5.539   2.165
 3502TIP3    H110463   7.836   5.501   2.236
 3502TIP3    H210464   7.695   5.507   2.180
 3503TIP3   OH210465   8.075   3.572   2.532
 3503TIP3    H110466   8.110   3.597   2.447
 3503TIP3    H210467   8.126   3.622   2.595
 3504TIP3   OH210468   0.761   6.305   5.718
 3504TIP3    H110469   0.832   6.360   5.685
 3504TIP3    H210470   0.682   6.357   5.703
 3505TIP3   OH210471   6.399   7.438   3.067
 3505TIP3    H110472   6.388   7.398   3.153
 3505TIP3    H210473   6.326   7.403   3.015
 3506TIP3   OH210474   2.739   4.703   0.103
 3506TIP3    H110475   2.741   4.763   0.177
 3506TIP3    H210476   2.828   4.704   0.069
 3507TIP3   OH210477   3.020   7.813   3.641
 3507TIP3    H110478   2.991   7.726   3.612
 3507TIP3    H210479   3.092   7.835   3.583
 3508TIP3   OH210480   5.476   2.719   6.128
 3508TIP3    H110481   5.462   2.668   6.208
 3508TIP3    H210482   5.565   2.697   6.101
 3509TIP3   OH210483   3.734   2.070   6.305
 3509TIP3    H110484   3.816   2.091   6.349
 3509TIP3    H210485   3.738   1.976   6.290
 3510TIP3   OH210486   4.643   5.640   4.670
 3510TIP3    H110487   4.663   5.604   4.756
 3510TIP3    H210488   4.689   5.581   4.609
 3511TIP3   OH210489   1.579   1.167   0.643
 3511TIP3    H110490   1.596   1.130   0.557
 3511TIP3    H210491   1.542   1.254   0.626
 3512TIP3   OH210492   6.990   4.893   6.365
 3512TIP3    H110493   7.080   4.872   6.389
 3512TIP3    H210494   6.981   4.987   6.381
 3513TIP3   OH210495   2.358   0.135   0.508
 3513TIP3    H110496   2.276   0.148   0.557
 3513TIP3    H210497   2.426   0.140   0.575
 3514TIP3   OH210498   4.563   2.221   4.183
 3514TIP3    H110499   4.609   2.169   4.117
 3514TIP3    H210500   4.622   2.222   4.258
 3515TIP3   OH210501   1.068   6.659   0.472
 3515TIP3    H110502   1.149   6.705   0.495
 3515TIP3    H210503   1.064   6.586   0.535
 3516TIP3   OH210504   1.007   4.868   4.689
 3516TIP3    H110505   0.926   4.883   4.738
 3516TIP3    H210506   0.989   4.902   4.602
 3517TIP3   OH210507   7.808   1.084   3.532
 3517TIP3    H110508   7.743   1.133   3.482
 3517TIP3    H210509   7.831   1.142   3.604
 3518TIP3   OH210510   0.000   6.753   0.299
 3518TIP3    H110511   0.011   6.748   0.204
 3518TIP3    H210512  -0.021   6.664   0.325
 3519TIP3   OH210513   4.561   3.509   4.741
 3519TIP3    H110514   4.656   3.502   4.728
 3519TIP3    H210515   4.544   3.460   4.821
 3520TIP3   OH210516   7.208   6.495   5.606
 3520TIP3    H110517   7.184   6.494   5.513
 3520TIP3    H210518   7.302   6.513   5.606
 3521TIP3   OH210519   3.131   6.937   3.156
 3521TIP3    H110520   3.099   7.009   3.211
 3521TIP3    H210521   3.054   6.882   3.142
 3522TIP3   OH210522   0.465   5.133   2.102
 3522TIP3    H110523   0.455   5.080   2.023
 3522TIP3    H210524   0.535   5.091   2.151
 3523TIP3   OH210525   3.962   7.815   0.612
 3523TIP3    H110526   4.013   7.789   0.689
 3523TIP3    H210527   3.944   7.908   0.625
 3524TIP3   OH210528   2.462   0.195   6.462
 3524TIP3    H110529   2.446   0.159   6.549
 3524TIP3    H210530   2.380   0.181   6.415
 3525TIP3   OH210531   2.739   6.217   6.175
 3525TIP3    H110532   2.835   6.223   6.180
 3525TIP3    H210533   2.711   6.301   6.139
 3526TIP3   OH210534   7.920   4.636   4.432
 3526TIP3    H110535   7.974   4.713   4.416
 3526TIP3    H210536   7.836   4.657   4.392
 3527TIP3   OH210537   5.741   7.141   0.914
 3527TIP3    H110538   5.661   7.145   0.862
 3527TIP3    H210539   5.713   7.102   0.997
 3528TIP3   OH210540   1.792   4.781   1.048
 3528TIP3    H110541   1.818   4.706   0.994
 3528TIP3    H210542   1.822   4.858   0.999
 3529TIP3   OH210543   5.473   5.960   2.643
 3529TIP3    H110544   5.378   5.950   2.635
 3529TIP3    H210545   5.488   5.966   2.738
 3530TIP3   OH210546   2.246   2.613   1.783
 3530TIP3    H110547   2.311   2.584   1.719
 3530TIP3    H210548   2.170   2.638   1.729
 3531TIP3   OH210549   1.195   4.535   1.212
 3531TIP3    H110550   1.124   4.500   1.266
 3531TIP3    H210551   1.183   4.493   1.127
 3532TIP3   OH210552   6.082   7.572   3.155
 3532TIP3    H110553   6.136   7.639   3.112
 3532TIP3    H210554   6.030   7.621   3.219
 3533TIP3   OH210555   5.163   4.593   1.652
 3533TIP3    H110556   5.146   4.588   1.746
 3533TIP3    H210557   5.140   4.683   1.628
 3534TIP3   OH210558   2.898   2.259   5.951
 3534TIP3    H110559   2.873   2.170   5.977
 3534TIP3    H210560   2.848   2.275   5.871
 3535TIP3   OH210561   6.490   1.147   0.317
 3535TIP3    H110562   6.406   1.169   0.277
 3535TIP3    H210563   6.489   1.194   0.401
 3536TIP3   OH210564   4.213   4.242   4.299
 3536TIP3    H110565   4.148   4.263   4.232
 3536TIP3    H210566   4.269   4.175   4.259
 3537TIP3   OH210567   6.140   1.990   0.225
 3537TIP3    H110568   6.117   1.915   0.279
 3537TIP3    H210569   6.148   1.954   0.136
 3538TIP3   OH210570   3.796   6.499   3.595
 3538TIP3    H110571   3.825   6.408   3.591
 3538TIP3    H210572   3.768   6.519   3.506
 3539TIP3   OH210573   3.448   2.724   1.025
 3539TIP3    H110574   3.512   2.653   1.034
 3539TIP3    H210575   3.493   2.801   1.059
 3540TIP3   OH210576   5.811   1.776   3.772
 3540TIP3    H110577   5.776   1.852   3.818
 3540TIP3    H210578   5.747   1.758   3.703
 3541TIP3   OH210579   3.411   5.177   0.932
 3541TIP3    H110580   3.502   5.159   0.907
 3541TIP3    H210581   3.415   5.192   1.026
 3542TIP3   OH210582   7.471   4.854   1.653
 3542TIP3    H110583   7.391   4.808   1.676
 3542TIP3    H210584   7.493   4.906   1.730
 3543TIP3   OH210585   7.847   3.173   6.531
 3543TIP3    H110586   7.784   3.205   6.468
 3543TIP3    H210587   7.869   3.084   6.501
 3544TIP3   OH210588   1.686   6.148   1.310
 3544TIP3    H110589   1.782   6.150   1.316
 3544TIP3    H210590   1.656   6.160   1.400
 3545TIP3   OH210591   0.028   2.478   1.955
 3545TIP3    H110592   0.124   2.474   1.949
 3545TIP3    H210593   0.004   2.398   2.002
 3546TIP3   OH210594   6.296   2.864   3.306
 3546TIP3    H110595   6.382   2.832   3.279
 3546TIP3    H210596   6.247   2.785   3.327
 3547TIP3   OH210597   7.754   5.755   1.963
 3547TIP3    H110598   7.696   5.775   2.036
 3547TIP3    H210599   7.730   5.666   1.937
 3548TIP3   OH210600   4.613   4.631   3.734
 3548TIP3    H110601   4.672   4.592   3.799
 3548TIP3    H210602   4.557   4.558   3.706
 3549TIP3   OH210603   7.730   1.166   0.552
 3549TIP3    H110604   7.737   1.258   0.527
 3549TIP3    H210605   7.763   1.118   0.476
 3550TIP3   OH210606   5.463   7.192   3.141
 3550TIP3    H110607   5.441   7.215   3.051
 3550TIP3    H210608   5.491   7.275   3.181
 3551TIP3   OH210609   3.633   7.573   3.972
 3551TIP3    H110610   3.674   7.640   3.917
 3551TIP3    H210611   3.706   7.521   4.005
 3552TIP3   OH210612   0.115   0.360   0.107
 3552TIP3    H110613   0.202   0.399   0.110
 3552TIP3    H210614   0.069   0.408   0.038
 3553TIP3   OH210615   2.382   3.997   2.465
 3553TIP3    H110616   2.321   3.923   2.471
 3553TIP3    H210617   2.468   3.957   2.476
 3554TIP3   OH210618   3.554   3.801   5.392
 3554TIP3    H110619   3.595   3.885   5.373
 3554TIP3    H210620   3.573   3.785   5.485
 3555TIP3   OH210621   1.040   3.961   2.116
 3555TIP3    H110622   1.019   3.985   2.206
 3555TIP3    H210623   1.121   3.911   2.123
 3556TIP3   OH210624   5.174   6.352   2.662
 3556TIP3    H110625   5.251   6.409   2.653
 3556TIP3    H210626   5.110   6.407   2.707
 3557TIP3   OH210627   1.152   3.096   0.184
 3557TIP3    H110628   1.185   3.019   0.231
 3557TIP3    H210629   1.058   3.094   0.198
 3558TIP3   OH210630   1.078   0.582   6.419
 3558TIP3    H110631   1.109   0.564   6.507
 3558TIP3    H210632   1.126   0.661   6.392
 3559TIP3   OH210633   8.066   5.817   4.917
 3559TIP3    H110634   8.150   5.803   4.961
 3559TIP3    H210635   8.004   5.765   4.967
 3560TIP3   OH210636   2.254   2.679   0.336
 3560TIP3    H110637   2.298   2.764   0.335
 3560TIP3    H210638   2.304   2.626   0.399
 3561TIP3   OH210639   4.349   1.115   1.023
 3561TIP3    H110640   4.409   1.188   1.009
 3561TIP3    H210641   4.262   1.155   1.018
 3562TIP3   OH210642   7.053   3.511   2.340
 3562TIP3    H110643   7.127   3.468   2.297
 3562TIP3    H210644   7.089   3.547   2.421
 3563TIP3   OH210645   3.443   0.217   1.641
 3563TIP3    H110646   3.357   0.235   1.679
 3563TIP3    H210647   3.460   0.125   1.662
 3564TIP3   OH210648   6.162   7.751   0.461
 3564TIP3    H110649   6.071   7.775   0.448
 3564TIP3    H210650   6.201   7.755   0.373
 3565TIP3   OH210651   2.740   2.278   2.967
 3565TIP3    H110652   2.732   2.199   3.020
 3565TIP3    H210653   2.650   2.306   2.951
 3566TIP3   OH210654   0.675   3.906   0.468
 3566TIP3    H110655   0.675   3.999   0.447
 3566TIP3    H210656   0.685   3.863   0.383
 3567TIP3   OH210657   4.453   0.361   6.610
 3567TIP3    H110658   4.414   0.279   6.579
 3567TIP3    H210659   4.437   0.361   6.704
 3568TIP3   OH210660   4.145   1.365   6.325
 3568TIP3    H110661   4.057   1.335   6.301
 3568TIP3    H210662   4.137   1.387   6.418
 3569TIP3   OH210663   2.863   5.607   2.722
 3569TIP3    H110664   2.929   5.582   2.658
 3569TIP3    H210665   2.807   5.669   2.675
 3570TIP3   OH210666   4.001   2.550   2.577
 3570TIP3    H110667   4.056   2.605   2.633
 3570TIP3    H210668   3.996   2.598   2.494
 3571TIP3   OH210669   1.897   2.975   0.326
 3571TIP3    H110670   1.902   2.937   0.414
 3571TIP3    H210671   1.850   2.909   0.274
 3572TIP3   OH210672   0.375   0.917   0.641
 3572TIP3    H110673   0.337   0.844   0.593
 3572TIP3    H210674   0.301   0.955   0.689
 3573TIP3   OH210675   2.423   5.304   2.178
 3573TIP3    H110676   2.342   5.263   2.148
 3573TIP3    H210677   2.481   5.301   2.101
 3574TIP3   OH210678   7.282   0.411   0.416
 3574TIP3    H110679   7.279   0.322   0.449
 3574TIP3    H210680   7.374   0.428   0.399
 3575TIP3   OH210681   4.675   5.620   2.681
 3575TIP3    H110682   4.635   5.696   2.639
 3575TIP3    H210683   4.764   5.648   2.702
 3576TIP3   OH210684   4.190   2.380   4.606
 3576TIP3    H110685   4.237   2.451   4.650
 3576TIP3    H210686   4.233   2.371   4.521
 3577TIP3   OH210687   3.061   2.707   1.040
 3577TIP3    H110688   3.069   2.626   0.990
 3577TIP3    H210689   3.131   2.763   1.006
 3578TIP3   OH210690   2.131   3.225   2.690
 3578TIP3    H110691   2.128   3.307   2.740
 3578TIP3    H210692   2.135   3.253   2.598
 3579TIP3   OH210693   3.746   3.683   1.911
 3579TIP3    H110694   3.771   3.602   1.868
 3579TIP3    H210695   3.772   3.672   2.002
 3580TIP3   OH210696   2.998   0.419   1.616
 3580TIP3    H110697   3.034   0.502   1.649
 3580TIP3    H210698   3.010   0.357   1.688
 3581TIP3   OH210699   3.213   0.314   0.507
 3581TIP3    H110700   3.244   0.296   0.418
 3581TIP3    H210701   3.178   0.403   0.502
 3582TIP3   OH210702   4.954   2.541   6.052
 3582TIP3    H110703   5.019   2.590   6.102
 3582TIP3    H210704   5.005   2.474   6.005
 3583TIP3   OH210705   6.443   5.052   0.989
 3583TIP3    H110706   6.520   5.086   1.035
 3583TIP3    H210707   6.396   5.002   1.055
 3584TIP3   OH210708   1.679   0.468   4.802
 3584TIP3    H110709   1.585   0.481   4.815
 3584TIP3    H210710   1.709   0.426   4.882
 3585TIP3   OH210711   0.560   7.108   3.797
 3585TIP3    H110712   0.492   7.141   3.738
 3585TIP3    H210713   0.612   7.185   3.820
 3586TIP3   OH210714   1.375   2.900   6.325
 3586TIP3    H110715   1.368   2.978   6.270
 3586TIP3    H210716   1.295   2.900   6.377
 3587TIP3   OH210717   4.455   4.530   2.885
 3587TIP3    H110718   4.450   4.453   2.942
 3587TIP3    H210719   4.442   4.604   2.944
 3588TIP3   OH210720   7.140   1.367   2.823
 3588TIP3    H110721   7.086   1.303   2.870
 3588TIP3    H210722   7.228   1.353   2.857
 3589TIP3   OH210723   0.953   2.854   1.938
 3589TIP3    H110724   1.011   2.929   1.949
 3589TIP3    H210725   1.012   2.779   1.931
 3590TIP3   OH210726   6.690   2.330   2.331
 3590TIP3    H110727   6.699   2.286   2.415
 3590TIP3    H210728   6.770   2.382   2.322
 3591TIP3   OH210729   5.970   6.510   5.965
 3591TIP3    H110730   6.020   6.508   6.047
 3591TIP3    H210731   6.016   6.449   5.907
 3592TIP3   OH210732   2.668   0.701   6.039
 3592TIP3    H110733   2.666   0.626   5.979
 3592TIP3    H210734   2.757   0.702   6.073
 3593TIP3   OH210735   0.756   5.447   5.185
 3593TIP3    H110736   0.700   5.521   5.205
 3593TIP3    H210737   0.707   5.371   5.217
 3594TIP3   OH210738   4.643   7.362   1.630
 3594TIP3    H110739   4.627   7.280   1.676
 3594TIP3    H210740   4.703   7.339   1.559
 3595TIP3   OH210741   4.317   6.753   5.149
 3595TIP3    H110742   4.388   6.704   5.191
 3595TIP3    H210743   4.239   6.730   5.199
 3596TIP3   OH210744   6.920   4.157   4.324
 3596TIP3    H110745   6.833   4.147   4.363
 3596TIP3    H210746   6.942   4.249   4.341
 3597TIP3   OH210747   8.057   2.121   4.083
 3597TIP3    H110748   8.136   2.168   4.109
 3597TIP3    H210749   8.089   2.048   4.030
 3598TIP3   OH210750   4.706   1.035   1.411
 3598TIP3    H110751   4.624   1.011   1.368
 3598TIP3    H210752   4.716   1.129   1.395
 3599TIP3   OH210753   5.530   1.037   5.046
 3599TIP3    H110754   5.438   1.013   5.038
 3599TIP3    H210755   5.565   0.977   5.112
 3600TIP3   OH210756   6.126   3.260   2.216
 3600TIP3    H110757   6.133   3.265   2.312
 3600TIP3    H210758   6.180   3.332   2.184
 3601TIP3   OH210759   6.304   1.071   0.757
 3601TIP3    H110760   6.379   1.125   0.733
 3601TIP3    H210761   6.247   1.131   0.806
 3602TIP3   OH210762   3.165   2.042   4.115
 3602TIP3    H110763   3.147   1.954   4.082
 3602TIP3    H210764   3.081   2.087   4.111
 3603TIP3   OH210765   1.109   1.182   4.173
 3603TIP3    H110766   1.093   1.190   4.267
 3603TIP3    H210767   1.025   1.153   4.137
 3604TIP3   OH210768   3.196   5.920   6.437
 3604TIP3    H110769   3.220   6.012   6.431
 3604TIP3    H210770   3.269   5.880   6.486
 3605TIP3   OH210771   0.350   0.014   6.526
 3605TIP3    H110772   0.337   0.103   6.559
 3605TIP3    H210773   0.429  -0.017   6.571
 3606TIP3   OH210774   0.651   1.195   0.836
 3606TIP3    H110775   0.739   1.210   0.800
 3606TIP3    H210776   0.631   1.105   0.813
 3607TIP3   OH210777   7.355   5.109   4.885
 3607TIP3    H110778   7.277   5.054   4.892
 3607TIP3    H210779   7.351   5.166   4.962
 3608TIP3   OH210780   0.695   6.941   3.307
 3608TIP3    H110781   0.633   6.901   3.369
 3608TIP3    H210782   0.759   6.872   3.290
 3609TIP3   OH210783   7.822   0.803   3.563
 3609TIP3    H110784   7.826   0.898   3.576
 3609TIP3    H210785   7.773   0.791   3.482
 3610TIP3   OH210786   2.834   4.179   0.440
 3610TIP3    H110787   2.894   4.104   0.446
 3610TIP3    H210788   2.878   4.241   0.382
 3611TIP3   OH210789   2.684   0.615   3.907
 3611TIP3    H110790   2.732   0.697   3.898
 3611TIP3    H210791   2.649   0.616   3.996
 3612TIP3   OH210792   6.705   0.724   1.566
 3612TIP3    H110793   6.773   0.739   1.500
 3612TIP3    H210794   6.730   0.641   1.608
 3613TIP3   OH210795   6.371   1.471   6.366
 3613TIP3    H110796   6.380   1.531   6.292
 3613TIP3    H210797   6.426   1.510   6.434
 3614TIP3   OH210798   6.598   7.446   3.864
 3614TIP3    H110799   6.602   7.446   3.960
 3614TIP3    H210800   6.639   7.363   3.839
 3615TIP3   OH210801   7.135   7.540   5.173
 3615TIP3    H110802   7.187   7.505   5.245
 3615TIP3    H210803   7.093   7.463   5.134
 3616TIP3   OH210804   0.945   4.347   1.321
 3616TIP3    H110805   0.926   4.439   1.300
 3616TIP3    H210806   0.859   4.306   1.328
 3617TIP3   OH210807   3.819   1.422   2.377
 3617TIP3    H110808   3.895   1.399   2.323
 3617TIP3    H210809   3.804   1.345   2.432
 3618TIP3   OH210810   1.693   3.650   4.101
 3618TIP3    H110811   1.737   3.603   4.031
 3618TIP3    H210812   1.658   3.729   4.059
 3619TIP3   OH210813   5.487   2.850   4.386
 3619TIP3    H110814   5.401   2.814   4.363
 3619TIP3    H210815   5.493   2.838   4.481
 3620TIP3   OH210816   1.046   2.555   2.940
 3620TIP3    H110817   1.056   2.597   3.026
 3620TIP3    H210818   1.133   2.562   2.900
 3621TIP3   OH210819   5.608   1.535   0.140
 3621TIP3    H110820   5.696   1.557   0.110
 3621TIP3    H210821   5.622   1.475   0.213
 3622TIP3   OH210822   0.406   2.652   0.189
 3622TIP3    H110823   0.402   2.703   0.109
 3622TIP3    H210824   0.323   2.671   0.234
 3623TIP3   OH210825   7.016   1.774   1.456
 3623TIP3    H110826   6.990   1.846   1.514
 3623TIP3    H210827   7.076   1.814   1.394
 3624TIP3   OH210828   3.794   5.651   3.368
 3624TIP3    H110829   3.866   5.673   3.310
 3624TIP3    H210830   3.736   5.727   3.365
 3625TIP3   OH210831   1.916   4.356   5.909
 3625TIP3    H110832   1.949   4.341   5.820
 3625TIP3    H210833   1.919   4.451   5.920
 3626TIP3   OH210834   0.607   0.215   3.242
 3626TIP3    H110835   0.522   0.230   3.282
 3626TIP3    H210836   0.588   0.198   3.150
 3627TIP3   OH210837   7.029   0.282   5.927
 3627TIP3    H110838   6.947   0.243   5.955
 3627TIP3    H210839   7.011   0.376   5.922
 3628TIP3   OH210840   1.262   1.491   4.375
 3628TIP3    H110841   1.217   1.498   4.459
 3628TIP3    H210842   1.299   1.402   4.374
 3629TIP3   OH210843   6.050   4.056   1.632
 3629TIP3    H110844   6.131   4.062   1.684
 3629TIP3    H210845   6.051   3.967   1.597
 3630TIP3   OH210846   2.189   7.269   1.846
 3630TIP3    H110847   2.194   7.176   1.867
 3630TIP3    H210848   2.126   7.305   1.908
 3631TIP3   OH210849   0.816   1.592   2.572
 3631TIP3    H110850   0.751   1.563   2.636
 3631TIP3    H210851   0.854   1.512   2.539
 3632TIP3   OH210852   1.301   2.019   6.323
 3632TIP3    H110853   1.298   1.933   6.364
 3632TIP3    H210854   1.315   2.080   6.396
 3633TIP3   OH210855   3.347   3.111   3.496
 3633TIP3    H110856   3.420   3.170   3.517
 3633TIP3    H210857   3.389   3.035   3.456
 3634TIP3   OH210858   0.676   0.723   5.982
 3634TIP3    H110859   0.683   0.711   5.888
 3634TIP3    H210860   0.599   0.671   6.007
 3635TIP3   OH210861   0.937   1.281   5.651
 3635TIP3    H110862   0.882   1.350   5.613
 3635TIP3    H210863   0.998   1.328   5.708
 3636TIP3   OH210864   7.751   6.603   3.551
 3636TIP3    H110865   7.804   6.540   3.504
 3636TIP3    H210866   7.671   6.612   3.498
 3637TIP3   OH210867   0.381   0.316   3.956
 3637TIP3    H110868   0.391   0.380   4.027
 3637TIP3    H210869   0.467   0.276   3.947
 3638TIP3   OH210870   2.465   3.779   3.486
 3638TIP3    H110871   2.560   3.784   3.497
 3638TIP3    H210872   2.436   3.870   3.479
 3639TIP3   OH210873   1.754   2.484   2.611
 3639TIP3    H110874   1.705   2.499   2.692
 3639TIP3    H210875   1.838   2.526   2.627
 3640TIP3   OH210876   5.879   6.780   3.254
 3640TIP3    H110877   5.935   6.731   3.314
 3640TIP3    H210878   5.897   6.872   3.274
 3641TIP3   OH210879   0.637   7.402   5.732
 3641TIP3    H110880   0.688   7.360   5.663
 3641TIP3    H210881   0.651   7.496   5.719
 3642TIP3   OH210882   6.959   2.398   6.389
 3642TIP3    H110883   7.048   2.386   6.355
 3642TIP3    H210884   6.968   2.465   6.457
 3643TIP3   OH210885   6.122   5.023   2.911
 3643TIP3    H110886   6.140   4.929   2.914
 3643TIP3    H210887   6.146   5.055   2.997
 3644TIP3   OH210888   2.157   0.432   0.821
 3644TIP3    H110889   2.157   0.527   0.820
 3644TIP3    H210890   2.067   0.408   0.840
 3645TIP3   OH210891   4.515   5.286   5.795
 3645TIP3    H110892   4.445   5.241   5.749
 3645TIP3    H210893   4.595   5.256   5.753
 3646TIP3   OH210894   2.233   6.622   5.470
 3646TIP3    H110895   2.208   6.646   5.559
 3646TIP3    H210896   2.320   6.660   5.458
 3647TIP3   OH210897   2.704   0.061   2.810
 3647TIP3    H110898   2.769   0.125   2.781
 3647TIP3    H210899   2.630   0.072   2.750
 3648TIP3   OH210900   5.588   6.251   2.810
 3648TIP3    H110901   5.505   6.218   2.776
 3648TIP3    H210902   5.655   6.209   2.755
 3649TIP3   OH210903   5.064   3.529   3.701
 3649TIP3    H110904   5.081   3.435   3.701
 3649TIP3    H210905   5.123   3.564   3.767
 3650TIP3   OH210906   1.840   4.262   5.422
 3650TIP3    H110907   1.920   4.223   5.458
 3650TIP3    H210908   1.833   4.225   5.334
 3651TIP3   OH210909   7.594   7.583   6.539
 3651TIP3    H110910   7.559   7.635   6.612
 3651TIP3    H210911   7.632   7.506   6.580
 3652TIP3   OH210912   0.496   2.423   4.750
 3652TIP3    H110913   0.471   2.333   4.728
 3652TIP3    H210914   0.591   2.418   4.766
 3653TIP3   OH210915   1.668   7.327   6.436
 3653TIP3    H110916   1.716   7.250   6.468
 3653TIP3    H210917   1.711   7.348   6.352
 3654TIP3   OH210918   4.567   6.021   5.949
 3654TIP3    H110919   4.603   6.066   6.026
 3654TIP3    H210920   4.637   6.026   5.884
 3655TIP3   OH210921   1.101   6.185   1.822
 3655TIP3    H110922   1.179   6.216   1.868
 3655TIP3    H210923   1.043   6.153   1.892
 3656TIP3   OH210924   4.373   6.007   6.526
 3656TIP3    H110925   4.394   5.971   6.440
 3656TIP3    H210926   4.284   6.042   6.516
 3657TIP3   OH210927   3.572   7.825   4.116
 3657TIP3    H110928   3.549   7.739   4.080
 3657TIP3    H210929   3.488   7.862   4.145
 3658TIP3   OH210930   6.541   3.544   1.270
 3658TIP3    H110931   6.510   3.489   1.198
 3658TIP3    H210932   6.635   3.526   1.275
 3659TIP3   OH210933   4.019   1.508   4.541
 3659TIP3    H110934   4.103   1.532   4.579
 3659TIP3    H210935   3.955   1.526   4.611
 3660TIP3   OH210936   3.352   3.753   0.477
 3660TIP3    H110937   3.280   3.754   0.413
 3660TIP3    H210938   3.334   3.678   0.533
 3661TIP3   OH210939   1.915   7.178   4.536
 3661TIP3    H110940   1.923   7.189   4.441
 3661TIP3    H210941   1.900   7.085   4.548
 3662TIP3   OH210942   2.144   7.297   1.229
 3662TIP3    H110943   2.152   7.281   1.323
 3662TIP3    H210944   2.052   7.279   1.209
 3663TIP3   OH210945   1.760   4.812   6.263
 3663TIP3    H110946   1.677   4.856   6.280
 3663TIP3    H210947   1.816   4.879   6.224
 3664TIP3   OH210948   1.325   2.042   0.298
 3664TIP3    H110949   1.230   2.030   0.298
 3664TIP3    H210950   1.359   1.966   0.345
 3665TIP3   OH210951   5.978   2.079   4.470
 3665TIP3    H110952   5.897   2.097   4.420
 3665TIP3    H210953   5.963   2.120   4.555
 3666TIP3   OH210954   1.250   6.149   1.477
 3666TIP3    H110955   1.230   6.056   1.475
 3666TIP3    H210956   1.308   6.160   1.552
 3667TIP3   OH210957   5.819   5.079   4.240
 3667TIP3    H110958   5.763   5.082   4.317
 3667TIP3    H210959   5.765   5.036   4.173
 3668TIP3   OH210960   7.536   0.071   4.082
 3668TIP3    H110961   7.588   0.148   4.104
 3668TIP3    H210962   7.572   0.002   4.138
 3669TIP3   OH210963   7.160   4.760   4.786
 3669TIP3    H110964   7.125   4.846   4.807
 3669TIP3    H210965   7.228   4.745   4.851
 3670TIP3   OH210966   5.697   0.815   1.719
 3670TIP3    H110967   5.782   0.789   1.685
 3670TIP3    H210968   5.635   0.757   1.676
 3671TIP3   OH210969   0.849   7.010   6.162
 3671TIP3    H110970   0.934   7.032   6.122
 3671TIP3    H210971   0.855   7.044   6.251
 3672TIP3   OH210972   3.841   3.432   3.233
 3672TIP3    H110973   3.833   3.448   3.139
 3672TIP3    H210974   3.935   3.420   3.247
 3673TIP3   OH210975   5.507   4.093   0.926
 3673TIP3    H110976   5.564   4.169   0.938
 3673TIP3    H210977   5.567   4.019   0.919
 3674TIP3   OH210978   0.570   0.895   6.757
 3674TIP3    H110979   0.494   0.912   6.700
 3674TIP3    H210980   0.603   0.982   6.779
 3675TIP3   OH210981   3.371   1.147   1.332
 3675TIP3    H110982   3.276   1.163   1.332
 3675TIP3    H210983   3.395   1.148   1.425
 3676TIP3   OH210984   1.638   5.995   6.479
 3676TIP3    H110985   1.638   6.074   6.426
 3676TIP3    H210986   1.548   5.988   6.512
 3677TIP3   OH210987   5.123   2.840  -0.024
 3677TIP3    H110988   5.072   2.876   0.049
 3677TIP3    H210989   5.156   2.917  -0.070
 3678TIP3   OH210990   3.525   6.989   1.496
 3678TIP3    H110991   3.569   7.069   1.525
 3678TIP3    H210992   3.437   7.017   1.473
 3679TIP3   OH210993   7.512   1.801   4.591
 3679TIP3    H110994   7.521   1.795   4.686
 3679TIP3    H210995   7.474   1.718   4.564
 3680TIP3   OH210996   7.198   3.566   2.964
 3680TIP3    H110997   7.261   3.610   2.906
 3680TIP3    H210998   7.207   3.611   3.047
 3681TIP3   OH210999   7.316   2.413   4.749
 3681TIP3    H111000   7.287   2.359   4.675
 3681TIP3    H211001   7.409   2.427   4.732
 3682TIP3   OH211002   5.236   6.993   2.117
 3682TIP3    H111003   5.201   6.979   2.205
 3682TIP3    H211004   5.159   7.005   2.062
 3683TIP3   OH211005   1.000   4.890   0.699
 3683TIP3    H111006   0.932   4.910   0.635
 3683TIP3    H211007   0.955   4.840   0.767
 3684TIP3   OH211008   2.482   5.958   2.862
 3684TIP3    H111009   2.434   5.882   2.895
 3684TIP3    H211010   2.504   6.009   2.940
 3685TIP3   OH211011   0.135   7.453   5.067
 3685TIP3    H111012   0.173   7.366   5.077
 3685TIP3    H211013   0.179   7.506   5.133
 3686TIP3   OH211014   2.665   5.277   3.254
 3686TIP3    H111015   2.736   5.251   3.313
 3686TIP3    H211016   2.621   5.195   3.231
 3687TIP3   OH211017   3.416   3.161   6.099
 3687TIP3    H111018   3.362   3.239   6.113
 3687TIP3    H211019   3.500   3.195   6.069
 3688TIP3   OH211020   1.626   0.910   4.745
 3688TIP3    H111021   1.677   0.836   4.780
 3688TIP3    H211022   1.675   0.988   4.772
 3689TIP3   OH211023   8.057   7.651   5.250
 3689TIP3    H111024   8.144   7.614   5.266
 3689TIP3    H211025   7.996   7.584   5.280
 3690TIP3   OH211026   5.436   5.353   1.709
 3690TIP3    H111027   5.398   5.291   1.771
 3690TIP3    H211028   5.497   5.300   1.657
 3691TIP3   OH211029   6.878   4.703   0.640
 3691TIP3    H111030   6.895   4.797   0.653
 3691TIP3    H211031   6.864   4.669   0.728
 3692TIP3   OH211032   6.981   5.687   6.498
 3692TIP3    H111033   6.893   5.650   6.491
 3692TIP3    H211034   7.011   5.662   6.585
 3693TIP3   OH211035   2.132   4.911   3.647
 3693TIP3    H111036   2.065   4.976   3.670
 3693TIP3    H211037   2.215   4.956   3.662
 3694TIP3   OH211038   0.385   1.204   2.083
 3694TIP3    H111039   0.332   1.133   2.048
 3694TIP3    H211040   0.369   1.202   2.177
 3695TIP3   OH211041   1.645   3.792   0.163
 3695TIP3    H111042   1.738   3.811   0.171
 3695TIP3    H211043   1.601   3.866   0.205
 3696TIP3   OH211044   0.785   0.270   1.805
 3696TIP3    H111045   0.694   0.243   1.814
 3696TIP3    H211046   0.795   0.292   1.712
 3697TIP3   OH211047   6.861   1.511   4.924
 3697TIP3    H111048   6.853   1.603   4.950
 3697TIP3    H211049   6.801   1.464   4.981
 3698TIP3   OH211050   7.165   7.664   6.211
 3698TIP3    H111051   7.143   7.730   6.145
 3698TIP3    H211052   7.087   7.660   6.267
 3699TIP3   OH211053   0.133   4.149   4.370
 3699TIP3    H111054   0.201   4.216   4.363
 3699TIP3    H211055   0.085   4.170   4.450
 3700TIP3   OH211056   1.084   6.719   1.777
 3700TIP3    H111057   1.075   6.808   1.743
 3700TIP3    H211058   1.128   6.729   1.861
 3701TIP3   OH211059   0.724   2.124   3.865
 3701TIP3    H111060   0.663   2.167   3.806
 3701TIP3    H211061   0.811   2.146   3.831
 3702TIP3   OH211062   6.984   3.265   3.883
 3702TIP3    H111063   6.944   3.308   3.808
 3702TIP3    H211064   6.913   3.214   3.923
 3703TIP3   OH211065   5.517   0.901   2.953
 3703TIP3    H111066   5.553   0.982   2.916
 3703TIP3    H211067   5.423   0.907   2.936
 3704TIP3   OH211068   6.575   5.682   6.031
 3704TIP3    H111069   6.570   5.714   6.121
 3704TIP3    H211070   6.660   5.638   6.026
 3705TIP3   OH211071   1.231   2.615   4.621
 3705TIP3    H111072   1.187   2.699   4.606
 3705TIP3    H211073   1.292   2.633   4.692
 3706TIP3   OH211074   2.056   5.863   1.209
 3706TIP3    H111075   2.037   5.911   1.129
 3706TIP3    H211076   2.151   5.850   1.208
 3707TIP3   OH211077   0.443   6.664   5.511
 3707TIP3    H111078   0.501   6.704   5.446
 3707TIP3    H211079   0.437   6.730   5.580
 3708TIP3   OH211080   7.962   0.730   4.550
 3708TIP3    H111081   7.932   0.678   4.476
 3708TIP3    H211082   7.907   0.701   4.624
 3709TIP3   OH211083   1.786   4.553   0.477
 3709TIP3    H111084   1.726   4.504   0.533
 3709TIP3    H211085   1.737   4.633   0.455
 3710TIP3   OH211086   5.176   6.707   0.960
 3710TIP3    H111087   5.177   6.642   1.030
 3710TIP3    H211088   5.087   6.702   0.925
 3711TIP3   OH211089   5.861   4.619   6.108
 3711TIP3    H111090   5.816   4.536   6.096
 3711TIP3    H211091   5.797   4.674   6.154
 3712TIP3   OH211092   3.584   6.251   3.076
 3712TIP3    H111093   3.666   6.223   3.035
 3712TIP3    H211094   3.521   6.256   3.004
 3713TIP3   OH211095   0.674   7.205   0.571
 3713TIP3    H111096   0.610   7.138   0.545
 3713TIP3    H211097   0.711   7.172   0.653
 3714TIP3   OH211098   3.987   6.542   1.200
 3714TIP3    H111099   3.917   6.545   1.265
 3714TIP3    H211100   4.065   6.515   1.250
 3715TIP3   OH211101   6.877   6.684   0.073
 3715TIP3    H111102   6.855   6.765   0.119
 3715TIP3    H211103   6.937   6.711   0.004
 3716TIP3   OH211104   8.152   1.212   5.308
 3716TIP3    H111105   8.193   1.298   5.296
 3716TIP3    H211106   8.223   1.150   5.289
 3717TIP3   OH211107   7.227   3.859   6.600
 3717TIP3    H111108   7.212   3.764   6.599
 3717TIP3    H211109   7.153   3.894   6.649
 3718TIP3   OH211110   6.134   0.456   2.816
 3718TIP3    H111111   6.115   0.511   2.740
 3718TIP3    H211112   6.230   0.449   2.817
 3719TIP3   OH211113   2.838   5.650   0.073
 3719TIP3    H111114   2.760   5.626   0.023
 3719TIP3    H211115   2.881   5.717   0.020
 3720TIP3   OH211116   0.142   4.941   0.593
 3720TIP3    H111117   0.196   5.015   0.566
 3720TIP3    H211118   0.062   4.981   0.627
 3721TIP3   OH211119   7.855   2.837   3.881
 3721TIP3    H111120   7.944   2.814   3.855
 3721TIP3    H211121   7.803   2.823   3.803
 3722TIP3   OH211122   1.439   4.203   6.394
 3722TIP3    H111123   1.383   4.271   6.357
 3722TIP3    H211124   1.480   4.162   6.318
 3723TIP3   OH211125   7.920   6.197   1.780
 3723TIP3    H111126   7.851   6.134   1.802
 3723TIP3    H211127   7.892   6.236   1.697
 3724TIP3   OH211128   1.248   5.009   1.164
 3724TIP3    H111129   1.204   4.963   1.093
 3724TIP3    H211130   1.231   5.102   1.146
 3725TIP3   OH211131   0.519   2.789   0.793
 3725TIP3    H111132   0.544   2.816   0.705
 3725TIP3    H211133   0.598   2.805   0.846
 3726TIP3   OH211134   7.919   6.029   5.559
 3726TIP3    H111135   8.000   5.984   5.535
 3726TIP3    H211136   7.948   6.105   5.610
 3727TIP3   OH211137   6.144   1.034   6.024
 3727TIP3    H111138   6.191   0.973   5.968
 3727TIP3    H211139   6.194   1.116   6.016
 3728TIP3   OH211140   1.360   3.119   3.204
 3728TIP3    H111141   1.326   3.106   3.116
 3728TIP3    H211142   1.312   3.195   3.237
 3729TIP3   OH211143   5.220   6.761   3.255
 3729TIP3    H111144   5.144   6.794   3.303
 3729TIP3    H211145   5.248   6.835   3.201
 3730TIP3   OH211146   2.900   2.066   2.365
 3730TIP3    H111147   2.983   2.070   2.317
 3730TIP3    H211148   2.839   2.028   2.303
 3731TIP3   OH211149   7.515   1.916   2.104
 3731TIP3    H111150   7.531   1.843   2.164
 3731TIP3    H211151   7.565   1.894   2.026
 3732TIP3   OH211152   2.431   2.861   4.799
 3732TIP3    H111153   2.376   2.905   4.735
 3732TIP3    H211154   2.415   2.768   4.787
 3733TIP3   OH211155   4.564   6.742   3.893
 3733TIP3    H111156   4.580   6.721   3.984
 3733TIP3    H211157   4.633   6.697   3.845
 3734TIP3   OH211158   8.201   0.352   3.246
 3734TIP3    H111159   8.142   0.426   3.260
 3734TIP3    H211160   8.148   0.288   3.199
 3735TIP3   OH211161   7.015   4.405   4.116
 3735TIP3    H111162   7.011   4.398   4.211
 3735TIP3    H211163   7.103   4.439   4.098
 3736TIP3   OH211164   0.701   4.722   6.070
 3736TIP3    H111165   0.612   4.726   6.106
 3736TIP3    H211166   0.722   4.629   6.071
 3737TIP3   OH211167   1.240   4.932   5.629
 3737TIP3    H111168   1.227   5.021   5.661
 3737TIP3    H211169   1.300   4.892   5.692
 3738TIP3   OH211170   7.532   6.341   6.367
 3738TIP3    H111171   7.490   6.396   6.301
 3738TIP3    H211172   7.604   6.298   6.322
 3739TIP3   OH211173   0.356   6.358   2.503
 3739TIP3    H111174   0.369   6.453   2.501
 3739TIP3    H211175   0.268   6.345   2.469
 3740TIP3   OH211176   7.218   2.165   2.667
 3740TIP3    H111177   7.207   2.232   2.600
 3740TIP3    H211178   7.225   2.214   2.749
 3741TIP3   OH211179   2.144   3.076   6.010
 3741TIP3    H111180   2.205   3.032   5.951
 3741TIP3    H211181   2.058   3.062   5.970
 3742TIP3   OH211182   3.002   4.816   6.323
 3742TIP3    H111183   3.087   4.839   6.287
 3742TIP3    H211184   2.941   4.874   6.278
 3743TIP3   OH211185   1.581   6.228   0.428
 3743TIP3    H111186   1.511   6.249   0.367
 3743TIP3    H211187   1.568   6.135   0.448
 3744TIP3   OH211188   0.879   2.081   2.077
 3744TIP3    H111189   0.937   2.091   2.152
 3744TIP3    H211190   0.938   2.077   2.002
 3745TIP3   OH211191   3.831   5.973   1.962
 3745TIP3    H111192   3.911   5.965   2.014
 3745TIP3    H211193   3.771   5.908   1.999
 3746TIP3   OH211194   4.052   7.008   4.210
 3746TIP3    H111195   4.078   7.100   4.219
 3746TIP3    H211196   4.053   6.993   4.115
 3747TIP3   OH211197   2.791   3.593   6.087
 3747TIP3    H111198   2.788   3.606   6.182
 3747TIP3    H211199   2.812   3.500   6.075
 3748TIP3   OH211200   0.517   6.379   1.516
 3748TIP3    H111201   0.516   6.420   1.430
 3748TIP3    H211202   0.604   6.339   1.523
 3749TIP3   OH211203   2.406   3.698   0.726
 3749TIP3    H111204   2.353   3.753   0.668
 3749TIP3    H211205   2.439   3.758   0.793
 3750TIP3   OH211206   6.196   5.386   1.010
 3750TIP3    H111207   6.101   5.379   1.015
 3750TIP3    H211208   6.221   5.330   0.937
 3751TIP3   OH211209   0.151   1.281   3.154
 3751TIP3    H111210   0.105   1.237   3.226
 3751TIP3    H211211   0.089   1.278   3.081
 3752TIP3   OH211212   6.279   6.910   3.547
 3752TIP3    H111213   6.243   6.844   3.606
 3752TIP3    H211214   6.211   6.978   3.543
 3753TIP3   OH211215   2.848   2.475   5.571
 3753TIP3    H111216   2.940   2.462   5.547
 3753TIP3    H211217   2.799   2.431   5.503
 3754TIP3   OH211218   1.906   3.872   2.512
 3754TIP3    H111219   1.936   3.781   2.509
 3754TIP3    H211220   1.881   3.893   2.422
 3755TIP3   OH211221   4.490   7.506   1.048
 3755TIP3    H111222   4.574   7.462   1.035
 3755TIP3    H211223   4.449   7.459   1.121
 3756TIP3   OH211224   5.936   3.148   3.191
 3756TIP3    H111225   5.909   3.078   3.131
 3756TIP3    H211226   6.031   3.152   3.181
 3757TIP3   OH211227   6.059   6.070   1.580
 3757TIP3    H111228   6.042   6.155   1.620
 3757TIP3    H211229   6.149   6.049   1.606
 3758TIP3   OH211230   0.845   6.392   4.642
 3758TIP3    H111231   0.831   6.334   4.567
 3758TIP3    H211232   0.806   6.346   4.716
 3759TIP3   OH211233   5.814   2.518   0.379
 3759TIP3    H111234   5.749   2.583   0.354
 3759TIP3    H211235   5.810   2.453   0.308
 3760TIP3   OH211236   0.187   4.785   2.880
 3760TIP3    H111237   0.155   4.801   2.791
 3760TIP3    H211238   0.112   4.748   2.926
 3761TIP3   OH211239   3.790   3.460   3.869
 3761TIP3    H111240   3.832   3.476   3.953
 3761TIP3    H211241   3.826   3.377   3.839
 3762TIP3   OH211242   7.105   0.696   6.044
 3762TIP3    H111243   7.090   0.642   6.121
 3762TIP3    H211244   7.187   0.664   6.007
 3763TIP3   OH211245   6.442   1.875   6.122
 3763TIP3    H111246   6.370   1.935   6.110
 3763TIP3    H211247   6.458   1.838   6.035
 3764TIP3   OH211248   5.108   1.993   0.629
 3764TIP3    H111249   5.027   1.948   0.651
 3764TIP3    H211250   5.133   1.958   0.543
 3765TIP3   OH211251   4.582   7.775   1.443
 3765TIP3    H111252   4.559   7.740   1.530
 3765TIP3    H211253   4.524   7.851   1.432
 3766TIP3   OH211254   0.371   4.594   0.957
 3766TIP3    H111255   0.379   4.688   0.946
 3766TIP3    H211256   0.392   4.579   1.049
 3767TIP3   OH211257   5.382   1.121   3.153
 3767TIP3    H111258   5.422   1.035   3.166
 3767TIP3    H211259   5.290   1.108   3.178
 3768TIP3   OH211260   5.607   2.409   2.772
 3768TIP3    H111261   5.573   2.320   2.782
 3768TIP3    H211262   5.671   2.417   2.842
 3769TIP3   OH211263   7.542   1.970   5.590
 3769TIP3    H111264   7.512   1.904   5.527
 3769TIP3    H211265   7.509   2.052   5.555
 3770TIP3   OH211266   1.235   1.861   4.567
 3770TIP3    H111267   1.293   1.936   4.577
 3770TIP3    H211268   1.274   1.792   4.621
 3771TIP3   OH211269   5.264   2.012   3.216
 3771TIP3    H111270   5.239   1.978   3.302
 3771TIP3    H211271   5.321   1.945   3.179
 3772TIP3   OH211272   8.096   7.354   2.872
 3772TIP3    H111273   8.073   7.426   2.931
 3772TIP3    H211274   8.155   7.393   2.809
 3773TIP3   OH211275   0.950   6.975   5.307
 3773TIP3    H111276   0.939   6.900   5.248
 3773TIP3    H211277   0.888   6.958   5.378
 3774TIP3   OH211278   3.628   3.229   5.123
 3774TIP3    H111279   3.621   3.255   5.215
 3774TIP3    H211280   3.538   3.211   5.096
 3775TIP3   OH211281   2.262   6.882   2.199
 3775TIP3    H111282   2.211   6.902   2.277
 3775TIP3    H211283   2.345   6.849   2.232
 3776TIP3   OH211284   5.072   0.455   6.283
 3776TIP3    H111285   5.133   0.520   6.248
 3776TIP3    H211286   5.017   0.504   6.343
 3777TIP3   OH211287   8.098   4.490   3.931
 3777TIP3    H111288   8.179   4.441   3.918
 3777TIP3    H211289   8.029   4.430   3.905
 3778TIP3   OH211290   5.432   6.767   0.496
 3778TIP3    H111291   5.432   6.672   0.483
 3778TIP3    H211292   5.351   6.785   0.543
 3779TIP3   OH211293   3.390   6.542   2.067
 3779TIP3    H111294   3.427   6.596   1.996
 3779TIP3    H211295   3.466   6.503   2.109
 3780TIP3   OH211296   0.171   1.902   3.713
 3780TIP3    H111297   0.150   1.817   3.675
 3780TIP3    H211298   0.251   1.929   3.670
 3781TIP3   OH211299   2.164   2.129   3.122
 3781TIP3    H111300   2.098   2.142   3.053
 3781TIP3    H211301   2.238   2.182   3.094
 3782TIP3   OH211302   3.667   1.815   4.051
 3782TIP3    H111303   3.640   1.727   4.077
 3782TIP3    H211304   3.720   1.802   3.972
 3783TIP3   OH211305   2.947   1.661   5.833
 3783TIP3    H111306   2.891   1.627   5.763
 3783TIP3    H211307   2.999   1.729   5.791
 3784TIP3   OH211308   2.015   1.074   6.138
 3784TIP3    H111309   2.036   1.084   6.045
 3784TIP3    H211310   1.925   1.044   6.139
 3785TIP3   OH211311   5.136   1.552   0.028
 3785TIP3    H111312   5.050   1.511   0.020
 3785TIP3    H211313   5.134   1.625  -0.034
 3786TIP3   OH211314   1.684   1.896   6.202
 3786TIP3    H111315   1.604   1.844   6.214
 3786TIP3    H211316   1.749   1.853   6.258
 3787TIP3   OH211317   3.560   7.215   1.194
 3787TIP3    H111318   3.489   7.172   1.146
 3787TIP3    H211319   3.589   7.151   1.258
 3788TIP3   OH211320   6.360   2.349   6.644
 3788TIP3    H111321   6.437   2.299   6.617
 3788TIP3    H211322   6.303   2.286   6.688
 3789TIP3   OH211323   2.805   6.422   1.833
 3789TIP3    H111324   2.842   6.353   1.888
 3789TIP3    H211325   2.843   6.503   1.868
 3790TIP3   OH211326   6.524   2.674   5.555
 3790TIP3    H111327   6.605   2.687   5.504
 3790TIP3    H211328   6.520   2.580   5.570
 3791TIP3   OH211329   6.826   1.524   0.674
 3791TIP3    H111330   6.893   1.463   0.642
 3791TIP3    H211331   6.844   1.606   0.629
 3792TIP3   OH211332   7.216   4.275   6.697
 3792TIP3    H111333   7.122   4.265   6.712
 3792TIP3    H211334   7.233   4.228   6.615
 3793TIP3   OH211335   0.893   5.775   3.997
 3793TIP3    H111336   0.881   5.680   3.990
 3793TIP3    H211337   0.988   5.786   4.002
 3794TIP3   OH211338   1.874   5.838   1.395
 3794TIP3    H111339   1.794   5.797   1.361
 3794TIP3    H211340   1.925   5.857   1.316
 3795TIP3   OH211341   3.404   7.192   0.891
 3795TIP3    H111342   3.323   7.202   0.940
 3795TIP3    H211343   3.411   7.273   0.840
 3796TIP3   OH211344   6.829   2.836   4.996
 3796TIP3    H111345   6.909   2.885   4.977
 3796TIP3    H211346   6.859   2.747   5.012
 3797TIP3   OH211347   7.648   4.674   4.299
 3797TIP3    H111348   7.604   4.757   4.318
 3797TIP3    H211349   7.588   4.607   4.333
 3798TIP3   OH211350   8.084   4.769   0.720
 3798TIP3    H111351   8.019   4.802   0.783
 3798TIP3    H211352   8.073   4.674   0.722
 3799TIP3   OH211353   4.975   3.783   0.961
 3799TIP3    H111354   5.066   3.769   0.935
 3799TIP3    H211355   4.973   3.764   1.055
 3800TIP3   OH211356   6.912   3.209   3.166
 3800TIP3    H111357   6.884   3.137   3.223
 3800TIP3    H211358   6.896   3.177   3.077
 3801TIP3   OH211359   6.009   0.044   5.173
 3801TIP3    H111360   5.918   0.075   5.163
 3801TIP3    H211361   6.020   0.035   5.267
 3802TIP3   OH211362   3.277   4.405   5.338
 3802TIP3    H111363   3.336   4.336   5.309
 3802TIP3    H211364   3.243   4.374   5.422
 3803TIP3   OH211365   2.797   5.281   4.484
 3803TIP3    H111366   2.705   5.256   4.474
 3803TIP3    H211367   2.798   5.376   4.473
 3804TIP3   OH211368   5.686   4.299   1.056
 3804TIP3    H111369   5.697   4.345   1.139
 3804TIP3    H211370   5.764   4.244   1.048
 3805TIP3   OH211371   6.343   5.037   2.128
 3805TIP3    H111372   6.351   4.988   2.047
 3805TIP3    H211373   6.293   5.115   2.105
 3806TIP3   OH211374   3.703   3.112   6.263
 3806TIP3    H111375   3.680   3.030   6.219
 3806TIP3    H211376   3.715   3.175   6.191
 3807TIP3   OH211377   1.727   1.643   3.967
 3807TIP3    H111378   1.663   1.577   3.996
 3807TIP3    H211379   1.801   1.591   3.937
 3808TIP3   OH211380   7.321   4.884   5.856
 3808TIP3    H111381   7.345   4.791   5.859
 3808TIP3    H211382   7.388   4.928   5.908
 3809TIP3   OH211383   5.804   5.243   5.746
 3809TIP3    H111384   5.793   5.321   5.691
 3809TIP3    H211385   5.890   5.253   5.785
 3810TIP3   OH211386   8.175   7.821   2.408
 3810TIP3    H111387   8.165   7.783   2.321
 3810TIP3    H211388   8.113   7.772   2.462
 3811TIP3   OH211389   4.913   2.862   6.572
 3811TIP3    H111390   4.970   2.825   6.505
 3811TIP3    H211391   4.925   2.957   6.564
 3812TIP3   OH211392   7.414   2.678   3.068
 3812TIP3    H111393   7.346   2.683   3.000
 3812TIP3    H211394   7.427   2.584   3.081
 3813TIP3   OH211395   6.842   0.357   3.972
 3813TIP3    H111396   6.900   0.284   3.994
 3813TIP3    H211397   6.879   0.394   3.892
 3814TIP3   OH211398   8.051   5.808   1.790
 3814TIP3    H111399   8.041   5.901   1.768
 3814TIP3    H211400   7.981   5.765   1.741
 3815TIP3   OH211401   8.074   6.247   5.680
 3815TIP3    H111402   8.062   6.175   5.742
 3815TIP3    H211403   8.117   6.316   5.731
 3816TIP3   OH211404   1.253   4.196   0.719
 3816TIP3    H111405   1.180   4.259   0.717
 3816TIP3    H211406   1.300   4.212   0.637
 3817TIP3   OH211407   3.368   1.678   0.461
 3817TIP3    H111408   3.339   1.587   0.462
 3817TIP3    H211409   3.332   1.714   0.380
 3818TIP3   OH211410   1.444   7.346   0.976
 3818TIP3    H111411   1.433   7.264   0.929
 3818TIP3    H211412   1.536   7.369   0.963
 3819TIP3   OH211413   3.775   3.731   3.817
 3819TIP3    H111414   3.816   3.752   3.733
 3819TIP3    H211415   3.789   3.637   3.828
 3820TIP3   OH211416   3.712   0.125   3.075
 3820TIP3    H111417   3.693   0.207   3.119
 3820TIP3    H211418   3.804   0.108   3.094
 3821TIP3   OH211419   0.806   6.884   1.880
 3821TIP3    H111420   0.794   6.928   1.796
 3821TIP3    H211421   0.755   6.804   1.872
 3822TIP3   OH211422   6.303   7.117   3.298
 3822TIP3    H111423   6.276   7.208   3.310
 3822TIP3    H211424   6.398   7.119   3.304
 3823TIP3   OH211425   8.257   6.208   6.530
 3823TIP3    H111426   8.200   6.158   6.471
 3823TIP3    H211427   8.265   6.153   6.608
 3824TIP3   OH211428   6.394   1.771   4.474
 3824TIP3    H111429   6.430   1.692   4.433
 3824TIP3    H211430   6.304   1.747   4.496
 3825TIP3   OH211431   1.286   1.830   2.832
 3825TIP3    H111432   1.345   1.838   2.907
 3825TIP3    H211433   1.205   1.872   2.861
 3826TIP3   OH211434   1.434   3.671   4.567
 3826TIP3    H111435   1.471   3.747   4.610
 3826TIP3    H211436   1.505   3.608   4.563
 3827TIP3   OH211437   3.507   6.422   3.786
 3827TIP3    H111438   3.431   6.370   3.760
 3827TIP3    H211439   3.551   6.443   3.703
 3828TIP3   OH211440   1.506   1.804   1.272
 3828TIP3    H111441   1.481   1.896   1.268
 3828TIP3    H211442   1.498   1.781   1.365
 3829TIP3   OH211443   6.974   3.461   3.280
 3829TIP3    H111444   6.912   3.389   3.268
 3829TIP3    H211445   7.060   3.420   3.276
 3830TIP3   OH211446   2.132   7.194   3.456
 3830TIP3    H111447   2.046   7.163   3.429
 3830TIP3    H211448   2.140   7.280   3.415
 3831TIP3   OH211449   0.933   2.561   4.566
 3831TIP3    H111450   0.883   2.631   4.525
 3831TIP3    H211451   1.007   2.547   4.508
 3832TIP3   OH211452   4.031   6.924   1.456
 3832TIP3    H111453   3.991   6.923   1.368
 3832TIP3    H211454   3.959   6.901   1.515
 3833TIP3   OH211455   7.604   3.150   1.231
 3833TIP3    H111456   7.593   3.177   1.140
 3833TIP3    H211457   7.688   3.189   1.257
 3834TIP3   OH211458   4.777   2.654   6.414
 3834TIP3    H111459   4.802   2.562   6.419
 3834TIP3    H211460   4.762   2.670   6.321
 3835TIP3   OH211461   4.585   1.875   3.883
 3835TIP3    H111462   4.517   1.866   3.949
 3835TIP3    H211463   4.646   1.939   3.920
 3836TIP3   OH211464   7.276   6.387   4.024
 3836TIP3    H111465   7.307   6.356   3.939
 3836TIP3    H211466   7.348   6.369   4.084
 3837TIP3   OH211467   0.237   6.631   5.885
 3837TIP3    H111468   0.174   6.700   5.906
 3837TIP3    H211469   0.321   6.666   5.916
 3838TIP3   OH211470   7.235   6.104   3.794
 3838TIP3    H111471   7.212   6.019   3.756
 3838TIP3    H211472   7.330   6.110   3.783
 3839TIP3   OH211473   6.584   7.520   6.549
 3839TIP3    H111474   6.594   7.436   6.503
 3839TIP3    H211475   6.674   7.547   6.569
 3840TIP3   OH211476   0.893   6.376   1.595
 3840TIP3    H111477   0.940   6.388   1.512
 3840TIP3    H211478   0.877   6.465   1.626
 3841TIP3   OH211479   0.246   4.904   4.269
 3841TIP3    H111480   0.338   4.907   4.245
 3841TIP3    H211481   0.230   4.986   4.315
 3842TIP3   OH211482   2.142   6.810   4.756
 3842TIP3    H111483   2.202   6.883   4.773
 3842TIP3    H211484   2.172   6.740   4.814
 3843TIP3   OH211485   2.260   7.198   3.176
 3843TIP3    H111486   2.323   7.162   3.239
 3843TIP3    H211487   2.246   7.287   3.206
 3844TIP3   OH211488   4.166   0.848   1.697
 3844TIP3    H111489   4.099   0.794   1.739
 3844TIP3    H211490   4.122   0.884   1.619
 3845TIP3   OH211491   4.492   4.347   0.376
 3845TIP3    H111492   4.426   4.280   0.360
 3845TIP3    H211493   4.567   4.299   0.413
 3846TIP3   OH211494   7.078   3.250   6.167
 3846TIP3    H111495   7.166   3.219   6.147
 3846TIP3    H211496   7.075   3.338   6.130
 3847TIP3   OH211497   7.076   6.952   5.450
 3847TIP3    H111498   7.038   7.005   5.520
 3847TIP3    H211499   7.090   7.014   5.379
 3848TIP3   OH211500   0.186   2.096   3.127
 3848TIP3    H111501   0.119   2.142   3.078
 3848TIP3    H211502   0.225   2.163   3.184
 3849TIP3   OH211503   6.793   4.492   0.856
 3849TIP3    H111504   6.819   4.554   0.924
 3849TIP3    H211505   6.721   4.442   0.895
 3850TIP3   OH211506   6.758   0.564   6.089
 3850TIP3    H111507   6.742   0.643   6.140
 3850TIP3    H211508   6.762   0.494   6.154
 3851TIP3   OH211509   6.203   3.685   5.765
 3851TIP3    H111510   6.170   3.775   5.775
 3851TIP3    H211511   6.127   3.630   5.783
 3852TIP3   OH211512   5.886   7.747   3.303
 3852TIP3    H111513   5.926   7.682   3.362
 3852TIP3    H211514   5.801   7.766   3.343
 3853TIP3   OH211515   7.777   5.197   5.026
 3853TIP3    H111516   7.733   5.281   5.020
 3853TIP3    H211517   7.749   5.150   4.947
 3854TIP3   OH211518   0.197   0.575   1.916
 3854TIP3    H111519   0.129   0.642   1.917
 3854TIP3    H211520   0.172   0.517   1.844
 3855TIP3   OH211521   3.878   7.463   0.449
 3855TIP3    H111522   3.846   7.505   0.529
 3855TIP3    H211523   3.826   7.501   0.378
 3856TIP3   OH211524   6.871   4.169   1.099
 3856TIP3    H111525   6.869   4.238   1.166
 3856TIP3    H211526   6.852   4.088   1.147
 3857TIP3   OH211527   5.896   6.534   3.126
 3857TIP3    H111528   5.886   6.629   3.119
 3857TIP3    H211529   5.908   6.505   3.035
 3858TIP3   OH211530   2.459   5.174   2.659
 3858TIP3    H111531   2.495   5.167   2.747
 3858TIP3    H211532   2.389   5.239   2.667
 3859TIP3   OH211533   3.727   5.242   2.548
 3859TIP3    H111534   3.687   5.326   2.525
 3859TIP3    H211535   3.807   5.240   2.496
 3860TIP3   OH211536   7.452   3.431   6.254
 3860TIP3    H111537   7.488   3.517   6.232
 3860TIP3    H211538   7.396   3.409   6.180
 3861TIP3   OH211539   2.429   6.080   0.846
 3861TIP3    H111540   2.335   6.076   0.865
 3861TIP3    H211541   2.451   5.993   0.815
 3862TIP3   OH211542   7.421   5.748   1.100
 3862TIP3    H111543   7.413   5.822   1.160
 3862TIP3    H211544   7.450   5.787   1.017
 3863TIP3   OH211545   7.378   2.528   2.237
 3863TIP3    H111546   7.457   2.545   2.186
 3863TIP3    H211547   7.318   2.485   2.176
 3864TIP3   OH211548   3.068   4.762   3.808
 3864TIP3    H111549   3.059   4.854   3.833
 3864TIP3    H211550   3.141   4.761   3.746
 3865TIP3   OH211551   1.846   0.441   6.412
 3865TIP3    H111552   1.867   0.356   6.449
 3865TIP3    H211553   1.820   0.494   6.487
 3866TIP3   OH211554   1.723   2.880   4.909
 3866TIP3    H111555   1.709   2.800   4.961
 3866TIP3    H211556   1.702   2.854   4.820
 3867TIP3   OH211557   3.170   7.553   2.926
 3867TIP3    H111558   3.254   7.578   2.964
 3867TIP3    H211559   3.191   7.518   2.840
 3868TIP3   OH211560   7.912   5.462   1.913
 3868TIP3    H111561   7.880   5.526   1.976
 3868TIP3    H211562   7.887   5.377   1.949
 3869TIP3   OH211563   7.958   6.005   0.318
 3869TIP3    H111564   8.025   5.968   0.374
 3869TIP3    H211565   7.909   6.064   0.375
 3870TIP3   OH211566   0.185   3.908   0.725
 3870TIP3    H111567   0.112   3.887   0.667
 3870TIP3    H211568   0.210   3.997   0.699
 3871TIP3   OH211569   1.227   3.285   3.853
 3871TIP3    H111570   1.243   3.334   3.934
 3871TIP3    H211571   1.202   3.198   3.882
 3872TIP3   OH211572   3.504   1.668   4.575
 3872TIP3    H111573   3.492   1.631   4.663
 3872TIP3    H211574   3.465   1.602   4.517
 3873TIP3   OH211575   7.961   1.349   5.103
 3873TIP3    H111576   7.943   1.330   5.195
 3873TIP3    H211577   7.904   1.289   5.055
 3874TIP3   OH211578   2.894   4.124   1.872
 3874TIP3    H111579   2.821   4.159   1.921
 3874TIP3    H211580   2.926   4.197   1.819
 3875TIP3   OH211581   7.242   5.037   6.225
 3875TIP3    H111582   7.226   4.943   6.233
 3875TIP3    H211583   7.186   5.066   6.154
 3876TIP3   OH211584   7.464   3.050   0.488
 3876TIP3    H111585   7.468   2.964   0.447
 3876TIP3    H211586   7.372   3.077   0.478
 3877TIP3   OH211587   4.317   2.277   2.828
 3877TIP3    H111588   4.327   2.196   2.777
 3877TIP3    H211589   4.235   2.315   2.796
 3878TIP3   OH211590   2.574   0.695   2.615
 3878TIP3    H111591   2.516   0.771   2.608
 3878TIP3    H211592   2.657   0.732   2.644
 3879TIP3   OH211593   1.947   6.615   6.400
 3879TIP3    H111594   2.031   6.575   6.380
 3879TIP3    H211595   1.908   6.635   6.315
 3880TIP3   OH211596   1.014   3.545   5.470
 3880TIP3    H111597   1.070   3.621   5.457
 3880TIP3    H211598   0.940   3.558   5.411
 3881TIP3   OH211599   2.624   5.889   6.481
 3881TIP3    H111600   2.689   5.912   6.547
 3881TIP3    H211601   2.586   5.973   6.456
 3882TIP3   OH211602   8.149   6.331   2.227
 3882TIP3    H111603   8.101   6.408   2.259
 3882TIP3    H211604   8.143   6.337   2.132
 3883TIP3   OH211605   8.195   3.590   2.781
 3883TIP3    H111606   8.111   3.620   2.816
 3883TIP3    H211607   8.249   3.669   2.779
 3884TIP3   OH211608   8.236   1.995   3.903
 3884TIP3    H111609   8.304   2.047   3.945
 3884TIP3    H211610   8.283   1.946   3.835
 3885TIP3   OH211611   1.348   3.100   2.533
 3885TIP3    H111612   1.378   3.040   2.465
 3885TIP3    H211613   1.427   3.123   2.582
 3886TIP3   OH211614   1.386   1.309   5.357
 3886TIP3    H111615   1.342   1.241   5.407
 3886TIP3    H211616   1.329   1.386   5.367
 3887TIP3   OH211617   5.177   5.311   1.092
 3887TIP3    H111618   5.174   5.257   1.013
 3887TIP3    H211619   5.229   5.387   1.067
 3888TIP3   OH211620   6.444   1.109   6.161
 3888TIP3    H111621   6.378   1.070   6.218
 3888TIP3    H211622   6.523   1.114   6.215
 3889TIP3   OH211623   0.798   1.197   1.712
 3889TIP3    H111624   0.771   1.112   1.747
 3889TIP3    H211625   0.829   1.179   1.624
 3890TIP3   OH211626   0.773   5.298   0.858
 3890TIP3    H111627   0.759   5.386   0.895
 3890TIP3    H211628   0.826   5.253   0.923
 3891TIP3   OH211629   1.402   6.654   2.336
 3891TIP3    H111630   1.383   6.727   2.277
 3891TIP3    H211631   1.315   6.624   2.364
 3892TIP3   OH211632   2.691   4.225   3.329
 3892TIP3    H111633   2.785   4.211   3.336
 3892TIP3    H211634   2.679   4.318   3.344
 3893TIP3   OH211635   0.309   0.125   1.369
 3893TIP3    H111636   0.275   0.036   1.359
 3893TIP3    H211637   0.238   0.181   1.338
 3894TIP3   OH211638   2.583   6.421   2.543
 3894TIP3    H111639   2.611   6.475   2.617
 3894TIP3    H211640   2.560   6.337   2.581
 3895TIP3   OH211641   0.511   7.094   4.146
 3895TIP3    H111642   0.436   7.106   4.087
 3895TIP3    H211643   0.507   7.002   4.171
 3896TIP3   OH211644   3.703   3.979   0.248
 3896TIP3    H111645   3.641   3.970   0.320
 3896TIP3    H211646   3.745   4.063   0.263
 3897TIP3   OH211647   2.790   2.589   5.836
 3897TIP3    H111648   2.698   2.570   5.853
 3897TIP3    H211649   2.812   2.536   5.760
 3898TIP3   OH211650   3.362   5.671   4.874
 3898TIP3    H111651   3.273   5.670   4.908
 3898TIP3    H211652   3.410   5.612   4.932
 3899TIP3   OH211653   1.704   4.747   3.584
 3899TIP3    H111654   1.650   4.678   3.622
 3899TIP3    H211655   1.787   4.742   3.632
 3900TIP3   OH211656   1.894   2.293   4.243
 3900TIP3    H111657   1.809   2.268   4.206
 3900TIP3    H211658   1.955   2.287   4.169
 3901TIP3   OH211659   4.303   6.390   1.949
 3901TIP3    H111660   4.373   6.370   1.886
 3901TIP3    H211661   4.237   6.322   1.934
 3902TIP3   OH211662   1.300   4.399   6.249
 3902TIP3    H111663   1.274   4.312   6.218
 3902TIP3    H211664   1.299   4.454   6.171
 3903TIP3   OH211665   8.131   3.624   6.460
 3903TIP3    H111666   8.165   3.547   6.506
 3903TIP3    H211667   8.052   3.592   6.416
 3904TIP3   OH211668   1.394   3.683   1.647
 3904TIP3    H111669   1.323   3.704   1.708
 3904TIP3    H211670   1.351   3.641   1.573
 3905TIP3   OH211671   3.702   4.963   5.342
 3905TIP3    H111672   3.704   4.968   5.438
 3905TIP3    H211673   3.762   4.891   5.321
 3906TIP3   OH211674   5.900   5.886   2.287
 3906TIP3    H111675   5.878   5.836   2.365
 3906TIP3    H211676   5.988   5.857   2.263
 3907TIP3   OH211677   1.100   0.367   6.229
 3907TIP3    H111678   1.191   0.369   6.201
 3907TIP3    H211679   1.093   0.438   6.293
 3908TIP3   OH211680   7.624   1.086   5.626
 3908TIP3    H111681   7.538   1.079   5.668
 3908TIP3    H211682   7.687   1.072   5.696
 3909TIP3   OH211683   4.838   4.812   5.505
 3909TIP3    H111684   4.851   4.858   5.587
 3909TIP3    H211685   4.820   4.882   5.441
 3910TIP3   OH211686   1.504   1.596   5.895
 3910TIP3    H111687   1.478   1.504   5.884
 3910TIP3    H211688   1.586   1.591   5.945
 3911TIP3   OH211689   4.645   2.255   2.894
 3911TIP3    H111690   4.673   2.260   2.985
 3911TIP3    H211691   4.725   2.236   2.845
 3912TIP3   OH211692   0.487   2.925   5.382
 3912TIP3    H111693   0.397   2.891   5.379
 3912TIP3    H211694   0.508   2.929   5.475
 3913TIP3   OH211695   6.408   4.347   0.271
 3913TIP3    H111696   6.478   4.308   0.220
 3913TIP3    H211697   6.418   4.441   0.259
 3914TIP3   OH211698   4.425   0.101   0.998
 3914TIP3    H111699   4.397   0.161   0.928
 3914TIP3    H211700   4.394   0.143   1.079
 3915TIP3   OH211701   1.646   0.531   2.583
 3915TIP3    H111702   1.734   0.530   2.621
 3915TIP3    H211703   1.661   0.544   2.489
 3916TIP3   OH211704   3.772   5.033   1.074
 3916TIP3    H111705   3.858   4.994   1.061
 3916TIP3    H211706   3.759   5.089   0.997
 3917TIP3   OH211707   6.572   4.563   4.880
 3917TIP3    H111708   6.626   4.613   4.819
 3917TIP3    H211709   6.502   4.526   4.825
 3918TIP3   OH211710   0.200   1.471   2.150
 3918TIP3    H111711   0.145   1.517   2.087
 3918TIP3    H211712   0.174   1.379   2.141
 3919TIP3   OH211713   2.710   3.186   3.978
 3919TIP3    H111714   2.796   3.176   4.019
 3919TIP3    H211715   2.723   3.253   3.911
 3920TIP3   OH211716   5.631   0.627   6.136
 3920TIP3    H111717   5.611   0.720   6.124
 3920TIP3    H211718   5.561   0.581   6.089
 3921TIP3   OH211719   4.027   5.918   6.107
 3921TIP3    H111720   4.046   5.829   6.076
 3921TIP3    H211721   3.937   5.935   6.078
 3922TIP3   OH211722   6.714   1.916   2.980
 3922TIP3    H111723   6.762   1.837   3.007
 3922TIP3    H211724   6.622   1.888   2.977
 3923TIP3   OH211725   4.764   2.703   1.125
 3923TIP3    H111726   4.792   2.766   1.059
 3923TIP3    H211727   4.668   2.704   1.119
 3924TIP3   OH211728   6.138   6.968   3.106
 3924TIP3    H111729   6.157   7.024   3.181
 3924TIP3    H211730   6.174   6.883   3.129
 3925TIP3   OH211731   7.816   7.122   6.755
 3925TIP3    H111732   7.878   7.058   6.791
 3925TIP3    H211733   7.795   7.090   6.668
 3926TIP3   OH211734   1.976   6.108   6.429
 3926TIP3    H111735   1.968   6.014   6.411
 3926TIP3    H211736   1.897   6.147   6.392
 3927TIP3   OH211737   3.566   4.603   1.916
 3927TIP3    H111738   3.618   4.545   1.971
 3927TIP3    H211739   3.594   4.691   1.939
 3928TIP3   OH211740   6.979   3.040   6.343
 3928TIP3    H111741   6.924   3.025   6.266
 3928TIP3    H211742   6.938   2.989   6.413
 3929TIP3   OH211743   7.797   6.304   2.799
 3929TIP3    H111744   7.883   6.273   2.825
 3929TIP3    H211745   7.797   6.299   2.703
 3930TIP3   OH211746   1.146   3.507   2.917
 3930TIP3    H111747   1.053   3.492   2.900
 3930TIP3    H211748   1.153   3.511   3.012
 3931TIP3   OH211749   4.543   4.716   3.163
 3931TIP3    H111750   4.587   4.632   3.160
 3931TIP3    H211751   4.573   4.757   3.244
 3932TIP3   OH211752   6.455   3.212   5.865
 3932TIP3    H111753   6.436   3.249   5.951
 3932TIP3    H211754   6.372   3.174   5.836
 3933TIP3   OH211755   6.577   4.453   6.640
 3933TIP3    H111756   6.536   4.449   6.727
 3933TIP3    H211757   6.534   4.384   6.591
 3934TIP3   OH211758   5.564   6.871   6.113
 3934TIP3    H111759   5.519   6.889   6.195
 3934TIP3    H211760   5.535   6.783   6.088
 3935TIP3   OH211761   7.019   1.540   3.526
 3935TIP3    H111762   7.045   1.548   3.435
 3935TIP3    H211763   7.035   1.627   3.564
 3936TIP3   OH211764   5.016   1.213   5.287
 3936TIP3    H111765   5.052   1.292   5.247
 3936TIP3    H211766   4.923   1.233   5.302
 3937TIP3   OH211767   5.012   7.332   5.762
 3937TIP3    H111768   5.035   7.416   5.801
 3937TIP3    H211769   5.027   7.267   5.831
 3938TIP3   OH211770   1.261   1.499   2.979
 3938TIP3    H111771   1.183   1.466   3.023
 3938TIP3    H211772   1.307   1.549   3.046
 3939TIP3   OH211773   5.479   6.522   2.172
 3939TIP3    H111774   5.554   6.573   2.143
 3939TIP3    H211775   5.404   6.564   2.130
 3940TIP3   OH211776   4.353   2.321   3.099
 3940TIP3    H111777   4.324   2.311   3.008
 3940TIP3    H211778   4.408   2.399   3.098
 3941TIP3   OH211779   6.324   5.703   1.973
 3941TIP3    H111780   6.405   5.653   1.961
 3941TIP3    H211781   6.257   5.637   1.988
 3942TIP3   OH211782   5.311   2.343   3.878
 3942TIP3    H111783   5.331   2.268   3.935
 3942TIP3    H211784   5.218   2.332   3.856
 3943TIP3   OH211785   6.682   1.597   2.652
 3943TIP3    H111786   6.701   1.546   2.731
 3943TIP3    H211787   6.667   1.531   2.584
 3944TIP3   OH211788   1.810   2.383   0.290
 3944TIP3    H111789   1.744   2.446   0.263
 3944TIP3    H211790   1.868   2.432   0.349
 3945TIP3   OH211791   0.711   0.857   5.118
 3945TIP3    H111792   0.656   0.793   5.163
 3945TIP3    H211793   0.701   0.937   5.170
 3946TIP3   OH211794   2.596   2.899   3.587
 3946TIP3    H111795   2.509   2.928   3.615
 3946TIP3    H211796   2.650   2.909   3.665
 3947TIP3   OH211797   3.358   7.155   0.417
 3947TIP3    H111798   3.302   7.224   0.381
 3947TIP3    H211799   3.299   7.101   0.469
 3948TIP3   OH211800   4.516   2.346   0.746
 3948TIP3    H111801   4.591   2.398   0.775
 3948TIP3    H211802   4.524   2.263   0.792
 3949TIP3   OH211803   3.416   3.969   2.283
 3949TIP3    H111804   3.329   3.951   2.247
 3949TIP3    H211805   3.399   4.023   2.360
 3950TIP3   OH211806   5.632   6.320   5.727
 3950TIP3    H111807   5.643   6.397   5.782
 3950TIP3    H211808   5.717   6.276   5.730
 3951TIP3   OH211809   6.743  -0.016   2.566
 3951TIP3    H111810   6.800  -0.086   2.534
 3951TIP3    H211811   6.797   0.063   2.561
 3952TIP3   OH211812   6.988   3.389   5.299
 3952TIP3    H111813   6.979   3.346   5.384
 3952TIP3    H211814   6.901   3.385   5.260
 3953TIP3   OH211815   3.547   2.514   0.139
 3953TIP3    H111816   3.615   2.504   0.207
 3953TIP3    H211817   3.469   2.542   0.187
 3954TIP3   OH211818   6.010   3.919   5.145
 3954TIP3    H111819   6.086   3.976   5.137
 3954TIP3    H211820   5.996   3.884   5.057
 3955TIP3   OH211821   1.371   7.344   1.249
 3955TIP3    H111822   1.386   7.362   1.156
 3955TIP3    H211823   1.433   7.400   1.295
 3956TIP3   OH211824   7.468   7.436   5.990
 3956TIP3    H111825   7.388   7.458   5.942
 3956TIP3    H211826   7.446   7.452   6.082
 3957TIP3   OH211827   0.828   2.059   0.092
 3957TIP3    H111828   0.810   1.966   0.080
 3957TIP3    H211829   0.879   2.084   0.015
 3958TIP3   OH211830   0.955   1.952   0.778
 3958TIP3    H111831   0.882   1.890   0.770
 3958TIP3    H211832   0.998   1.948   0.692
 3959TIP3   OH211833   7.254   0.541   1.308
 3959TIP3    H111834   7.236   0.492   1.228
 3959TIP3    H211835   7.338   0.583   1.293
 3960TIP3   OH211836   3.727   7.663   0.639
 3960TIP3    H111837   3.801   7.723   0.629
 3960TIP3    H211838   3.749   7.610   0.716
 3961TIP3   OH211839   0.338   5.436   6.390
 3961TIP3    H111840   0.421   5.431   6.344
 3961TIP3    H211841   0.306   5.525   6.374
 3962TIP3   OH211842   7.836   1.044   0.281
 3962TIP3    H111843   7.865   1.111   0.219
 3962TIP3    H211844   7.913   0.988   0.291
 3963TIP3   OH211845   0.795   7.422   1.399
 3963TIP3    H111846   0.830   7.372   1.325
 3963TIP3    H211847   0.856   7.403   1.471
 3964TIP3   OH211848   0.991   5.332   5.912
 3964TIP3    H111849   0.985   5.413   5.964
 3964TIP3    H211850   0.920   5.339   5.848
 3965TIP3   OH211851   1.734   1.277   6.304
 3965TIP3    H111852   1.757   1.272   6.212
 3965TIP3    H211853   1.818   1.284   6.349
 3966TIP3   OH211854   5.592   4.691   2.858
 3966TIP3    H111855   5.551   4.656   2.779
 3966TIP3    H211856   5.580   4.786   2.851
 3967TIP3   OH211857   5.044   3.536   4.019
 3967TIP3    H111858   5.131   3.505   3.995
 3967TIP3    H211859   5.026   3.496   4.104
 3968TIP3   OH211860   5.931   6.646   0.415
 3968TIP3    H111861   5.956   6.736   0.433
 3968TIP3    H211862   6.012   6.603   0.388
 3969TIP3   OH211863   6.719   4.320   3.270
 3969TIP3    H111864   6.743   4.243   3.321
 3969TIP3    H211865   6.773   4.391   3.306
 3970TIP3   OH211866   0.880   1.084   0.115
 3970TIP3    H111867   0.808   1.064   0.055
 3970TIP3    H211868   0.893   1.003   0.164
 3971TIP3   OH211869   4.547   2.968   1.864
 3971TIP3    H111870   4.626   3.023   1.860
 3971TIP3    H211871   4.580   2.878   1.862
 3972TIP3   OH211872   8.055   4.248   4.711
 3972TIP3    H111873   7.960   4.259   4.713
 3972TIP3    H211874   8.081   4.248   4.804
 3973TIP3   OH211875   1.364   4.005   3.361
 3973TIP3    H111876   1.326   3.929   3.406
 3973TIP3    H211877   1.339   4.080   3.416
 3974TIP3   OH211878   6.694   7.352   6.122
 3974TIP3    H111879   6.628   7.380   6.060
 3974TIP3    H211880   6.738   7.432   6.150
 3975TIP3   OH211881   1.242   0.880   2.772
 3975TIP3    H111882   1.175   0.949   2.767
 3975TIP3    H211883   1.313   0.920   2.822
 3976TIP3   OH211884   3.650   4.678   2.249
 3976TIP3    H111885   3.579   4.732   2.212
 3976TIP3    H211886   3.671   4.720   2.333
 3977TIP3   OH211887   1.218   7.457   5.285
 3977TIP3    H111888   1.154   7.437   5.353
 3977TIP3    H211889   1.281   7.516   5.327
 3978TIP3   OH211890   6.708   2.478   2.027
 3978TIP3    H111891   6.721   2.538   2.100
 3978TIP3    H211892   6.718   2.533   1.949
 3979TIP3   OH211893   6.596   0.647   2.767
 3979TIP3    H111894   6.584   0.553   2.751
 3979TIP3    H211895   6.620   0.683   2.681
 3980TIP3   OH211896   5.600   2.847   1.976
 3980TIP3    H111897   5.663   2.918   1.967
 3980TIP3    H211898   5.638   2.790   2.042
 3981TIP3   OH211899   1.694   4.115   1.979
 3981TIP3    H111900   1.626   4.061   2.018
 3981TIP3    H211901   1.671   4.118   1.886
 3982TIP3   OH211902   2.668   3.565   2.153
 3982TIP3    H111903   2.678   3.517   2.071
 3982TIP3    H211904   2.637   3.499   2.216
 3983TIP3   OH211905   0.115   6.005   6.783
 3983TIP3    H111906   0.130   5.913   6.762
 3983TIP3    H211907   0.202   6.040   6.802
 3984TIP3   OH211908   4.270   3.366   4.573
 3984TIP3    H111909   4.352   3.320   4.584
 3984TIP3    H211910   4.244   3.347   4.483
 3985TIP3   OH211911   0.118   1.307   0.657
 3985TIP3    H111912   0.175   1.383   0.644
 3985TIP3    H211913   0.101   1.306   0.751
 3986TIP3   OH211914   2.112   6.943   1.229
 3986TIP3    H111915   2.121   6.919   1.136
 3986TIP3    H211916   2.051   7.017   1.229
 3987TIP3   OH211917   7.774   4.782   6.192
 3987TIP3    H111918   7.842   4.797   6.125
 3987TIP3    H211919   7.794   4.846   6.260
 3988TIP3   OH211920   4.258   4.876   3.843
 3988TIP3    H111921   4.219   4.958   3.874
 3988TIP3    H211922   4.270   4.889   3.749
 3989TIP3   OH211923   6.049   4.742   3.531
 3989TIP3    H111924   6.108   4.773   3.600
 3989TIP3    H211925   6.024   4.654   3.560
 3990TIP3   OH211926   5.212   5.548   1.698
 3990TIP3    H111927   5.301   5.513   1.696
 3990TIP3    H211928   5.181   5.533   1.787
 3991TIP3   OH211929   6.827   5.784   4.240
 3991TIP3    H111930   6.733   5.774   4.226
 3991TIP3    H211931   6.848   5.718   4.306
 3992TIP3   OH211932   3.751   3.964   4.419
 3992TIP3    H111933   3.774   3.976   4.327
 3992TIP3    H211934   3.778   3.875   4.440
 3993TIP3   OH211935   7.639   7.434   2.711
 3993TIP3    H111936   7.550   7.470   2.706
 3993TIP3    H211937   7.696   7.510   2.714
 3994TIP3   OH211938   4.502   1.920   2.568
 3994TIP3    H111939   4.594   1.919   2.545
 3994TIP3    H211940   4.472   2.009   2.546
 3995TIP3   OH211941   3.960   7.445   1.882
 3995TIP3    H111942   3.944   7.461   1.975
 3995TIP3    H211943   3.991   7.354   1.878
 3996TIP3   OH211944   1.876   3.280   2.358
 3996TIP3    H111945   1.825   3.354   2.392
 3996TIP3    H211946   1.967   3.308   2.365
 3997TIP3   OH211947   6.686   0.834   5.868
 3997TIP3    H111948   6.730   0.760   5.827
 3997TIP3    H211949   6.747   0.907   5.859
 3998TIP3   OH211950   4.436   5.978   0.781
 3998TIP3    H111951   4.514   5.923   0.774
 3998TIP3    H211952   4.459   6.042   0.848
 3999TIP3   OH211953   1.725   5.762   6.270
 3999TIP3    H111954   1.664   5.797   6.335
 3999TIP3    H211955   1.703   5.808   6.189
 4000TIP3   OH211956   6.028   3.729   4.905
 4000TIP3    H111957   6.116   3.737   4.940
 4000TIP3    H211958   6.010   3.635   4.905
 4001TIP3   OH211959   1.296   0.387   6.522
 4001TIP3    H111960   1.363   0.381   6.591
 4001TIP3    H211961   1.258   0.299   6.517
 4002TIP3   OH211962   4.477   3.103   5.709
 4002TIP3    H111963   4.547   3.127   5.649
 4002TIP3    H211964   4.496   3.152   5.789
 4003TIP3   OH211965   6.526   2.259   5.780
 4003TIP3    H111966   6.437   2.224   5.791
 4003TIP3    H211967   6.557   2.274   5.870
 4004TIP3   OH211968   7.411   2.917   5.739
 4004TIP3    H111969   7.375   2.834   5.772
 4004TIP3    H211970   7.473   2.945   5.807
 4005TIP3   OH211971   4.248   2.048   0.522
 4005TIP3    H111972   4.239   2.129   0.472
 4005TIP3    H211973   4.296   2.073   0.601
 4006TIP3   OH211974   1.757   4.685   2.663
 4006TIP3    H111975   1.842   4.683   2.707
 4006TIP3    H211976   1.762   4.616   2.597
 4007TIP3   OH211977   2.945   7.705   2.507
 4007TIP3    H111978   2.977   7.638   2.567
 4007TIP3    H211979   3.017   7.721   2.447
 4008TIP3   OH211980   7.471   7.336   5.478
 4008TIP3    H111981   7.454   7.266   5.541
 4008TIP3    H211982   7.517   7.403   5.527
 4009TIP3   OH211983   7.232   0.864   4.087
 4009TIP3    H111984   7.316   0.905   4.103
 4009TIP3    H211985   7.206   0.826   4.171
 4010TIP3   OH211986   2.664   3.535   1.134
 4010TIP3    H111987   2.597   3.512   1.069
 4010TIP3    H211988   2.684   3.452   1.177
 4011TIP3   OH211989   2.265   4.626   0.164
 4011TIP3    H111990   2.331   4.558   0.148
 4011TIP3    H211991   2.183   4.578   0.175
 4012TIP3   OH211992   5.665   2.038   3.793
 4012TIP3    H111993   5.673   2.121   3.840
 4012TIP3    H211994   5.571   2.023   3.787
 4013TIP3   OH211995   2.700   4.848   4.453
 4013TIP3    H111996   2.645   4.824   4.378
 4013TIP3    H211997   2.785   4.867   4.415
 4014TIP3   OH211998   4.377   4.073   4.170
 4014TIP3    H111999   4.400   4.053   4.079
 4014TIP3    H212000   4.446   4.030   4.222
 4015TIP3   OH212001   7.835   6.412   3.352
 4015TIP3    H112002   7.910   6.423   3.293
 4015TIP3    H212003   7.759   6.440   3.301
 4016TIP3   OH212004   4.168   7.235   4.000
 4016TIP3    H112005   4.198   7.271   3.917
 4016TIP3    H212006   4.206   7.294   4.066
 4017TIP3   OH212007   5.819   1.638   1.663
 4017TIP3    H112008   5.805   1.603   1.575
 4017TIP3    H212009   5.822   1.560   1.720
 4018TIP3   OH212010   4.107   4.703   6.338
 4018TIP3    H112011   4.108   4.795   6.312
 4018TIP3    H212012   4.143   4.656   6.263
 4019TIP3   OH212013   5.049   1.901   1.257
 4019TIP3    H112014   4.971   1.846   1.268
 4019TIP3    H212015   5.083   1.878   1.171
 4020TIP3   OH212016   4.967   1.018   3.950
 4020TIP3    H112017   5.051   1.006   3.993
 4020TIP3    H212018   4.944   1.110   3.966
 4021TIP3   OH212019   5.674   2.740   0.329
 4021TIP3    H112020   5.583   2.714   0.317
 4021TIP3    H212021   5.695   2.792   0.252
 4022TIP3   OH212022   4.366   1.610   5.450
 4022TIP3    H112023   4.450   1.569   5.474
 4022TIP3    H212024   4.302   1.540   5.459
 4023TIP3   OH212025   4.204   2.554   2.374
 4023TIP3    H112026   4.259   2.615   2.423
 4023TIP3    H212027   4.121   2.601   2.363
 4024TIP3   OH212028   4.583   3.963   2.877
 4024TIP3    H112029   4.621   3.886   2.835
 4024TIP3    H212030   4.488   3.954   2.863
 4025TIP3   OH212031   0.902   6.443   2.190
 4025TIP3    H112032   0.838   6.396   2.138
 4025TIP3    H212033   0.862   6.451   2.277
 4026TIP3   OH212034   0.449   1.722   5.434
 4026TIP3    H112035   0.367   1.699   5.478
 4026TIP3    H212036   0.483   1.795   5.484
 4027TIP3   OH212037   1.483   0.890   3.679
 4027TIP3    H112038   1.539   0.903   3.602
 4027TIP3    H212039   1.412   0.954   3.667
 4028TIP3   OH212040   6.555   3.376   1.924
 4028TIP3    H112041   6.561   3.281   1.931
 4028TIP3    H212042   6.629   3.401   1.868
 4029TIP3   OH212043   0.912   0.580   5.455
 4029TIP3    H112044   0.875   0.665   5.430
 4029TIP3    H212045   0.922   0.586   5.550
 4030TIP3   OH212046   1.385   2.137   3.141
 4030TIP3    H112047   1.457   2.200   3.135
 4030TIP3    H212048   1.331   2.155   3.065
 4031TIP3   OH212049   8.072   5.374   5.100
 4031TIP3    H112050   8.110   5.335   5.022
 4031TIP3    H212051   8.135   5.440   5.128
 4032TIP3   OH212052   2.140   4.352   1.975
 4032TIP3    H112053   2.091   4.410   2.033
 4032TIP3    H212054   2.161   4.276   2.030
 4033TIP3   OH212055   4.671   0.896   0.678
 4033TIP3    H112056   4.592   0.873   0.726
 4033TIP3    H212057   4.717   0.956   0.736
 4034TIP3   OH212058   0.088   3.715   4.694
 4034TIP3    H112059   0.061   3.626   4.671
 4034TIP3    H212060   0.178   3.721   4.664
 4035TIP3   OH212061   5.140   4.883   0.967
 4035TIP3    H112062   5.153   4.790   0.987
 4035TIP3    H212063   5.201   4.929   1.025
 4036TIP3   OH212064   6.686   5.860   1.685
 4036TIP3    H112065   6.742   5.798   1.733
 4036TIP3    H212066   6.682   5.825   1.596
 4037TIP3   OH212067   1.379   6.632   4.013
 4037TIP3    H112068   1.345   6.687   4.084
 4037TIP3    H212069   1.312   6.565   4.001
 4038TIP3   OH212070   5.559   0.606   3.480
 4038TIP3    H112071   5.527   0.600   3.390
 4038TIP3    H212072   5.499   0.550   3.530
 4039TIP3   OH212073   0.202   6.039   1.644
 4039TIP3    H112074   0.239   6.124   1.668
 4039TIP3    H212075   0.229   5.981   1.715
 4040TIP3   OH212076   2.196   2.629   5.156
 4040TIP3    H112077   2.153   2.689   5.094
 4040TIP3    H212078   2.126   2.600   5.213
 4041TIP3   OH212079   2.279   1.583   5.787
 4041TIP3    H112080   2.230   1.524   5.729
 4041TIP3    H212081   2.326   1.641   5.727
 4042TIP3   OH212082   7.798   1.182   4.039
 4042TIP3    H112083   7.837   1.140   4.115
 4042TIP3    H212084   7.713   1.214   4.070
 4043TIP3   OH212085   3.248   2.279   1.036
 4043TIP3    H112086   3.313   2.334   0.993
 4043TIP3    H212087   3.290   2.193   1.043
 4044TIP3   OH212088   0.779   3.353   0.654
 4044TIP3    H112089   0.729   3.434   0.654
 4044TIP3    H212090   0.860   3.375   0.701
 4045TIP3   OH212091   2.349   4.286   1.570
 4045TIP3    H112092   2.284   4.346   1.606
 4045TIP3    H212093   2.421   4.342   1.544
 4046TIP3   OH212094   3.721   2.184   4.349
 4046TIP3    H112095   3.674   2.129   4.286
 4046TIP3    H212096   3.656   2.247   4.379
 4047TIP3   OH212097   4.150   7.248   5.260
 4047TIP3    H112098   4.104   7.276   5.339
 4047TIP3    H212099   4.126   7.156   5.249
 4048TIP3   OH212100   7.782   1.061   4.388
 4048TIP3    H112101   7.843   1.120   4.433
 4048TIP3    H212102   7.717   1.038   4.454
 4049TIP3   OH212103   2.909   1.309   6.359
 4049TIP3    H112104   2.981   1.368   6.380
 4049TIP3    H212105   2.830   1.359   6.379
 4050TIP3   OH212106   6.263   1.494   2.406
 4050TIP3    H112107   6.343   1.441   2.412
 4050TIP3    H212108   6.236   1.486   2.315
 4051TIP3   OH212109   5.738   7.706   2.440
 4051TIP3    H112110   5.710   7.798   2.446
 4051TIP3    H212111   5.770   7.697   2.350
 4052TIP3   OH212112   4.742   2.695   4.442
 4052TIP3    H112113   4.686   2.702   4.364
 4052TIP3    H212114   4.683   2.713   4.515
 4053TIP3   OH212115   5.475   4.880   1.863
 4053TIP3    H112116   5.550   4.906   1.916
 4053TIP3    H212117   5.489   4.787   1.846
 4054TIP3   OH212118   6.356   4.840   1.220
 4054TIP3    H112119   6.281   4.830   1.279
 4054TIP3    H212120   6.433   4.827   1.276
 4055TIP3   OH212121   6.584   0.673   4.348
 4055TIP3    H112122   6.605   0.732   4.276
 4055TIP3    H212123   6.546   0.596   4.307
 4056TIP3   OH212124   2.916   5.202   3.430
 4056TIP3    H112125   2.871   5.117   3.431
 4056TIP3    H212126   2.997   5.185   3.383
 4057TIP3   OH212127   0.674   4.225   2.667
 4057TIP3    H112128   0.619   4.154   2.636
 4057TIP3    H212129   0.708   4.266   2.587
 4058TIP3   OH212130   0.426   2.768   4.193
 4058TIP3    H112131   0.471   2.718   4.261
 4058TIP3    H212132   0.457   2.858   4.206
 4059TIP3   OH212133   2.236   3.463   6.673
 4059TIP3    H112134   2.326   3.457   6.704
 4059TIP3    H212135   2.217   3.557   6.674
 4060TIP3   OH212136   4.067   1.774   5.162
 4060TIP3    H112137   4.144   1.818   5.127
 4060TIP3    H212138   4.076   1.784   5.257
 4061TIP3   OH212139   5.951   5.134   6.258
 4061TIP3    H112140   5.874   5.113   6.312
 4061TIP3    H212141   5.914   5.164   6.175
 4062TIP3   OH212142   5.279   3.790   6.474
 4062TIP3    H112143   5.250   3.763   6.560
 4062TIP3    H212144   5.366   3.827   6.489
 4063TIP3   OH212145   7.416   1.326   2.889
 4063TIP3    H112146   7.467   1.374   2.823
 4063TIP3    H212147   7.424   1.380   2.968
 4064TIP3   OH212148   3.226   6.013   3.399
 4064TIP3    H112149   3.195   6.099   3.374
 4064TIP3    H212150   3.295   6.030   3.464
 4065TIP3   OH212151   0.938   3.127   5.053
 4065TIP3    H112152   0.964   3.035   5.052
 4065TIP3    H212153   0.914   3.145   5.144
 4066TIP3   OH212154   5.124   2.182   0.862
 4066TIP3    H112155   5.126   2.129   0.782
 4066TIP3    H212156   5.213   2.175   0.898
 4067TIP3   OH212157   4.543   4.722   5.137
 4067TIP3    H112158   4.535   4.680   5.052
 4067TIP3    H212159   4.465   4.777   5.144
 4068TIP3   OH212160   2.843   2.251   6.214
 4068TIP3    H112161   2.888   2.272   6.295
 4068TIP3    H212162   2.912   2.249   6.147
 4069TIP3   OH212163   5.886   5.777   4.988
 4069TIP3    H112164   5.807   5.755   5.037
 4069TIP3    H212165   5.946   5.704   5.005
 4070TIP3   OH212166   7.734   5.810   4.676
 4070TIP3    H112167   7.662   5.751   4.655
 4070TIP3    H212168   7.731   5.878   4.608
 4071TIP3   OH212169   5.974   7.516   3.862
 4071TIP3    H112170   5.897   7.568   3.840
 4071TIP3    H212171   5.977   7.448   3.794
 4072TIP3   OH212172   7.434   1.650   2.228
 4072TIP3    H112173   7.393   1.582   2.175
 4072TIP3    H212174   7.469   1.604   2.304
 4073TIP3   OH212175   5.605   3.467   4.898
 4073TIP3    H112176   5.526   3.515   4.922
 4073TIP3    H212177   5.661   3.533   4.858
 4074TIP3   OH212178   7.495   1.474   1.565
 4074TIP3    H112179   7.403   1.498   1.573
 4074TIP3    H212180   7.504   1.443   1.475
 4075TIP3   OH212181   7.822   3.581   5.068
 4075TIP3    H112182   7.745   3.590   5.125
 4075TIP3    H212183   7.847   3.488   5.076
 4076TIP3   OH212184   2.334   0.030   3.613
 4076TIP3    H112185   2.273  -0.010   3.674
 4076TIP3    H212186   2.406  -0.033   3.606
 4077TIP3   OH212187   4.636   3.845   5.849
 4077TIP3    H112188   4.646   3.866   5.756
 4077TIP3    H212189   4.725   3.827   5.879
 4078TIP3   OH212190   7.878   5.465   5.703
 4078TIP3    H112191   7.797   5.414   5.690
 4078TIP3    H212192   7.886   5.473   5.798
 4079TIP3   OH212193   5.731   6.218   2.569
 4079TIP3    H112194   5.736   6.312   2.584
 4079TIP3    H212195   5.772   6.205   2.484
 4080TIP3   OH212196   6.472   0.300   5.709
 4080TIP3    H112197   6.477   0.332   5.799
 4080TIP3    H212198   6.394   0.246   5.708
 4081TIP3   OH212199   0.368   0.336   4.641
 4081TIP3    H112200   0.303   0.266   4.643
 4081TIP3    H212201   0.328   0.404   4.587
 4082TIP3   OH212202   3.367   6.666   1.579
 4082TIP3    H112203   3.312   6.736   1.613
 4082TIP3    H212204   3.371   6.682   1.485
 4083TIP3   OH212205   0.418   1.199   1.587
 4083TIP3    H112206   0.456   1.286   1.576
 4083TIP3    H212207   0.339   1.199   1.533
 4084TIP3   OH212208   1.562   6.028   5.923
 4084TIP3    H112209   1.492   6.045   5.986
 4084TIP3    H212210   1.532   6.070   5.842
 4085TIP3   OH212211   7.228   0.559   4.894
 4085TIP3    H112212   7.270   0.532   4.976
 4085TIP3    H212213   7.135   0.565   4.916
 4086TIP3   OH212214   3.137   6.118   4.263
 4086TIP3    H112215   3.057   6.084   4.304
 4086TIP3    H212216   3.168   6.047   4.208
 4087TIP3   OH212217   2.083   6.927   2.888
 4087TIP3    H112218   2.002   6.942   2.938
 4087TIP3    H212219   2.123   6.851   2.930
 4088TIP3   OH212220   1.883   0.834   2.662
 4088TIP3    H112221   1.955   0.855   2.604
 4088TIP3    H212222   1.821   0.907   2.653
 4089TIP3   OH212223   3.874   4.917   1.931
 4089TIP3    H112224   3.870   4.852   2.000
 4089TIP3    H212225   3.919   4.873   1.858
 4090TIP3   OH212226   1.996   2.239   0.769
 4090TIP3    H112227   1.942   2.186   0.711
 4090TIP3    H212228   1.955   2.325   0.768
 4091TIP3   OH212229   2.952   5.450   1.428
 4091TIP3    H112230   3.042   5.448   1.459
 4091TIP3    H212231   2.899   5.436   1.507
 4092TIP3   OH212232   7.126   4.699   2.667
 4092TIP3    H112233   7.053   4.650   2.705
 4092TIP3    H212234   7.140   4.658   2.582
 4093TIP3   OH212235   2.938   1.898   5.428
 4093TIP3    H112236   2.861   1.939   5.390
 4093TIP3    H212237   3.006   1.907   5.361
 4094TIP3   OH212238   2.493   4.251   2.803
 4094TIP3    H112239   2.442   4.323   2.842
 4094TIP3    H212240   2.507   4.278   2.712
 4095TIP3   OH212241   0.695   2.668   0.997
 4095TIP3    H112242   0.689   2.757   1.029
 4095TIP3    H212243   0.773   2.632   1.038
 4096TIP3   OH212244   3.872   3.101   5.357
 4096TIP3    H112245   3.888   3.150   5.276
 4096TIP3    H212246   3.826   3.022   5.328
 4097TIP3   OH212247   6.573   3.443   1.002
 4097TIP3    H112248   6.541   3.439   0.912
 4097TIP3    H212249   6.666   3.420   0.996
 4098TIP3   OH212250   3.429   2.325   4.114
 4098TIP3    H112251   3.474   2.319   4.198
 4098TIP3    H212252   3.497   2.310   4.048
 4099TIP3   OH212253   3.438   4.134   6.294
 4099TIP3    H112254   3.452   4.066   6.359
 4099TIP3    H212255   3.478   4.100   6.214
 4100TIP3   OH212256   1.152   1.195   5.992
 4100TIP3    H112257   1.075   1.139   5.997
 4100TIP3    H212258   1.173   1.216   6.083
 4101TIP3   OH212259   2.446   0.300   1.754
 4101TIP3    H112260   2.408   0.214   1.772
 4101TIP3    H212261   2.439   0.309   1.659
 4102TIP3   OH212262   5.147   5.084   3.933
 4102TIP3    H112263   5.057   5.116   3.941
 4102TIP3    H212264   5.154   5.054   3.843
 4103TIP3   OH212265   0.312   3.089   0.912
 4103TIP3    H112266   0.272   3.067   0.828
 4103TIP3    H212267   0.385   3.147   0.889
 4104TIP3   OH212268   6.429   5.526   0.345
 4104TIP3    H112269   6.378   5.606   0.339
 4104TIP3    H212270   6.500   5.547   0.406
 4105TIP3   OH212271   2.742   3.227   4.972
 4105TIP3    H112272   2.771   3.311   4.937
 4105TIP3    H212273   2.706   3.181   4.896
 4106TIP3   OH212274   4.122   7.551   4.880
 4106TIP3    H112275   4.173   7.532   4.959
 4106TIP3    H212276   4.057   7.615   4.908
 4107TIP3   OH212277   3.250   3.597   5.444
 4107TIP3    H112278   3.331   3.548   5.462
 4107TIP3    H212279   3.224   3.569   5.357
 4108TIP3   OH212280   2.912   4.535   3.405
 4108TIP3    H112281   2.952   4.487   3.478
 4108TIP3    H212282   2.958   4.504   3.327
 4109TIP3   OH212283   5.653   4.926   1.613
 4109TIP3    H112284   5.668   4.874   1.692
 4109TIP3    H212285   5.740   4.941   1.577
 4110TIP3   OH212286   3.903   1.294   6.543
 4110TIP3    H112287   3.832   1.245   6.585
 4110TIP3    H212288   3.947   1.339   6.615
 4111TIP3   OH212289   6.426   6.865   2.954
 4111TIP3    H112290   6.397   6.946   2.912
 4111TIP3    H212291   6.373   6.860   3.034
 4112TIP3   OH212292   4.454   0.621   0.171
 4112TIP3    H112293   4.458   0.657   0.260
 4112TIP3    H212294   4.513   0.546   0.173
 4113TIP3   OH212295   4.872   5.261   0.857
 4113TIP3    H112296   4.811   5.189   0.875
 4113TIP3    H212297   4.865   5.318   0.934
 4114TIP3   OH212298   3.901   0.744   0.244
 4114TIP3    H112299   3.806   0.756   0.241
 4114TIP3    H212300   3.936   0.826   0.208
 4115TIP3   OH212301   4.938   4.432   3.411
 4115TIP3    H112302   4.981   4.357   3.452
 4115TIP3    H212303   4.992   4.507   3.436
 4116TIP3   OH212304   2.621   4.650   1.293
 4116TIP3    H112305   2.605   4.560   1.321
 4116TIP3    H212306   2.590   4.703   1.367
 4117TIP3   OH212307   0.487   0.607   0.898
 4117TIP3    H112308   0.473   0.675   0.964
 4117TIP3    H212309   0.518   0.531   0.948
 4118TIP3   OH212310   1.617   4.510   0.905
 4118TIP3    H112311   1.558   4.585   0.895
 4118TIP3    H212312   1.699   4.540   0.865
 4119TIP3   OH212313   8.011   5.470   0.878
 4119TIP3    H112314   8.008   5.375   0.862
 4119TIP3    H212315   7.930   5.487   0.927
 4120TIP3   OH212316   5.443   3.539   3.103
 4120TIP3    H112317   5.394   3.616   3.072
 4120TIP3    H212318   5.378   3.469   3.105
 4121TIP3   OH212319   0.352   0.654   5.125
 4121TIP3    H112320   0.331   0.565   5.095
 4121TIP3    H212321   0.319   0.711   5.055
 4122TIP3   OH212322   6.070   2.503   1.658
 4122TIP3    H112323   6.124   2.477   1.733
 4122TIP3    H212324   6.043   2.592   1.678
 4123TIP3   OH212325   1.058   2.395   3.323
 4123TIP3    H112326   1.056   2.408   3.418
 4123TIP3    H212327   1.103   2.311   3.312
 4124TIP3   OH212328   2.720   4.914   6.383
 4124TIP3    H112329   2.761   5.000   6.387
 4124TIP3    H212330   2.765   4.870   6.311
 4125TIP3   OH212331   4.048   2.936   5.933
 4125TIP3    H112332   4.089   2.981   5.860
 4125TIP3    H212333   4.107   2.862   5.952
 4126TIP3   OH212334   3.312   3.082   2.090
 4126TIP3    H112335   3.358   3.099   2.173
 4126TIP3    H212336   3.284   3.169   2.061
 4127TIP3   OH212337   5.394   7.557   6.322
 4127TIP3    H112338   5.431   7.543   6.235
 4127TIP3    H212339   5.457   7.613   6.366
 4128TIP3   OH212340   3.094   4.924   0.430
 4128TIP3    H112341   3.124   4.959   0.346
 4128TIP3    H212342   3.000   4.944   0.432
 4129TIP3   OH212343   7.880   3.678   3.618
 4129TIP3    H112344   7.877   3.737   3.694
 4129TIP3    H212345   7.972   3.679   3.592
 4130TIP3   OH212346   0.082   7.632   3.442
 4130TIP3    H112347   0.160   7.578   3.449
 4130TIP3    H212348   0.114   7.719   3.417
 4131TIP3   OH212349   1.556   6.161   5.697
 4131TIP3    H112350   1.616   6.155   5.622
 4131TIP3    H212351   1.527   6.252   5.697
 4132TIP3   OH212352   5.400   2.055   3.733
 4132TIP3    H112353   5.330   1.992   3.719
 4132TIP3    H212354   5.413   2.097   3.648
 4133TIP3   OH212355   7.318   5.148   5.374
 4133TIP3    H112356   7.406   5.170   5.405
 4133TIP3    H212357   7.259   5.184   5.440
 4134TIP3   OH212358   1.329   7.541   1.607
 4134TIP3    H112359   1.395   7.568   1.544
 4134TIP3    H212360   1.372   7.547   1.692
 4135TIP3   OH212361   5.539   0.300   0.870
 4135TIP3    H112362   5.629   0.329   0.855
 4135TIP3    H212363   5.549   0.215   0.913
 4136TIP3   OH212364   2.513   0.710   1.324
 4136TIP3    H112365   2.544   0.795   1.291
 4136TIP3    H212366   2.418   0.721   1.332
 4137TIP3   OH212367   6.645   1.138   6.365
 4137TIP3    H112368   6.569   1.136   6.424
 4137TIP3    H212369   6.720   1.128   6.423
 4138TIP3   OH212370   0.734   2.211   1.123
 4138TIP3    H112371   0.819   2.219   1.167
 4138TIP3    H212372   0.751   2.238   1.033
 4139TIP3   OH212373   3.083   4.414   2.558
 4139TIP3    H112374   3.094   4.434   2.465
 4139TIP3    H212375   3.060   4.497   2.598
 4140TIP3   OH212376   6.554   6.944   1.023
 4140TIP3    H112377   6.577   7.037   1.017
 4140TIP3    H212378   6.625   6.898   0.977
 4141TIP3   OH212379   2.133   1.448   5.564
 4141TIP3    H112380   2.173   1.367   5.596
 4141TIP3    H212381   2.064   1.419   5.504
 4142TIP3   OH212382   2.448   0.986   5.497
 4142TIP3    H112383   2.494   0.982   5.580
 4142TIP3    H212384   2.513   0.962   5.431
 4143TIP3   OH212385   4.585   2.428   5.875
 4143TIP3    H112386   4.672   2.400   5.905
 4143TIP3    H212387   4.598   2.517   5.844
 4144TIP3   OH212388   0.794   3.696   1.340
 4144TIP3    H112389   0.769   3.672   1.429
 4144TIP3    H212390   0.814   3.613   1.298
 4145TIP3   OH212391   5.579   7.236   0.522
 4145TIP3    H112392   5.535   7.305   0.472
 4145TIP3    H212393   5.585   7.162   0.461
 4146TIP3   OH212394   1.218   5.352   4.991
 4146TIP3    H112395   1.229   5.308   4.906
 4146TIP3    H212396   1.305   5.385   5.013
 4147TIP3   OH212397   5.081   7.238   2.023
 4147TIP3    H112398   5.145   7.301   2.054
 4147TIP3    H212399   5.133   7.170   1.979
 4148TIP3   OH212400   3.342   7.303   4.605
 4148TIP3    H112401   3.280   7.342   4.666
 4148TIP3    H212402   3.322   7.209   4.607
 4149TIP3   OH212403   1.772   3.216   1.207
 4149TIP3    H112404   1.857   3.173   1.220
 4149TIP3    H212405   1.712   3.167   1.263
 4150TIP3   OH212406   3.602   0.490   5.907
 4150TIP3    H112407   3.542   0.490   5.982
 4150TIP3    H212408   3.548   0.519   5.834
 4151TIP3   OH212409   8.327   4.571   0.851
 4151TIP3    H112410   8.394   4.502   0.853
 4151TIP3    H212411   8.265   4.542   0.784
 4152TIP3   OH212412   7.146   7.277   4.681
 4152TIP3    H112413   7.112   7.216   4.615
 4152TIP3    H212414   7.172   7.354   4.631
 4153TIP3   OH212415   1.733   3.605   4.617
 4153TIP3    H112416   1.815   3.592   4.570
 4153TIP3    H212417   1.684   3.524   4.604
 4154TIP3   OH212418   4.502   4.332   4.493
 4154TIP3    H112419   4.481   4.243   4.464
 4154TIP3    H212420   4.501   4.328   4.588
 4155TIP3   OH212421   6.800   7.568   6.237
 4155TIP3    H112422   6.863   7.563   6.308
 4155TIP3    H212423   6.762   7.656   6.244
 4156TIP3   OH212424   1.835   0.149   2.564
 4156TIP3    H112425   1.812   0.062   2.532
 4156TIP3    H212426   1.752   0.188   2.591
 4157TIP3   OH212427   2.758   3.707   0.950
 4157TIP3    H112428   2.701   3.719   0.874
 4157TIP3    H212429   2.715   3.639   1.002
 4158TIP3   OH212430   0.489   0.977   1.765
 4158TIP3    H112431   0.470   0.908   1.702
 4158TIP3    H212432   0.468   1.058   1.719
 4159TIP3   OH212433   6.319   0.767   4.745
 4159TIP3    H112434   6.377   0.767   4.820
 4159TIP3    H212435   6.359   0.707   4.683
 4160TIP3   OH212436   1.675   4.224   2.389
 4160TIP3    H112437   1.580   4.232   2.397
 4160TIP3    H212438   1.699   4.160   2.456
 4161TIP3   OH212439   1.928   6.287   2.840
 4161TIP3    H112440   1.852   6.311   2.787
 4161TIP3    H212441   1.897   6.295   2.930
 4162TIP3   OH212442   1.126   5.094   6.608
 4162TIP3    H112443   1.107   5.041   6.686
 4162TIP3    H212444   1.198   5.151   6.635
 4163TIP3   OH212445   5.211   6.999   3.103
 4163TIP3    H112446   5.172   6.997   3.016
 4163TIP3    H212447   5.291   7.051   3.093
 4164TIP3   OH212448   1.469   4.508   4.667
 4164TIP3    H112449   1.447   4.423   4.703
 4164TIP3    H212450   1.503   4.489   4.579
 4165TIP3   OH212451   4.288   2.139   2.556
 4165TIP3    H112452   4.207   2.178   2.587
 4165TIP3    H212453   4.274   2.123   2.463
 4166TIP3   OH212454   5.011   0.227   2.739
 4166TIP3    H112455   5.009   0.175   2.658
 4166TIP3    H212456   5.104   0.244   2.753
 4167TIP3   OH212457   6.036   5.126   2.023
 4167TIP3    H112458   5.965   5.167   1.973
 4167TIP3    H212459   6.085   5.076   1.958
 4168TIP3   OH212460   7.598   6.776   6.400
 4168TIP3    H112461   7.617   6.712   6.331
 4168TIP3    H212462   7.542   6.841   6.358
 4169TIP3   OH212463   2.872   2.661   2.664
 4169TIP3    H112464   2.839   2.701   2.744
 4169TIP3    H212465   2.795   2.650   2.609
 4170TIP3   OH212466   5.885   6.754   6.645
 4170TIP3    H112467   5.822   6.682   6.640
 4170TIP3    H212468   5.835   6.831   6.620
 4171TIP3   OH212469   6.417   2.500   3.442
 4171TIP3    H112470   6.441   2.579   3.491
 4171TIP3    H212471   6.401   2.434   3.510
 4172TIP3   OH212472   4.723   4.767   4.644
 4172TIP3    H112473   4.651   4.711   4.671
 4172TIP3    H212474   4.692   4.809   4.564
 4173TIP3   OH212475   4.707   6.135   4.115
 4173TIP3    H112476   4.778   6.171   4.061
 4173TIP3    H212477   4.637   6.115   4.053
 4174TIP3   OH212478   1.927   0.190   4.499
 4174TIP3    H112479   1.927   0.223   4.588
 4174TIP3    H212480   1.882   0.257   4.448
 4175TIP3   OH212481   7.689   1.676   3.997
 4175TIP3    H112482   7.677   1.613   3.926
 4175TIP3    H212483   7.637   1.641   4.069
 4176TIP3   OH212484   7.750   7.729   0.493
 4176TIP3    H112485   7.704   7.709   0.412
 4176TIP3    H212486   7.793   7.813   0.477
 4177TIP3   OH212487   3.272   3.959   3.381
 4177TIP3    H112488   3.365   3.970   3.401
 4177TIP3    H212489   3.261   4.000   3.295
 4178TIP3   OH212490   7.926   1.492   5.964
 4178TIP3    H112491   7.942   1.401   5.939
 4178TIP3    H212492   8.012   1.534   5.957
 4179TIP3   OH212493   1.072   4.381   6.520
 4179TIP3    H112494   0.995   4.325   6.516
 4179TIP3    H212495   1.073   4.428   6.436
 4180TIP3   OH212496   2.920   1.607   0.206
 4180TIP3    H112497   2.984   1.619   0.136
 4180TIP3    H212498   2.845   1.659   0.179
 4181TIP3   OH212499   1.928   1.561   5.913
 4181TIP3    H112500   1.984   1.528   5.982
 4181TIP3    H212501   1.841   1.566   5.953
 4182TIP3   OH212502   7.820   7.771   1.051
 4182TIP3    H112503   7.908   7.767   1.013
 4182TIP3    H212504   7.777   7.842   1.005
 4183TIP3   OH212505   6.579   7.716   3.819
 4183TIP3    H112506   6.606   7.727   3.728
 4183TIP3    H212507   6.594   7.623   3.838
 4184TIP3   OH212508   7.374   5.612   0.678
 4184TIP3    H112509   7.344   5.522   0.690
 4184TIP3    H212510   7.469   5.605   0.672
 4185TIP3   OH212511   3.983   3.710   2.451
 4185TIP3    H112512   4.004   3.624   2.487
 4185TIP3    H212513   3.920   3.747   2.512
 4186TIP3   OH212514   5.166   5.512   2.904
 4186TIP3    H112515   5.219   5.573   2.955
 4186TIP3    H212516   5.215   5.499   2.823
 4187TIP3   OH212517   7.954   6.737   5.951
 4187TIP3    H112518   7.928   6.829   5.957
 4187TIP3    H212519   7.890   6.690   6.005
 4188TIP3   OH212520   3.695   2.389   1.141
 4188TIP3    H112521   3.786   2.402   1.170
 4188TIP3    H212522   3.665   2.477   1.118
 4189TIP3   OH212523   7.990   7.207   5.857
 4189TIP3    H112524   7.960   7.236   5.771
 4189TIP3    H212525   8.043   7.281   5.890
 4190TIP3   OH212526   8.287   3.831   0.545
 4190TIP3    H112527   8.318   3.762   0.487
 4190TIP3    H212528   8.205   3.796   0.582
 4191TIP3   OH212529   2.772   6.818   5.313
 4191TIP3    H112530   2.803   6.896   5.359
 4191TIP3    H212531   2.688   6.797   5.354
 4192TIP3   OH212532   1.932   5.607   2.283
 4192TIP3    H112533   1.980   5.688   2.302
 4192TIP3    H212534   1.954   5.549   2.356
 4193TIP3   OH212535   5.485   1.848   6.455
 4193TIP3    H112536   5.418   1.897   6.406
 4193TIP3    H212537   5.444   1.763   6.472
 4194TIP3   OH212538   4.507   4.961   0.764
 4194TIP3    H112539   4.567   4.966   0.690
 4194TIP3    H212540   4.489   4.868   0.775
 4195TIP3   OH212541   0.619   3.409   1.764
 4195TIP3    H112542   0.581   3.340   1.817
 4195TIP3    H212543   0.694   3.440   1.815
 4196TIP3   OH212544   4.646   4.038   3.184
 4196TIP3    H112545   4.685   3.964   3.231
 4196TIP3    H212546   4.596   3.997   3.113
 4197TIP3   OH212547   3.334   0.149   3.491
 4197TIP3    H112548   3.284   0.223   3.455
 4197TIP3    H212549   3.425   0.175   3.481
 4198TIP3   OH212550   2.858   6.393   6.697
 4198TIP3    H112551   2.828   6.321   6.641
 4198TIP3    H212552   2.782   6.413   6.753
 4199TIP3   OH212553   7.659   3.672   3.967
 4199TIP3    H112554   7.701   3.588   3.983
 4199TIP3    H212555   7.641   3.672   3.873
 4200TIP3   OH212556   4.035   0.905   0.760
 4200TIP3    H112557   4.125   0.880   0.741
 4200TIP3    H212558   4.021   0.985   0.710
 4201TIP3   OH212559   3.599   1.926   0.448
 4201TIP3    H112560   3.686   1.927   0.408
 4201TIP3    H212561   3.599   2.003   0.505
 4202TIP3   OH212562   5.772   7.574   5.637
 4202TIP3    H112563   5.796   7.667   5.637
 4202TIP3    H212564   5.819   7.537   5.711
 4203TIP3   OH212565   5.459   7.489   4.196
 4203TIP3    H112566   5.395   7.437   4.244
 4203TIP3    H212567   5.519   7.522   4.263
 4204TIP3   OH212568   6.750   5.885   0.767
 4204TIP3    H112569   6.734   5.979   0.760
 4204TIP3    H212570   6.828   5.870   0.713
 4205TIP3   OH212571   3.832   2.327   2.204
 4205TIP3    H112572   3.814   2.417   2.176
 4205TIP3    H212573   3.769   2.274   2.155
 4206TIP3   OH212574   5.446   0.391   0.457
 4206TIP3    H112575   5.373   0.348   0.500
 4206TIP3    H212576   5.498   0.320   0.420
 4207TIP3   OH212577   7.473   6.508   0.432
 4207TIP3    H112578   7.560   6.474   0.453
 4207TIP3    H212579   7.488   6.572   0.363
 4208TIP3   OH212580   4.143   0.363   6.215
 4208TIP3    H112581   4.166   0.274   6.242
 4208TIP3    H212582   4.220   0.416   6.237
 4209TIP3   OH212583   6.843   7.414   3.057
 4209TIP3    H112584   6.913   7.361   3.017
 4209TIP3    H212585   6.859   7.407   3.151
 4210TIP3   OH212586   1.483   1.839   0.421
 4210TIP3    H112587   1.562   1.883   0.389
 4210TIP3    H212588   1.487   1.751   0.384
 4211TIP3   OH212589   6.412   4.223   4.464
 4211TIP3    H112590   6.394   4.300   4.518
 4211TIP3    H212591   6.345   4.159   4.490
 4212TIP3   OH212592   2.887   5.457   1.139
 4212TIP3    H112593   2.893   5.362   1.142
 4212TIP3    H212594   2.931   5.486   1.219
 4213TIP3   OH212595   4.289   5.444   2.658
 4213TIP3    H112596   4.230   5.432   2.584
 4213TIP3    H212597   4.328   5.358   2.672
 4214TIP3   OH212598   7.161   4.036   5.887
 4214TIP3    H112599   7.149   4.002   5.798
 4214TIP3    H212600   7.120   3.971   5.943
 4215TIP3   OH212601   3.517   5.131   2.001
 4215TIP3    H112602   3.575   5.198   2.037
 4215TIP3    H212603   3.500   5.161   1.912
 4216TIP3   OH212604   3.289   5.309   1.816
 4216TIP3    H112605   3.237   5.243   1.771
 4216TIP3    H212606   3.249   5.317   1.903
 4217TIP3   OH212607   7.484   3.216   3.801
 4217TIP3    H112608   7.548   3.287   3.802
 4217TIP3    H212609   7.536   3.137   3.815
 4218TIP3   OH212610   7.796   1.674   2.932
 4218TIP3    H112611   7.736   1.729   2.881
 4218TIP3    H212612   7.858   1.737   2.971
 4219TIP3   OH212613   0.071   5.126   2.995
 4219TIP3    H112614   0.137   5.115   3.064
 4219TIP3    H212615   0.119   5.164   2.922
 4220TIP3   OH212616   2.112   6.629   2.965
 4220TIP3    H112617   2.029   6.596   2.931
 4220TIP3    H212618   2.091   6.660   3.053
 4221TIP3   OH212619   3.932   6.077   5.523
 4221TIP3    H112620   3.897   6.161   5.554
 4221TIP3    H212621   3.889   6.062   5.439
 4222TIP3   OH212622   5.364   4.692   3.577
 4222TIP3    H112623   5.385   4.725   3.664
 4222TIP3    H212624   5.419   4.743   3.518
 4223TIP3   OH212625   7.594   7.582   1.031
 4223TIP3    H112626   7.536   7.581   0.954
 4223TIP3    H212627   7.658   7.650   1.012
 4224TIP3   OH212628   8.143   7.664   5.721
 4224TIP3    H112629   8.131   7.695   5.631
 4224TIP3    H212630   8.213   7.720   5.755
 4225TIP3   OH212631   1.164   6.740   1.205
 4225TIP3    H112632   1.196   6.653   1.183
 4225TIP3    H212633   1.083   6.749   1.155
 4226TIP3   OH212634   2.158   5.630   4.930
 4226TIP3    H112635   2.119   5.682   5.000
 4226TIP3    H212636   2.122   5.542   4.943
 4227TIP3   OH212637   6.530   2.844   1.494
 4227TIP3    H112638   6.510   2.768   1.548
 4227TIP3    H212639   6.453   2.901   1.503
 4228TIP3   OH212640   6.961   4.476   5.241
 4228TIP3    H112641   7.042   4.428   5.223
 4228TIP3    H212642   6.893   4.409   5.238
 4229TIP3   OH212643   5.253   3.626   3.425
 4229TIP3    H112644   5.313   3.670   3.485
 4229TIP3    H212645   5.271   3.533   3.438
 4230TIP3   OH212646   7.092   1.125   4.283
 4230TIP3    H112647   7.109   1.032   4.301
 4230TIP3    H212648   7.131   1.171   4.358
 4231TIP3   OH212649   0.056   7.438   4.760
 4231TIP3    H112650   0.113   7.438   4.837
 4231TIP3    H212651   0.046   7.345   4.737
 4232TIP3   OH212652   6.509   4.995   1.851
 4232TIP3    H112653   6.554   4.984   1.768
 4232TIP3    H212654   6.418   4.971   1.832
 4233TIP3   OH212655   3.136   2.712   0.564
 4233TIP3    H112656   3.087   2.728   0.645
 4233TIP3    H212657   3.151   2.800   0.529
 4234TIP3   OH212658   7.027   7.632   0.631
 4234TIP3    H112659   7.084   7.621   0.555
 4234TIP3    H212660   6.962   7.696   0.605
 4235TIP3   OH212661   3.325   6.833   2.240
 4235TIP3    H112662   3.326   6.753   2.294
 4235TIP3    H212663   3.411   6.833   2.197
 4236TIP3   OH212664   2.886   6.837   3.095
 4236TIP3    H112665   2.861   6.919   3.136
 4236TIP3    H212666   2.823   6.824   3.025
 4237TIP3   OH212667   6.502   5.661   0.068
 4237TIP3    H112668   6.423   5.706   0.098
 4237TIP3    H212669   6.560   5.664   0.144
 4238TIP3   OH212670   5.482   0.864   3.208
 4238TIP3    H112671   5.494   0.874   3.114
 4238TIP3    H212672   5.477   0.770   3.222
 4239TIP3   OH212673   6.429   2.316   3.637
 4239TIP3    H112674   6.351   2.275   3.674
 4239TIP3    H212675   6.484   2.335   3.713
 4240TIP3   OH212676   0.380   6.342   3.713
 4240TIP3    H112677   0.472   6.323   3.731
 4240TIP3    H212678   0.376   6.438   3.708
 4241TIP3   OH212679   4.791   5.616   0.573
 4241TIP3    H112680   4.707   5.661   0.571
 4241TIP3    H212681   4.840   5.658   0.643
 4242TIP3   OH212682   5.364   2.545   0.461
 4242TIP3    H112683   5.412   2.528   0.379
 4242TIP3    H212684   5.276   2.510   0.445
 4243TIP3   OH212685   3.891   1.275   6.228
 4243TIP3    H112686   3.873   1.367   6.245
 4243TIP3    H212687   3.813   1.229   6.260
 4244TIP3   OH212688   4.976   5.001   4.492
 4244TIP3    H112689   4.986   4.924   4.548
 4244TIP3    H212690   4.940   5.069   4.549
 4245TIP3   OH212691   8.284   7.052   5.086
 4245TIP3    H112692   8.207   7.098   5.053
 4245TIP3    H212693   8.273   7.054   5.181
 4246TIP3   OH212694   5.973   2.737   1.748
 4246TIP3    H112695   5.896   2.775   1.706
 4246TIP3    H212696   6.006   2.806   1.806
 4247TIP3   OH212697   3.766   2.475   3.748
 4247TIP3    H112698   3.836   2.420   3.714
 4247TIP3    H212699   3.795   2.502   3.835
 4248TIP3   OH212700   0.936   2.252   2.628
 4248TIP3    H112701   0.957   2.310   2.554
 4248TIP3    H212702   0.944   2.164   2.592
 4249TIP3   OH212703   6.143   3.796   2.611
 4249TIP3    H112704   6.085   3.724   2.637
 4249TIP3    H212705   6.224   3.781   2.660
 4250TIP3   OH212706   7.080   3.860   6.076
 4250TIP3    H112707   6.991   3.888   6.100
 4250TIP3    H212708   7.127   3.856   6.159
 4251TIP3   OH212709   3.040   0.068   3.413
 4251TIP3    H112710   3.086  -0.012   3.385
 4251TIP3    H212711   3.103   0.113   3.469
 4252TIP3   OH212712   8.055   4.121   6.574
 4252TIP3    H112713   8.100   4.039   6.556
 4252TIP3    H212714   8.120   4.189   6.554
 4253TIP3   OH212715   5.326   6.238   3.185
 4253TIP3    H112716   5.407   6.192   3.163
 4253TIP3    H212717   5.355   6.326   3.212
 4254TIP3   OH212718   7.524   7.194   0.948
 4254TIP3    H112719   7.589   7.171   1.014
 4254TIP3    H212720   7.487   7.111   0.920
 4255TIP3   OH212721   6.282   4.347   5.693
 4255TIP3    H112722   6.297   4.406   5.619
 4255TIP3    H212723   6.311   4.397   5.769
 4256TIP3   OH212724   3.565   0.569   3.499
 4256TIP3    H112725   3.526   0.646   3.457
 4256TIP3    H212726   3.595   0.601   3.584
 4257TIP3   OH212727   5.479   5.393   2.370
 4257TIP3    H112728   5.568   5.371   2.342
 4257TIP3    H212729   5.449   5.316   2.416
 4258TIP3   OH212730   2.999   4.029   4.754
 4258TIP3    H112731   2.914   4.033   4.799
 4258TIP3    H212732   3.001   3.943   4.713
 4259TIP3   OH212733   4.342   1.564   1.000
 4259TIP3    H112734   4.405   1.623   1.042
 4259TIP3    H212735   4.390   1.481   0.991
 4260TIP3   OH212736   7.734   4.051   0.733
 4260TIP3    H112737   7.701   4.080   0.818
 4260TIP3    H212738   7.656   4.030   0.682
 4261TIP3   OH212739   0.736   3.866   6.801
 4261TIP3    H112740   0.807   3.895   6.858
 4261TIP3    H212741   0.775   3.864   6.713
 4262TIP3   OH212742   1.872   5.863   3.129
 4262TIP3    H112743   1.894   5.886   3.220
 4262TIP3    H212744   1.926   5.921   3.076
 4263TIP3   OH212745   6.227   2.679   5.423
 4263TIP3    H112746   6.204   2.664   5.515
 4263TIP3    H212747   6.322   2.678   5.421
 4264TIP3   OH212748   4.124   0.096   5.165
 4264TIP3    H112749   4.161   0.107   5.252
 4264TIP3    H212750   4.186   0.139   5.106
 4265TIP3   OH212751   4.645   5.813   0.819
 4265TIP3    H112752   4.735   5.784   0.801
 4265TIP3    H212753   4.598   5.733   0.841
 4266TIP3   OH212754   0.052   6.008   0.895
 4266TIP3    H112755  -0.036   5.971   0.899
 4266TIP3    H212756   0.065   6.048   0.981
 4267TIP3   OH212757   0.495   6.593   2.876
 4267TIP3    H112758   0.432   6.636   2.819
 4267TIP3    H212759   0.468   6.501   2.879
 4268TIP3   OH212760   6.944   1.631   2.903
 4268TIP3    H112761   6.859   1.638   2.947
 4268TIP3    H212762   6.982   1.550   2.936
 4269TIP3   OH212763   6.701   3.693   2.253
 4269TIP3    H112764   6.749   3.771   2.225
 4269TIP3    H212765   6.758   3.620   2.231
 4270TIP3   OH212766   2.453   2.307   3.466
 4270TIP3    H112767   2.506   2.317   3.387
 4270TIP3    H212768   2.509   2.341   3.536
 4271TIP3   OH212769   3.675   4.981   1.709
 4271TIP3    H112770   3.678   4.886   1.710
 4271TIP3    H212771   3.582   5.003   1.704
 4272TIP3   OH212772   3.469   7.452   0.798
 4272TIP3    H112773   3.488   7.438   0.705
 4272TIP3    H212774   3.555   7.465   0.838
 4273TIP3   OH212775   3.410   3.961   5.049
 4273TIP3    H112776   3.439   3.875   5.080
 4273TIP3    H212777   3.352   3.941   4.975
 4274TIP3   OH212778   3.637   1.553   5.056
 4274TIP3    H112779   3.666   1.614   5.124
 4274TIP3    H212780   3.613   1.474   5.104
 4275TIP3   OH212781   4.117   1.391   3.581
 4275TIP3    H112782   4.046   1.385   3.644
 4275TIP3    H212783   4.120   1.483   3.555
 4276TIP3   OH212784   0.244   0.747   5.841
 4276TIP3    H112785   0.281   0.744   5.929
 4276TIP3    H212786   0.290   0.819   5.798
 4277TIP3   OH212787   2.502   7.278   2.979
 4277TIP3    H112788   2.593   7.301   2.957
 4277TIP3    H212789   2.463   7.361   3.008
 4278TIP3   OH212790   4.424   6.383   6.654
 4278TIP3    H112791   4.333   6.357   6.638
 4278TIP3    H212792   4.431   6.469   6.613
 4279TIP3   OH212793   5.110   2.254   3.353
 4279TIP3    H112794   5.042   2.197   3.316
 4279TIP3    H212795   5.179   2.255   3.287
 4280TIP3   OH212796   3.721   2.292   4.741
 4280TIP3    H112797   3.807   2.250   4.734
 4280TIP3    H212798   3.733   2.377   4.699
 4281TIP3   OH212799   6.933   5.578   4.438
 4281TIP3    H112800   7.021   5.601   4.468
 4281TIP3    H212801   6.942   5.488   4.405
 4282TIP3   OH212802   7.367   4.696   0.211
 4282TIP3    H112803   7.453   4.676   0.176
 4282TIP3    H212804   7.366   4.791   0.222
 4283TIP3   OH212805   7.138   1.504   0.766
 4283TIP3    H112806   7.139   1.419   0.723
 4283TIP3    H212807   7.230   1.523   0.783
 4284TIP3   OH212808   5.821   0.394   1.336
 4284TIP3    H112809   5.856   0.305   1.323
 4284TIP3    H212810   5.792   0.421   1.249
 4285TIP3   OH212811   2.227   2.082   6.474
 4285TIP3    H112812   2.301   2.125   6.516
 4285TIP3    H212813   2.172   2.051   6.546
 4286TIP3   OH212814   2.400   5.992   1.800
 4286TIP3    H112815   2.434   6.078   1.774
 4286TIP3    H212816   2.428   5.981   1.891
 4287TIP3   OH212817   8.242   2.248   1.382
 4287TIP3    H112818   8.283   2.267   1.298
 4287TIP3    H212819   8.250   2.153   1.392
 4288TIP3   OH212820   7.806   1.505   0.337
 4288TIP3    H112821   7.886   1.531   0.291
 4288TIP3    H212822   7.779   1.584   0.384
 4289TIP3   OH212823   2.656   2.084   3.153
 4289TIP3    H112824   2.672   2.039   3.236
 4289TIP3    H212825   2.576   2.045   3.120
 4290TIP3   OH212826   4.277   7.712   1.137
 4290TIP3    H112827   4.264   7.694   1.230
 4290TIP3    H212828   4.345   7.650   1.110
 4291TIP3   OH212829   4.462   3.402   1.099
 4291TIP3    H112830   4.416   3.380   1.179
 4291TIP3    H212831   4.423   3.345   1.032
 4292TIP3   OH212832   0.515   5.043   6.098
 4292TIP3    H112833   0.579   4.992   6.146
 4292TIP3    H212834   0.438   5.045   6.155
 4293TIP3   OH212835   7.350   6.302   6.707
 4293TIP3    H112836   7.426   6.360   6.703
 4293TIP3    H212837   7.364   6.239   6.636
 4294TIP3   OH212838   5.829   1.674   3.111
 4294TIP3    H112839   5.803   1.583   3.127
 4294TIP3    H212840   5.924   1.672   3.106
 4295TIP3   OH212841   3.612   5.520   1.892
 4295TIP3    H112842   3.570   5.537   1.977
 4295TIP3    H212843   3.613   5.425   1.884
 4296TIP3   OH212844   6.024   7.049   1.192
 4296TIP3    H112845   6.036   7.015   1.281
 4296TIP3    H212846   5.962   6.988   1.151
 4297TIP3   OH212847   6.009   0.695   5.038
 4297TIP3    H112848   6.044   0.685   4.949
 4297TIP3    H212849   5.940   0.760   5.030
 4298TIP3   OH212850   0.643   5.643   6.123
 4298TIP3    H112851   0.577   5.589   6.080
 4298TIP3    H212852   0.671   5.591   6.198
 4299TIP3   OH212853   3.245   0.951   3.892
 4299TIP3    H112854   3.302   1.028   3.896
 4299TIP3    H212855   3.180   0.974   3.826
 4300TIP3   OH212856   7.235   3.718   4.567
 4300TIP3    H112857   7.163   3.738   4.628
 4300TIP3    H212858   7.314   3.735   4.618
 4301TIP3   OH212859   2.357   3.855   3.158
 4301TIP3    H112860   2.450   3.834   3.153
 4301TIP3    H212861   2.353   3.934   3.212
 4302TIP3   OH212862   8.115   1.180   5.930
 4302TIP3    H112863   8.159   1.100   5.901
 4302TIP3    H212864   8.046   1.149   5.988
 4303TIP3   OH212865   6.916   7.634   1.566
 4303TIP3    H112866   6.929   7.568   1.635
 4303TIP3    H212867   6.847   7.597   1.511
 4304TIP3   OH212868   6.086   1.754   3.681
 4304TIP3    H112869   6.002   1.774   3.723
 4304TIP3    H212870   6.106   1.664   3.707
 4305TIP3   OH212871   0.512   1.880   5.628
 4305TIP3    H112872   0.474   1.845   5.708
 4305TIP3    H212873   0.492   1.974   5.631
 4306TIP3   OH212874   4.505   7.759   2.525
 4306TIP3    H112875   4.477   7.822   2.458
 4306TIP3    H212876   4.512   7.811   2.605
 4307TIP3   OH212877   6.647   5.590   5.300
 4307TIP3    H112878   6.576   5.529   5.321
 4307TIP3    H212879   6.670   5.631   5.383
 4308TIP3   OH212880   7.734   5.946   3.658
 4308TIP3    H112881   7.679   5.893   3.600
 4308TIP3    H212882   7.823   5.930   3.629
 4309TIP3   OH212883   7.306   3.474   1.467
 4309TIP3    H112884   7.278   3.443   1.381
 4309TIP3    H212885   7.312   3.569   1.457
 4310TIP3   OH212886   4.104   6.280   4.711
 4310TIP3    H112887   4.043   6.345   4.676
 4310TIP3    H212888   4.186   6.326   4.721
 4311TIP3   OH212889   0.748   7.742   4.093
 4311TIP3    H112890   0.755   7.728   4.188
 4311TIP3    H212891   0.673   7.801   4.083
 4312TIP3   OH212892   7.507   5.666   4.650
 4312TIP3    H112893   7.485   5.653   4.558
 4312TIP3    H212894   7.502   5.578   4.688
 4313TIP3   OH212895   4.973   5.062   2.252
 4313TIP3    H112896   4.880   5.054   2.231
 4313TIP3    H212897   4.993   5.154   2.238
 4314TIP3   OH212898   2.484   6.697   2.536
 4314TIP3    H112899   2.417   6.631   2.553
 4314TIP3    H212900   2.481   6.709   2.441
 4315TIP3   OH212901   0.887   3.417   0.280
 4315TIP3    H112902   0.895   3.509   0.304
 4315TIP3    H212903   0.889   3.416   0.185
 4316TIP3   OH212904   7.018   3.797   3.405
 4316TIP3    H112905   7.084   3.856   3.442
 4316TIP3    H212906   7.018   3.722   3.464
 4317TIP3   OH212907   6.578   2.956   3.614
 4317TIP3    H112908   6.638   2.882   3.613
 4317TIP3    H212909   6.547   2.960   3.704
 4318TIP3   OH212910   0.487   6.832   3.471
 4318TIP3    H112911   0.422   6.786   3.525
 4318TIP3    H212912   0.448   6.836   3.384
 4319TIP3   OH212913   0.419   1.926   3.636
 4319TIP3    H112914   0.476   1.975   3.577
 4319TIP3    H212915   0.437   1.834   3.616
 4320TIP3   OH212916   2.640   6.744   5.523
 4320TIP3    H112917   2.651   6.816   5.585
 4320TIP3    H212918   2.707   6.680   5.548
 4321TIP3   OH212919   3.070   1.114   5.394
 4321TIP3    H112920   3.114   1.117   5.309
 4321TIP3    H212921   3.026   1.198   5.402
 4322TIP3   OH212922   2.491   6.899   5.845
 4322TIP3    H112923   2.553   6.904   5.772
 4322TIP3    H212924   2.546   6.909   5.923
 4323TIP3   OH212925   1.053   3.056   6.073
 4323TIP3    H112926   1.083   3.146   6.064
 4323TIP3    H212927   1.079   3.013   5.992
 4324TIP3   OH212928   1.510   1.709   1.549
 4324TIP3    H112929   1.444   1.768   1.586
 4324TIP3    H212930   1.516   1.638   1.612
 4325TIP3   OH212931   3.334   5.010   0.523
 4325TIP3    H112932   3.244   4.987   0.501
 4325TIP3    H212933   3.387   4.943   0.480
 4326TIP3   OH212934   5.687   4.523   3.275
 4326TIP3    H112935   5.729   4.526   3.189
 4326TIP3    H212936   5.709   4.608   3.315
 4327TIP3   OH212937   0.426   3.330   2.651
 4327TIP3    H112938   0.389   3.404   2.698
 4327TIP3    H212939   0.351   3.283   2.616
 4328TIP3   OH212940   5.474   4.189   3.878
 4328TIP3    H112941   5.524   4.247   3.821
 4328TIP3    H212942   5.514   4.103   3.866
 4329TIP3   OH212943   3.534   3.767   0.854
 4329TIP3    H112944   3.467   3.834   0.839
 4329TIP3    H212945   3.613   3.817   0.877
 4330TIP3   OH212946   6.017   1.700   0.912
 4330TIP3    H112947   5.991   1.643   0.984
 4330TIP3    H212948   6.112   1.712   0.924
 4331TIP3   OH212949   2.102   5.227   5.185
 4331TIP3    H112950   2.023   5.214   5.237
 4331TIP3    H212951   2.174   5.220   5.248
 4332TIP3   OH212952   3.849   7.163   5.080
 4332TIP3    H112953   3.881   7.074   5.097
 4332TIP3    H212954   3.853   7.173   4.985
 4333TIP3   OH212955   2.728   7.281   5.004
 4333TIP3    H112956   2.663   7.348   5.022
 4333TIP3    H212957   2.708   7.210   5.065
 4334TIP3   OH212958   0.700   7.282   2.055
 4334TIP3    H112959   0.610   7.249   2.053
 4334TIP3    H212960   0.691   7.376   2.040
 4335TIP3   OH212961   6.030   3.500   2.975
 4335TIP3    H112962   5.957   3.541   3.021
 4335TIP3    H212963   6.006   3.407   2.971
 4336TIP3   OH212964   3.999   3.899   2.251
 4336TIP3    H112965   4.036   3.981   2.283
 4336TIP3    H212966   3.995   3.842   2.328
 4337TIP3   OH212967   3.256   1.091   6.039
 4337TIP3    H112968   3.342   1.071   6.077
 4337TIP3    H212969   3.276   1.121   5.950
 4338TIP3   OH212970   7.958   1.158   0.051
 4338TIP3    H112971   7.920   1.246   0.042
 4338TIP3    H212972   8.046   1.167   0.014
 4339TIP3   OH212973   1.312   3.654   5.186
 4339TIP3    H112974   1.235   3.709   5.176
 4339TIP3    H212975   1.384   3.707   5.152
 4340TIP3   OH212976   0.488   2.902   1.969
 4340TIP3    H112977   0.555   2.851   2.015
 4340TIP3    H212978   0.409   2.893   2.022
 4341TIP3   OH212979   4.068   0.892   1.171
 4341TIP3    H112980   4.095   0.965   1.226
 4341TIP3    H212981   4.001   0.929   1.113
 4342TIP3   OH212982   1.181   4.214   1.208
 4342TIP3    H112983   1.236   4.224   1.285
 4342TIP3    H212984   1.096   4.250   1.235
 4343TIP3   OH212985   2.483   2.840   4.385
 4343TIP3    H112986   2.535   2.838   4.305
 4343TIP3    H212987   2.492   2.753   4.422
 4344TIP3   OH212988   7.493   2.219   5.478
 4344TIP3    H112989   7.495   2.208   5.383
 4344TIP3    H212990   7.537   2.303   5.493
 4345TIP3   OH212991   4.997   5.773   5.553
 4345TIP3    H112992   4.921   5.798   5.500
 4345TIP3    H212993   4.958   5.743   5.636
 4346TIP3   OH212994   3.190   1.525   2.458
 4346TIP3    H112995   3.264   1.570   2.498
 4346TIP3    H212996   3.184   1.442   2.506
 4347TIP3   OH212997   4.802   4.202   2.013
 4347TIP3    H112998   4.791   4.178   1.921
 4347TIP3    H212999   4.830   4.121   2.056
 4348TIP3   OH213000   7.682   7.636   2.195
 4348TIP3    H113001   7.674   7.558   2.141
 4348TIP3    H213002   7.617   7.697   2.160
 4349TIP3   OH213003   5.570   2.027   5.743
 4349TIP3    H113004   5.642   2.065   5.694
 4349TIP3    H213005   5.603   1.943   5.773
 4350TIP3   OH213006   7.478   2.119   2.528
 4350TIP3    H113007   7.480   2.113   2.624
 4350TIP3    H213008   7.386   2.135   2.507
 4351TIP3   OH213009   7.665   0.902   5.131
 4351TIP3    H113010   7.689   0.989   5.097
 4351TIP3    H213011   7.643   0.917   5.222
 4352TIP3   OH213012   6.623   6.012   1.372
 4352TIP3    H113013   6.543   6.060   1.395
 4352TIP3    H213014   6.694   6.071   1.397
 4353TIP3   OH213015   0.310   7.334   4.423
 4353TIP3    H113016   0.292   7.242   4.401
 4353TIP3    H213017   0.224   7.376   4.424
 4354TIP3   OH213018   3.565   2.706   6.419
 4354TIP3    H113019   3.627   2.679   6.487
 4354TIP3    H213020   3.491   2.647   6.429
 4355TIP3   OH213021   4.522   6.425   1.418
 4355TIP3    H113022   4.517   6.387   1.330
 4355TIP3    H213023   4.609   6.401   1.449
 4356TIP3   OH213024   2.187   4.936   2.633
 4356TIP3    H113025   2.151   4.853   2.663
 4356TIP3    H213026   2.190   4.991   2.711
 4357TIP3   OH213027   5.855   2.236   6.203
 4357TIP3    H113028   5.855   2.278   6.289
 4357TIP3    H213029   5.848   2.142   6.222
 4358TIP3   OH213030   6.733   6.324   3.431
 4358TIP3    H113031   6.821   6.309   3.394
 4358TIP3    H213032   6.716   6.416   3.415
 4359TIP3   OH213033   7.772   3.264   2.499
 4359TIP3    H113034   7.683   3.292   2.517
 4359TIP3    H213035   7.801   3.317   2.425
 4360TIP3   OH213036   2.886   3.529   5.370
 4360TIP3    H113037   2.921   3.493   5.452
 4360TIP3    H213038   2.850   3.453   5.324
 4361TIP3   OH213039   2.773   2.782   2.936
 4361TIP3    H113040   2.791   2.873   2.962
 4361TIP3    H213041   2.817   2.729   3.003
 4362TIP3   OH213042   1.554   3.750   1.368
 4362TIP3    H113043   1.475   3.696   1.377
 4362TIP3    H213044   1.566   3.789   1.455
 4363TIP3   OH213045   3.146   5.130   3.085
 4363TIP3    H113046   3.230   5.151   3.042
 4363TIP3    H213047   3.162   5.146   3.178
 4364TIP3   OH213048   2.799   2.866   4.396
 4364TIP3    H113049   2.736   2.806   4.437
 4364TIP3    H213050   2.876   2.862   4.452
 4365TIP3   OH213051   3.773   6.534   1.353
 4365TIP3    H113052   3.744   6.551   1.443
 4365TIP3    H213053   3.768   6.439   1.344
 4366TIP3   OH213054   7.926   6.599   6.300
 4366TIP3    H113055   7.945   6.508   6.325
 4366TIP3    H213056   8.010   6.635   6.275
 4367TIP3   OH213057   1.518   5.252   3.000
 4367TIP3    H113058   1.474   5.252   2.915
 4367TIP3    H213059   1.605   5.288   2.981
 4368TIP3   OH213060   1.883   5.280   4.779
 4368TIP3    H113061   1.943   5.211   4.806
 4368TIP3    H213062   1.935   5.334   4.719
 4369TIP3   OH213063   6.217   7.787   1.495
 4369TIP3    H113064   6.219   7.825   1.407
 4369TIP3    H213065   6.188   7.697   1.481
 4370TIP3   OH213066   3.425   6.283   4.246
 4370TIP3    H113067   3.448   6.277   4.153
 4370TIP3    H213068   3.468   6.208   4.286
 4371TIP3   OH213069   0.160   2.097   0.931
 4371TIP3    H113070   0.136   2.072   0.841
 4371TIP3    H213071   0.248   2.133   0.923
 4372TIP3   OH213072   0.593   7.503   3.657
 4372TIP3    H113073   0.555   7.449   3.588
 4372TIP3    H213074   0.540   7.583   3.657
 4373TIP3   OH213075   3.024   4.462   6.161
 4373TIP3    H113076   3.017   4.535   6.100
 4373TIP3    H213077   3.114   4.465   6.193
 4374TIP3   OH213078   1.078   1.705   5.257
 4374TIP3    H113079   1.075   1.635   5.322
 4374TIP3    H213080   1.128   1.668   5.184
 4375TIP3   OH213081   4.734   2.664   6.141
 4375TIP3    H113082   4.712   2.735   6.081
 4375TIP3    H213083   4.822   2.637   6.117
 4376TIP3   OH213084   7.525   4.466   4.423
 4376TIP3    H113085   7.517   4.457   4.518
 4376TIP3    H213086   7.470   4.397   4.387
 4377TIP3   OH213087   4.132   4.928   5.671
 4377TIP3    H113088   4.111   4.962   5.758
 4377TIP3    H213089   4.198   4.860   5.686
 4378TIP3   OH213090   2.625   1.442   2.918
 4378TIP3    H113091   2.669   1.518   2.879
 4378TIP3    H213092   2.574   1.405   2.846
 4379TIP3   OH213093   5.240   1.463   2.651
 4379TIP3    H113094   5.160   1.424   2.614
 4379TIP3    H213095   5.310   1.405   2.621
 4380TIP3   OH213096   6.818   4.826   2.172
 4380TIP3    H113097   6.757   4.807   2.244
 4380TIP3    H213098   6.781   4.903   2.128
 4381TIP3   OH213099   6.167   1.464   4.906
 4381TIP3    H113100   6.236   1.523   4.939
 4381TIP3    H213101   6.086   1.498   4.944
 4382TIP3   OH213102   6.601   3.731   2.843
 4382TIP3    H113103   6.626   3.639   2.841
 4382TIP3    H213104   6.629   3.762   2.929
 4383TIP3   OH213105   1.609   0.012   3.877
 4383TIP3    H113106   1.689   0.056   3.847
 4383TIP3    H213107   1.611   0.019   3.972
 4384TIP3   OH213108   4.440   2.629   1.913
 4384TIP3    H113109   4.377   2.634   1.984
 4384TIP3    H213110   4.390   2.590   1.840
 4385TIP3   OH213111   5.493   3.490   5.471
 4385TIP3    H113112   5.477   3.569   5.420
 4385TIP3    H213113   5.486   3.419   5.407
 4386TIP3   OH213114   7.520   2.353   2.746
 4386TIP3    H113115   7.572   2.416   2.696
 4386TIP3    H213116   7.443   2.403   2.774
 4387TIP3   OH213117   3.378   3.844   6.082
 4387TIP3    H113118   3.455   3.806   6.123
 4387TIP3    H213119   3.331   3.768   6.045
 4388TIP3   OH213120   5.572   1.134   4.181
 4388TIP3    H113121   5.494   1.175   4.218
 4388TIP3    H213122   5.539   1.086   4.105
 4389TIP3   OH213123   2.949   1.277   3.951
 4389TIP3    H113124   3.009   1.220   3.998
 4389TIP3    H213125   2.984   1.365   3.965
 4390TIP3   OH213126   2.933   5.142   6.482
 4390TIP3    H113127   2.942   5.086   6.559
 4390TIP3    H213128   2.957   5.230   6.514
 4391TIP3   OH213129   4.341   3.418   0.245
 4391TIP3    H113130   4.354   3.471   0.167
 4391TIP3    H213131   4.347   3.327   0.215
 4392TIP3   OH213132   0.941   5.201   4.669
 4392TIP3    H113133   0.863   5.253   4.684
 4392TIP3    H213134   0.955   5.154   4.752
 4393TIP3   OH213135   1.678   4.916   2.545
 4393TIP3    H113136   1.735   4.849   2.583
 4393TIP3    H213137   1.629   4.951   2.619
 4394TIP3   OH213138   3.156   3.966   2.494
 4394TIP3    H113139   3.155   3.936   2.403
 4394TIP3    H213140   3.224   3.913   2.536
 4395TIP3   OH213141   4.226   7.337   4.741
 4395TIP3    H113142   4.218   7.427   4.773
 4395TIP3    H213143   4.314   7.310   4.767
 4396TIP3   OH213144   0.941   7.531   5.815
 4396TIP3    H113145   0.850   7.556   5.798
 4396TIP3    H213146   0.951   7.541   5.910
 4397TIP3   OH213147   3.058   5.183   4.820
 4397TIP3    H113148   2.987   5.171   4.884
 4397TIP3    H213149   3.021   5.151   4.738
 4398TIP3   OH213150   3.721   2.601   0.998
 4398TIP3    H113151   3.805   2.629   1.034
 4398TIP3    H213152   3.744   2.547   0.922
 4399TIP3   OH213153   5.390   1.805   3.940
 4399TIP3    H113154   5.405   1.811   3.846
 4399TIP3    H213155   5.295   1.804   3.949
 4400TIP3   OH213156   2.248   5.844   4.711
 4400TIP3    H113157   2.243   5.782   4.784
 4400TIP3    H213158   2.319   5.810   4.656
 4401TIP3   OH213159   6.215   3.570   1.275
 4401TIP3    H113160   6.310   3.556   1.280
 4401TIP3    H213161   6.181   3.487   1.241
 4402TIP3   OH213162   3.384   7.262   6.680
 4402TIP3    H113163   3.403   7.340   6.627
 4402TIP3    H213164   3.360   7.195   6.616
 4403TIP3   OH213165   7.340   2.338   3.511
 4403TIP3    H113166   7.422   2.351   3.465
 4403TIP3    H213167   7.341   2.403   3.582
 4404TIP3   OH213168   7.291   2.892   2.940
 4404TIP3    H113169   7.255   2.972   2.979
 4404TIP3    H213170   7.382   2.890   2.969
 4405TIP3   OH213171   2.867   4.406   5.349
 4405TIP3    H113172   2.937   4.358   5.393
 4405TIP3    H213173   2.787   4.358   5.372
 4406TIP3   OH213174   1.214   2.334   5.993
 4406TIP3    H113175   1.287   2.273   5.995
 4406TIP3    H213176   1.235   2.394   5.921
 4407TIP3   OH213177   1.548   4.163   5.930
 4407TIP3    H113178   1.641   4.183   5.941
 4407TIP3    H213179   1.503   4.236   5.971
 4408TIP3   OH213180   8.214   7.438   6.525
 4408TIP3    H113181   8.165   7.385   6.588
 4408TIP3    H213182   8.246   7.513   6.575
 4409TIP3   OH213183   7.561   3.613   3.458
 4409TIP3    H113184   7.613   3.681   3.414
 4409TIP3    H213185   7.473   3.623   3.422
 4410TIP3   OH213186   5.354   4.185   1.683
 4410TIP3    H113187   5.366   4.266   1.633
 4410TIP3    H213188   5.266   4.194   1.720
 4411TIP3   OH213189   0.784   6.256   4.399
 4411TIP3    H113190   0.706   6.303   4.429
 4411TIP3    H213191   0.770   6.245   4.305
 4412TIP3   OH213192   1.394   4.051   5.710
 4412TIP3    H113193   1.472   4.004   5.680
 4412TIP3    H213194   1.426   4.108   5.780
 4413TIP3   OH213195   2.247   3.430   0.204
 4413TIP3    H113196   2.267   3.337   0.189
 4413TIP3    H213197   2.255   3.440   0.299
 4414TIP3   OH213198   0.292   1.859   1.959
 4414TIP3    H113199   0.208   1.849   2.004
 4414TIP3    H213200   0.317   1.950   1.975
 4415TIP3   OH213201   6.841   5.014   4.121
 4415TIP3    H113202   6.840   5.100   4.079
 4415TIP3    H213203   6.765   5.015   4.180
 4416TIP3   OH213204   2.079   3.256   6.530
 4416TIP3    H113205   2.136   3.254   6.607
 4416TIP3    H213206   1.993   3.232   6.563
 4417TIP3   OH213207   1.655   2.486   3.865
 4417TIP3    H113208   1.583   2.471   3.804
 4417TIP3    H213209   1.667   2.581   3.865
 4418TIP3   OH213210   4.816   5.184   4.156
 4418TIP3    H113211   4.724   5.212   4.159
 4418TIP3    H213212   4.834   5.171   4.063
 4419TIP3   OH213213   3.730   4.739   6.135
 4419TIP3    H113214   3.662   4.756   6.069
 4419TIP3    H213215   3.725   4.814   6.194
 4420TIP3   OH213216   0.912   6.389   6.724
 4420TIP3    H113217   0.958   6.436   6.794
 4420TIP3    H213218   0.972   6.393   6.649
 4421TIP3   OH213219   2.698   0.162   1.466
 4421TIP3    H113220   2.640   0.087   1.452
 4421TIP3    H213221   2.772   0.147   1.407
 4422TIP3   OH213222   3.686   6.380   3.987
 4422TIP3    H113223   3.766   6.411   3.945
 4422TIP3    H213224   3.618   6.392   3.921
 4423TIP3   OH213225   4.689   1.418   2.891
 4423TIP3    H113226   4.749   1.488   2.866
 4423TIP3    H213227   4.665   1.438   2.981
 4424TIP3   OH213228   1.157   4.961   5.945
 4424TIP3    H113229   1.219   4.889   5.934
 4424TIP3    H213230   1.208   5.040   5.928
 4425TIP3   OH213231   6.068   7.322   3.067
 4425TIP3    H113232   5.980   7.316   3.105
 4425TIP3    H213233   6.103   7.404   3.099
 4426TIP3   OH213234   3.308   2.697   4.676
 4426TIP3    H113235   3.245   2.694   4.748
 4426TIP3    H213236   3.389   2.661   4.714
 4427TIP3   OH213237   7.509   2.541   0.132
 4427TIP3    H113238   7.514   2.470   0.069
 4427TIP3    H213239   7.588   2.594   0.115
 4428TIP3   OH213240   6.446   3.027   0.923
 4428TIP3    H113241   6.493   2.951   0.889
 4428TIP3    H213242   6.495   3.052   1.001
 4429TIP3   OH213243   7.452   1.192   0.981
 4429TIP3    H113244   7.479   1.144   0.902
 4429TIP3    H213245   7.357   1.186   0.982
 4430TIP3   OH213246   6.833   2.379   5.133
 4430TIP3    H113247   6.861   2.393   5.042
 4430TIP3    H213248   6.830   2.284   5.143
 4431TIP3   OH213249   0.284   0.265   2.064
 4431TIP3    H113250   0.285   0.317   1.984
 4431TIP3    H213251   0.253   0.326   2.132
 4432TIP3   OH213252   7.256   6.656   0.102
 4432TIP3    H113253   7.211   6.637   0.184
 4432TIP3    H213254   7.290   6.745   0.113
 4433TIP3   OH213255   0.662   7.642   2.119
 4433TIP3    H113256   0.667   7.716   2.179
 4433TIP3    H213257   0.690   7.678   2.035
 4434TIP3   OH213258   1.971   3.666   6.160
 4434TIP3    H113259   1.957   3.589   6.215
 4434TIP3    H213260   1.889   3.716   6.166
 4435TIP3   OH213261   0.652   1.258   2.157
 4435TIP3    H113262   0.561   1.242   2.134
 4435TIP3    H213263   0.688   1.172   2.176
 4436TIP3   OH213264   0.880   1.065   4.554
 4436TIP3    H113265   0.905   0.999   4.618
 4436TIP3    H213266   0.784   1.067   4.556
 4437TIP3   OH213267   5.229   4.656   0.033
 4437TIP3    H113268   5.138   4.669   0.007
 4437TIP3    H213269   5.257   4.577  -0.015
 4438TIP3   OH213270   2.134   1.571   1.381
 4438TIP3    H113271   2.068   1.640   1.376
 4438TIP3    H213272   2.146   1.555   1.475
 4439TIP3   OH213273   8.247   2.622   5.123
 4439TIP3    H113274   8.200   2.699   5.156
 4439TIP3    H213275   8.278   2.577   5.202
 4440TIP3   OH213276   1.821   5.839   2.502
 4440TIP3    H113277   1.776   5.769   2.454
 4440TIP3    H213278   1.914   5.822   2.487
 4441TIP3   OH213279   4.294   5.231   6.403
 4441TIP3    H113280   4.288   5.245   6.309
 4441TIP3    H213281   4.364   5.289   6.432
 4442TIP3   OH213282   6.073   2.267   5.970
 4442TIP3    H113283   6.013   2.287   5.897
 4442TIP3    H213284   6.050   2.331   6.037
 4443TIP3   OH213285   1.985   0.031   1.330
 4443TIP3    H113286   2.002   0.097   1.263
 4443TIP3    H213287   1.980   0.081   1.412
 4444TIP3   OH213288   1.111   6.454   4.680
 4444TIP3    H113289   1.017   6.437   4.679
 4444TIP3    H213290   1.151   6.369   4.661
 4445TIP3   OH213291   5.208   1.445   5.776
 4445TIP3    H113292   5.113   1.445   5.761
 4445TIP3    H213293   5.218   1.413   5.866
 4446TIP3   OH213294   0.440   3.710   5.530
 4446TIP3    H113295   0.386   3.779   5.569
 4446TIP3    H213296   0.502   3.686   5.598
 4447TIP3   OH213297   5.850   5.364   4.390
 4447TIP3    H113298   5.864   5.431   4.323
 4447TIP3    H213299   5.924   5.303   4.379
 4448TIP3   OH213300   3.161   3.303   3.876
 4448TIP3    H113301   3.110   3.354   3.814
 4448TIP3    H213302   3.170   3.216   3.836
 4449TIP3   OH213303   2.767   6.335   3.830
 4449TIP3    H113304   2.774   6.430   3.837
 4449TIP3    H213305   2.690   6.313   3.881
 4450TIP3   OH213306   1.201   1.268   3.200
 4450TIP3    H113307   1.232   1.327   3.269
 4450TIP3    H213308   1.280   1.246   3.151
 4451TIP3   OH213309   8.016   2.928   0.541
 4451TIP3    H113310   8.031   2.937   0.635
 4451TIP3    H213311   8.029   3.017   0.507
 4452TIP3   OH213312   8.127   3.692   4.946
 4452TIP3    H113313   8.094   3.621   4.892
 4452TIP3    H213314   8.189   3.739   4.890
 4453TIP3   OH213315   4.001   0.801   5.290
 4453TIP3    H113316   4.063   0.754   5.346
 4453TIP3    H213317   4.057   0.846   5.226
 4454TIP3   OH213318   1.159   4.377   5.111
 4454TIP3    H113319   1.079   4.418   5.144
 4454TIP3    H213320   1.190   4.438   5.043
 4455TIP3   OH213321   7.924   3.846   5.043
 4455TIP3    H113322   7.867   3.775   5.073
 4455TIP3    H213323   7.989   3.802   4.987
 4456TIP3   OH213324   6.704   6.220   1.124
 4456TIP3    H113325   6.769   6.152   1.144
 4456TIP3    H213326   6.638   6.174   1.072
 4457TIP3   OH213327   2.892   1.202   4.911
 4457TIP3    H113328   2.885   1.132   4.975
 4457TIP3    H213329   2.964   1.256   4.942
 4458TIP3   OH213330   6.150   7.260   1.290
 4458TIP3    H113331   6.122   7.175   1.256
 4458TIP3    H213332   6.208   7.239   1.364
 4459TIP3   OH213333   5.920   1.162   0.816
 4459TIP3    H113334   5.967   1.231   0.862
 4459TIP3    H213335   5.988   1.102   0.784
 4460TIP3   OH213336   6.101   1.957   3.063
 4460TIP3    H113337   6.142   2.035   3.099
 4460TIP3    H213338   6.126   1.957   2.971
 4461TIP3   OH213339   7.224   0.149   2.381
 4461TIP3    H113340   7.288   0.188   2.441
 4461TIP3    H213341   7.193   0.223   2.328
 4462TIP3   OH213342   2.685   7.730   2.387
 4462TIP3    H113343   2.624   7.666   2.424
 4462TIP3    H213344   2.771   7.696   2.409
 4463TIP3   OH213345   0.680   1.859   6.290
 4463TIP3    H113346   0.707   1.852   6.381
 4463TIP3    H213347   0.618   1.933   6.289
 4464TIP3   OH213348   0.351   5.488   5.153
 4464TIP3    H113349   0.441   5.520   5.163
 4464TIP3    H213350   0.346   5.458   5.062
 4465TIP3   OH213351   5.799   5.899   2.955
 4465TIP3    H113352   5.806   5.949   2.873
 4465TIP3    H213353   5.881   5.850   2.960
 4466TIP3   OH213354   7.120   2.578   3.875
 4466TIP3    H113355   7.130   2.650   3.937
 4466TIP3    H213356   7.039   2.598   3.827
 4467TIP3   OH213357   1.150   5.307   2.641
 4467TIP3    H113358   1.095   5.351   2.577
 4467TIP3    H213359   1.129   5.214   2.631
 4468TIP3   OH213360   4.574   3.484  -0.010
 4468TIP3    H113361   4.667   3.480  -0.034
 4468TIP3    H213362   4.562   3.410   0.049
 4469TIP3   OH213363   4.630   4.076   3.757
 4469TIP3    H113364   4.646   4.032   3.674
 4469TIP3    H213365   4.563   4.142   3.737
 4470TIP3   OH213366   2.742   6.482   6.144
 4470TIP3    H113367   2.825   6.442   6.170
 4470TIP3    H213368   2.728   6.551   6.208
 4471TIP3   OH213369   8.204   4.926   3.224
 4471TIP3    H113370   8.156   5.005   3.201
 4471TIP3    H213371   8.149   4.883   3.290
 4472TIP3   OH213372   5.213   3.487   5.559
 4472TIP3    H113373   5.190   3.484   5.466
 4472TIP3    H213374   5.308   3.485   5.560
 4473TIP3   OH213375   0.921   5.523   3.527
 4473TIP3    H113376   0.954   5.528   3.616
 4473TIP3    H213377   0.965   5.594   3.481
 4474TIP3   OH213378   7.050   3.376   0.627
 4474TIP3    H113379   7.082   3.463   0.653
 4474TIP3    H213380   7.015   3.389   0.539
 4475TIP3   OH213381   1.429   4.215   2.209
 4475TIP3    H113382   1.380   4.294   2.234
 4475TIP3    H213383   1.472   4.239   2.127
 4476TIP3   OH213384   5.788   1.575   6.595
 4476TIP3    H113385   5.732   1.540   6.525
 4476TIP3    H213386   5.752   1.661   6.615
 4477TIP3   OH213387   1.923   6.069   1.621
 4477TIP3    H113388   1.982   6.115   1.680
 4477TIP3    H213389   1.836   6.078   1.661
 4478TIP3   OH213390   7.203   6.353   1.021
 4478TIP3    H113391   7.191   6.264   1.053
 4478TIP3    H213392   7.295   6.373   1.039
 4479TIP3   OH213393   5.990   0.927   3.726
 4479TIP3    H113394   5.963   0.838   3.706
 4479TIP3    H213395   6.068   0.942   3.673
 4480TIP3   OH213396   6.752   5.694   3.109
 4480TIP3    H113397   6.701   5.699   3.190
 4480TIP3    H213398   6.843   5.699   3.138
 4481TIP3   OH213399   7.030   0.320   4.390
 4481TIP3    H113400   6.959   0.364   4.437
 4481TIP3    H213401   7.083   0.392   4.355
 4482TIP3   OH213402   6.472   1.891   0.453
 4482TIP3    H113403   6.566   1.897   0.441
 4482TIP3    H213404   6.437   1.896   0.364
 4483TIP3   OH213405   2.687   5.609   5.202
 4483TIP3    H113406   2.686   5.608   5.298
 4483TIP3    H213407   2.662   5.699   5.179
 4484TIP3   OH213408   6.095   0.253   0.961
 4484TIP3    H113409   6.073   0.165   0.931
 4484TIP3    H213410   6.084   0.250   1.056
 4485TIP3   OH213411   3.347   1.514   4.104
 4485TIP3    H113412   3.423   1.504   4.047
 4485TIP3    H213413   3.360   1.448   4.172
 4486TIP3   OH213414   7.088   5.625   4.691
 4486TIP3    H113415   7.107   5.536   4.662
 4486TIP3    H213416   7.101   5.623   4.786
 4487TIP3   OH213417   7.721   7.471   3.056
 4487TIP3    H113418   7.749   7.476   2.964
 4487TIP3    H213419   7.674   7.553   3.072
 4488TIP3   OH213420   4.662   6.075   6.212
 4488TIP3    H113421   4.746   6.119   6.220
 4488TIP3    H213422   4.598   6.140   6.242
 4489TIP3   OH213423   3.139   3.949   1.133
 4489TIP3    H113424   3.105   3.860   1.143
 4489TIP3    H213425   3.075   3.992   1.075
 4490TIP3   OH213426   6.182   4.788   3.797
 4490TIP3    H113427   6.233   4.831   3.866
 4490TIP3    H213428   6.211   4.697   3.799
 4491TIP3   OH213429   7.680   3.923   2.233
 4491TIP3    H113430   7.708   3.832   2.243
 4491TIP3    H213431   7.608   3.933   2.295
 4492TIP3   OH213432   3.841   5.342   4.516
 4492TIP3    H113433   3.815   5.368   4.605
 4492TIP3    H213434   3.833   5.247   4.515
 4493TIP3   OH213435   3.021   1.657   4.384
 4493TIP3    H113436   2.929   1.681   4.397
 4493TIP3    H213437   3.070   1.726   4.428
 4494TIP3   OH213438   5.524   4.003   3.612
 4494TIP3    H113439   5.523   4.021   3.518
 4494TIP3    H213440   5.605   4.042   3.643
 4495TIP3   OH213441   1.695   5.113   3.163
 4495TIP3    H113442   1.602   5.118   3.143
 4495TIP3    H213443   1.707   5.176   3.235
 4496TIP3   OH213444   0.625   2.872   3.203
 4496TIP3    H113445   0.561   2.932   3.242
 4496TIP3    H213446   0.709   2.915   3.216
 4497TIP3   OH213447   0.797   3.769   3.720
 4497TIP3    H113448   0.782   3.780   3.814
 4497TIP3    H213449   0.878   3.718   3.715
 4498TIP3   OH213450   3.600   5.582   2.217
 4498TIP3    H113451   3.544   5.607   2.291
 4498TIP3    H213452   3.653   5.660   2.200
 4499TIP3   OH213453   0.623   7.813   3.187
 4499TIP3    H113454   0.579   7.812   3.102
 4499TIP3    H213455   0.553   7.799   3.250
 4500TIP3   OH213456   0.804   7.739   3.499
 4500TIP3    H113457   0.737   7.674   3.522
 4500TIP3    H213458   0.784   7.762   3.409
 4501TIP3   OH213459   2.090   0.989   5.087
 4501TIP3    H113460   2.179   0.969   5.115
 4501TIP3    H213461   2.083   0.951   4.999
 4502TIP3   OH213462   8.227   3.604   1.652
 4502TIP3    H113463   8.166   3.594   1.579
 4502TIP3    H213464   8.295   3.539   1.636
 4503TIP3   OH213465   4.458   0.796   3.499
 4503TIP3    H113466   4.432   0.840   3.580
 4503TIP3    H213467   4.376   0.765   3.461
 4504TIP3   OH213468   2.585   1.406   4.079
 4504TIP3    H113469   2.645   1.384   4.008
 4504TIP3    H213470   2.557   1.322   4.115
 4505TIP3   OH213471   3.453   4.433   2.612
 4505TIP3    H113472   3.426   4.353   2.658
 4505TIP3    H213473   3.393   4.500   2.644
 4506TIP3   OH213474   5.803   7.324   5.315
 4506TIP3    H113475   5.795   7.248   5.258
 4506TIP3    H213476   5.713   7.355   5.328
 4507TIP3   OH213477   5.511   0.339   0.094
 4507TIP3    H113478   5.552   0.355   0.179
 4507TIP3    H213479   5.462   0.258   0.105
 4508TIP3   OH213480   4.801   6.572   4.118
 4508TIP3    H113481   4.729   6.622   4.155
 4508TIP3    H213482   4.798   6.488   4.164
 4509TIP3   OH213483   4.523   7.586   3.064
 4509TIP3    H113484   4.453   7.521   3.058
 4509TIP3    H213485   4.543   7.590   3.157
 4510TIP3   OH213486   5.284   0.767   1.039
 4510TIP3    H113487   5.246   0.683   1.011
 4510TIP3    H213488   5.378   0.757   1.022
 4511TIP3   OH213489   4.352   2.477   6.025
 4511TIP3    H113490   4.283   2.527   5.981
 4511TIP3    H213491   4.417   2.461   5.957
 4512TIP3   OH213492   1.526   5.838   3.771
 4512TIP3    H113493   1.621   5.842   3.777
 4512TIP3    H213494   1.495   5.860   3.858
 4513TIP3   OH213495   2.303   7.580   2.773
 4513TIP3    H113496   2.340   7.650   2.827
 4513TIP3    H213497   2.325   7.500   2.821
 4514TIP3   OH213498   0.748   7.383   6.553
 4514TIP3    H113499   0.730   7.293   6.581
 4514TIP3    H213500   0.668   7.431   6.576
 4515TIP3   OH213501   7.926   7.432   5.356
 4515TIP3    H113502   7.897   7.416   5.445
 4515TIP3    H213503   8.001   7.373   5.344
 4516TIP3   OH213504   2.980   1.198   2.778
 4516TIP3    H113505   2.963   1.168   2.867
 4516TIP3    H213506   2.898   1.183   2.731
 4517TIP3   OH213507   0.648   5.282   3.861
 4517TIP3    H113508   0.618   5.311   3.947
 4517TIP3    H213509   0.715   5.216   3.879
 4518TIP3   OH213510   0.427   2.931   1.216
 4518TIP3    H113511   0.343   2.973   1.198
 4518TIP3    H213512   0.413   2.881   1.296
 4519TIP3   OH213513   4.912   3.449   4.837
 4519TIP3    H113514   4.854   3.506   4.887
 4519TIP3    H213515   4.962   3.508   4.781
 4520TIP3   OH213516   4.234   6.130   6.207
 4520TIP3    H113517   4.221   6.071   6.281
 4520TIP3    H213518   4.219   6.075   6.130
 4521TIP3   OH213519   4.131   7.494   1.649
 4521TIP3    H113520   4.062   7.485   1.715
 4521TIP3    H213521   4.115   7.421   1.589
 4522TIP3   OH213522   1.376   3.112   4.334
 4522TIP3    H113523   1.306   3.174   4.315
 4522TIP3    H213524   1.334   3.027   4.334
 4523TIP3   OH213525   8.050   5.031   2.073
 4523TIP3    H113526   8.095   5.113   2.053
 4523TIP3    H213527   7.984   5.023   2.005
 4524TIP3   OH213528   0.001   7.625   2.172
 4524TIP3    H113529   0.057   7.675   2.231
 4524TIP3    H213530   0.042   7.634   2.086
 4525TIP3   OH213531   5.321   4.370   1.270
 4525TIP3    H113532   5.319   4.327   1.184
 4525TIP3    H213533   5.284   4.306   1.330
 4526TIP3   OH213534   3.535   2.508   5.849
 4526TIP3    H113535   3.461   2.530   5.793
 4526TIP3    H213536   3.527   2.413   5.861
 4527TIP3   OH213537   6.837   4.564   3.915
 4527TIP3    H113538   6.907   4.499   3.908
 4527TIP3    H213539   6.880   4.642   3.949
 4528TIP3   OH213540   2.391   0.026   1.749
 4528TIP3    H113541   2.371  -0.002   1.838
 4528TIP3    H213542   2.408  -0.055   1.701
 4529TIP3   OH213543   7.212   0.942   0.082
 4529TIP3    H113544   7.132   0.977   0.122
 4529TIP3    H213545   7.281   0.962   0.145
 4530TIP3   OH213546   8.149   5.763   0.193
 4530TIP3    H113547   8.139   5.834   0.130
 4530TIP3    H213548   8.060   5.727   0.203
 4531TIP3   OH213549   2.648   4.143   0.672
 4531TIP3    H113550   2.660   4.235   0.694
 4531TIP3    H213551   2.714   4.125   0.606
 4532TIP3   OH213552   2.930   4.590   6.458
 4532TIP3    H113553   2.963   4.656   6.398
 4532TIP3    H213554   2.960   4.507   6.421
 4533TIP3   OH213555   6.484   1.569   6.071
 4533TIP3    H113556   6.542   1.501   6.037
 4533TIP3    H213557   6.504   1.646   6.019
 4534TIP3   OH213558   1.311   5.278   4.171
 4534TIP3    H113559   1.338   5.310   4.258
 4534TIP3    H213560   1.390   5.286   4.117
 4535TIP3   OH213561   3.765   0.692   5.916
 4535TIP3    H113562   3.786   0.709   5.825
 4535TIP3    H213563   3.710   0.613   5.914
 4536TIP3   OH213564   3.650   4.224   0.414
 4536TIP3    H113565   3.629   4.168   0.489
 4536TIP3    H213566   3.571   4.223   0.360
 4537TIP3   OH213567   5.701   3.682   2.145
 4537TIP3    H113568   5.696   3.778   2.148
 4537TIP3    H213569   5.614   3.655   2.115
 4538TIP3   OH213570   7.349   6.816   1.759
 4538TIP3    H113571   7.283   6.885   1.748
 4538TIP3    H213572   7.326   6.751   1.693
 4539TIP3   OH213573   0.598   1.942   1.510
 4539TIP3    H113574   0.534   1.949   1.582
 4539TIP3    H213575   0.571   1.864   1.462
 4540TIP3   OH213576   0.344   5.907   0.508
 4540TIP3    H113577   0.386   5.875   0.428
 4540TIP3    H213578   0.396   5.868   0.579
 4541TIP3   OH213579   0.066   5.902   0.336
 4541TIP3    H113580   0.013   5.950   0.400
 4541TIP3    H213581   0.002   5.850   0.287
 4542TIP3   OH213582   2.858  -0.014   3.229
 4542TIP3    H113583   2.836   0.039   3.152
 4542TIP3    H213584   2.908   0.045   3.285
 4543TIP3   OH213585   2.880   1.983   2.617
 4543TIP3    H113586   2.876   1.995   2.522
 4543TIP3    H213587   2.866   1.889   2.630
 4544TIP3   OH213588   6.681   1.353   5.047
 4544TIP3    H113589   6.643   1.269   5.073
 4544TIP3    H213590   6.607   1.414   5.050
 4545TIP3   OH213591   0.563   0.252   1.377
 4545TIP3    H113592   0.468   0.245   1.380
 4545TIP3    H213593   0.592   0.173   1.332
 4546TIP3   OH213594   2.991   3.754   4.859
 4546TIP3    H113595   2.901   3.753   4.890
 4546TIP3    H213596   3.041   3.788   4.934
 4547TIP3   OH213597   4.950   5.637   3.203
 4547TIP3    H113598   5.011   5.710   3.189
 4547TIP3    H213599   4.863   5.675   3.185
 4548TIP3   OH213600   6.999   1.738   0.871
 4548TIP3    H113601   7.048   1.659   0.846
 4548TIP3    H213602   6.944   1.757   0.795
 4549TIP3   OH213603   6.826   3.261   1.319
 4549TIP3    H113604   6.908   3.227   1.284
 4549TIP3    H213605   6.827   3.354   1.294
 4550TIP3   OH213606   5.795   6.806   4.741
 4550TIP3    H113607   5.846   6.866   4.795
 4550TIP3    H213608   5.860   6.749   4.699
 4551TIP3   OH213609   4.974   1.468   6.674
 4551TIP3    H113610   5.055   1.484   6.723
 4551TIP3    H213611   5.000   1.478   6.582
 4552TIP3   OH213612   4.208   2.430   1.350
 4552TIP3    H113613   4.207   2.375   1.428
 4552TIP3    H213614   4.264   2.383   1.289
 4553TIP3   OH213615   7.364   1.673   0.046
 4553TIP3    H113616   7.310   1.751   0.033
 4553TIP3    H213617   7.454   1.706   0.046
 4554TIP3   OH213618   7.869   7.270   0.281
 4554TIP3    H113619   7.793   7.324   0.303
 4554TIP3    H213620   7.943   7.330   0.285
 4555TIP3   OH213621   6.090   4.924   5.817
 4555TIP3    H113622   6.085   4.841   5.864
 4555TIP3    H213623   6.039   4.985   5.870
 4556TIP3   OH213624   5.705   1.882   0.973
 4556TIP3    H113625   5.755   1.947   0.924
 4556TIP3    H213626   5.751   1.799   0.958
 4557TIP3   OH213627   2.799   6.534   4.073
 4557TIP3    H113628   2.734   6.549   4.142
 4557TIP3    H213629   2.754   6.558   3.992
 4558TIP3   OH213630   4.255   4.532   3.313
 4558TIP3    H113631   4.231   4.546   3.404
 4558TIP3    H213632   4.230   4.613   3.268
 4559TIP3   OH213633   1.406   3.648   2.305
 4559TIP3    H113634   1.393   3.554   2.320
 4559TIP3    H213635   1.491   3.667   2.345
 4560TIP3   OH213636   3.944   6.532   3.111
 4560TIP3    H113637   3.985   6.608   3.070
 4560TIP3    H213638   3.866   6.515   3.058
 4561TIP3   OH213639   8.245   5.460   6.441
 4561TIP3    H113640   8.168   5.425   6.396
 4561TIP3    H213641   8.308   5.476   6.371
 4562TIP3   OH213642   6.138   2.409   6.452
 4562TIP3    H113643   6.228   2.394   6.481
 4562TIP3    H213644   6.096   2.323   6.457
 4563TIP3   OH213645   0.832   0.348   0.410
 4563TIP3    H113646   0.843   0.291   0.334
 4563TIP3    H213647   0.739   0.370   0.411
 4564TIP3   OH213648   2.068   1.416   3.931
 4564TIP3    H113649   2.087   1.500   3.888
 4564TIP3    H213650   1.999   1.377   3.877
 4565TIP3   OH213651   8.246   4.950   1.021
 4565TIP3    H113652   8.325   4.896   1.031
 4565TIP3    H213653   8.194   4.930   1.099
 4566TIP3   OH213654   5.767   5.293   3.290
 4566TIP3    H113655   5.734   5.361   3.349
 4566TIP3    H213656   5.818   5.341   3.225
 4567TIP3   OH213657   6.824   3.991   6.129
 4567TIP3    H113658   6.756   4.046   6.088
 4567TIP3    H213659   6.845   4.037   6.211
 4568TIP3   OH213660   3.239   7.166   2.688
 4568TIP3    H113661   3.174   7.149   2.620
 4568TIP3    H213662   3.300   7.093   2.683
 4569TIP3   OH213663   1.577   4.538   3.989
 4569TIP3    H113664   1.539   4.549   4.076
 4569TIP3    H213665   1.502   4.539   3.930
 4570TIP3   OH213666   3.925   5.580   5.365
 4570TIP3    H113667   3.978   5.500   5.372
 4570TIP3    H213668   3.938   5.610   5.275
 4571TIP3   OH213669   2.997   3.124   4.682
 4571TIP3    H113670   2.999   3.099   4.775
 4571TIP3    H213671   3.087   3.113   4.652
 4572TIP3   OH213672   0.684   7.422   0.405
 4572TIP3    H113673   0.654   7.347   0.456
 4572TIP3    H213674   0.608   7.448   0.353
 4573TIP3   OH213675   5.368   4.441   1.574
 4573TIP3    H113676   5.283   4.479   1.595
 4573TIP3    H213677   5.424   4.516   1.555
 4574TIP3   OH213678   1.566   6.630   2.015
 4574TIP3    H113679   1.484   6.602   1.973
 4574TIP3    H213680   1.550   6.619   2.108
 4575TIP3   OH213681   5.108   6.488   1.636
 4575TIP3    H113682   5.162   6.424   1.681
 4575TIP3    H213683   5.047   6.519   1.702
 4576TIP3   OH213684   8.032   2.824   1.871
 4576TIP3    H113685   8.018   2.910   1.833
 4576TIP3    H213686   7.955   2.808   1.926
 4577TIP3   OH213687   4.721   7.626   6.620
 4577TIP3    H113688   4.707   7.672   6.703
 4577TIP3    H213689   4.713   7.694   6.553
 4578TIP3   OH213690   6.140   0.150   3.773
 4578TIP3    H113691   6.071   0.193   3.824
 4578TIP3    H213692   6.113   0.058   3.771
 4579TIP3   OH213693   5.030   3.268   6.148
 4579TIP3    H113694   5.008   3.240   6.059
 4579TIP3    H213695   5.007   3.361   6.150
 4580TIP3   OH213696   0.639   7.233   2.391
 4580TIP3    H113697   0.642   7.328   2.398
 4580TIP3    H213698   0.586   7.205   2.465
 4581TIP3   OH213699   1.990   0.657   1.248
 4581TIP3    H113700   1.915   0.598   1.240
 4581TIP3    H213701   2.017   0.674   1.158
 4582TIP3   OH213702   5.008   4.196   4.599
 4582TIP3    H113703   5.066   4.249   4.654
 4582TIP3    H213704   5.063   4.168   4.526
 4583TIP3   OH213705   2.642   0.309   4.212
 4583TIP3    H113706   2.639   0.397   4.174
 4583TIP3    H213707   2.596   0.254   4.148
 4584TIP3   OH213708   7.242   7.634   6.524
 4584TIP3    H113709   7.317   7.683   6.558
 4584TIP3    H213710   7.246   7.646   6.429
 4585TIP3   OH213711   5.656   1.618   5.730
 4585TIP3    H113712   5.655   1.680   5.803
 4585TIP3    H213713   5.685   1.671   5.655
 4586TIP3   OH213714   5.737   3.751   4.999
 4586TIP3    H113715   5.757   3.843   5.013
 4586TIP3    H213716   5.787   3.727   4.921
 4587TIP3   OH213717   1.482   0.208   4.580
 4587TIP3    H113718   1.499   0.272   4.649
 4587TIP3    H213719   1.448   0.131   4.627
 4588TIP3   OH213720   1.592   6.810   1.704
 4588TIP3    H113721   1.535   6.855   1.642
 4588TIP3    H213722   1.628   6.737   1.654
 4589TIP3   OH213723   6.520   0.910   1.636
 4589TIP3    H113724   6.525   0.877   1.725
 4589TIP3    H213725   6.567   0.846   1.584
 4590TIP3   OH213726   4.218   3.704   6.089
 4590TIP3    H113727   4.263   3.707   6.005
 4590TIP3    H213728   4.223   3.793   6.123
 4591TIP3   OH213729   5.537   2.620   2.263
 4591TIP3    H113730   5.553   2.559   2.191
 4591TIP3    H213731   5.507   2.564   2.335
 4592TIP3   OH213732   3.579   6.535   5.737
 4592TIP3    H113733   3.494   6.565   5.771
 4592TIP3    H213734   3.568   6.537   5.642
 4593TIP3   OH213735   7.358   5.694   5.104
 4593TIP3    H113736   7.378   5.731   5.018
 4593TIP3    H213737   7.307   5.615   5.085
 4594TIP3   OH213738   0.244   4.772   5.021
 4594TIP3    H113739   0.169   4.783   5.079
 4594TIP3    H213740   0.302   4.712   5.067
 4595TIP3   OH213741   8.071   4.799   6.685
 4595TIP3    H113742   8.155   4.825   6.722
 4595TIP3    H213743   8.006   4.842   6.741
 4596TIP3   OH213744   3.113   6.467   6.666
 4596TIP3    H113745   3.020   6.448   6.676
 4596TIP3    H213746   3.154   6.380   6.666
 4597TIP3   OH213747   1.083   4.408   3.808
 4597TIP3    H113748   1.020   4.441   3.745
 4597TIP3    H213749   1.043   4.425   3.893
 4598TIP3   OH213750   2.018   5.892   0.662
 4598TIP3    H113751   1.935   5.869   0.702
 4598TIP3    H213752   2.031   5.827   0.593
 4599TIP3   OH213753   3.575   1.578   6.319
 4599TIP3    H113754   3.567   1.522   6.241
 4599TIP3    H213755   3.659   1.554   6.357
 4600TIP3   OH213756   6.287   3.479   2.129
 4600TIP3    H113757   6.379   3.470   2.105
 4600TIP3    H213758   6.249   3.535   2.061
 4601TIP3   OH213759   2.136   5.434   1.895
 4601TIP3    H113760   2.132   5.353   1.945
 4601TIP3    H213761   2.152   5.406   1.805
 4602TIP3   OH213762   5.573   6.632   3.820
 4602TIP3    H113763   5.637   6.703   3.817
 4602TIP3    H213764   5.594   6.577   3.744
 4603TIP3   OH213765   3.781   0.402   2.422
 4603TIP3    H113766   3.865   0.370   2.457
 4603TIP3    H213767   3.724   0.406   2.498
 4604TIP3   OH213768   5.844   5.814   2.577
 4604TIP3    H113769   5.937   5.794   2.561
 4604TIP3    H213770   5.845   5.883   2.643
 4605TIP3   OH213771   4.853   3.240   3.066
 4605TIP3    H113772   4.807   3.163   3.099
 4605TIP3    H213773   4.939   3.237   3.109
 4606TIP3   OH213774   4.893   4.746   1.362
 4606TIP3    H113775   4.976   4.702   1.381
 4606TIP3    H213776   4.918   4.837   1.346
 4607TIP3   OH213777   6.660   2.149   1.459
 4607TIP3    H113778   6.628   2.172   1.372
 4607TIP3    H213779   6.593   2.090   1.494
 4608TIP3   OH213780   2.585   4.836   5.828
 4608TIP3    H113781   2.663   4.813   5.778
 4608TIP3    H213782   2.513   4.830   5.765
 4609TIP3   OH213783   7.871   3.057   4.917
 4609TIP3    H113784   7.964   3.060   4.895
 4609TIP3    H213785   7.869   3.043   5.012
 4610TIP3   OH213786   0.899   0.840   4.694
 4610TIP3    H113787   0.969   0.801   4.642
 4610TIP3    H213788   0.889   0.780   4.769
 4611TIP3   OH213789   7.847   5.835   0.985
 4611TIP3    H113790   7.783   5.838   1.056
 4611TIP3    H213791   7.865   5.741   0.973
 4612TIP3   OH213792   0.546   6.130   5.820
 4612TIP3    H113793   0.478   6.181   5.864
 4612TIP3    H213794   0.526   6.139   5.726
 4613TIP3   OH213795   7.459   6.398   1.096
 4613TIP3    H113796   7.509   6.317   1.107
 4613TIP3    H213797   7.511   6.464   1.142
 4614TIP3   OH213798   8.164   4.029   4.079
 4614TIP3    H113799   8.120   3.964   4.133
 4614TIP3    H213800   8.108   4.106   4.085
 4615TIP3   OH213801   5.384   3.380   3.517
 4615TIP3    H113802   5.445   3.309   3.537
 4615TIP3    H213803   5.302   3.355   3.558
 4616TIP3   OH213804   7.783   2.241   4.573
 4616TIP3    H113805   7.762   2.238   4.666
 4616TIP3    H213806   7.741   2.163   4.536
 4617TIP3   OH213807   0.977   6.500   5.651
 4617TIP3    H113808   1.029   6.478   5.728
 4617TIP3    H213809   1.042   6.513   5.581
 4618TIP3   OH213810   3.559   6.682   0.931
 4618TIP3    H113811   3.534   6.774   0.941
 4618TIP3    H213812   3.649   6.684   0.899
 4619TIP3   OH213813   1.076   2.678   5.981
 4619TIP3    H113814   1.165   2.643   5.974
 4619TIP3    H213815   1.019   2.602   5.963
 4620TIP3   OH213816   0.179   3.052   1.145
 4620TIP3    H113817   0.230   3.073   1.067
 4620TIP3    H213818   0.120   3.127   1.155
 4621TIP3   OH213819   0.491   4.659   0.296
 4621TIP3    H113820   0.521   4.603   0.224
 4621TIP3    H213821   0.502   4.605   0.374
 4622TIP3   OH213822   0.052   1.171   3.999
 4622TIP3    H113823   0.073   1.264   4.014
 4622TIP3    H213824  -0.043   1.168   3.998
 4623TIP3   OH213825   7.668   6.147   3.092
 4623TIP3    H113826   7.662   6.242   3.078
 4623TIP3    H213827   7.623   6.109   3.017
 4624TIP3   OH213828   6.369   7.093   2.219
 4624TIP3    H113829   6.297   7.124   2.274
 4624TIP3    H213830   6.361   6.998   2.221
 4625TIP3   OH213831   6.454   1.017   5.896
 4625TIP3    H113832   6.438   1.049   5.985
 4625TIP3    H213833   6.548   1.029   5.883
 4626TIP3   OH213834   1.825   2.459   0.807
 4626TIP3    H113835   1.749   2.431   0.756
 4626TIP3    H213836   1.793   2.532   0.860
 4627TIP3   OH213837   6.555   0.345   4.016
 4627TIP3    H113838   6.643   0.365   3.985
 4627TIP3    H213839   6.500   0.349   3.938
 4628TIP3   OH213840   5.482   6.622   1.800
 4628TIP3    H113841   5.523   6.593   1.718
 4628TIP3    H213842   5.554   6.624   1.863
 4629TIP3   OH213843   3.847   0.168   4.970
 4629TIP3    H113844   3.919   0.105   4.967
 4629TIP3    H213845   3.858   0.220   4.891
 4630TIP3   OH213846   2.660   2.986   0.359
 4630TIP3    H113847   2.718   2.996   0.434
 4630TIP3    H213848   2.648   3.075   0.326
 4631TIP3   OH213849   4.836   2.240   6.083
 4631TIP3    H113850   4.832   2.248   5.988
 4631TIP3    H213851   4.930   2.244   6.104
 4632TIP3   OH213852   1.228   3.330   3.288
 4632TIP3    H113853   1.137   3.304   3.275
 4632TIP3    H213854   1.232   3.419   3.252
 4633TIP3   OH213855   0.575   3.575   0.373
 4633TIP3    H113856   0.546   3.662   0.346
 4633TIP3    H213857   0.551   3.518   0.300
 4634TIP3   OH213858   5.728   1.762   4.676
 4634TIP3    H113859   5.645   1.733   4.714
 4634TIP3    H213860   5.791   1.693   4.701
 4635TIP3   OH213861   3.802   6.845   2.969
 4635TIP3    H113862   3.892   6.834   3.001
 4635TIP3    H213863   3.771   6.923   3.014
 4636TIP3   OH213864   6.281   5.948   1.227
 4636TIP3    H113865   6.357   5.922   1.174
 4636TIP3    H213866   6.316   6.010   1.291
 4637TIP3   OH213867   4.215   0.181   3.658
 4637TIP3    H113868   4.122   0.178   3.680
 4637TIP3    H213869   4.259   0.195   3.742
 4638TIP3   OH213870   3.298   1.667   5.984
 4638TIP3    H113871   3.328   1.592   5.933
 4638TIP3    H213872   3.325   1.744   5.932
 4639TIP3   OH213873   7.355   0.178   3.307
 4639TIP3    H113874   7.272   0.183   3.259
 4639TIP3    H213875   7.421   0.168   3.238
 4640TIP3   OH213876   3.099   6.532   2.071
 4640TIP3    H113877   3.190   6.557   2.060
 4640TIP3    H213878   3.050   6.600   2.024
 4641TIP3   OH213879   5.334   1.412   4.504
 4641TIP3    H113880   5.414   1.464   4.512
 4641TIP3    H213881   5.335   1.381   4.413
 4642TIP3   OH213882   4.720   7.640   1.217
 4642TIP3    H113883   4.644   7.660   1.272
 4642TIP3    H213884   4.683   7.618   1.132
 4643TIP3   OH213885   6.823   2.686   2.232
 4643TIP3    H113886   6.900   2.732   2.198
 4643TIP3    H213887   6.858   2.605   2.268
 4644TIP3   OH213888   7.306   6.782   4.385
 4644TIP3    H113889   7.238   6.828   4.336
 4644TIP3    H213890   7.308   6.825   4.470
 4645TIP3   OH213891   4.821   0.454   3.328
 4645TIP3    H113892   4.846   0.541   3.297
 4645TIP3    H213893   4.827   0.399   3.250
 4646TIP3   OH213894   6.771   7.205   6.605
 4646TIP3    H113895   6.796   7.120   6.641
 4646TIP3    H213896   6.682   7.193   6.574
 4647TIP3   OH213897   2.115   1.510   0.262
 4647TIP3    H113898   2.107   1.583   0.324
 4647TIP3    H213899   2.184   1.454   0.300
 4648TIP3   OH213900   2.900   1.134   5.726
 4648TIP3    H113901   2.862   1.124   5.639
 4648TIP3    H213902   2.843   1.197   5.770
 4649TIP3   OH213903   6.815   4.581   6.660
 4649TIP3    H113904   6.734   4.531   6.649
 4649TIP3    H213905   6.842   4.564   6.750
 4650TIP3   OH213906   0.100   6.354   4.264
 4650TIP3    H113907   0.152   6.294   4.212
 4650TIP3    H213908   0.151   6.435   4.267
 4651TIP3   OH213909   5.722   6.724   0.242
 4651TIP3    H113910   5.791   6.704   0.305
 4651TIP3    H213911   5.765   6.722   0.157
 4652TIP3   OH213912   0.221   4.807   3.958
 4652TIP3    H113913   0.237   4.826   4.051
 4652TIP3    H213914   0.214   4.893   3.917
 4653TIP3   OH213915   6.900   0.495   2.892
 4653TIP3    H113916   6.891   0.590   2.899
 4653TIP3    H213917   6.993   0.478   2.908
 4654TIP3   OH213918   7.938   1.835   3.914
 4654TIP3    H113919   7.969   1.745   3.905
 4654TIP3    H213920   7.853   1.826   3.958
 4655TIP3   OH213921   4.233   7.797   6.532
 4655TIP3    H113922   4.311   7.793   6.587
 4655TIP3    H213923   4.250   7.870   6.472
 4656TIP3   OH213924   7.826   6.270   3.611
 4656TIP3    H113925   7.753   6.209   3.615
 4656TIP3    H213926   7.831   6.297   3.519
 4657TIP3   OH213927   4.600   3.800   1.176
 4657TIP3    H113928   4.528   3.863   1.170
 4657TIP3    H213929   4.678   3.850   1.151
 4658TIP3   OH213930   3.726   4.676   0.890
 4658TIP3    H113931   3.803   4.638   0.934
 4658TIP3    H213932   3.684   4.728   0.959
 4659TIP3   OH213933   4.356   0.890   6.613
 4659TIP3    H113934   4.397   0.820   6.562
 4659TIP3    H213935   4.263   0.867   6.614
 4660TIP3   OH213936   7.500   5.479   5.317
 4660TIP3    H113937   7.547   5.553   5.280
 4660TIP3    H213938   7.535   5.469   5.405
 4661TIP3   OH213939   7.007   0.133   2.560
 4661TIP3    H113940   7.037   0.210   2.608
 4661TIP3    H213941   7.046   0.142   2.473
 4662TIP3   OH213942   7.362   5.419   1.718
 4662TIP3    H113943   7.284   5.414   1.662
 4662TIP3    H213944   7.353   5.502   1.764
 4663TIP3   OH213945   0.096   2.050   6.231
 4663TIP3    H113946   0.005   2.022   6.243
 4663TIP3    H213947   0.096   2.142   6.260
 4664TIP3   OH213948   5.735   5.178   3.621
 4664TIP3    H113949   5.754   5.271   3.607
 4664TIP3    H213950   5.807   5.132   3.580
 4665TIP3   OH213951   7.435   5.142   2.680
 4665TIP3    H113952   7.349   5.101   2.691
 4665TIP3    H213953   7.432   5.180   2.592
 4666TIP3   OH213954   6.210   1.040   4.340
 4666TIP3    H113955   6.223   1.133   4.321
 4666TIP3    H213956   6.233   1.031   4.433
 4667TIP3   OH213957   3.289   2.457   1.593
 4667TIP3    H113958   3.351   2.385   1.586
 4667TIP3    H213959   3.232   2.432   1.666
 4668TIP3   OH213960   8.185   1.097   2.472
 4668TIP3    H113961   8.226   1.173   2.513
 4668TIP3    H213962   8.244   1.075   2.399
 4669TIP3   OH213963   4.733   3.735   2.839
 4669TIP3    H113964   4.757   3.702   2.752
 4669TIP3    H213965   4.815   3.741   2.887
 4670TIP3   OH213966   1.871   3.883   5.403
 4670TIP3    H113967   1.950   3.844   5.367
 4670TIP3    H213968   1.901   3.958   5.453
 4671TIP3   OH213969   2.191   1.689   3.220
 4671TIP3    H113970   2.261   1.712   3.280
 4671TIP3    H213971   2.147   1.773   3.202
 4672TIP3   OH213972   5.082   5.652   0.419
 4672TIP3    H113973   4.995   5.624   0.449
 4672TIP3    H213974   5.098   5.602   0.340
 4673TIP3   OH213975   6.983   6.784   3.816
 4673TIP3    H113976   6.944   6.697   3.805
 4673TIP3    H213977   7.072   6.775   3.783
 4674TIP3   OH213978   1.103   5.441   2.857
 4674TIP3    H113979   1.122   5.376   2.789
 4674TIP3    H213980   1.046   5.394   2.919
 4675TIP3   OH213981   0.341   3.921   5.062
 4675TIP3    H113982   0.323   4.003   5.109
 4675TIP3    H213983   0.331   3.944   4.970
 4676TIP3   OH213984   3.299   5.949   6.719
 4676TIP3    H113985   3.367   5.970   6.782
 4676TIP3    H213986   3.334   5.874   6.671
 4677TIP3   OH213987   2.123   4.008   5.135
 4677TIP3    H113988   2.218   3.996   5.137
 4677TIP3    H213989   2.102   4.049   5.220
 4678TIP3   OH213990   2.961   2.480   4.823
 4678TIP3    H113991   2.906   2.448   4.894
 4678TIP3    H213992   2.982   2.402   4.771
 4679TIP3   OH213993   0.949   6.192   0.759
 4679TIP3    H113994   0.998   6.177   0.839
 4679TIP3    H213995   0.899   6.111   0.745
 4680TIP3   OH213996   6.346   4.484   5.919
 4680TIP3    H113997   6.434   4.453   5.942
 4680TIP3    H213998   6.361   4.553   5.855
 4681TIP3   OH213999   0.517   7.357   5.243
 4681TIP3    H114000   0.454   7.385   5.309
 4681TIP3    H214001   0.586   7.312   5.293
 4682TIP3   OH214002   2.425   2.275   5.648
 4682TIP3    H114003   2.429   2.267   5.744
 4682TIP3    H214004   2.362   2.345   5.633
 4683TIP3   OH214005   0.053   2.003   1.322
 4683TIP3    H114006   0.083   1.934   1.382
 4683TIP3    H214007   0.092   1.979   1.238
 4684TIP3   OH214008   7.660   6.109   6.643
 4684TIP3    H114009   7.645   6.203   6.656
 4684TIP3    H214010   7.755   6.099   6.650
 4685TIP3   OH214011   6.247   3.056   6.346
 4685TIP3    H114012   6.303   3.115   6.396
 4685TIP3    H214013   6.264   2.969   6.383
 4686TIP3   OH214014   0.102   4.917   3.452
 4686TIP3    H114015   0.173   4.858   3.479
 4686TIP3    H214016   0.026   4.860   3.442
 4687TIP3   OH214017   5.216   0.280   0.587
 4687TIP3    H114018   5.178   0.192   0.591
 4687TIP3    H214019   5.240   0.300   0.678
 4688TIP3   OH214020   2.933   3.067   6.052
 4688TIP3    H114021   2.863   3.001   6.050
 4688TIP3    H214022   2.999   3.034   5.992
 4689TIP3   OH214023   5.349   0.885   3.430
 4689TIP3    H114024   5.411   0.896   3.357
 4689TIP3    H214025   5.268   0.856   3.389
 4690TIP3   OH214026   2.011   6.435   5.536
 4690TIP3    H114027   2.068   6.380   5.483
 4690TIP3    H214028   2.064   6.513   5.555
 4691TIP3   OH214029   3.290   3.157   6.471
 4691TIP3    H114030   3.339   3.080   6.442
 4691TIP3    H214031   3.237   3.126   6.544
 4692TIP3   OH214032   2.314   2.263   4.168
 4692TIP3    H114033   2.382   2.230   4.110
 4692TIP3    H214034   2.236   2.268   4.113
 4693TIP3   OH214035   2.423   5.115   1.337
 4693TIP3    H114036   2.393   5.152   1.254
 4693TIP3    H214037   2.354   5.137   1.400
 4694TIP3   OH214038   7.858   2.695   1.160
 4694TIP3    H114039   7.846   2.617   1.214
 4694TIP3    H214040   7.853   2.768   1.222
 4695TIP3   OH214041   1.570   1.855   4.714
 4695TIP3    H114042   1.559   1.766   4.679
 4695TIP3    H214043   1.575   1.843   4.809
 4696TIP3   OH214044   5.046   6.948   2.635
 4696TIP3    H114045   5.089   6.962   2.551
 4696TIP3    H214046   4.988   6.873   2.620
 4697TIP3   OH214047   7.774   3.315   6.764
 4697TIP3    H114048   7.784   3.223   6.789
 4697TIP3    H214049   7.783   3.315   6.668
 4698TIP3   OH214050   2.756   6.898   5.070
 4698TIP3    H114051   2.755   6.846   5.150
 4698TIP3    H214052   2.688   6.964   5.082
 4699TIP3   OH214053   7.109   5.541   0.274
 4699TIP3    H114054   7.114   5.571   0.183
 4699TIP3    H214055   7.174   5.594   0.320
 4700TIP3   OH214056   3.070   6.550   0.405
 4700TIP3    H114057   3.088   6.544   0.312
 4700TIP3    H214058   3.138   6.608   0.439
 4701TIP3   OH214059   5.116   3.321   6.404
 4701TIP3    H114060   5.100   3.297   6.313
 4701TIP3    H214061   5.181   3.390   6.400
 4702TIP3   OH214062   4.044   4.432   4.511
 4702TIP3    H114063   4.019   4.505   4.454
 4702TIP3    H214064   4.002   4.450   4.594
 4703TIP3   OH214065   2.945   1.623   6.123
 4703TIP3    H114066   2.970   1.612   6.032
 4703TIP3    H214067   3.011   1.572   6.172
 4704TIP3   OH214068   5.340   2.669   6.615
 4704TIP3    H114069   5.283   2.607   6.660
 4704TIP3    H214070   5.429   2.646   6.642
 4705TIP3   OH214071   1.758   2.836   0.124
 4705TIP3    H114072   1.767   2.910   0.065
 4705TIP3    H214073   1.667   2.841   0.155
 4706TIP3   OH214074   0.660   2.680   1.481
 4706TIP3    H114075   0.566   2.688   1.471
 4706TIP3    H214076   0.678   2.716   1.568
 4707TIP3   OH214077   3.170   4.410   0.227
 4707TIP3    H114078   3.209   4.497   0.234
 4707TIP3    H214079   3.135   4.406   0.138
 4708TIP3   OH214080   2.256   7.737   5.648
 4708TIP3    H114081   2.209   7.815   5.678
 4708TIP3    H214082   2.227   7.668   5.708
 4709TIP3   OH214083   3.542   0.950   5.540
 4709TIP3    H114084   3.626   0.933   5.497
 4709TIP3    H214085   3.564   1.008   5.614
 4710TIP3   OH214086   3.759   4.485   2.085
 4710TIP3    H114087   3.748   4.393   2.108
 4710TIP3    H214088   3.727   4.533   2.161
 4711TIP3   OH214089   1.293   0.257   2.498
 4711TIP3    H114090   1.356   0.229   2.565
 4711TIP3    H214091   1.238   0.321   2.543
 4712TIP3   OH214092   0.634   4.946   4.729
 4712TIP3    H114093   0.616   5.012   4.662
 4712TIP3    H214094   0.668   4.996   4.803
 4713TIP3   OH214095   7.253   6.051   4.079
 4713TIP3    H114096   7.223   6.031   3.991
 4713TIP3    H214097   7.289   5.969   4.112
 4714TIP3   OH214098   0.341   1.585   3.039
 4714TIP3    H114099   0.283   1.559   2.967
 4714TIP3    H214100   0.282   1.614   3.109
 4715TIP3   OH214101   8.206   3.887   3.561
 4715TIP3    H114102   8.245   3.901   3.647
 4715TIP3    H214103   8.186   3.793   3.559
 4716TIP3   OH214104   4.480   4.611   0.323
 4716TIP3    H114105   4.386   4.602   0.336
 4716TIP3    H214106   4.513   4.521   0.326
 4717TIP3   OH214107   5.289   1.888   0.807
 4717TIP3    H114108   5.358   1.955   0.799
 4717TIP3    H214109   5.221   1.917   0.746
 4718TIP3   OH214110   2.603   2.226   0.067
 4718TIP3    H114111   2.686   2.179   0.057
 4718TIP3    H214112   2.539   2.171   0.022
 4719TIP3   OH214113   6.855   6.760   0.595
 4719TIP3    H114114   6.862   6.674   0.553
 4719TIP3    H214115   6.937   6.769   0.644
 4720TIP3   OH214116   1.521   7.723   2.540
 4720TIP3    H114117   1.580   7.677   2.600
 4720TIP3    H214118   1.527   7.815   2.566
 4721TIP3   OH214119   7.418   2.151   2.973
 4721TIP3    H114120   7.384   2.081   2.918
 4721TIP3    H214121   7.513   2.143   2.967
 4722TIP3   OH214122   1.075   3.945   2.626
 4722TIP3    H114123   1.158   3.965   2.670
 4722TIP3    H214124   1.096   3.875   2.565
 4723TIP3   OH214125   7.430   4.933   3.619
 4723TIP3    H114126   7.409   4.842   3.601
 4723TIP3    H214127   7.525   4.939   3.610
 4724TIP3   OH214128   6.457   4.374   3.155
 4724TIP3    H114129   6.527   4.324   3.196
 4724TIP3    H214130   6.378   4.323   3.170
 4725TIP3   OH214131   3.973   6.121   0.954
 4725TIP3    H114132   4.048   6.062   0.960
 4725TIP3    H214133   3.926   6.092   0.876
 4726TIP3   OH214134   3.566   4.832   1.066
 4726TIP3    H114135   3.537   4.803   1.153
 4726TIP3    H214136   3.620   4.909   1.084
 4727TIP3   OH214137   5.571   3.326   0.695
 4727TIP3    H114138   5.637   3.347   0.760
 4727TIP3    H214139   5.490   3.318   0.745
 4728TIP3   OH214140   0.871   4.395   4.719
 4728TIP3    H114141   0.946   4.342   4.746
 4728TIP3    H214142   0.820   4.338   4.662
 4729TIP3   OH214143   7.473   1.227   4.411
 4729TIP3    H114144   7.535   1.293   4.443
 4729TIP3    H214145   7.485   1.152   4.468
 4730TIP3   OH214146   8.202   0.591   0.378
 4730TIP3    H114147   8.147   0.615   0.453
 4730TIP3    H214148   8.223   0.499   0.393
 4731TIP3   OH214149   1.840   6.710   6.158
 4731TIP3    H114150   1.826   6.804   6.149
 4731TIP3    H214151   1.931   6.696   6.130
 4732TIP3   OH214152   3.304   0.370   1.909
 4732TIP3    H114153   3.348   0.340   1.989
 4732TIP3    H214154   3.264   0.291   1.873
 4733TIP3   OH214155   6.836   3.588   6.264
 4733TIP3    H114156   6.862   3.636   6.342
 4733TIP3    H214157   6.814   3.656   6.200
 4734TIP3   OH214158   7.601   4.425   1.167
 4734TIP3    H114159   7.693   4.451   1.176
 4734TIP3    H214160   7.554   4.482   1.228
 4735TIP3   OH214161   2.418   6.007   5.191
 4735TIP3    H114162   2.511   5.987   5.203
 4735TIP3    H214163   2.376   5.921   5.185
 4736TIP3   OH214164   1.952   7.448   4.419
 4736TIP3    H114165   1.891   7.378   4.440
 4736TIP3    H214166   2.034   7.422   4.461
 4737TIP3   OH214167   4.550   6.313   0.761
 4737TIP3    H114168   4.643   6.308   0.780
 4737TIP3    H214169   4.537   6.253   0.687
 4738TIP3   OH214170   1.869   5.440   2.065
 4738TIP3    H114171   1.913   5.373   2.116
 4738TIP3    H214172   1.897   5.523   2.103
 4739TIP3   OH214173   2.773   1.066   4.001
 4739TIP3    H114174   2.681   1.091   4.012
 4739TIP3    H214175   2.817   1.148   3.979
 4740TIP3   OH214176   7.689   0.192   4.420
 4740TIP3    H114177   7.737   0.109   4.422
 4740TIP3    H214178   7.675   0.209   4.327
 4741TIP3   OH214179   2.061   6.933   0.602
 4741TIP3    H114180   2.031   6.847   0.632
 4741TIP3    H214181   2.001   6.995   0.643
 4742TIP3   OH214182   0.952   0.777   4.063
 4742TIP3    H114183   0.980   0.686   4.073
 4742TIP3    H214184   0.933   0.806   4.152
 4743TIP3   OH214185   2.481   1.071   4.040
 4743TIP3    H114186   2.439   1.089   4.124
 4743TIP3    H214187   2.420   1.103   3.974
 4744TIP3   OH214188   5.714   2.687   5.203
 4744TIP3    H114189   5.694   2.666   5.294
 4744TIP3    H214190   5.660   2.764   5.184
 4745TIP3   OH214191   2.482   3.335   2.951
 4745TIP3    H114192   2.572   3.318   2.978
 4745TIP3    H214193   2.475   3.430   2.949
 4746TIP3   OH214194   6.029   4.975   2.245
 4746TIP3    H114195   6.038   5.017   2.159
 4746TIP3    H214196   6.046   5.046   2.308
 4747TIP3   OH214197   3.813   1.148   4.982
 4747TIP3    H114198   3.717   1.152   4.977
 4747TIP3    H214199   3.842   1.168   4.893
 4748TIP3   OH214200   5.525   2.916   5.181
 4748TIP3    H114201   5.559   3.000   5.148
 4748TIP3    H214202   5.500   2.935   5.272
 4749TIP3   OH214203   3.169   0.222   5.742
 4749TIP3    H114204   3.243   0.226   5.802
 4749TIP3    H214205   3.202   0.258   5.660
 4750TIP3   OH214206   4.226   3.073   6.535
 4750TIP3    H114207   4.292   3.029   6.482
 4750TIP3    H214208   4.246   3.048   6.625
 4751TIP3   OH214209   6.311   3.473   4.721
 4751TIP3    H114210   6.320   3.451   4.628
 4751TIP3    H214211   6.360   3.405   4.767
 4752TIP3   OH214212   4.203   1.177   1.281
 4752TIP3    H114213   4.201   1.221   1.196
 4752TIP3    H214214   4.294   1.154   1.294
 4753TIP3   OH214215   4.719   0.179   2.768
 4753TIP3    H114216   4.814   0.192   2.770
 4753TIP3    H214217   4.689   0.231   2.693
 4754TIP3   OH214218   0.122   4.995   6.582
 4754TIP3    H114219   0.085   4.945   6.510
 4754TIP3    H214220   0.086   5.083   6.572
 4755TIP3   OH214221   4.167   1.234   2.740
 4755TIP3    H114222   4.077   1.251   2.715
 4755TIP3    H214223   4.161   1.179   2.818
 4756TIP3   OH214224   4.922   2.461   3.391
 4756TIP3    H114225   4.901   2.419   3.474
 4756TIP3    H214226   4.985   2.401   3.350
 4757TIP3   OH214227   0.112   4.595   2.155
 4757TIP3    H114228   0.193   4.638   2.129
 4757TIP3    H214229   0.044   4.660   2.135
 4758TIP3   OH214230   4.800   0.292   3.031
 4758TIP3    H114231   4.861   0.364   3.015
 4758TIP3    H214232   4.727   0.309   2.972
 4759TIP3   OH214233   4.949   3.578   6.138
 4759TIP3    H114234   4.926   3.623   6.219
 4759TIP3    H214235   5.029   3.621   6.109
 4760TIP3   OH214236   2.056   5.270   2.154
 4760TIP3    H114237   2.070   5.295   2.246
 4760TIP3    H214238   2.017   5.182   2.159
 4761TIP3   OH214239   3.668   0.554   6.547
 4761TIP3    H114240   3.708   0.562   6.460
 4761TIP3    H214241   3.742   0.541   6.606
 4762TIP3   OH214242   3.929   6.394   5.887
 4762TIP3    H114243   3.868   6.320   5.882
 4762TIP3    H214244   4.005   6.359   5.935
 4763TIP3   OH214245   6.628   0.986   1.386
 4763TIP3    H114246   6.671   1.072   1.384
 4763TIP3    H214247   6.552   0.996   1.328
 4764TIP3   OH214248   2.817   1.438   4.730
 4764TIP3    H114249   2.824   1.418   4.637
 4764TIP3    H214250   2.815   1.352   4.773
 4765TIP3   OH214251   1.990   4.056   3.276
 4765TIP3    H114252   2.025   4.143   3.258
 4765TIP3    H214253   1.991   4.012   3.190
 4766TIP3   OH214254   4.383   3.296   5.432
 4766TIP3    H114255   4.403   3.366   5.370
 4766TIP3    H214256   4.465   3.281   5.479
 4767TIP3   OH214257   5.313   5.952   6.370
 4767TIP3    H114258   5.350   6.008   6.301
 4767TIP3    H214259   5.220   5.946   6.350
 4768TIP3   OH214260   7.091   5.558   6.713
 4768TIP3    H114261   7.161   5.578   6.775
 4768TIP3    H214262   7.067   5.467   6.733
 4769TIP3   OH214263   7.474   0.625   1.817
 4769TIP3    H114264   7.436   0.545   1.852
 4769TIP3    H214265   7.439   0.633   1.729
 4770TIP3   OH214266   6.231   0.650   1.391
 4770TIP3    H114267   6.315   0.636   1.348
 4770TIP3    H214268   6.241   0.734   1.436
 4771TIP3   OH214269   4.058   3.999   1.005
 4771TIP3    H114270   3.972   3.983   0.966
 4771TIP3    H214271   4.045   4.075   1.062
 4772TIP3   OH214272   7.444   6.036   4.612
 4772TIP3    H114273   7.363   6.075   4.645
 4772TIP3    H214274   7.512   6.071   4.669
 4773TIP3   OH214275   1.033   0.683   6.736
 4773TIP3    H114276   1.104   0.687   6.671
 4773TIP3    H214277   1.061   0.744   6.805
 4774TIP3   OH214278   5.255   4.664   2.886
 4774TIP3    H114279   5.270   4.758   2.877
 4774TIP3    H214280   5.168   4.650   2.847
 4775TIP3   OH214281   3.912   6.218   4.926
 4775TIP3    H114282   3.977   6.229   4.856
 4775TIP3    H214283   3.950   6.264   5.000
 4776TIP3   OH214284   4.453   0.289   0.298
 4776TIP3    H114285   4.502   0.349   0.241
 4776TIP3    H214286   4.511   0.276   0.373
 4777TIP3   OH214287   3.524   6.232   1.804
 4777TIP3    H114288   3.432   6.218   1.823
 4777TIP3    H214289   3.525   6.282   1.723
 4778TIP3   OH214290   4.568   7.488   5.925
 4778TIP3    H114291   4.629   7.482   5.998
 4778TIP3    H214292   4.621   7.468   5.848
 4779TIP3   OH214293   2.089   3.438   5.793
 4779TIP3    H114294   2.107   3.507   5.857
 4779TIP3    H214295   1.996   3.420   5.802
 4780TIP3   OH214296   2.629   3.146   1.990
 4780TIP3    H114297   2.591   3.193   2.064
 4780TIP3    H214298   2.622   3.054   2.014
 4781TIP3   OH214299   4.091   3.334   5.235
 4781TIP3    H114300   4.039   3.376   5.304
 4781TIP3    H214301   4.036   3.336   5.157
 4782TIP3   OH214302   7.698   2.740   0.763
 4782TIP3    H114303   7.782   2.747   0.810
 4782TIP3    H214304   7.645   2.683   0.819
 4783TIP3   OH214305   0.607   1.504   3.095
 4783TIP3    H114306   0.517   1.535   3.109
 4783TIP3    H214307   0.601   1.409   3.105
 4784TIP3   OH214308   0.468   2.052   2.511
 4784TIP3    H114309   0.445   1.968   2.552
 4784TIP3    H214310   0.475   2.113   2.584
 4785TIP3   OH214311   1.430   7.049   3.598
 4785TIP3    H114312   1.398   7.139   3.607
 4785TIP3    H214313   1.361   7.004   3.548
 4786TIP3   OH214314   5.757   1.558   1.402
 4786TIP3    H114315   5.775   1.580   1.310
 4786TIP3    H214316   5.668   1.590   1.417
 4787TIP3   OH214317   4.805   5.475   4.908
 4787TIP3    H114318   4.833   5.422   4.833
 4787TIP3    H214319   4.783   5.410   4.975
 4788TIP3   OH214320   1.650   4.362   0.643
 4788TIP3    H114321   1.619   4.272   0.645
 4788TIP3    H214322   1.629   4.397   0.730
 4789TIP3   OH214323   7.514   5.950   3.276
 4789TIP3    H114324   7.580   6.015   3.298
 4789TIP3    H214325   7.543   5.871   3.321
 4790TIP3   OH214326   2.856   4.610   2.232
 4790TIP3    H114327   2.807   4.584   2.154
 4790TIP3    H214328   2.928   4.548   2.238
 4791TIP3   OH214329   2.732   5.950   2.682
 4791TIP3    H114330   2.707   5.899   2.605
 4791TIP3    H214331   2.657   5.941   2.741
 4792TIP3   OH214332   6.866   5.381   5.540
 4792TIP3    H114333   6.841   5.301   5.493
 4792TIP3    H214334   6.878   5.354   5.630
 4793TIP3   OH214335   4.928   1.535   0.604
 4793TIP3    H114336   4.884   1.452   0.618
 4793TIP3    H214337   4.857   1.598   0.592
 4794TIP3   OH214338   3.897   1.123   0.430
 4794TIP3    H114339   3.954   1.191   0.465
 4794TIP3    H214340   3.828   1.171   0.384
 4795TIP3   OH214341   3.048   6.136   0.638
 4795TIP3    H114342   3.047   6.231   0.633
 4795TIP3    H214343   2.974   6.114   0.695
 4796TIP3   OH214344   1.218   3.345   2.690
 4796TIP3    H114345   1.143   3.289   2.709
 4796TIP3    H214346   1.292   3.285   2.679
 4797TIP3   OH214347   5.665   6.481   3.625
 4797TIP3    H114348   5.649   6.453   3.535
 4797TIP3    H214349   5.666   6.400   3.676
 4798TIP3   OH214350   1.585   1.549   2.186
 4798TIP3    H114351   1.630   1.466   2.200
 4798TIP3    H214352   1.512   1.548   2.249
 4799TIP3   OH214353   5.952   1.745   0.653
 4799TIP3    H114354   5.960   1.724   0.746
 4799TIP3    H214355   5.867   1.709   0.628
 4800TIP3   OH214356   0.441   1.144   2.823
 4800TIP3    H114357   0.531   1.175   2.836
 4800TIP3    H214358   0.401   1.210   2.767
 4801TIP3   OH214359   1.735   2.136   6.380
 4801TIP3    H114360   1.667   2.102   6.438
 4801TIP3    H214361   1.710   2.105   6.293
 4802TIP3   OH214362   6.527   4.701   4.013
 4802TIP3    H114363   6.464   4.639   3.977
 4802TIP3    H214364   6.583   4.647   4.070
 4803TIP3   OH214365   4.710   6.501   5.630
 4803TIP3    H114366   4.744   6.513   5.542
 4803TIP3    H214367   4.740   6.414   5.656
 4804TIP3   OH214368   6.447   6.510   1.826
 4804TIP3    H114369   6.507   6.509   1.751
 4804TIP3    H214370   6.364   6.539   1.789
 4805TIP3   OH214371   3.568   1.434   0.111
 4805TIP3    H114372   3.473   1.427   0.101
 4805TIP3    H214373   3.603   1.405   0.027
 4806TIP3   OH214374   0.856   6.567   4.994
 4806TIP3    H114375   0.832   6.587   4.904
 4806TIP3    H214376   0.792   6.501   5.021
 4807TIP3   OH214377   4.893   2.566   4.812
 4807TIP3    H114378   4.946   2.597   4.739
 4807TIP3    H214379   4.955   2.552   4.883
 4808TIP3   OH214380   3.909   6.149   4.412
 4808TIP3    H114381   3.884   6.130   4.322
 4808TIP3    H214382   3.827   6.172   4.455
 4809TIP3   OH214383   2.912   1.329   5.424
 4809TIP3    H114384   2.841   1.368   5.474
 4809TIP3    H214385   2.913   1.376   5.341
 4810TIP3   OH214386   6.228   0.242   0.133
 4810TIP3    H114387   6.172   0.169   0.157
 4810TIP3    H214388   6.233   0.297   0.211
 4811TIP3   OH214389   1.880   6.035   4.866
 4811TIP3    H114390   1.859   5.967   4.929
 4811TIP3    H214391   1.809   6.031   4.802
 4812TIP3   OH214392   4.986   3.521   4.417
 4812TIP3    H114393   4.909   3.465   4.426
 4812TIP3    H214394   4.957   3.591   4.358
 4813TIP3   OH214395   5.585   7.708   0.717
 4813TIP3    H114396   5.534   7.699   0.637
 4813TIP3    H214397   5.604   7.618   0.744
 4814TIP3   OH214398   7.387   6.854   4.644
 4814TIP3    H114399   7.452   6.891   4.702
 4814TIP3    H214400   7.333   6.798   4.701
 4815TIP3   OH214401   5.435   3.003   4.849
 4815TIP3    H114402   5.451   3.085   4.804
 4815TIP3    H214403   5.465   3.018   4.939
 4816TIP3   OH214404   0.105   7.769   0.175
 4816TIP3    H114405   0.156   7.827   0.118
 4816TIP3    H214406   0.076   7.826   0.246
 4817TIP3   OH214407   1.290   1.650   0.532
 4817TIP3    H114408   1.314   1.697   0.612
 4817TIP3    H214409   1.340   1.568   0.537
 4818TIP3   OH214410   1.066   1.812   2.135
 4818TIP3    H114411   0.975   1.790   2.154
 4818TIP3    H214412   1.084   1.890   2.187
 4819TIP3   OH214413   3.776   1.003  -0.023
 4819TIP3    H114414   3.816   1.076  -0.069
 4819TIP3    H214415   3.836   0.986   0.050
 4820TIP3   OH214416   6.073   7.027   2.230
 4820TIP3    H114417   6.091   7.112   2.272
 4820TIP3    H214418   6.018   6.981   2.293
 4821TIP3   OH214419   6.821   6.560   4.575
 4821TIP3    H114420   6.782   6.584   4.491
 4821TIP3    H214421   6.855   6.471   4.562
 4822TIP3   OH214422   4.900   3.314   1.076
 4822TIP3    H114423   4.900   3.361   0.993
 4822TIP3    H214424   4.814   3.271   1.079
 4823TIP3   OH214425   5.470   1.269   5.344
 4823TIP3    H114426   5.540   1.254   5.280
 4823TIP3    H214427   5.424   1.346   5.313
 4824TIP3   OH214428   2.982   7.506   0.819
 4824TIP3    H114429   3.053   7.556   0.859
 4824TIP3    H214430   2.926   7.573   0.778
 4825TIP3   OH214431   3.605   4.869   1.990
 4825TIP3    H114432   3.553   4.947   2.010
 4825TIP3    H214433   3.678   4.901   1.938
 4826TIP3   OH214434   6.963   6.036   4.358
 4826TIP3    H114435   7.053   6.054   4.331
 4826TIP3    H214436   6.951   5.943   4.342
 4827TIP3   OH214437   3.302   7.478   1.237
 4827TIP3    H114438   3.225   7.423   1.222
 4827TIP3    H214439   3.376   7.423   1.211
 4828TIP3   OH214440   0.561   1.138   4.654
 4828TIP3    H114441   0.476   1.181   4.643
 4828TIP3    H214442   0.546   1.071   4.721
 4829TIP3   OH214443   6.702   3.465   4.193
 4829TIP3    H114444   6.737   3.554   4.199
 4829TIP3    H214445   6.778   3.411   4.171
 4830TIP3   OH214446   7.536   7.163   3.368
 4830TIP3    H114447   7.599   7.111   3.317
 4830TIP3    H214448   7.501   7.226   3.306
 4831TIP3   OH214449   3.576   0.770   5.267
 4831TIP3    H114450   3.598   0.693   5.319
 4831TIP3    H214451   3.660   0.803   5.236
 4832TIP3   OH214452   2.759   2.874   5.032
 4832TIP3    H114453   2.788   2.872   4.941
 4832TIP3    H214454   2.691   2.807   5.038
 4833TIP3   OH214455   3.445   1.542   1.337
 4833TIP3    H114456   3.417   1.471   1.279
 4833TIP3    H214457   3.467   1.498   1.420
 4834TIP3   OH214458   5.332   6.572   2.497
 4834TIP3    H114459   5.254   6.563   2.442
 4834TIP3    H214460   5.325   6.661   2.533
 4835TIP3   OH214461   5.269   0.273   5.148
 4835TIP3    H114462   5.199   0.338   5.153
 4835TIP3    H214463   5.344   0.320   5.114
 4836TIP3   OH214464   6.966   0.236   0.593
 4836TIP3    H114465   6.972   0.247   0.498
 4836TIP3    H214466   6.873   0.251   0.613
 4837TIP3   OH214467   3.283   1.422   0.422
 4837TIP3    H114468   3.301   1.368   0.345
 4837TIP3    H214469   3.196   1.396   0.451
 4838TIP3   OH214470   7.414   2.398   4.101
 4838TIP3    H114471   7.412   2.311   4.061
 4838TIP3    H214472   7.322   2.422   4.111
 4839TIP3   OH214473   8.257   0.235   3.522
 4839TIP3    H114474   8.233   0.264   3.434
 4839TIP3    H214475   8.257   0.316   3.574
 4840TIP3   OH214476   2.817   7.719   3.975
 4840TIP3    H114477   2.838   7.797   4.027
 4840TIP3    H214478   2.861   7.647   4.021
 4841TIP3   OH214479   3.964   5.479   3.536
 4841TIP3    H114480   3.914   5.540   3.481
 4841TIP3    H214481   4.039   5.454   3.483
 4842TIP3   OH214482   1.353   3.265   1.873
 4842TIP3    H114483   1.362   3.243   1.780
 4842TIP3    H214484   1.441   3.293   1.899
 4843TIP3   OH214485   6.045   6.480   5.523
 4843TIP3    H114486   6.112   6.546   5.506
 4843TIP3    H214487   6.056   6.415   5.454
 4844TIP3   OH214488   4.314   0.757   5.086
 4844TIP3    H114489   4.334   0.790   5.174
 4844TIP3    H214490   4.234   0.802   5.061
 4845TIP3   OH214491   2.956   3.139   0.789
 4845TIP3    H114492   2.923   3.060   0.746
 4845TIP3    H214493   2.957   3.117   0.882
 4846TIP3   OH214494   7.396   3.328   4.570
 4846TIP3    H114495   7.450   3.405   4.552
 4846TIP3    H214496   7.455   3.267   4.616
 4847TIP3   OH214497   5.261   7.468   3.183
 4847TIP3    H114498   5.284   7.432   3.269
 4847TIP3    H214499   5.230   7.392   3.133
 4848TIP3   OH214500   6.886   7.481   5.489
 4848TIP3    H114501   6.805   7.488   5.438
 4848TIP3    H214502   6.926   7.399   5.458
 4849TIP3   OH214503   6.161   4.523   2.408
 4849TIP3    H114504   6.077   4.521   2.455
 4849TIP3    H214505   6.137   4.520   2.316
 4850TIP3   OH214506   5.859   5.392   6.577
 4850TIP3    H114507   5.877   5.390   6.483
 4850TIP3    H214508   5.783   5.334   6.588
 4851TIP3   OH214509   1.785   0.394   4.377
 4851TIP3    H114510   1.695   0.370   4.353
 4851TIP3    H214511   1.810   0.461   4.314
 4852TIP3   OH214512   0.960   0.498   4.093
 4852TIP3    H114513   0.908   0.441   4.038
 4852TIP3    H214514   0.940   0.470   4.183
 4853TIP3   OH214515   0.581   3.119   1.359
 4853TIP3    H114516   0.532   3.041   1.334
 4853TIP3    H214517   0.673   3.092   1.357
 4854TIP3   OH214518   5.432   7.137   2.347
 4854TIP3    H114519   5.484   7.171   2.274
 4854TIP3    H214520   5.406   7.216   2.396
 4855TIP3   OH214521   2.633   5.453   2.780
 4855TIP3    H114522   2.722   5.473   2.750
 4855TIP3    H214523   2.642   5.443   2.875
 4856TIP3   OH214524   3.305   1.238   2.301
 4856TIP3    H114525   3.268   1.199   2.380
 4856TIP3    H214526   3.240   1.222   2.233
 4857TIP3   OH214527   4.917   3.283   5.880
 4857TIP3    H114528   4.858   3.338   5.829
 4857TIP3    H214529   5.000   3.332   5.882
 4858TIP3   OH214530   4.573   1.369   0.227
 4858TIP3    H114531   4.612   1.451   0.256
 4858TIP3    H214532   4.582   1.370   0.132
 4859TIP3   OH214533   4.197   3.332   1.158
 4859TIP3    H114534   4.135   3.262   1.138
 4859TIP3    H214535   4.142   3.402   1.193
 4860TIP3   OH214536   5.493   4.044   1.906
 4860TIP3    H114537   5.481   4.119   1.964
 4860TIP3    H214538   5.475   4.079   1.819
 4861TIP3   OH214539   2.176   7.484   0.038
 4861TIP3    H114540   2.191   7.391   0.025
 4861TIP3    H214541   2.233   7.527  -0.026
 4862TIP3   OH214542   4.493   5.862   0.091
 4862TIP3    H114543   4.490   5.947   0.136
 4862TIP3    H214544   4.473   5.798   0.160
 4863TIP3   OH214545   6.708   1.258   3.136
 4863TIP3    H114546   6.790   1.211   3.122
 4863TIP3    H214547   6.642   1.190   3.144
 4864TIP3   OH214548   5.044   4.011   2.359
 4864TIP3    H114549   5.031   4.089   2.305
 4864TIP3    H214550   4.956   3.983   2.383
 4865TIP3   OH214551   0.350   3.142   4.610
 4865TIP3    H114552   0.433   3.190   4.604
 4865TIP3    H214553   0.364   3.063   4.558
 4866TIP3   OH214554   2.953   1.261   6.066
 4866TIP3    H114555   3.023   1.327   6.069
 4866TIP3    H214556   2.890   1.296   6.004
 4867TIP3   OH214557   5.411   5.374   0.364
 4867TIP3    H114558   5.434   5.467   0.366
 4867TIP3    H214559   5.316   5.371   0.377
 4868TIP3   OH214560   3.592   5.761   3.924
 4868TIP3    H114561   3.598   5.665   3.925
 4868TIP3    H214562   3.587   5.783   3.831
 4869TIP3   OH214563   2.571   1.258   5.202
 4869TIP3    H114564   2.593   1.349   5.180
 4869TIP3    H214565   2.528   1.263   5.287
 4870TIP3   OH214566   6.270   0.711   3.280
 4870TIP3    H114567   6.302   0.620   3.281
 4870TIP3    H214568   6.196   0.709   3.220
 4871TIP3   OH214569   4.836   4.191   0.883
 4871TIP3    H114570   4.756   4.238   0.859
 4871TIP3    H214571   4.889   4.191   0.803
 4872TIP3   OH214572   0.989   0.501   1.653
 4872TIP3    H114573   1.066   0.447   1.639
 4872TIP3    H214574   0.917   0.452   1.613
 4873TIP3   OH214575   1.147   7.606   2.539
 4873TIP3    H114576   1.076   7.599   2.475
 4873TIP3    H214577   1.204   7.532   2.520
 4874TIP3   OH214578   6.623   2.495   6.661
 4874TIP3    H114579   6.569   2.484   6.739
 4874TIP3    H214580   6.713   2.497   6.695
 4875TIP3   OH214581   0.822   5.871   3.702
 4875TIP3    H114582   0.863   5.904   3.782
 4875TIP3    H214583   0.893   5.871   3.637
 4876TIP3   OH214584   7.248   4.769   2.428
 4876TIP3    H114585   7.219   4.844   2.480
 4876TIP3    H214586   7.188   4.766   2.354
 4877TIP3   OH214587   6.746   3.253   1.600
 4877TIP3    H114588   6.688   3.180   1.623
 4877TIP3    H214589   6.769   3.236   1.508
 4878TIP3   OH214590   0.300   5.159   6.339
 4878TIP3    H114591   0.311   5.253   6.354
 4878TIP3    H214592   0.215   5.152   6.297
 4879TIP3   OH214593   6.605   6.454   1.213
 4879TIP3    H114594   6.609   6.361   1.191
 4879TIP3    H214595   6.562   6.495   1.138
 4880TIP3   OH214596   5.364   3.257   0.861
 4880TIP3    H114597   5.278   3.300   0.856
 4880TIP3    H214598   5.366   3.217   0.948
 4881TIP3   OH214599   4.464   0.112   5.359
 4881TIP3    H114600   4.551   0.112   5.319
 4881TIP3    H214601   4.415   0.045   5.310
 4882TIP3   OH214602   8.167   0.035   1.586
 4882TIP3    H114603   8.154  -0.060   1.591
 4882TIP3    H214604   8.085   0.068   1.548
 4883TIP3   OH214605   5.917   3.534   0.067
 4883TIP3    H114606   5.874   3.534   0.153
 4883TIP3    H214607   5.867   3.597   0.015
 4884TIP3   OH214608   7.357   4.928   3.979
 4884TIP3    H114609   7.354   4.852   4.037
 4884TIP3    H214610   7.297   4.906   3.908
 4885TIP3   OH214611   4.354   7.715   5.286
 4885TIP3    H114612   4.267   7.700   5.250
 4885TIP3    H214613   4.400   7.632   5.271
 4886TIP3   OH214614   4.881   6.173   2.505
 4886TIP3    H114615   4.913   6.260   2.529
 4886TIP3    H214616   4.827   6.188   2.428
 4887TIP3   OH214617   4.527   1.719   1.648
 4887TIP3    H114618   4.513   1.646   1.588
 4887TIP3    H214619   4.610   1.758   1.620
 4888TIP3   OH214620   6.552   0.345   4.559
 4888TIP3    H114621   6.490   0.292   4.508
 4888TIP3    H214622   6.615   0.281   4.593
 4889TIP3   OH214623   7.335   1.566   3.873
 4889TIP3    H114624   7.240   1.564   3.881
 4889TIP3    H214625   7.352   1.632   3.806
 4890TIP3   OH214626   5.466   1.738   2.700
 4890TIP3    H114627   5.549   1.765   2.740
 4890TIP3    H214628   5.427   1.677   2.762
 4891TIP3   OH214629   7.419   2.856   6.249
 4891TIP3    H114630   7.513   2.840   6.244
 4891TIP3    H214631   7.409   2.948   6.226
 4892TIP3   OH214632   5.231   0.134   3.410
 4892TIP3    H114633   5.312   0.153   3.457
 4892TIP3    H214634   5.250   0.052   3.363
 4893TIP3   OH214635   7.768   6.165   2.038
 4893TIP3    H114636   7.757   6.232   2.105
 4893TIP3    H214637   7.680   6.152   2.003
 4894TIP3   OH214638   4.336   3.929   1.089
 4894TIP3    H114639   4.248   3.954   1.063
 4894TIP3    H214640   4.326   3.839   1.122
 4895TIP3   OH214641   4.806   7.502   4.811
 4895TIP3    H114642   4.834   7.441   4.744
 4895TIP3    H214643   4.864   7.485   4.885
 4896TIP3   OH214644   0.580   7.212   1.703
 4896TIP3    H114645   0.669   7.182   1.720
 4896TIP3    H214646   0.564   7.190   1.611
 4897TIP3   OH214647   7.642   4.739   0.136
 4897TIP3    H114648   7.712   4.674   0.129
 4897TIP3    H214649   7.679   4.818   0.097
 4898TIP3   OH214650   4.630   0.822   2.446
 4898TIP3    H114651   4.578   0.796   2.523
 4898TIP3    H214652   4.634   0.917   2.452
 4899TIP3   OH214653   5.338   1.337   4.226
 4899TIP3    H114654   5.376   1.385   4.153
 4899TIP3    H214655   5.287   1.267   4.186
 4900TIP3   OH214656   0.635   4.849   1.646
 4900TIP3    H114657   0.726   4.821   1.652
 4900TIP3    H214658   0.589   4.798   1.712
 4901TIP3   OH214659   3.605   3.027   1.631
 4901TIP3    H114660   3.691   3.003   1.596
 4901TIP3    H214661   3.550   3.038   1.554
 4902TIP3   OH214662   0.990   6.807   0.761
 4902TIP3    H114663   0.945   6.776   0.840
 4902TIP3    H214664   1.033   6.729   0.726
 4903TIP3   OH214665   6.236   4.255   0.791
 4903TIP3    H114666   6.315   4.260   0.737
 4903TIP3    H214667   6.208   4.347   0.800
 4904TIP3   OH214668   3.620   5.712   3.638
 4904TIP3    H114669   3.592   5.756   3.557
 4904TIP3    H214670   3.556   5.642   3.651
 4905TIP3   OH214671   8.011   5.172   3.463
 4905TIP3    H114672   8.024   5.096   3.519
 4905TIP3    H214673   8.100   5.205   3.446
 4906TIP3   OH214674   5.997   6.707   5.174
 4906TIP3    H114675   6.071   6.653   5.143
 4906TIP3    H214676   5.977   6.764   5.100
 4907TIP3   OH214677   4.794   2.714   2.951
 4907TIP3    H114678   4.704   2.733   2.978
 4907TIP3    H214679   4.848   2.769   3.008
 4908TIP3   OH214680   4.810   7.713   4.629
 4908TIP3    H114681   4.849   7.782   4.681
 4908TIP3    H214682   4.786   7.645   4.693
 4909TIP3   OH214683   2.879   1.547   6.663
 4909TIP3    H114684   2.840   1.599   6.732
 4909TIP3    H214685   2.920   1.473   6.708
 4910TIP3   OH214686   2.883   4.241   2.234
 4910TIP3    H114687   2.813   4.225   2.297
 4910TIP3    H214688   2.896   4.157   2.190
 4911TIP3   OH214689   1.993   3.712   5.158
 4911TIP3    H114690   1.924   3.762   5.114
 4911TIP3    H214691   2.071   3.767   5.150
 4912TIP3   OH214692   6.737   1.425   3.556
 4912TIP3    H114693   6.689   1.409   3.475
 4912TIP3    H214694   6.805   1.488   3.531
 4913TIP3   OH214695   2.524   6.151   5.924
 4913TIP3    H114696   2.604   6.203   5.928
 4913TIP3    H214697   2.457   6.213   5.895
 4914TIP3   OH214698   7.307   3.408   1.199
 4914TIP3    H114699   7.374   3.468   1.166
 4914TIP3    H214700   7.320   3.328   1.148
 4915TIP3   OH214701   4.064   7.510   3.059
 4915TIP3    H114702   4.111   7.485   2.980
 4915TIP3    H214703   4.044   7.426   3.102
 4916TIP3   OH214704   4.564   6.353   2.748
 4916TIP3    H114705   4.497   6.303   2.796
 4916TIP3    H214706   4.645   6.338   2.797
 4917TIP3   OH214707   6.000   6.122   3.632
 4917TIP3    H114708   6.069   6.101   3.568
 4917TIP3    H214709   5.980   6.214   3.615
 4918TIP3   OH214710   7.451   6.806   2.307
 4918TIP3    H114711   7.435   6.775   2.396
 4918TIP3    H214712   7.364   6.826   2.273
 4919TIP3   OH214713   3.242   6.232   4.517
 4919TIP3    H114714   3.247   6.140   4.543
 4919TIP3    H214715   3.238   6.230   4.421
 4920TIP3   OH214716   2.916   0.597  -0.004
 4920TIP3    H114717   2.951   0.617   0.083
 4920TIP3    H214718   2.891   0.505   0.001
 4921TIP3   OH214719   4.198   2.396   5.241
 4921TIP3    H114720   4.262   2.326   5.254
 4921TIP3    H214721   4.161   2.378   5.154
 4922TIP3   OH214722   5.754   4.297   4.760
 4922TIP3    H114723   5.677   4.240   4.750
 4922TIP3    H214724   5.777   4.322   4.671
 4923TIP3   OH214725   1.457   7.454   6.305
 4923TIP3    H114726   1.404   7.473   6.383
 4923TIP3    H214727   1.517   7.385   6.334
 4924TIP3   OH214728   0.535   6.335   4.493
 4924TIP3    H114729   0.491   6.252   4.474
 4924TIP3    H214730   0.524   6.347   4.587
 4925TIP3   OH214731   4.257   4.571   3.585
 4925TIP3    H114732   4.334   4.515   3.574
 4925TIP3    H214733   4.192   4.515   3.626
 4926TIP3   OH214734   1.547   3.996   6.199
 4926TIP3    H114735   1.460   3.955   6.208
 4926TIP3    H214736   1.546   4.032   6.110
 4927TIP3   OH214737   0.628   0.686   6.397
 4927TIP3    H114738   0.652   0.619   6.460
 4927TIP3    H214739   0.701   0.747   6.397
 4928TIP3   OH214740   7.319   3.693   3.394
 4928TIP3    H114741   7.319   3.774   3.445
 4928TIP3    H214742   7.283   3.627   3.453
 4929TIP3   OH214743   1.683   1.758  -0.007
 4929TIP3    H114744   1.679   1.756   0.089
 4929TIP3    H214745   1.745   1.689  -0.030
 4930TIP3   OH214746   4.406   5.828   6.325
 4930TIP3    H114747   4.445   5.786   6.248
 4930TIP3    H214748   4.359   5.757   6.370
 4931TIP3   OH214749   0.059   2.087   5.126
 4931TIP3    H114750  -0.024   2.074   5.079
 4931TIP3    H214751   0.125   2.093   5.058
 4932TIP3   OH214752   1.905   7.044   3.405
 4932TIP3    H114753   1.937   6.985   3.337
 4932TIP3    H214754   1.810   7.037   3.401
 4933TIP3   OH214755   5.306   5.232   2.863
 4933TIP3    H114756   5.339   5.222   2.952
 4933TIP3    H214757   5.332   5.320   2.837
 4934TIP3   OH214758   1.488   4.446   5.993
 4934TIP3    H114759   1.472   4.471   5.902
 4934TIP3    H214760   1.553   4.509   6.025
 4935TIP3   OH214761   4.938   6.622   1.838
 4935TIP3    H114762   5.000   6.691   1.860
 4935TIP3    H214763   4.866   6.633   1.901
 4936TIP3   OH214764   5.127   4.495   1.921
 4936TIP3    H114765   5.140   4.420   1.979
 4936TIP3    H214766   5.076   4.557   1.973
 4937TIP3   OH214767   3.877   1.040   4.271
 4937TIP3    H114768   3.798   1.030   4.219
 4937TIP3    H214769   3.867   0.977   4.342
 4938TIP3   OH214770   6.844   0.860   1.224
 4938TIP3    H114771   6.922   0.902   1.259
 4938TIP3    H214772   6.773   0.889   1.281
 4939TIP3   OH214773   1.874   2.564   1.302
 4939TIP3    H114774   1.925   2.564   1.221
 4939TIP3    H214775   1.878   2.654   1.333
 4940TIP3   OH214776   3.260   6.356   2.277
 4940TIP3    H114777   3.295   6.422   2.217
 4940TIP3    H214778   3.338   6.319   2.319
 4941TIP3   OH214779   7.336   6.983   6.670
 4941TIP3    H114780   7.421   7.015   6.640
 4941TIP3    H214781   7.303   6.930   6.597
 4942TIP3   OH214782   2.312   2.142   4.962
 4942TIP3    H114783   2.247   2.075   4.980
 4942TIP3    H214784   2.265   2.225   4.970
 4943TIP3   OH214785   3.793   2.813   3.131
 4943TIP3    H114786   3.711   2.806   3.082
 4943TIP3    H214787   3.782   2.891   3.186
 4944TIP3   OH214788   2.196   2.460   6.537
 4944TIP3    H114789   2.165   2.549   6.522
 4944TIP3    H214790   2.248   2.439   6.460
 4945TIP3   OH214791   1.081   6.793   4.741
 4945TIP3    H114792   1.140   6.723   4.769
 4945TIP3    H214793   0.993   6.759   4.757
 4946TIP3   OH214794   8.231   7.416   3.488
 4946TIP3    H114795   8.271   7.498   3.459
 4946TIP3    H214796   8.168   7.442   3.556
 4947TIP3   OH214797   5.128   3.534   0.592
 4947TIP3    H114798   5.039   3.554   0.564
 4947TIP3    H214799   5.165   3.481   0.522
 4948TIP3   OH214800   3.460   7.695   1.487
 4948TIP3    H114801   3.461   7.605   1.520
 4948TIP3    H214802   3.377   7.702   1.440
 4949TIP3   OH214803   1.071   1.433   5.832
 4949TIP3    H114804   1.135   1.495   5.796
 4949TIP3    H214805   1.095   1.426   5.924
 4950TIP3   OH214806   7.305   4.450   4.005
 4950TIP3    H114807   7.385   4.501   3.998
 4950TIP3    H214808   7.329   4.362   3.975
 4951TIP3   OH214809   5.723   2.387   5.990
 4951TIP3    H114810   5.747   2.335   6.068
 4951TIP3    H214811   5.754   2.335   5.916
 4952TIP3   OH214812   7.910   3.774   6.131
 4952TIP3    H114813   7.825   3.814   6.116
 4952TIP3    H214814   7.952   3.829   6.197
 4953TIP3   OH214815   5.050   1.133   4.532
 4953TIP3    H114816   5.073   1.043   4.555
 4953TIP3    H214817   5.006   1.125   4.447
 4954TIP3   OH214818   7.273   3.290   3.609
 4954TIP3    H114819   7.329   3.260   3.681
 4954TIP3    H214820   7.197   3.232   3.612
 4955TIP3   OH214821   3.556   1.623   3.398
 4955TIP3    H114822   3.460   1.622   3.396
 4955TIP3    H214823   3.578   1.622   3.491
 4956TIP3   OH214824   6.113   7.378   2.020
 4956TIP3    H114825   6.028   7.358   2.061
 4956TIP3    H214826   6.177   7.350   2.085
 4957TIP3   OH214827   4.187   7.104   3.140
 4957TIP3    H114828   4.172   7.140   3.053
 4957TIP3    H214829   4.166   7.011   3.132
 4958TIP3   OH214830   4.876   2.139   6.659
 4958TIP3    H114831   4.850   2.063   6.607
 4958TIP3    H214832   4.948   2.107   6.714
 4959TIP3   OH214833   5.760   2.941   5.477
 4959TIP3    H114834   5.707   3.020   5.469
 4959TIP3    H214835   5.850   2.974   5.481
 4960TIP3   OH214836   2.453   7.310   6.029
 4960TIP3    H114837   2.441   7.403   6.050
 4960TIP3    H214838   2.370   7.283   5.990
 4961TIP3   OH214839   5.046   5.956   6.323
 4961TIP3    H114840   5.006   6.016   6.386
 4961TIP3    H214841   5.011   5.983   6.238
 4962TIP3   OH214842   4.747   3.784   6.725
 4962TIP3    H114843   4.809   3.800   6.653
 4962TIP3    H214844   4.674   3.844   6.706
 4963TIP3   OH214845   7.484   5.836   0.834
 4963TIP3    H114846   7.444   5.783   0.765
 4963TIP3    H214847   7.530   5.905   0.787
 4964TIP3   OH214848   1.845   2.352   6.543
 4964TIP3    H114849   1.762   2.386   6.576
 4964TIP3    H214850   1.822   2.269   6.502
 4965TIP3   OH214851   2.954   7.607   0.323
 4965TIP3    H114852   2.930   7.699   0.311
 4965TIP3    H214853   3.002   7.585   0.244
 4966TIP3   OH214854   5.961   0.867   2.070
 4966TIP3    H114855   6.018   0.932   2.029
 4966TIP3    H214856   5.962   0.889   2.163
 4967TIP3   OH214857   0.106   0.013   3.395
 4967TIP3    H114858   0.024   0.016   3.345
 4967TIP3    H214859   0.099   0.086   3.457
 4968TIP3   OH214860   4.742   0.720   0.230
 4968TIP3    H114861   4.760   0.645   0.287
 4968TIP3    H214862   4.758   0.796   0.286
 4969TIP3   OH214863   5.301   7.332   4.395
 4969TIP3    H114864   5.311   7.242   4.427
 4969TIP3    H214865   5.242   7.373   4.458
 4970TIP3   OH214866   4.854   0.531   3.648
 4970TIP3    H114867   4.873   0.441   3.676
 4970TIP3    H214868   4.769   0.524   3.604
 4971TIP3   OH214869   5.371   4.789   4.386
 4971TIP3    H114870   5.314   4.765   4.313
 4971TIP3    H214871   5.330   4.867   4.423
 4972TIP3   OH214872   0.752   4.679   2.424
 4972TIP3    H114873   0.737   4.720   2.509
 4972TIP3    H214874   0.668   4.641   2.400
 4973TIP3   OH214875   4.758   1.718   1.522
 4973TIP3    H114876   4.831   1.669   1.561
 4973TIP3    H214877   4.748   1.681   1.435
 4974TIP3   OH214878   5.494   4.949   0.157
 4974TIP3    H114879   5.424   4.949   0.222
 4974TIP3    H214880   5.454   4.915   0.078
 4975TIP3   OH214881   3.965   3.989   3.198
 4975TIP3    H114882   4.034   3.946   3.147
 4975TIP3    H214883   3.965   4.080   3.167
 4976TIP3   OH214884   2.251   0.481   3.565
 4976TIP3    H114885   2.170   0.432   3.578
 4976TIP3    H214886   2.230   0.541   3.493
 4977TIP3   OH214887   1.879   3.246   5.243
 4977TIP3    H114888   1.808   3.260   5.181
 4977TIP3    H214889   1.839   3.198   5.316
 4978TIP3   OH214890   6.712   6.796   5.382
 4978TIP3    H114891   6.784   6.758   5.432
 4978TIP3    H214892   6.648   6.823   5.448
 4979TIP3   OH214893   7.951   5.006   4.820
 4979TIP3    H114894   7.926   4.921   4.782
 4979TIP3    H214895   7.881   5.065   4.791
 4980TIP3   OH214896   7.815   6.567   6.560
 4980TIP3    H114897   7.868   6.578   6.481
 4980TIP3    H214898   7.833   6.645   6.612
 4981TIP3   OH214899   5.628   0.537   5.811
 4981TIP3    H114900   5.581   0.516   5.731
 4981TIP3    H214901   5.678   0.616   5.791
 4982TIP3   OH214902   2.579   2.202   6.169
 4982TIP3    H114903   2.556   2.109   6.165
 4982TIP3    H214904   2.673   2.204   6.155
 4983TIP3   OH214905   6.196   4.761   2.161
 4983TIP3    H114906   6.170   4.776   2.070
 4983TIP3    H214907   6.176   4.844   2.205
 4984TIP3   OH214908   8.155   4.789   3.448
 4984TIP3    H114909   8.181   4.705   3.487
 4984TIP3    H214910   8.062   4.778   3.428
 4985TIP3   OH214911   4.146   7.441   3.784
 4985TIP3    H114912   4.215   7.421   3.722
 4985TIP3    H214913   4.182   7.510   3.840
 4986TIP3   OH214914   1.522   3.276   2.729
 4986TIP3    H114915   1.611   3.244   2.710
 4986TIP3    H214916   1.487   3.212   2.791
 4987TIP3   OH214917   1.384   3.203   6.615
 4987TIP3    H114918   1.448   3.178   6.547
 4987TIP3    H214919   1.438   3.228   6.690
 4988TIP3   OH214920   0.705   2.549   2.257
 4988TIP3    H114921   0.734   2.522   2.344
 4988TIP3    H214922   0.645   2.479   2.229
 4989TIP3   OH214923   2.642   7.445   5.306
 4989TIP3    H114924   2.683   7.361   5.324
 4989TIP3    H214925   2.590   7.464   5.384
 4990TIP3   OH214926   0.252   5.633   2.175
 4990TIP3    H114927   0.240   5.695   2.103
 4990TIP3    H214928   0.337   5.657   2.213
 4991TIP3   OH214929   6.158   4.448   6.107
 4991TIP3    H114930   6.100   4.390   6.058
 4991TIP3    H214931   6.218   4.483   6.040
 4992TIP3   OH214932   3.773   1.782   1.881
 4992TIP3    H114933   3.848   1.724   1.869
 4992TIP3    H214934   3.761   1.788   1.975
 4993TIP3   OH214935   1.611   0.828   1.209
 4993TIP3    H114936   1.518   0.851   1.214
 4993TIP3    H214937   1.642   0.869   1.128
 4994TIP3   OH214938   3.938   6.907   5.150
 4994TIP3    H114939   4.008   6.872   5.204
 4994TIP3    H214940   3.857   6.874   5.190
 4995TIP3   OH214941   4.322   2.780   2.478
 4995TIP3    H114942   4.281   2.839   2.416
 4995TIP3    H214943   4.415   2.799   2.472
 4996TIP3   OH214944   3.195   0.458   3.102
 4996TIP3    H114945   3.254   0.506   3.159
 4996TIP3    H214946   3.192   0.370   3.139
 4997TIP3   OH214947   3.041   6.211   2.410
 4997TIP3    H114948   2.963   6.259   2.385
 4997TIP3    H214949   3.114   6.267   2.381
 4998TIP3   OH214950   0.532   3.002   3.574
 4998TIP3    H114951   0.597   3.051   3.625
 4998TIP3    H214952   0.489   2.946   3.638
 4999TIP3   OH214953   7.010   6.679   1.546
 4999TIP3    H114954   6.967   6.752   1.591
 4999TIP3    H214955   6.941   6.640   1.493
 5000TIP3   OH214956   5.627   4.849   5.690
 5000TIP3    H114957   5.574   4.817   5.763
 5000TIP3    H214958   5.658   4.770   5.646
 5001TIP3   OH214959   2.392   7.464   4.324
 5001TIP3    H114960   2.458   7.461   4.255
 5001TIP3    H214961   2.442   7.455   4.405
 5002TIP3   OH214962   4.447   5.102   2.142
 5002TIP3    H114963   4.368   5.057   2.112
 5002TIP3    H214964   4.451   5.085   2.236
 5003TIP3   OH214965   2.022   2.590   2.629
 5003TIP3    H114966   2.116   2.571   2.624
 5003TIP3    H214967   2.015   2.664   2.689
 5004TIP3   OH214968   5.577   3.262   0.051
 5004TIP3    H114969   5.643   3.300   0.108
 5004TIP3    H214970   5.570   3.170   0.079
 5005TIP3   OH214971   1.402   2.402   5.408
 5005TIP3    H114972   1.325   2.459   5.408
 5005TIP3    H214973   1.369   2.318   5.440
 5006TIP3   OH214974   3.801   2.804   5.164
 5006TIP3    H114975   3.895   2.801   5.182
 5006TIP3    H214976   3.760   2.813   5.250
 5007TIP3   OH214977   0.786   4.777   0.198
 5007TIP3    H114978   0.772   4.782   0.292
 5007TIP3    H214979   0.704   4.741   0.163
 5008TIP3   OH214980   4.665   0.575   0.658
 5008TIP3    H114981   4.604   0.597   0.588
 5008TIP3    H214982   4.621   0.602   0.739
 5009TIP3   OH214983   4.571   2.109   0.531
 5009TIP3    H114984   4.601   2.110   0.622
 5009TIP3    H214985   4.592   2.196   0.497
 5010TIP3   OH214986   8.235   0.588   4.428
 5010TIP3    H114987   8.183   0.662   4.396
 5010TIP3    H214988   8.170   0.530   4.468
 5011TIP3   OH214989   4.278   4.706   5.382
 5011TIP3    H114990   4.211   4.681   5.446
 5011TIP3    H214991   4.352   4.734   5.436
 5012TIP3   OH214992   0.578   3.403   2.191
 5012TIP3    H114993   0.571   3.308   2.202
 5012TIP3    H214994   0.602   3.415   2.099
 5013TIP3   OH214995   1.689   1.540   4.972
 5013TIP3    H114996   1.765   1.595   4.956
 5013TIP3    H214997   1.723   1.451   4.970
 5014TIP3   OH214998   1.466   1.894   3.044
 5014TIP3    H114999   1.535   1.836   3.077
 5014TIP3    H215000   1.460   1.963   3.111
 5015TIP3   OH215001   5.372   6.800   1.366
 5015TIP3    H115002   5.448   6.744   1.350
 5015TIP3    H215003   5.399   6.857   1.438
 5016TIP3   OH215004   4.846   7.021   6.477
 5016TIP3    H115005   4.879   6.938   6.512
 5016TIP3    H215006   4.871   7.087   6.542
 5017TIP3   OH215007   2.176   4.618   1.552
 5017TIP3    H115008   2.184   4.566   1.471
 5017TIP3    H215009   2.218   4.564   1.618
 5018TIP3   OH215010   3.555   3.932   6.484
 5018TIP3    H115011   3.481   3.877   6.459
 5018TIP3    H215012   3.619   3.870   6.520
 5019TIP3   OH215013   1.056   0.929   4.972
 5019TIP3    H115014   1.044   0.847   4.924
 5019TIP3    H215015   1.031   0.909   5.062
 5020TIP3   OH215016   5.230   0.525   5.721
 5020TIP3    H115017   5.156   0.583   5.702
 5020TIP3    H215018   5.233   0.520   5.816
 5021TIP3   OH215019   5.930   4.851   4.103
 5021TIP3    H115020   5.898   4.778   4.156
 5021TIP3    H215021   5.922   4.928   4.161
 5022TIP3   OH215022   1.130   0.347   5.051
 5022TIP3    H115023   1.214   0.359   5.094
 5022TIP3    H215024   1.082   0.429   5.067
 5023TIP3   OH215025   3.280   4.286   5.609
 5023TIP3    H115026   3.306   4.377   5.626
 5023TIP3    H215027   3.343   4.234   5.659
 5024TIP3   OH215028   3.838   2.365   3.428
 5024TIP3    H115029   3.869   2.284   3.386
 5024TIP3    H215030   3.906   2.429   3.408
 5025TIP3   OH215031   1.700   3.386   4.193
 5025TIP3    H115032   1.673   3.473   4.222
 5025TIP3    H215033   1.795   3.394   4.178
 5026TIP3   OH215034   6.405   5.931   5.689
 5026TIP3    H115035   6.433   5.990   5.759
 5026TIP3    H215036   6.428   5.976   5.608
 5027TIP3   OH215037   0.825   6.312   3.000
 5027TIP3    H115038   0.784   6.295   2.915
 5027TIP3    H215039   0.918   6.322   2.981
 5028TIP3   OH215040   8.244   0.895   3.302
 5028TIP3    H115041   8.261   0.955   3.230
 5028TIP3    H215042   8.149   0.890   3.307
 5029TIP3   OH215043   6.310   4.817   0.306
 5029TIP3    H115044   6.235   4.789   0.254
 5029TIP3    H215045   6.295   4.780   0.393
 5030TIP3   OH215046   6.277   4.104   4.101
 5030TIP3    H115047   6.369   4.105   4.076
 5030TIP3    H215048   6.271   4.032   4.164
 5031TIP3   OH215049   1.855   1.548   2.376
 5031TIP3    H115050   1.839   1.556   2.282
 5031TIP3    H215051   1.928   1.486   2.383
 5032TIP3   OH215052   4.703   1.856   5.202
 5032TIP3    H115053   4.734   1.848   5.112
 5032TIP3    H215054   4.783   1.851   5.255
 5033TIP3   OH215055   4.237   6.452   0.086
 5033TIP3    H115056   4.208   6.456  -0.005
 5033TIP3    H215057   4.219   6.362   0.113
 5034TIP3   OH215058   7.758   3.228   2.762
 5034TIP3    H115059   7.676   3.180   2.760
 5034TIP3    H215060   7.776   3.250   2.671
 5035TIP3   OH215061   5.905   6.496   2.872
 5035TIP3    H115062   5.977   6.537   2.823
 5035TIP3    H215063   5.837   6.481   2.805
 5036TIP3   OH215064   1.926   3.652   3.776
 5036TIP3    H115065   1.938   3.746   3.784
 5036TIP3    H215066   1.833   3.638   3.791
 5037TIP3   OH215067   6.585   6.664   5.171
 5037TIP3    H115068   6.626   6.734   5.222
 5037TIP3    H215069   6.513   6.633   5.225
 5038TIP3   OH215070   3.013   0.618   3.959
 5038TIP3    H115071   2.986   0.691   3.904
 5038TIP3    H215072   2.965   0.631   4.041
 5039TIP3   OH215073   2.291   5.975   4.066
 5039TIP3    H115074   2.243   6.046   4.110
 5039TIP3    H215075   2.308   5.912   4.136
 5040TIP3   OH215076   2.172   5.153   6.372
 5040TIP3    H115077   2.078   5.132   6.374
 5040TIP3    H215078   2.213   5.082   6.421
 5041TIP3   OH215079   0.564   0.758   3.652
 5041TIP3    H115080   0.524   0.773   3.567
 5041TIP3    H215081   0.651   0.798   3.646
 5042TIP3   OH215082   5.065   4.880   2.422
 5042TIP3    H115083   5.034   4.922   2.341
 5042TIP3    H215084   5.015   4.923   2.491
 5043TIP3   OH215085   7.088   0.337   4.780
 5043TIP3    H115086   7.177   0.357   4.809
 5043TIP3    H215087   7.032   0.367   4.851
 5044TIP3   OH215088   6.017   1.202   1.176
 5044TIP3    H115089   5.977   1.242   1.254
 5044TIP3    H215090   6.094   1.255   1.158
 5045TIP3   OH215091   6.586   5.175   3.611
 5045TIP3    H115092   6.502   5.174   3.657
 5045TIP3    H215093   6.600   5.084   3.584
 5046TIP3   OH215094   4.518   5.408   0.119
 5046TIP3    H115095   4.424   5.418   0.135
 5046TIP3    H215096   4.526   5.320   0.082
 5047TIP3   OH215097   7.886   1.649   1.002
 5047TIP3    H115098   7.800   1.629   1.038
 5047TIP3    H215099   7.870   1.718   0.938
 5048TIP3   OH215100   4.745   2.146   3.385
 5048TIP3    H115101   4.836   2.125   3.364
 5048TIP3    H215102   4.730   2.105   3.470
 5049TIP3   OH215103   5.905   2.162   0.356
 5049TIP3    H115104   5.972   2.110   0.312
 5049TIP3    H215105   5.905   2.246   0.310
 5050TIP3   OH215106   6.001   1.479   2.146
 5050TIP3    H115107   5.963   1.548   2.200
 5050TIP3    H215108   6.075   1.521   2.102
 5051TIP3   OH215109   3.998   5.838   5.143
 5051TIP3    H115110   4.008   5.785   5.063
 5051TIP3    H215111   3.911   5.817   5.175
 5052TIP3   OH215112   7.505   7.622   1.858
 5052TIP3    H115113   7.568   7.553   1.879
 5052TIP3    H215114   7.503   7.677   1.936
 5053TIP3   OH215115   4.866   6.847   5.630
 5053TIP3    H115116   4.929   6.792   5.676
 5053TIP3    H215117   4.920   6.901   5.572
 5054TIP3   OH215118   2.849   5.169   1.187
 5054TIP3    H115119   2.934   5.130   1.206
 5054TIP3    H215120   2.788   5.095   1.189
 5055TIP3   OH215121   8.225   4.758   4.837
 5055TIP3    H115122   8.187   4.798   4.915
 5055TIP3    H215123   8.199   4.667   4.841
 5056TIP3   OH215124   0.226   0.810   1.703
 5056TIP3    H115125   0.158   0.784   1.766
 5056TIP3    H215126   0.189   0.888   1.660
 5057TIP3   OH215127   1.136   5.258   2.359
 5057TIP3    H115128   1.196   5.207   2.413
 5057TIP3    H215129   1.049   5.225   2.382
 5058TIP3   OH215130   2.282   5.548   6.041
 5058TIP3    H115131   2.256   5.457   6.026
 5058TIP3    H215132   2.287   5.586   5.953
 5059TIP3   OH215133   1.291   2.945   3.717
 5059TIP3    H115134   1.273   2.867   3.665
 5059TIP3    H215135   1.347   2.915   3.788
 5060TIP3   OH215136   1.780   1.863   1.600
 5060TIP3    H115137   1.701   1.810   1.587
 5060TIP3    H215138   1.795   1.860   1.695
 5061TIP3   OH215139   5.238   6.015   3.579
 5061TIP3    H115140   5.290   5.953   3.631
 5061TIP3    H215141   5.165   5.963   3.545
 5062TIP3   OH215142   7.001   0.733   3.579
 5062TIP3    H115143   7.057   0.745   3.656
 5062TIP3    H215144   6.926   0.790   3.595
 5063TIP3   OH215145   3.331   3.763   4.584
 5063TIP3    H115146   3.280   3.684   4.601
 5063TIP3    H215147   3.309   3.822   4.656
 5064TIP3   OH215148   4.322   3.868   2.842
 5064TIP3    H115149   4.255   3.910   2.787
 5064TIP3    H215150   4.308   3.774   2.830
 5065TIP3   OH215151   4.689   5.043   1.262
 5065TIP3    H115152   4.664   5.107   1.195
 5065TIP3    H215153   4.686   4.959   1.216
 5066TIP3   OH215154   6.358   7.788   0.243
 5066TIP3    H115155   6.308   7.870   0.239
 5066TIP3    H215156   6.382   7.771   0.152
 5067TIP3   OH215157   1.535   4.940   6.276
 5067TIP3    H115158   1.492   4.928   6.191
 5067TIP3    H215159   1.477   4.999   6.324
 5068TIP3   OH215160   0.440   4.618   4.284
 5068TIP3    H115161   0.450   4.611   4.379
 5068TIP3    H215162   0.346   4.622   4.269
 5069TIP3   OH215163   0.664   5.795   0.925
 5069TIP3    H115164   0.724   5.722   0.936
 5069TIP3    H215165   0.633   5.814   1.014
 5070TIP3   OH215166   7.210   3.281   4.888
 5070TIP3    H115167   7.148   3.214   4.861
 5070TIP3    H215168   7.160   3.362   4.888
 5071TIP3   OH215169   1.184   2.180   1.608
 5071TIP3    H115170   1.231   2.263   1.614
 5071TIP3    H215171   1.107   2.199   1.554
 5072TIP3   OH215172   7.889   0.784   4.975
 5072TIP3    H115173   7.818   0.827   5.023
 5072TIP3    H215174   7.944   0.746   5.044
 5073TIP3   OH215175   7.541   7.097   4.108
 5073TIP3    H115176   7.575   7.007   4.113
 5073TIP3    H215177   7.455   7.092   4.151
 5074TIP3   OH215178   7.304   5.117   1.000
 5074TIP3    H115179   7.217   5.102   1.038
 5074TIP3    H215180   7.363   5.064   1.054
 5075TIP3   OH215181   0.170   3.488   6.242
 5075TIP3    H115182   0.123   3.406   6.256
 5075TIP3    H215183   0.101   3.553   6.224
 5076TIP3   OH215184   6.163   2.564   0.434
 5076TIP3    H115185   6.213   2.494   0.476
 5076TIP3    H215186   6.162   2.541   0.341
 5077TIP3   OH215187   0.870   0.783   0.669
 5077TIP3    H115188   0.903   0.706   0.622
 5077TIP3    H215189   0.875   0.854   0.606
 5078TIP3   OH215190   3.061   5.558   4.404
 5078TIP3    H115191   3.038   5.543   4.496
 5078TIP3    H215192   3.154   5.534   4.399
 5079TIP3   OH215193   2.021   2.825   3.710
 5079TIP3    H115194   1.991   2.909   3.675
 5079TIP3    H215195   2.073   2.849   3.787
 5080TIP3   OH215196   1.044   5.295   0.315
 5080TIP3    H115197   0.949   5.291   0.328
 5080TIP3    H215198   1.069   5.205   0.297
 5081TIP3   OH215199   6.474   4.141   5.586
 5081TIP3    H115200   6.426   4.180   5.659
 5081TIP3    H215201   6.437   4.182   5.508
 5082TIP3   OH215202   2.646   6.926   2.424
 5082TIP3    H115203   2.623   7.004   2.475
 5082TIP3    H215204   2.642   6.954   2.333
 5083TIP3   OH215205   1.865   7.590   0.609
 5083TIP3    H115206   1.906   7.577   0.694
 5083TIP3    H215207   1.883   7.509   0.561
 5084TIP3   OH215208   6.379   5.911   6.512
 5084TIP3    H115209   6.353   5.878   6.598
 5084TIP3    H215210   6.437   5.985   6.531
 5085TIP3   OH215211   6.720   5.569   6.520
 5085TIP3    H115212   6.700   5.653   6.479
 5085TIP3    H215213   6.664   5.565   6.597
 5086TIP3   OH215214   1.085   2.047   0.974
 5086TIP3    H115215   1.052   1.988   1.043
 5086TIP3    H215216   1.041   2.017   0.894
 5087TIP3   OH215217   5.445   6.879   1.627
 5087TIP3    H115218   5.439   6.802   1.683
 5087TIP3    H215219   5.509   6.936   1.671
 5088TIP3   OH215220   5.186   2.844   1.931
 5088TIP3    H115221   5.157   2.753   1.925
 5088TIP3    H215222   5.107   2.895   1.915
 5089TIP3   OH215223   0.957   7.829   3.707
 5089TIP3    H115224   0.911   7.770   3.766
 5089TIP3    H215225   0.912   7.819   3.623
 5090TIP3   OH215226   5.910   5.069   5.960
 5090TIP3    H115227   5.853   5.139   5.929
 5090TIP3    H215228   5.855   4.990   5.958
 5091TIP3   OH215229   0.851   2.327   4.063
 5091TIP3    H115230   0.815   2.285   4.141
 5091TIP3    H215231   0.900   2.257   4.019
 5092TIP3   OH215232   5.882   2.272   5.756
 5092TIP3    H115233   5.898   2.318   5.673
 5092TIP3    H215234   5.853   2.185   5.729
 5093TIP3   OH215235   5.072   1.036   6.337
 5093TIP3    H115236   4.978   1.016   6.338
 5093TIP3    H215237   5.090   1.071   6.424
 5094TIP3   OH215238   2.732   6.091   3.269
 5094TIP3    H115239   2.668   6.041   3.319
 5094TIP3    H215240   2.813   6.087   3.321
 5095TIP3   OH215241   8.270   2.301   3.439
 5095TIP3    H115242   8.283   2.207   3.429
 5095TIP3    H215243   8.181   2.310   3.472
 5096TIP3   OH215244   7.352   4.073   0.786
 5096TIP3    H115245   7.361   4.167   0.775
 5096TIP3    H215246   7.260   4.054   0.769
 5097TIP3   OH215247   3.053   4.267   3.481
 5097TIP3    H115248   3.097   4.232   3.404
 5097TIP3    H215249   2.981   4.205   3.498
 5098TIP3   OH215250   2.793   0.362   2.826
 5098TIP3    H115251   2.863   0.404   2.876
 5098TIP3    H215252   2.831   0.345   2.740
 5099TIP3   OH215253   2.650   1.313   2.072
 5099TIP3    H115254   2.710   1.242   2.049
 5099TIP3    H215255   2.639   1.363   1.991
 5100TIP3   OH215256   6.919   3.696   6.515
 5100TIP3    H115257   7.010   3.668   6.511
 5100TIP3    H215258   6.920   3.772   6.574
 5101TIP3   OH215259   0.465   7.770   1.634
 5101TIP3    H115260   0.464   7.798   1.542
 5101TIP3    H215261   0.419   7.686   1.634
 5102TIP3   OH215262   3.942   0.883   2.266
 5102TIP3    H115263   3.872   0.929   2.219
 5102TIP3    H215264   3.920   0.791   2.258
 5103TIP3   OH215265   2.592   3.336   6.006
 5103TIP3    H115266   2.644   3.299   5.935
 5103TIP3    H215267   2.584   3.429   5.984
 5104TIP3   OH215268   0.557   1.298   6.264
 5104TIP3    H115269   0.597   1.383   6.283
 5104TIP3    H215270   0.576   1.283   6.172
 5105TIP3   OH215271   5.066   2.059   4.829
 5105TIP3    H115272   5.150   2.023   4.857
 5105TIP3    H215273   5.083   2.153   4.820
 5106TIP3   OH215274   5.894   2.015   6.000
 5106TIP3    H115275   5.942   2.096   5.981
 5106TIP3    H215276   5.943   1.975   6.072
 5107TIP3   OH215277   2.595   4.291   0.035
 5107TIP3    H115278   2.559   4.356   0.096
 5107TIP3    H215279   2.604   4.212   0.087
 5108TIP3   OH215280   0.221   1.563   2.495
 5108TIP3    H115281   0.313   1.552   2.470
 5108TIP3    H215282   0.197   1.649   2.460
 5109TIP3   OH215283   2.857   1.606   5.354
 5109TIP3    H115284   2.939   1.597   5.402
 5109TIP3    H215285   2.799   1.653   5.415
 5110TIP3   OH215286   2.505   7.598   1.015
 5110TIP3    H115287   2.447   7.587   1.091
 5110TIP3    H215288   2.446   7.602   0.940
 5111TIP3   OH215289   8.103   1.666   1.249
 5111TIP3    H115290   8.156   1.740   1.219
 5111TIP3    H215291   8.051   1.642   1.172
 5112TIP3   OH215292   4.718   0.101   5.733
 5112TIP3    H115293   4.698   0.149   5.813
 5112TIP3    H215294   4.636   0.057   5.711
 5113TIP3   OH215295   7.481   2.190   2.115
 5113TIP3    H115296   7.486   2.095   2.109
 5113TIP3    H215297   7.564   2.216   2.154
 5114TIP3   OH215298   4.580   2.992   4.045
 5114TIP3    H115299   4.616   2.930   3.981
 5114TIP3    H215300   4.526   3.051   3.992
 5115TIP3   OH215301   2.799   0.913   1.442
 5115TIP3    H115302   2.888   0.938   1.466
 5115TIP3    H215303   2.810   0.834   1.389
 5116TIP3   OH215304   2.795   5.815   1.473
 5116TIP3    H115305   2.776   5.899   1.515
 5116TIP3    H215306   2.844   5.839   1.395
 5117TIP3   OH215307   4.446   5.469   3.575
 5117TIP3    H115308   4.539   5.466   3.550
 5117TIP3    H215309   4.432   5.558   3.606
 5118TIP3   OH215310   5.816   5.863   3.384
 5118TIP3    H115311   5.824   5.878   3.478
 5118TIP3    H215312   5.757   5.787   3.376
 5119TIP3   OH215313   6.010   4.763   0.996
 5119TIP3    H115314   6.095   4.737   0.961
 5119TIP3    H215315   5.970   4.814   0.925
 5120TIP3   OH215316   2.781   6.691   1.497
 5120TIP3    H115317   2.725   6.638   1.555
 5120TIP3    H215318   2.731   6.771   1.483
 5121TIP3   OH215319   4.259   2.630   2.111
 5121TIP3    H115320   4.212   2.555   2.073
 5121TIP3    H215321   4.228   2.635   2.201
 5122TIP3   OH215322   8.145   2.057   3.351
 5122TIP3    H115323   8.114   2.112   3.279
 5122TIP3    H215324   8.069   2.045   3.407
 5123TIP3   OH215325   1.878   1.572   5.220
 5123TIP3    H115326   1.805   1.540   5.274
 5123TIP3    H215327   1.843   1.652   5.181
 5124TIP3   OH215328   7.053   1.192   3.355
 5124TIP3    H115329   7.080   1.284   3.354
 5124TIP3    H215330   7.109   1.151   3.421
 5125TIP3   OH215331   2.306   4.072   0.322
 5125TIP3    H115332   2.382   4.130   0.317
 5125TIP3    H215333   2.341   3.989   0.353
 5126TIP3   OH215334   4.706   6.714   3.540
 5126TIP3    H115335   4.761   6.689   3.614
 5126TIP3    H215336   4.760   6.696   3.463
 5127TIP3   OH215337   7.657   0.024   1.317
 5127TIP3    H115338   7.598  -0.037   1.275
 5127TIP3    H215339   7.641   0.108   1.273
 5128TIP3   OH215340   5.449   6.405   1.125
 5128TIP3    H115341   5.439   6.319   1.084
 5128TIP3    H215342   5.360   6.440   1.129
 5129TIP3   OH215343   1.337   2.292   0.411
 5129TIP3    H115344   1.308   2.270   0.499
 5129TIP3    H215345   1.339   2.208   0.364
 5130TIP3   OH215346   2.308   5.174   4.968
 5130TIP3    H115347   2.350   5.260   4.960
 5130TIP3    H215348   2.287   5.166   5.061
 5131TIP3   OH215349   5.912   3.445   2.133
 5131TIP3    H115350   5.973   3.374   2.154
 5131TIP3    H215351   5.864   3.414   2.056
 5132TIP3   OH215352   4.531   1.329   6.201
 5132TIP3    H115353   4.624   1.326   6.221
 5132TIP3    H215354   4.491   1.267   6.263
 5133TIP3   OH215355   5.204   5.278   5.706
 5133TIP3    H115356   5.245   5.198   5.673
 5133TIP3    H215357   5.140   5.247   5.771
 5134TIP3   OH215358   5.428   1.910   1.117
 5134TIP3    H115359   5.511   1.887   1.073
 5134TIP3    H215360   5.435   2.004   1.133
 5135TIP3   OH215361   4.867   4.417   5.842
 5135TIP3    H115362   4.825   4.483   5.897
 5135TIP3    H215363   4.886   4.463   5.761
 5136TIP3   OH215364   1.327   1.112   3.655
 5136TIP3    H115365   1.378   1.190   3.676
 5136TIP3    H215366   1.262   1.142   3.592
 5137TIP3   OH215367   1.055   5.858   5.872
 5137TIP3    H115368   1.001   5.930   5.841
 5137TIP3    H215369   1.054   5.866   5.967
 5138TIP3   OH215370   6.012   4.196   4.220
 5138TIP3    H115371   6.036   4.213   4.311
 5138TIP3    H215372   6.079   4.241   4.168
 5139TIP3   OH215373   6.755   4.665   4.625
 5139TIP3    H115374   6.749   4.758   4.602
 5139TIP3    H215375   6.745   4.619   4.541
 5140TIP3   OH215376   6.815   2.670   3.289
 5140TIP3    H115377   6.832   2.658   3.195
 5140TIP3    H215378   6.842   2.588   3.329
 5141TIP3   OH215379   6.371   4.145   6.424
 5141TIP3    H115380   6.335   4.098   6.499
 5141TIP3    H215381   6.305   4.136   6.355
 5142TIP3   OH215382   7.039   7.286   2.918
 5142TIP3    H115383   7.005   7.248   2.837
 5142TIP3    H215384   7.130   7.306   2.899
 5143TIP3   OH215385   3.757   1.492   1.743
 5143TIP3    H115386   3.831   1.526   1.794
 5143TIP3    H215387   3.755   1.399   1.763
 5144TIP3   OH215388   2.628   1.422   0.869
 5144TIP3    H115389   2.615   1.517   0.860
 5144TIP3    H215390   2.628   1.407   0.963
 5145TIP3   OH215391   5.143   1.677   5.149
 5145TIP3    H115392   5.120   1.696   5.058
 5145TIP3    H215393   5.068   1.710   5.199
 5146TIP3   OH215394   2.427   3.196   1.078
 5146TIP3    H115395   2.342   3.208   1.036
 5146TIP3    H215396   2.481   3.266   1.042
 5147TIP3   OH215397   3.512   0.505   1.681
 5147TIP3    H115398   3.498   0.412   1.695
 5147TIP3    H215399   3.525   0.541   1.769
 5148TIP3   OH215400   0.566   3.142   2.212
 5148TIP3    H115401   0.646   3.089   2.211
 5148TIP3    H215402   0.509   3.098   2.276
 5149TIP3   OH215403   5.538   5.257   2.044
 5149TIP3    H115404   5.478   5.186   2.068
 5149TIP3    H215405   5.562   5.297   2.128
 5150TIP3   OH215406   7.159   0.939   5.326
 5150TIP3    H115407   7.114   0.956   5.244
 5150TIP3    H215408   7.241   0.987   5.319
 5151TIP3   OH215409   7.505   0.496   1.091
 5151TIP3    H115410   7.511   0.587   1.121
 5151TIP3    H215411   7.540   0.498   1.002
 5152TIP3   OH215412   7.342   6.593   2.973
 5152TIP3    H115413   7.381   6.634   2.896
 5152TIP3    H215414   7.353   6.657   3.043
 5153TIP3   OH215415   2.019   7.051   5.473
 5153TIP3    H115416   2.074   7.032   5.397
 5153TIP3    H215417   2.046   6.987   5.539
 5154TIP3   OH215418   2.127   1.546   2.471
 5154TIP3    H115419   2.144   1.453   2.457
 5154TIP3    H215420   2.142   1.559   2.564
 5155TIP3   OH215421   0.382   5.124   5.462
 5155TIP3    H115422   0.399   5.093   5.552
 5155TIP3    H215423   0.309   5.070   5.432
 5156TIP3   OH215424   0.401   6.337   2.848
 5156TIP3    H115425   0.333   6.353   2.914
 5156TIP3    H215426   0.355   6.294   2.776
 5157TIP3   OH215427   7.377   5.887   3.067
 5157TIP3    H115428   7.461   5.884   3.022
 5157TIP3    H215429   7.398   5.916   3.156
 5158TIP3   OH215430   7.203   1.307   5.780
 5158TIP3    H115431   7.282   1.259   5.757
 5158TIP3    H215432   7.229   1.363   5.853
 5159TIP3   OH215433   6.146   0.450   4.174
 5159TIP3    H115434   6.126   0.408   4.258
 5159TIP3    H215435   6.068   0.501   4.154
 5160TIP3   OH215436   1.765   5.798   6.619
 5160TIP3    H115437   1.859   5.807   6.601
 5160TIP3    H215438   1.723   5.845   6.547
 5161TIP3   OH215439   0.233   5.749   1.911
 5161TIP3    H115440   0.155   5.753   1.856
 5161TIP3    H215441   0.281   5.829   1.890
 5162TIP3   OH215442   2.461   5.400   0.629
 5162TIP3    H115443   2.429   5.396   0.539
 5162TIP3    H215444   2.550   5.435   0.621
 5163TIP3   OH215445   2.789   6.513   2.785
 5163TIP3    H115446   2.856   6.460   2.741
 5163TIP3    H215447   2.790   6.596   2.738
 5164TIP3   OH215448   3.908   7.139   1.175
 5164TIP3    H115449   3.904   7.067   1.113
 5164TIP3    H215450   3.973   7.199   1.138
 5165TIP3   OH215451   4.716   5.506   0.294
 5165TIP3    H115452   4.651   5.471   0.233
 5165TIP3    H215453   4.666   5.526   0.373
 5166TIP3   OH215454   3.705   0.114   2.757
 5166TIP3    H115455   3.785   0.067   2.780
 5166TIP3    H215456   3.657   0.122   2.840
 5167TIP3   OH215457   0.956   7.439   0.432
 5167TIP3    H115458   1.000   7.371   0.380
 5167TIP3    H215459   0.863   7.423   0.418
 5168TIP3   OH215460   0.206   6.138   4.982
 5168TIP3    H115461   0.121   6.166   4.947
 5168TIP3    H215462   0.193   6.048   5.010
 5169TIP3   OH215463   2.241   0.282   0.285
 5169TIP3    H115464   2.284   0.247   0.363
 5169TIP3    H215465   2.155   0.312   0.316
 5170TIP3   OH215466   4.869   5.427   5.483
 5170TIP3    H115467   4.858   5.497   5.419
 5170TIP3    H215468   4.942   5.375   5.449
 5171TIP3   OH215469   6.301   3.681   4.920
 5171TIP3    H115470   6.271   3.610   4.863
 5171TIP3    H215471   6.394   3.661   4.935
 5172TIP3   OH215472   8.009   7.558   3.345
 5172TIP3    H115473   8.039   7.519   3.427
 5172TIP3    H215474   8.056   7.511   3.277
 5173TIP3   OH215475   1.600   7.719   5.231
 5173TIP3    H115476   1.591   7.713   5.136
 5173TIP3    H215477   1.678   7.667   5.251
 5174TIP3   OH215478   5.042   6.558   3.894
 5174TIP3    H115479   5.061   6.604   3.976
 5174TIP3    H215480   5.127   6.524   3.865
 5175TIP3   OH215481   3.428   5.526   3.707
 5175TIP3    H115482   3.349   5.577   3.685
 5175TIP3    H215483   3.435   5.462   3.636
 5176TIP3   OH215484   7.771   0.662   5.219
 5176TIP3    H115485   7.695   0.646   5.163
 5176TIP3    H215486   7.771   0.757   5.233
 5177TIP3   OH215487   5.506   6.395   2.414
 5177TIP3    H115488   5.511   6.417   2.321
 5177TIP3    H215489   5.443   6.458   2.450
 5178TIP3   OH215490   2.728   6.757   2.649
 5178TIP3    H115491   2.784   6.812   2.593
 5178TIP3    H215492   2.654   6.734   2.593
 5179TIP3   OH215493   3.557   0.825   6.721
 5179TIP3    H115494   3.627   0.766   6.696
 5179TIP3    H215495   3.502   0.774   6.781
 5180TIP3   OH215496   0.036   1.693   3.029
 5180TIP3    H115497   0.097   1.695   3.102
 5180TIP3    H215498  -0.033   1.633   3.057
 5181TIP3   OH215499   1.945   5.063   5.605
 5181TIP3    H115500   2.035   5.095   5.612
 5181TIP3    H215501   1.938   5.033   5.514
 5182TIP3   OH215502   6.295   2.918   3.025
 5182TIP3    H115503   6.301   2.875   3.110
 5182TIP3    H215504   6.278   3.010   3.046
 5183TIP3   OH215505   5.289   3.723   1.291
 5183TIP3    H115506   5.285   3.682   1.204
 5183TIP3    H215507   5.353   3.794   1.281
 5184TIP3   OH215508   2.868   5.337   0.792
 5184TIP3    H115509   2.810   5.388   0.849
 5184TIP3    H215510   2.946   5.392   0.782
 5185TIP3   OH215511   8.015   0.131   5.674
 5185TIP3    H115512   7.988   0.184   5.750
 5185TIP3    H215513   8.009   0.041   5.704
 5186TIP3   OH215514   5.185   3.277   4.555
 5186TIP3    H115515   5.188   3.182   4.539
 5186TIP3    H215516   5.243   3.291   4.629
 5187TIP3   OH215517   1.105   1.715   0.353
 5187TIP3    H115518   1.166   1.679   0.417
 5187TIP3    H215519   1.042   1.645   0.337
 5188TIP3   OH215520   5.574   5.532   5.181
 5188TIP3    H115521   5.527   5.541   5.264
 5188TIP3    H215522   5.602   5.621   5.160
 5189TIP3   OH215523   5.937   4.126   3.706
 5189TIP3    H115524   5.850   4.125   3.668
 5189TIP3    H215525   5.990   4.072   3.647
 5190TIP3   OH215526   7.774   3.467   5.730
 5190TIP3    H115527   7.842   3.510   5.782
 5190TIP3    H215528   7.692   3.496   5.770
 5191TIP3   OH215529   0.991   2.844   4.101
 5191TIP3    H115530   0.925   2.775   4.110
 5191TIP3    H215531   1.075   2.798   4.107
 5192TIP3   OH215532   8.256   7.464   2.662
 5192TIP3    H115533   8.330   7.482   2.604
 5192TIP3    H215534   8.188   7.525   2.634
 5193TIP3   OH215535   5.092   2.811   3.081
 5193TIP3    H115536   5.018   2.834   3.136
 5193TIP3    H215537   5.125   2.729   3.118
 5194TIP3   OH215538   2.181   3.318   4.026
 5194TIP3    H115539   2.211   3.389   3.970
 5194TIP3    H215540   2.261   3.278   4.060
 5195TIP3   OH215541   2.354   2.753   1.443
 5195TIP3    H115542   2.392   2.667   1.459
 5195TIP3    H215543   2.419   2.815   1.477
 5196TIP3   OH215544   3.193   7.490   4.318
 5196TIP3    H115545   3.186   7.407   4.365
 5196TIP3    H215546   3.243   7.469   4.239
 5197TIP3   OH215547   1.487   5.975   1.258
 5197TIP3    H115548   1.562   6.025   1.291
 5197TIP3    H215549   1.462   5.918   1.331
 5198TIP3   OH215550   2.852   4.718   1.860
 5198TIP3    H115551   2.870   4.734   1.767
 5198TIP3    H215552   2.938   4.706   1.900
 5199TIP3   OH215553   0.650   7.522   3.304
 5199TIP3    H115554   0.612   7.451   3.357
 5199TIP3    H215555   0.741   7.495   3.290
 5200TIP3   OH215556   3.564   1.970   1.560
 5200TIP3    H115557   3.612   1.887   1.553
 5200TIP3    H215558   3.548   1.980   1.654
 5201TIP3   OH215559   8.209   7.679   6.650
 5201TIP3    H115560   8.190   7.693   6.743
 5201TIP3    H215561   8.128   7.641   6.615
 5202TIP3   OH215562   6.739   7.801   2.627
 5202TIP3    H115563   6.710   7.830   2.713
 5202TIP3    H215564   6.665   7.821   2.569
 5203TIP3   OH215565   2.907   0.839   6.621
 5203TIP3    H115566   2.957   0.859   6.700
 5203TIP3    H215567   2.816   0.852   6.645
 5204TIP3   OH215568   5.363   4.434   2.741
 5204TIP3    H115569   5.414   4.488   2.681
 5204TIP3    H215570   5.299   4.494   2.779
 5205TIP3   OH215571   0.477   1.673   3.640
 5205TIP3    H115572   0.441   1.587   3.614
 5205TIP3    H215573   0.560   1.652   3.683
 5206TIP3   OH215574   0.670   2.354   4.262
 5206TIP3    H115575   0.635   2.443   4.263
 5206TIP3    H215576   0.724   2.349   4.341
 5207TIP3   OH215577   6.998   5.282   3.768
 5207TIP3    H115578   7.024   5.372   3.787
 5207TIP3    H215579   6.935   5.260   3.837
 5208TIP3   OH215580   1.542   5.056   5.204
 5208TIP3    H115581   1.509   5.050   5.294
 5208TIP3    H215582   1.564   4.966   5.180
 5209TIP3   OH215583   1.779   1.249   6.782
 5209TIP3    H115584   1.839   1.200   6.839
 5209TIP3    H215585   1.802   1.220   6.693
 5210TIP3   OH215586   0.779   5.923   1.424
 5210TIP3    H115587   0.757   5.862   1.494
 5210TIP3    H215588   0.866   5.897   1.395
 5211TIP3   OH215589   1.012   0.258   1.998
 5211TIP3    H115590   1.032   0.349   1.979
 5211TIP3    H215591   0.928   0.242   1.955
 5212TIP3   OH215592   2.106   5.157   2.450
 5212TIP3    H115593   2.136   5.100   2.521
 5212TIP3    H215594   2.012   5.166   2.464
 5213TIP3   OH215595   2.573   1.019   3.769
 5213TIP3    H115596   2.584   1.031   3.864
 5213TIP3    H215597   2.546   0.928   3.760
 5214TIP3   OH215598   1.348   1.414   1.577
 5214TIP3    H115599   1.443   1.422   1.572
 5214TIP3    H215600   1.333   1.347   1.643
 5215TIP3   OH215601   3.672   7.591   5.028
 5215TIP3    H115602   3.641   7.554   4.945
 5215TIP3    H215603   3.601   7.648   5.057
 5216TIP3   OH215604   0.702   3.230   3.058
 5216TIP3    H115605   0.617   3.219   3.015
 5216TIP3    H215606   0.684   3.285   3.134
 5217TIP3   OH215607   0.605   3.566   0.648
 5217TIP3    H115608   0.591   3.567   0.553
 5217TIP3    H215609   0.522   3.597   0.684
 5218TIP3   OH215610   0.973   5.575   6.048
 5218TIP3    H115611   0.989   5.643   5.983
 5218TIP3    H215612   0.903   5.611   6.104
 5219TIP3   OH215613   6.627   6.529   0.750
 5219TIP3    H115614   6.716   6.498   0.768
 5219TIP3    H215615   6.587   6.460   0.698
 5220TIP3   OH215616   5.574   1.186   2.879
 5220TIP3    H115617   5.538   1.251   2.819
 5220TIP3    H215618   5.591   1.235   2.960
 5221TIP3   OH215619   4.192   1.103   5.429
 5221TIP3    H115620   4.213   1.194   5.408
 5221TIP3    H215621   4.098   1.102   5.442
 5222TIP3   OH215622   5.521   3.343   2.537
 5222TIP3    H115623   5.526   3.249   2.552
 5222TIP3    H215624   5.507   3.351   2.443
 5223TIP3   OH215625   2.946   3.106   3.003
 5223TIP3    H115626   2.933   3.101   2.909
 5223TIP3    H215627   2.861   3.081   3.040
 5224TIP3   OH215628   6.461   6.845   5.557
 5224TIP3    H115629   6.462   6.842   5.653
 5224TIP3    H215630   6.440   6.936   5.536
 5225TIP3   OH215631   0.236   3.214   2.484
 5225TIP3    H115632   0.233   3.286   2.421
 5225TIP3    H215633   0.144   3.192   2.500
 5226TIP3   OH215634   1.075   1.991   2.939
 5226TIP3    H115635   1.019   2.035   3.003
 5226TIP3    H215636   1.136   2.060   2.910
 5227TIP3   OH215637   2.438   0.651   3.011
 5227TIP3    H115638   2.478   0.589   2.951
 5227TIP3    H215639   2.485   0.638   3.094
 5228TIP3   OH215640   4.880   3.743   4.315
 5228TIP3    H115641   4.912   3.775   4.230
 5228TIP3    H215642   4.872   3.823   4.368
 5229TIP3   OH215643   7.447   2.884   4.722
 5229TIP3    H115644   7.457   2.979   4.719
 5229TIP3    H215645   7.536   2.850   4.725
 5230TIP3   OH215646   7.286   2.824   0.898
 5230TIP3    H115647   7.249   2.903   0.859
 5230TIP3    H215648   7.380   2.842   0.904
 5231TIP3   OH215649   4.907   0.854   4.643
 5231TIP3    H115650   4.936   0.878   4.731
 5231TIP3    H215651   4.925   0.761   4.636
 5232TIP3   OH215652   2.046   1.502   4.199
 5232TIP3    H115653   2.053   1.412   4.232
 5232TIP3    H215654   2.075   1.496   4.107
 5233TIP3   OH215655   3.211   4.113   1.485
 5233TIP3    H115656   3.225   4.141   1.395
 5233TIP3    H215657   3.157   4.034   1.477
 5234TIP3   OH215658   3.343   3.394   4.496
 5234TIP3    H115659   3.295   3.453   4.553
 5234TIP3    H215660   3.433   3.425   4.499
 5235TIP3   OH215661   5.628   4.835   4.319
 5235TIP3    H115662   5.631   4.817   4.225
 5235TIP3    H215663   5.540   4.808   4.346
 5236TIP3   OH215664   6.500   5.936   3.240
 5236TIP3    H115665   6.529   6.027   3.231
 5236TIP3    H215666   6.468   5.913   3.153
 5237TIP3   OH215667   5.830   5.644   0.505
 5237TIP3    H115668   5.855   5.733   0.479
 5237TIP3    H215669   5.818   5.648   0.600
 5238TIP3   OH215670   5.195   6.914   5.711
 5238TIP3    H115671   5.162   6.826   5.694
 5238TIP3    H215672   5.281   6.901   5.752
 5239TIP3   OH215673   6.714   7.273   4.193
 5239TIP3    H115674   6.778   7.276   4.122
 5239TIP3    H215675   6.699   7.364   4.217
 5240TIP3   OH215676   1.212   4.100   5.129
 5240TIP3    H115677   1.203   4.194   5.113
 5240TIP3    H215678   1.299   4.092   5.169
 5241TIP3   OH215679   5.019   0.447   2.327
 5241TIP3    H115680   5.041   0.453   2.234
 5241TIP3    H215681   4.961   0.521   2.342
 5242TIP3   OH215682   2.969   6.276   1.670
 5242TIP3    H115683   3.042   6.332   1.641
 5242TIP3    H215684   2.907   6.336   1.710
 5243TIP3   OH215685   4.421   7.400   3.713
 5243TIP3    H115686   4.438   7.425   3.804
 5243TIP3    H215687   4.471   7.320   3.700
 5244TIP3   OH215688   2.372   4.812   5.399
 5244TIP3    H115689   2.401   4.899   5.372
 5244TIP3    H215690   2.405   4.753   5.331
 5245TIP3   OH215691   3.298   4.201   2.403
 5245TIP3    H115692   3.272   4.152   2.482
 5245TIP3    H215693   3.224   4.260   2.387
 5246TIP3   OH215694   5.329   0.896   4.676
 5246TIP3    H115695   5.346   0.821   4.734
 5246TIP3    H215696   5.353   0.972   4.728
 5247TIP3   OH215697   4.950   1.360   5.798
 5247TIP3    H115698   4.909   1.349   5.712
 5247TIP3    H215699   4.886   1.327   5.860
 5248TIP3   OH215700   6.105   6.858   0.895
 5248TIP3    H115701   6.100   6.874   0.990
 5248TIP3    H215702   6.027   6.901   0.860
 5249TIP3   OH215703   2.159   3.215   4.381
 5249TIP3    H115704   2.182   3.211   4.474
 5249TIP3    H215705   2.111   3.297   4.372
 5250TIP3   OH215706   4.636   7.548   0.110
 5250TIP3    H115707   4.710   7.509   0.157
 5250TIP3    H215708   4.668   7.636   0.086
 5251TIP3   OH215709   5.518   7.371   1.482
 5251TIP3    H115710   5.509   7.279   1.455
 5251TIP3    H215711   5.456   7.419   1.427
 5252TIP3   OH215712   5.579   1.145   0.606
 5252TIP3    H115713   5.628   1.084   0.552
 5252TIP3    H215714   5.638   1.220   0.619
 5253TIP3   OH215715   5.475   5.440   5.945
 5253TIP3    H115716   5.412   5.462   6.014
 5253TIP3    H215717   5.455   5.350   5.922
 5254TIP3   OH215718   6.447   5.357   5.340
 5254TIP3    H115719   6.481   5.355   5.429
 5254TIP3    H215720   6.352   5.352   5.350
 5255TIP3   OH215721   6.182   2.075   1.881
 5255TIP3    H115722   6.260   2.128   1.864
 5255TIP3    H215723   6.208   1.985   1.861
 5256TIP3   OH215724   3.361   0.250   4.284
 5256TIP3    H115725   3.304   0.321   4.255
 5256TIP3    H215726   3.337   0.237   4.376
 5257TIP3   OH215727   0.514   6.702   4.932
 5257TIP3    H115728   0.474   6.619   4.957
 5257TIP3    H215729   0.529   6.748   5.015
 5258TIP3   OH215730   6.248   6.702   3.137
 5258TIP3    H115731   6.324   6.676   3.189
 5258TIP3    H215732   6.240   6.634   3.070
 5259TIP3   OH215733   1.247   5.849   1.480
 5259TIP3    H115734   1.271   5.766   1.439
 5259TIP3    H215735   1.227   5.826   1.571
 5260TIP3   OH215736   5.747   5.141   4.509
 5260TIP3    H115737   5.741   5.138   4.605
 5260TIP3    H215738   5.779   5.229   4.489
 5261TIP3   OH215739   2.632   5.676   3.364
 5261TIP3    H115740   2.710   5.727   3.342
 5261TIP3    H215741   2.655   5.631   3.445
 5262TIP3   OH215742   0.333   7.163   0.972
 5262TIP3    H115743   0.334   7.213   0.890
 5262TIP3    H215744   0.339   7.072   0.944
 5263TIP3   OH215745   7.363   2.065   1.861
 5263TIP3    H115746   7.454   2.077   1.836
 5263TIP3    H215747   7.364   2.069   1.957
 5264TIP3   OH215748   3.536   2.847   4.411
 5264TIP3    H115749   3.496   2.934   4.418
 5264TIP3    H215750   3.479   2.801   4.349
 5265TIP3   OH215751   2.217   6.158   0.113
 5265TIP3    H115752   2.260   6.075   0.092
 5265TIP3    H215753   2.287   6.223   0.113
 5266TIP3   OH215754   4.164   6.975   0.273
 5266TIP3    H115755   4.164   7.065   0.241
 5266TIP3    H215756   4.109   6.927   0.210
 5267TIP3   OH215757   7.383   1.825   5.417
 5267TIP3    H115758   7.339   1.788   5.341
 5267TIP3    H215759   7.349   1.775   5.491
 5268TIP3   OH215760   5.716   1.824   5.908
 5268TIP3    H115761   5.733   1.760   5.976
 5268TIP3    H215762   5.767   1.901   5.933
 5269TIP3   OH215763   4.547   5.214   4.132
 5269TIP3    H115764   4.529   5.120   4.136
 5269TIP3    H215765   4.463   5.256   4.152
 5270TIP3   OH215766   7.519   5.356   6.287
 5270TIP3    H115767   7.505   5.307   6.369
 5270TIP3    H215768   7.569   5.296   6.232
 5271TIP3   OH215769   0.446   2.612   3.361
 5271TIP3    H115770   0.474   2.640   3.449
 5271TIP3    H215771   0.393   2.684   3.328
 5272TIP3   OH215772   6.783   2.119   0.772
 5272TIP3    H115773   6.760   2.108   0.864
 5272TIP3    H215774   6.876   2.141   0.773
 5273TIP3   OH215775   4.392   0.221   4.701
 5273TIP3    H115776   4.377   0.315   4.709
 5273TIP3    H215777   4.423   0.209   4.611
 5274TIP3   OH215778   2.492   0.854   5.053
 5274TIP3    H115779   2.415   0.797   5.048
 5274TIP3    H215780   2.567   0.794   5.047
 5275TIP3   OH215781   6.638   5.474   3.871
 5275TIP3    H115782   6.549   5.444   3.850
 5275TIP3    H215783   6.660   5.533   3.799
 5276TIP3   OH215784   7.414   0.490   4.666
 5276TIP3    H115785   7.329   0.535   4.658
 5276TIP3    H215786   7.436   0.498   4.759
 5277TIP3   OH215787   2.267   7.214   1.496
 5277TIP3    H115788   2.250   7.135   1.547
 5277TIP3    H215789   2.233   7.285   1.549
 5278TIP3   OH215790   1.571   2.936   3.178
 5278TIP3    H115791   1.497   2.995   3.193
 5278TIP3    H215792   1.648   2.990   3.193
 5279TIP3   OH215793   3.934   1.870   2.597
 5279TIP3    H115794   3.933   1.872   2.501
 5279TIP3    H215795   3.844   1.847   2.621
 5280TIP3   OH215796   2.123   0.782   0.091
 5280TIP3    H115797   2.068   0.708   0.121
 5280TIP3    H215798   2.207   0.742   0.068
 5281TIP3   OH215799   5.661   1.836   6.656
 5281TIP3    H115800   5.663   1.919   6.704
 5281TIP3    H215801   5.597   1.850   6.586
 5282TIP3   OH215802   1.736   6.202   6.315
 5282TIP3    H115803   1.744   6.141   6.242
 5282TIP3    H215804   1.769   6.285   6.280
 5283TIP3   OH215805   4.721   4.853   4.084
 5283TIP3    H115806   4.643   4.799   4.072
 5283TIP3    H215807   4.742   4.885   3.996
 5284TIP3   OH215808   4.867   7.415   2.019
 5284TIP3    H115809   4.919   7.336   2.023
 5284TIP3    H215810   4.890   7.454   1.934
 5285TIP3   OH215811   6.083   1.187   2.578
 5285TIP3    H115812   6.050   1.145   2.657
 5285TIP3    H215813   6.084   1.281   2.599
 5286TIP3   OH215814   5.420   3.574   2.087
 5286TIP3    H115815   5.332   3.588   2.121
 5286TIP3    H215816   5.441   3.655   2.041
 5287TIP3   OH215817   2.366   4.150   1.844
 5287TIP3    H115818   2.299   4.088   1.815
 5287TIP3    H215819   2.379   4.208   1.769
 5288TIP3   OH215820   3.147   6.842   5.323
 5288TIP3    H115821   3.169   6.749   5.323
 5288TIP3    H215822   3.141   6.866   5.230
 5289TIP3   OH215823   1.432   6.344   2.231
 5289TIP3    H115824   1.418   6.376   2.320
 5289TIP3    H215825   1.523   6.314   2.231
 5290TIP3   OH215826   5.782   4.515   3.579
 5290TIP3    H115827   5.787   4.482   3.669
 5290TIP3    H215828   5.689   4.511   3.557
 5291TIP3   OH215829   5.596   5.707   4.824
 5291TIP3    H115830   5.583   5.732   4.915
 5291TIP3    H215831   5.626   5.787   4.781
 5292TIP3   OH215832   0.549   3.218   0.853
 5292TIP3    H115833   0.543   3.259   0.767
 5292TIP3    H215834   0.642   3.204   0.867
 5293TIP3   OH215835   5.442   6.620   6.064
 5293TIP3    H115836   5.355   6.613   6.026
 5293TIP3    H215837   5.436   6.572   6.147
 5294TIP3   OH215838   7.369   6.310   2.969
 5294TIP3    H115839   7.460   6.330   2.993
 5294TIP3    H215840   7.329   6.396   2.955
 5295TIP3   OH215841   5.978   6.927   5.338
 5295TIP3    H115842   5.976   6.832   5.332
 5295TIP3    H215843   5.888   6.952   5.360
 5296TIP3   OH215844   6.286   6.444   1.490
 5296TIP3    H115845   6.253   6.472   1.576
 5296TIP3    H215846   6.208   6.421   1.441
 5297TIP3   OH215847   1.090   7.521   3.605
 5297TIP3    H115848   1.115   7.613   3.617
 5297TIP3    H215849   1.168   7.472   3.630
 5298TIP3   OH215850   4.560   0.666   0.913
 5298TIP3    H115851   4.547   0.580   0.952
 5298TIP3    H215852   4.647   0.694   0.944
 5299TIP3   OH215853   7.530   5.458   2.454
 5299TIP3    H115854   7.489   5.374   2.475
 5299TIP3    H215855   7.581   5.480   2.531
 5300TIP3   OH215856   4.169   3.412   4.922
 5300TIP3    H115857   4.087   3.448   4.957
 5300TIP3    H215858   4.190   3.467   4.847
 5301TIP3   OH215859   2.536   4.230   0.319
 5301TIP3    H115860   2.538   4.320   0.352
 5301TIP3    H215861   2.614   4.189   0.357
 5302TIP3   OH215862   1.796   2.216   5.490
 5302TIP3    H115863   1.728   2.232   5.555
 5302TIP3    H215864   1.869   2.271   5.519
 5303TIP3   OH215865   7.112   3.397   4.611
 5303TIP3    H115866   7.206   3.388   4.592
 5303TIP3    H215867   7.105   3.477   4.662
 5304TIP3   OH215868   7.655   1.716   0.467
 5304TIP3    H115869   7.640   1.779   0.396
 5304TIP3    H215870   7.585   1.734   0.530
 5305TIP3   OH215871   2.697   7.728   0.066
 5305TIP3    H115872   2.748   7.793   0.113
 5305TIP3    H215873   2.747   7.647   0.074
 5306TIP3   OH215874   2.959   5.897   0.453
 5306TIP3    H115875   2.980   5.944   0.534
 5306TIP3    H215876   2.947   5.806   0.480
 5307TIP3   OH215877   2.294   6.622   4.870
 5307TIP3    H115878   2.305   6.529   4.851
 5307TIP3    H215879   2.292   6.626   4.966
 5308TIP3   OH215880   4.492   2.487   2.881
 5308TIP3    H115881   4.582   2.463   2.903
 5308TIP3    H215882   4.458   2.410   2.836
 5309TIP3   OH215883   3.259   4.782   1.511
 5309TIP3    H115884   3.165   4.776   1.500
 5309TIP3    H215885   3.288   4.692   1.523
 5310TIP3   OH215886   4.241   1.054   0.052
 5310TIP3    H115887   4.253   0.970   0.009
 5310TIP3    H215888   4.323   1.069   0.099
 5311TIP3   OH215889   0.112   5.297   2.400
 5311TIP3    H115890   0.031   5.330   2.360
 5311TIP3    H215891   0.113   5.337   2.488
 5312TIP3   OH215892   3.519   6.839   6.397
 5312TIP3    H115893   3.579   6.884   6.337
 5312TIP3    H215894   3.551   6.749   6.400
 5313TIP3   OH215895   5.280   7.501   5.339
 5313TIP3    H115896   5.225   7.480   5.264
 5313TIP3    H215897   5.261   7.592   5.359
 5314TIP3   OH215898   0.438   1.301   5.100
 5314TIP3    H115899   0.457   1.310   5.194
 5314TIP3    H215900   0.515   1.255   5.065
 5315TIP3   OH215901   0.419   1.374   2.652
 5315TIP3    H115902   0.328   1.383   2.624
 5315TIP3    H215903   0.467   1.353   2.573
 5316TIP3   OH215904   7.657   0.808   1.393
 5316TIP3    H115905   7.631   0.802   1.301
 5316TIP3    H215906   7.697   0.895   1.401
 5317TIP3   OH215907   6.708   7.246   5.203
 5317TIP3    H115908   6.701   7.153   5.181
 5317TIP3    H215909   6.747   7.286   5.126
 5318TIP3   OH215910   5.533   7.702   5.670
 5318TIP3    H115911   5.612   7.743   5.634
 5318TIP3    H215912   5.558   7.611   5.685
 5319TIP3   OH215913   1.555   4.451   3.320
 5319TIP3    H115914   1.623   4.485   3.262
 5319TIP3    H215915   1.602   4.409   3.391
 5320TIP3   OH215916   4.463   7.616   6.358
 5320TIP3    H115917   4.536   7.669   6.389
 5320TIP3    H215918   4.387   7.674   6.364
 5321TIP3   OH215919   6.210   6.919   5.717
 5321TIP3    H115920   6.296   6.904   5.756
 5321TIP3    H215921   6.195   7.013   5.726
 5322TIP3   OH215922   8.078   0.414   1.493
 5322TIP3    H115923   7.995   0.384   1.530
 5322TIP3    H215924   8.078   0.379   1.404
 5323TIP3   OH215925   7.294   5.122   0.714
 5323TIP3    H115926   7.226   5.057   0.696
 5323TIP3    H215927   7.297   5.127   0.810
 5324TIP3   OH215928   3.671   1.958   5.877
 5324TIP3    H115929   3.682   1.876   5.828
 5324TIP3    H215930   3.759   1.979   5.908
 5325TIP3   OH215931   6.470   3.755   0.722
 5325TIP3    H115932   6.520   3.714   0.652
 5325TIP3    H215933   6.466   3.688   0.791
 5326TIP3   OH215934   2.921   3.338   6.104
 5326TIP3    H115935   2.974   3.341   6.183
 5326TIP3    H215936   2.921   3.245   6.079
 5327TIP3   OH215937   1.422   1.463   2.394
 5327TIP3    H115938   1.389   1.375   2.376
 5327TIP3    H215939   1.504   1.449   2.442
 5328TIP3   OH215940   0.230   3.878   0.996
 5328TIP3    H115941   0.281   3.797   0.996
 5328TIP3    H215942   0.211   3.894   0.903
 5329TIP3   OH215943   1.241   0.900   0.996
 5329TIP3    H115944   1.267   0.956   0.923
 5329TIP3    H215945   1.153   0.870   0.972
 5330TIP3   OH215946   4.232   5.443   5.353
 5330TIP3    H115947   4.195   5.423   5.439
 5330TIP3    H215948   4.327   5.443   5.367
 5331TIP3   OH215949   4.153   1.551   1.625
 5331TIP3    H115950   4.143   1.479   1.562
 5331TIP3    H215951   4.236   1.592   1.601
 5332TIP3   OH215952   2.820   5.491   4.259
 5332TIP3    H115953   2.827   5.422   4.193
 5332TIP3    H215954   2.911   5.517   4.276
 5333TIP3   OH215955   4.213   6.250   0.640
 5333TIP3    H115956   4.192   6.217   0.727
 5333TIP3    H215957   4.207   6.345   0.648
 5334TIP3   OH215958   0.283   4.202   2.261
 5334TIP3    H115959   0.252   4.253   2.336
 5334TIP3    H215960   0.337   4.133   2.299
 5335TIP3   OH215961   8.236   1.214   4.272
 5335TIP3    H115962   8.261   1.303   4.247
 5335TIP3    H215963   8.169   1.188   4.209
 5336TIP3   OH215964   6.434   4.064   1.648
 5336TIP3    H115965   6.367   4.101   1.705
 5336TIP3    H215966   6.423   4.111   1.565
 5337TIP3   OH215967   0.382   6.506   3.293
 5337TIP3    H115968   0.464   6.549   3.320
 5337TIP3    H215969   0.319   6.533   3.359
 5338TIP3   OH215970   6.083   5.544   5.284
 5338TIP3    H115971   6.003   5.499   5.257
 5338TIP3    H215972   6.150   5.512   5.225
 5339TIP3   OH215973   4.583   0.373   1.694
 5339TIP3    H115974   4.617   0.439   1.634
 5339TIP3    H215975   4.488   0.375   1.681
 5340TIP3   OH215976   2.903   3.743   1.303
 5340TIP3    H115977   2.901   3.654   1.266
 5340TIP3    H215978   2.879   3.800   1.230
 5341TIP3   OH215979   4.322   0.281   2.436
 5341TIP3    H115980   4.329   0.268   2.531
 5341TIP3    H215981   4.236   0.245   2.413
 5342TIP3   OH215982   4.885   7.505   1.433
 5342TIP3    H115983   4.896   7.416   1.467
 5342TIP3    H215984   4.839   7.493   1.350
 5343TIP3   OH215985   4.016   1.390   5.661
 5343TIP3    H115986   4.003   1.415   5.752
 5343TIP3    H215987   3.958   1.315   5.648
 5344TIP3   OH215988   2.311   5.547   1.522
 5344TIP3    H115989   2.264   5.589   1.450
 5344TIP3    H215990   2.288   5.598   1.600
 5345TIP3   OH215991   3.719   2.850   6.163
 5345TIP3    H115992   3.653   2.792   6.127
 5345TIP3    H215993   3.760   2.798   6.233
 5346TIP3   OH215994   4.417   1.541   4.484
 5346TIP3    H115995   4.363   1.465   4.461
 5346TIP3    H215996   4.450   1.521   4.572
 5347TIP3   OH215997   7.397   6.785   3.649
 5347TIP3    H115998   7.411   6.749   3.562
 5347TIP3    H215999   7.378   6.878   3.634
 5348TIP3   OH216000   2.613   5.808   4.945
 5348TIP3    H116001   2.520   5.796   4.965
 5348TIP3    H216002   2.613   5.870   4.871
 5349TIP3   OH216003   7.262   6.745   6.303
 5349TIP3    H116004   7.307   6.823   6.271
 5349TIP3    H216005   7.227   6.771   6.388
 5350TIP3   OH216006   6.282   0.137   4.754
 5350TIP3    H116007   6.233   0.214   4.727
 5350TIP3    H216008   6.292   0.146   4.849
 5351TIP3   OH216009   2.788   4.390   3.724
 5351TIP3    H116010   2.798   4.313   3.670
 5351TIP3    H216011   2.878   4.421   3.738
 5352TIP3   OH216012   6.048   7.809   4.558
 5352TIP3    H116013   6.061   7.718   4.587
 5352TIP3    H216014   6.094   7.862   4.623
 5353TIP3   OH216015   6.710   6.581   4.299
 5353TIP3    H116016   6.681   6.490   4.311
 5353TIP3    H216017   6.633   6.633   4.320
 5354TIP3   OH216018   0.228   0.119   5.099
 5354TIP3    H116019   0.197   0.082   5.017
 5354TIP3    H216020   0.284   0.051   5.137
 5355TIP3   OH216021   4.721   2.994   2.135
 5355TIP3    H116022   4.778   2.979   2.210
 5355TIP3    H216023   4.720   3.090   2.124
 5356TIP3   OH216024   7.855   6.919   1.061
 5356TIP3    H116025   7.777   6.877   1.025
 5356TIP3    H216026   7.841   6.918   1.156
 5357TIP3   OH216027   2.968   3.480   1.202
 5357TIP3    H116028   3.037   3.437   1.252
 5357TIP3    H216029   2.939   3.413   1.140
 5358TIP3   OH216030   6.709   5.340   6.358
 5358TIP3    H116031   6.637   5.355   6.297
 5358TIP3    H216032   6.701   5.410   6.422
 5359TIP3   OH216033   5.736   2.630   0.964
 5359TIP3    H116034   5.805   2.567   0.948
 5359TIP3    H216035   5.685   2.593   1.035
 5360TIP3   OH216036   2.322   1.646   4.066
 5360TIP3    H116037   2.298   1.680   3.979
 5360TIP3    H216038   2.380   1.572   4.048
 5361TIP3   OH216039   1.089   0.226   6.631
 5361TIP3    H116040   1.017   0.286   6.612
 5361TIP3    H216041   1.113   0.245   6.722
 5362TIP3   OH216042   4.955   0.613   1.920
 5362TIP3    H116043   5.032   0.594   1.974
 5362TIP3    H216044   4.944   0.534   1.867
 5363TIP3   OH216045   3.849   0.726   4.250
 5363TIP3    H116046   3.871   0.643   4.207
 5363TIP3    H216047   3.933   0.761   4.280
 5364TIP3   OH216048   1.577   5.420   6.207
 5364TIP3    H116049   1.660   5.440   6.165
 5364TIP3    H216050   1.547   5.503   6.242
 5365TIP3   OH216051   4.810   5.032   5.315
 5365TIP3    H116052   4.800   5.002   5.225
 5365TIP3    H216053   4.888   5.087   5.313
 5366TIP3   OH216054   1.173   2.897   4.600
 5366TIP3    H116055   1.190   2.891   4.506
 5366TIP3    H216056   1.177   2.990   4.619
 5367TIP3   OH216057   5.379   4.311   5.278
 5367TIP3    H116058   5.434   4.341   5.350
 5367TIP3    H216059   5.324   4.242   5.316
 5368TIP3   OH216060   1.179   7.312   5.060
 5368TIP3    H116061   1.085   7.318   5.045
 5368TIP3    H216062   1.193   7.353   5.146
 5369TIP3   OH216063   2.281   0.546   6.256
 5369TIP3    H116064   2.367   0.523   6.219
 5369TIP3    H216065   2.259   0.472   6.313
 5370TIP3   OH216066   4.359   7.199   3.342
 5370TIP3    H116067   4.297   7.187   3.415
 5370TIP3    H216068   4.311   7.169   3.265
 5371TIP3   OH216069   0.632   6.500   3.653
 5371TIP3    H116070   0.631   6.525   3.561
 5371TIP3    H216071   0.693   6.562   3.693
 5372TIP3   OH216072   3.921   7.773   6.777
 5372TIP3    H116073   4.010   7.739   6.777
 5372TIP3    H216074   3.869   7.703   6.737
 5373TIP3   OH216075   0.366   4.526   3.999
 5373TIP3    H116076   0.347   4.593   3.934
 5373TIP3    H216077   0.310   4.548   4.073
 5374TIP3   OH216078   4.608   2.855   4.676
 5374TIP3    H116079   4.657   2.922   4.628
 5374TIP3    H216080   4.527   2.899   4.703
 5375TIP3   OH216081   3.776   1.150   2.445
 5375TIP3    H116082   3.697   1.129   2.396
 5375TIP3    H216083   3.824   1.068   2.452
 5376TIP3   OH216084   7.783   1.430   4.273
 5376TIP3    H116085   7.744   1.351   4.236
 5376TIP3    H216086   7.859   1.447   4.217
 5377TIP3   OH216087   4.525   1.786   0.746
 5377TIP3    H116088   4.522   1.881   0.734
 5377TIP3    H216089   4.525   1.774   0.841
 5378TIP3   OH216090   7.916   4.706   6.421
 5378TIP3    H116091   7.866   4.687   6.342
 5378TIP3    H216092   7.884   4.644   6.486
 5379TIP3   OH216093   5.332   1.373   6.097
 5379TIP3    H116094   5.394   1.375   6.024
 5379TIP3    H216095   5.312   1.280   6.109
 5380TIP3   OH216096   0.921   5.100   2.838
 5380TIP3    H116097   0.979   5.158   2.886
 5380TIP3    H216098   0.963   5.091   2.752
 5381TIP3   OH216099   5.131   0.126   0.011
 5381TIP3    H116100   5.180   0.142  -0.069
 5381TIP3    H216101   5.149   0.203   0.066
 5382TIP3   OH216102   2.327   6.422   2.369
 5382TIP3    H116103   2.382   6.422   2.448
 5382TIP3    H216104   2.261   6.489   2.386
 5383TIP3   OH216105   1.042   4.574   6.341
 5383TIP3    H116106   0.974   4.640   6.348
 5383TIP3    H216107   1.123   4.621   6.359
 5384TIP3   OH216108   6.335   7.105   6.280
 5384TIP3    H116109   6.312   7.078   6.369
 5384TIP3    H216110   6.253   7.102   6.231
 5385TIP3   OH216111   3.139   6.318   0.929
 5385TIP3    H116112   3.173   6.230   0.911
 5385TIP3    H216113   3.163   6.369   0.852
 5386TIP3   OH216114   4.057   3.390   6.592
 5386TIP3    H116115   4.074   3.321   6.528
 5386TIP3    H216116   4.112   3.463   6.564
 5387TIP3   OH216117   8.082   3.321   0.917
 5387TIP3    H116118   8.006   3.378   0.928
 5387TIP3    H216119   8.063   3.246   0.974
 5388TIP3   OH216120   7.911   4.892   0.868
 5388TIP3    H116121   7.838   4.944   0.834
 5388TIP3    H216122   7.948   4.946   0.939
 5389TIP3   OH216123   1.418   2.895   4.789
 5389TIP3    H116124   1.364   2.926   4.716
 5389TIP3    H216125   1.503   2.876   4.749
 5390TIP3   OH216126   5.777   4.654   5.522
 5390TIP3    H116127   5.752   4.575   5.570
 5390TIP3    H216128   5.792   4.623   5.432
 5391TIP3   OH216129   7.671   7.201   2.589
 5391TIP3    H116130   7.679   7.286   2.633
 5391TIP3    H216131   7.646   7.223   2.500
 5392TIP3   OH216132   1.882   0.157   0.513
 5392TIP3    H116133   1.952   0.179   0.575
 5392TIP3    H216134   1.863   0.065   0.531
 5393TIP3   OH216135   6.726   7.150   1.304
 5393TIP3    H116136   6.676   7.204   1.365
 5393TIP3    H216137   6.665   7.132   1.233
 5394TIP3   OH216138   4.005   2.848   6.242
 5394TIP3    H116139   4.012   2.772   6.183
 5394TIP3    H216140   3.923   2.890   6.217
 5395TIP3   OH216141   3.281   2.642   6.285
 5395TIP3    H116142   3.335   2.615   6.210
 5395TIP3    H216143   3.246   2.727   6.260
 5396TIP3   OH216144   4.619   0.426   0.125
 5396TIP3    H116145   4.582   0.412   0.038
 5396TIP3    H216146   4.714   0.420   0.111
 5397TIP3   OH216147   3.032   3.055   0.238
 5397TIP3    H116148   2.956   3.014   0.197
 5397TIP3    H216149   3.015   3.149   0.231
 5398TIP3   OH216150   2.854   2.587   6.502
 5398TIP3    H116151   2.858   2.594   6.406
 5398TIP3    H216152   2.828   2.675   6.531
 5399TIP3   OH216153   3.268   5.358   6.620
 5399TIP3    H116154   3.320   5.309   6.683
 5399TIP3    H216155   3.196   5.395   6.671
 5400TIP3   OH216156   7.649   2.521   1.527
 5400TIP3    H116157   7.643   2.585   1.598
 5400TIP3    H216158   7.586   2.552   1.462
 5401TIP3   OH216159   2.369   3.550   5.738
 5401TIP3    H116160   2.277   3.530   5.718
 5401TIP3    H216161   2.365   3.608   5.815
 5402TIP3   OH216162   5.615   4.705   6.231
 5402TIP3    H116163   5.573   4.620   6.245
 5402TIP3    H216164   5.577   4.761   6.299
 5403TIP3   OH216165   0.054   7.473   6.290
 5403TIP3    H116166   0.144   7.440   6.284
 5403TIP3    H216167   0.021   7.439   6.373
 5404TIP3   OH216168   6.084   6.226   0.500
 5404TIP3    H116169   6.179   6.236   0.502
 5404TIP3    H216170   6.070   6.136   0.471
 5405TIP3   OH216171   4.308   3.671   1.169
 5405TIP3    H116172   4.224   3.625   1.166
 5405TIP3    H216173   4.373   3.604   1.144
 5406TIP3   OH216174   2.636   4.368   4.983
 5406TIP3    H116175   2.626   4.361   4.888
 5406TIP3    H216176   2.634   4.462   5.001
 5407TIP3   OH216177   2.084   2.926   5.495
 5407TIP3    H116178   2.040   3.010   5.483
 5407TIP3    H216179   2.141   2.917   5.419
 5408TIP3   OH216180   3.082   5.345   6.117
 5408TIP3    H116181   3.158   5.386   6.157
 5408TIP3    H216182   3.025   5.324   6.191
 5409TIP3   OH216183   7.766   2.518   3.451
 5409TIP3    H116184   7.729   2.483   3.532
 5409TIP3    H216185   7.851   2.475   3.443
 5410TIP3   OH216186   2.569   7.090   5.173
 5410TIP3    H116187   2.501   7.156   5.185
 5410TIP3    H216188   2.556   7.028   5.245
 5411TIP3   OH216189   4.718   7.064   5.843
 5411TIP3    H116190   4.632   7.104   5.830
 5411TIP3    H216191   4.733   7.015   5.762
 5412TIP3   OH216192   4.318   0.139   2.689
 5412TIP3    H116193   4.266   0.176   2.760
 5412TIP3    H216194   4.400   0.113   2.730
 5413TIP3   OH216195   0.609   6.239   5.396
 5413TIP3    H116196   0.654   6.161   5.430
 5413TIP3    H216197   0.679   6.300   5.375
 5414TIP3   OH216198   2.602   2.854   0.760
 5414TIP3    H116199   2.632   2.920   0.823
 5414TIP3    H216200   2.520   2.889   0.725
 5415TIP3   OH216201   7.159   2.501   0.561
 5415TIP3    H116202   7.196   2.462   0.641
 5415TIP3    H216203   7.065   2.486   0.569
 5416TIP3   OH216204   3.693   3.567   3.473
 5416TIP3    H116205   3.719   3.476   3.487
 5416TIP3    H216206   3.733   3.591   3.390
 5417TIP3   OH216207   1.818   6.574   1.899
 5417TIP3    H116208   1.725   6.552   1.909
 5417TIP3    H216209   1.818   6.652   1.845
 5418TIP3   OH216210   2.612   7.558   4.777
 5418TIP3    H116211   2.634   7.476   4.733
 5418TIP3    H216212   2.586   7.531   4.866
 5419TIP3   OH216213   6.900   4.308   6.390
 5419TIP3    H116214   6.808   4.313   6.364
 5419TIP3    H216215   6.914   4.215   6.411
 5420TIP3   OH216216   4.593   6.156   6.622
 5420TIP3    H116217   4.543   6.234   6.647
 5420TIP3    H216218   4.529   6.098   6.582
 5421TIP3   OH216219   8.129   5.438   4.097
 5421TIP3    H116220   8.149   5.360   4.148
 5421TIP3    H216221   8.167   5.510   4.147
 5422TIP3   OH216222   4.172   5.028   2.764
 5422TIP3    H116223   4.112   5.017   2.691
 5422TIP3    H216224   4.245   5.078   2.728
 5423TIP3   OH216225   8.175   4.255   3.244
 5423TIP3    H116226   8.196   4.279   3.334
 5423TIP3    H216227   8.114   4.321   3.214
 5424TIP3   OH216228   1.491   2.353   0.942
 5424TIP3    H116229   1.514   2.392   0.858
 5424TIP3    H216230   1.447   2.270   0.919
 5425TIP3   OH216231   6.644   0.260   2.345
 5425TIP3    H116232   6.708   0.225   2.283
 5425TIP3    H216233   6.613   0.182   2.392
 5426TIP3   OH216234   7.218   1.267   4.552
 5426TIP3    H116235   7.197   1.360   4.542
 5426TIP3    H216236   7.307   1.259   4.516
 5427TIP3   OH216237   6.155   1.980   0.862
 5427TIP3    H116238   6.079   2.016   0.817
 5427TIP3    H216239   6.131   1.982   0.955
 5428TIP3   OH216240   5.234   7.300   0.328
 5428TIP3    H116241   5.321   7.312   0.290
 5428TIP3    H216242   5.197   7.388   0.331
 5429TIP3   OH216243   2.380   6.971   2.539
 5429TIP3    H116244   2.450   6.906   2.546
 5429TIP3    H216245   2.302   6.927   2.573
 5430TIP3   OH216246   6.767   0.921   2.444
 5430TIP3    H116247   6.704   0.869   2.394
 5430TIP3    H216248   6.713   0.975   2.502
 5431TIP3   OH216249   3.202   0.584   4.668
 5431TIP3    H116250   3.117   0.624   4.652
 5431TIP3    H216251   3.187   0.490   4.653
 5432TIP3   OH216252   5.734   2.796   4.302
 5432TIP3    H116253   5.647   2.817   4.336
 5432TIP3    H216254   5.778   2.880   4.293
 5433TIP3   OH216255   5.792   5.625   3.752
 5433TIP3    H116256   5.799   5.720   3.741
 5433TIP3    H216257   5.811   5.610   3.844
 5434TIP3   OH216258   7.000   6.422   1.291
 5434TIP3    H116259   7.018   6.484   1.220
 5434TIP3    H216260   6.947   6.471   1.353
 5435TIP3   OH216261   4.261   4.296   4.910
 5435TIP3    H116262   4.212   4.374   4.934
 5435TIP3    H216263   4.209   4.223   4.943
 5436TIP3   OH216264   5.711   5.357   2.218
 5436TIP3    H116265   5.706   5.452   2.210
 5436TIP3    H216266   5.786   5.332   2.165
 5437TIP3   OH216267   7.999   5.812   3.046
 5437TIP3    H116268   7.929   5.782   3.104
 5437TIP3    H216269   7.953   5.844   2.968
 5438TIP3   OH216270   5.881   5.403   4.029
 5438TIP3    H116271   5.953   5.341   4.024
 5438TIP3    H216272   5.915   5.475   4.081
 5439TIP3   OH216273   4.970   4.458   6.637
 5439TIP3    H116274   4.924   4.392   6.690
 5439TIP3    H216275   5.035   4.495   6.697
 5440TIP3   OH216276   4.504   2.467   2.562
 5440TIP3    H116277   4.437   2.527   2.594
 5440TIP3    H216278   4.585   2.496   2.603
 5441TIP3   OH216279   7.634   4.202   6.788
 5441TIP3    H116280   7.709   4.176   6.734
 5441TIP3    H216281   7.593   4.120   6.815
 5442TIP3   OH216282   5.428   0.156   2.095
 5442TIP3    H116283   5.420   0.207   2.175
 5442TIP3    H216284   5.343   0.166   2.052
 5443TIP3   OH216285   0.458   5.989   3.671
 5443TIP3    H116286   0.479   5.988   3.578
 5443TIP3    H216287   0.413   5.905   3.686
 5444TIP3   OH216288   1.323   7.301   3.874
 5444TIP3    H116289   1.326   7.330   3.783
 5444TIP3    H216290   1.399   7.244   3.884
 5445TIP3   OH216291   0.647   4.884   3.952
 5445TIP3    H116292   0.671   4.813   4.011
 5445TIP3    H216293   0.621   4.841   3.871
 5446TIP3   OH216294   2.864   6.628   0.157
 5446TIP3    H116295   2.938   6.643   0.216
 5446TIP3    H216296   2.787   6.648   0.210
 5447TIP3   OH216297   6.817   1.747   6.090
 5447TIP3    H116298   6.886   1.759   6.024
 5447TIP3    H216299   6.778   1.662   6.069
 5448TIP3   OH216300   0.469   5.444   4.890
 5448TIP3    H116301   0.398   5.452   4.827
 5448TIP3    H216302   0.510   5.530   4.891
 5449TIP3   OH216303   5.287   7.448   1.335
 5449TIP3    H116304   5.231   7.524   1.318
 5449TIP3    H216305   5.227   7.375   1.345
 5450TIP3   OH216306   7.654   4.135   4.544
 5450TIP3    H116307   7.697   4.079   4.609
 5450TIP3    H216308   7.601   4.195   4.596
 5451TIP3   OH216309   7.151   3.119   5.239
 5451TIP3    H116310   7.063   3.093   5.266
 5451TIP3    H216311   7.152   3.106   5.145
 5452TIP3   OH216312   2.978   1.586   5.115
 5452TIP3    H116313   2.946   1.618   5.200
 5452TIP3    H216314   3.034   1.656   5.083
 5453TIP3   OH216315   0.449   2.274   1.665
 5453TIP3    H116316   0.403   2.261   1.748
 5453TIP3    H216317   0.400   2.220   1.603
 5454TIP3   OH216318   6.549   0.151   5.482
 5454TIP3    H116319   6.543   0.194   5.567
 5454TIP3    H216320   6.621   0.089   5.491
 5455TIP3   OH216321   3.965   6.211   2.405
 5455TIP3    H116322   3.996   6.256   2.484
 5455TIP3    H216323   4.036   6.222   2.342
 5456TIP3   OH216324   7.216   3.047   2.269
 5456TIP3    H116325   7.259   2.963   2.286
 5456TIP3    H216326   7.260   3.081   2.192
 5457TIP3   OH216327   4.419   6.375   5.186
 5457TIP3    H116328   4.472   6.450   5.211
 5457TIP3    H216329   4.481   6.315   5.144
 5458TIP3   OH216330   4.405   7.819   2.951
 5458TIP3    H116331   4.402   7.831   3.046
 5458TIP3    H216332   4.432   7.728   2.938
 5459TIP3   OH216333   4.429   2.016   1.973
 5459TIP3    H116334   4.366   2.048   2.037
 5459TIP3    H216335   4.391   1.935   1.940
 5460TIP3   OH216336   3.425   6.906   6.653
 5460TIP3    H116337   3.357   6.843   6.676
 5460TIP3    H216338   3.430   6.902   6.558
 5461TIP3   OH216339   0.829   4.364   2.475
 5461TIP3    H116340   0.851   4.456   2.459
 5461TIP3    H216341   0.756   4.346   2.416
 5462TIP3   OH216342   1.643   5.511   1.677
 5462TIP3    H116343   1.694   5.458   1.614
 5462TIP3    H216344   1.707   5.537   1.743
 5463TIP3   OH216345   6.571   4.818   3.079
 5463TIP3    H116346   6.477   4.824   3.064
 5463TIP3    H216347   6.594   4.728   3.054
 5464TIP3   OH216348   7.927   0.172   4.109
 5464TIP3    H116349   7.980   0.250   4.091
 5464TIP3    H216350   7.941   0.154   4.202
 5465TIP3   OH216351   1.195   1.137   4.777
 5465TIP3    H116352   1.150   1.216   4.809
 5465TIP3    H216353   1.137   1.065   4.802
 5466TIP3   OH216354   8.261   2.274   2.691
 5466TIP3    H116355   8.308   2.200   2.654
 5466TIP3    H216356   8.188   2.289   2.630
 5467TIP3   OH216357   5.601   7.439   0.791
 5467TIP3    H116358   5.517   7.402   0.818
 5467TIP3    H216359   5.637   7.375   0.730
 5468TIP3   OH216360   4.387   7.755   4.796
 5468TIP3    H116361   4.314   7.760   4.734
 5468TIP3    H216362   4.462   7.789   4.747
 5469TIP3   OH216363   5.171   0.099   6.385
 5469TIP3    H116364   5.218   0.030   6.338
 5469TIP3    H216365   5.082   0.095   6.350
 5470TIP3   OH216366   6.673   5.043   2.092
 5470TIP3    H116367   6.656   5.128   2.133
 5470TIP3    H216368   6.604   5.034   2.027
 5471TIP3   OH216369   2.761   3.015   0.991
 5471TIP3    H116370   2.678   2.982   1.025
 5471TIP3    H216371   2.827   2.980   1.051
 5472TIP3   OH216372   5.056   5.505   0.886
 5472TIP3    H116373   4.999   5.448   0.834
 5472TIP3    H216374   5.142   5.497   0.844
 5473TIP3   OH216375  -0.002   4.986   1.593
 5473TIP3    H116376  -0.011   4.986   1.498
 5473TIP3    H216377   0.000   4.893   1.617
 5474TIP3   OH216378   6.057   0.690   4.483
 5474TIP3    H116379   6.133   0.743   4.457
 5474TIP3    H216380   6.090   0.601   4.488
 5475TIP3   OH216381   4.400   6.896   4.907
 5475TIP3    H116382   4.375   6.988   4.919
 5475TIP3    H216383   4.361   6.851   4.982
 5476TIP3   OH216384   1.547   7.181   4.224
 5476TIP3    H116385   1.568   7.252   4.163
 5476TIP3    H216386   1.452   7.173   4.220
 5477TIP3   OH216387   4.244   0.627   1.989
 5477TIP3    H116388   4.313   0.663   1.933
 5477TIP3    H216389   4.171   0.611   1.930
 5478TIP3   OH216390   0.455   4.204   4.160
 5478TIP3    H116391   0.519   4.140   4.191
 5478TIP3    H216392   0.477   4.285   4.207
 5479TIP3   OH216393   5.130   2.247   1.635
 5479TIP3    H116394   5.197   2.193   1.677
 5479TIP3    H216395   5.105   2.198   1.556
 5480TIP3   OH216396   4.992   4.742   0.233
 5480TIP3    H116397   5.053   4.687   0.282
 5480TIP3    H216398   4.962   4.687   0.161
 5481TIP3   OH216399   3.072   3.849   6.058
 5481TIP3    H116400   3.105   3.883   6.142
 5481TIP3    H216401   2.987   3.891   6.047
 5482TIP3   OH216402   2.267   6.343   5.461
 5482TIP3    H116403   2.358   6.316   5.477
 5482TIP3    H216404   2.275   6.433   5.428
 5483TIP3   OH216405   3.440   7.091   3.652
 5483TIP3    H116406   3.415   7.132   3.570
 5483TIP3    H216407   3.461   7.000   3.629
 5484TIP3   OH216408   2.046   1.199   4.847
 5484TIP3    H116409   2.016   1.252   4.922
 5484TIP3    H216410   2.141   1.201   4.852
 5485TIP3   OH216411   3.944   1.387   3.816
 5485TIP3    H116412   3.860   1.428   3.835
 5485TIP3    H216413   3.948   1.312   3.876
 5486TIP3   OH216414   3.643   5.855   2.127
 5486TIP3    H116415   3.552   5.843   2.101
 5486TIP3    H216416   3.645   5.941   2.169
 5487TIP3   OH216417   5.134   7.349   5.170
 5487TIP3    H116418   5.064   7.316   5.226
 5487TIP3    H216419   5.209   7.291   5.189
 5488TIP3   OH216420   1.939   5.187   5.889
 5488TIP3    H116421   1.863   5.201   5.832
 5488TIP3    H216422   2.007   5.154   5.830
 5489TIP3   OH216423   7.496   6.476   5.602
 5489TIP3    H116424   7.586   6.508   5.593
 5489TIP3    H216425   7.505   6.388   5.638
 5490TIP3   OH216426   2.706   6.679   6.334
 5490TIP3    H116427   2.746   6.766   6.329
 5490TIP3    H216428   2.723   6.650   6.424
 5491TIP3   OH216429   6.887   2.881   6.567
 5491TIP3    H116430   6.950   2.906   6.635
 5491TIP3    H216431   6.802   2.880   6.612
 5492TIP3   OH216432   7.683   7.865   4.835
 5492TIP3    H116433   7.713   7.791   4.887
 5492TIP3    H216434   7.641   7.825   4.759
 5493TIP3   OH216435   7.550   2.357   3.340
 5493TIP3    H116436   7.584   2.287   3.396
 5493TIP3    H216437   7.624   2.417   3.329
 5494TIP3   OH216438   7.065   7.440   2.074
 5494TIP3    H116439   7.015   7.520   2.057
 5494TIP3    H216440   7.004   7.382   2.119
 5495TIP3   OH216441   2.461   4.407   2.100
 5495TIP3    H116442   2.519   4.381   2.028
 5495TIP3    H216443   2.428   4.324   2.135
 5496TIP3   OH216444   2.063   7.653   2.280
 5496TIP3    H116445   2.113   7.672   2.359
 5496TIP3    H216446   2.085   7.562   2.259
 5497TIP3   OH216447   7.360   0.936   0.321
 5497TIP3    H116448   7.368   0.864   0.383
 5497TIP3    H216449   7.450   0.962   0.303
 5498TIP3   OH216450   2.561   4.844   2.751
 5498TIP3    H116451   2.528   4.835   2.662
 5498TIP3    H216452   2.611   4.926   2.750
 5499TIP3   OH216453   1.749   0.669   0.299
 5499TIP3    H116454   1.778   0.713   0.379
 5499TIP3    H216455   1.819   0.607   0.279
 5500TIP3   OH216456  -0.018   5.164   3.388
 5500TIP3    H116457   0.008   5.227   3.455
 5500TIP3    H216458   0.045   5.092   3.396
 5501TIP3   OH216459   4.430   2.501   5.556
 5501TIP3    H116460   4.479   2.535   5.630
 5501TIP3    H216461   4.352   2.461   5.595
 5502TIP3   OH216462   0.855   7.592   0.921
 5502TIP3    H116463   0.838   7.643   1.000
 5502TIP3    H216464   0.811   7.509   0.935
 5503TIP3   OH216465   4.657   1.279   5.809
 5503TIP3    H116466   4.592   1.212   5.790
 5503TIP3    H216467   4.705   1.245   5.884
 5504TIP3   OH216468   3.805   4.152   2.537
 5504TIP3    H116469   3.727   4.176   2.488
 5504TIP3    H216470   3.852   4.234   2.548
 5505TIP3   OH216471   0.136   0.277   2.935
 5505TIP3    H116472   0.213   0.308   2.888
 5505TIP3    H216473   0.171   0.225   3.007
 5506TIP3   OH216474   2.568   7.679   0.403
 5506TIP3    H116475   2.551   7.688   0.309
 5506TIP3    H216476   2.572   7.769   0.436
 5507TIP3   OH216477   1.778   1.412   3.600
 5507TIP3    H116478   1.793   1.390   3.692
 5507TIP3    H216479   1.834   1.352   3.551
 5508TIP3   OH216480   8.139   3.109   5.154
 5508TIP3    H116481   8.175   3.040   5.099
 5508TIP3    H216482   8.196   3.111   5.232
 5509TIP3   OH216483   8.005   3.881   2.402
 5509TIP3    H116484   8.019   3.843   2.316
 5509TIP3    H216485   8.012   3.975   2.388
 5510TIP3   OH216486   3.133   2.787   6.503
 5510TIP3    H116487   3.149   2.692   6.500
 5510TIP3    H216488   3.184   2.822   6.430
 5511TIP3   OH216489   0.442   7.536   4.273
 5511TIP3    H116490   0.406   7.471   4.333
 5511TIP3    H216491   0.372   7.552   4.209
 5512TIP3   OH216492   3.500   0.563   1.959
 5512TIP3    H116493   3.498   0.563   2.054
 5512TIP3    H216494   3.423   0.513   1.933
 5513TIP3   OH216495   7.587   0.276   2.938
 5513TIP3    H116496   7.635   0.197   2.961
 5513TIP3    H216497   7.503   0.268   2.983
 5514TIP3   OH216498   3.178   6.533   4.231
 5514TIP3    H116499   3.094   6.486   4.235
 5514TIP3    H216500   3.240   6.466   4.201
 5515TIP3   OH216501   4.256   5.779   2.860
 5515TIP3    H116502   4.327   5.794   2.922
 5515TIP3    H216503   4.203   5.710   2.900
 5516TIP3   OH216504   3.186   7.535   0.137
 5516TIP3    H116505   3.165   7.459   0.191
 5516TIP3    H216506   3.125   7.530   0.064
 5517TIP3   OH216507   0.276   3.102   5.140
 5517TIP3    H116508   0.261   3.196   5.142
 5517TIP3    H216509   0.304   3.084   5.050
 5518TIP3   OH216510   4.137   4.610   3.891
 5518TIP3    H116511   4.183   4.692   3.876
 5518TIP3    H216512   4.189   4.564   3.957
 5519TIP3   OH216513   4.748   6.347   6.491
 5519TIP3    H116514   4.705   6.426   6.458
 5519TIP3    H216515   4.676   6.294   6.526
 5520TIP3   OH216516   5.501   3.110   6.715
 5520TIP3    H116517   5.503   3.121   6.810
 5520TIP3    H216518   5.463   3.192   6.682
 5521TIP3   OH216519   7.156   0.185   5.289
 5521TIP3    H116520   7.191   0.104   5.327
 5521TIP3    H216521   7.140   0.164   5.198
 5522TIP3   OH216522   8.270   1.398   1.289
 5522TIP3    H116523   8.252   1.365   1.377
 5522TIP3    H216524   8.281   1.492   1.300
 5523TIP3   OH216525   6.963   1.885   0.274
 5523TIP3    H116526   6.991   1.951   0.337
 5523TIP3    H216527   7.033   1.883   0.208
 5524TIP3   OH216528   4.571   4.328   0.676
 5524TIP3    H116529   4.518   4.378   0.614
 5524TIP3    H216530   4.558   4.237   0.651
 5525TIP3   OH216531   3.947   3.814   2.884
 5525TIP3    H116532   3.970   3.734   2.838
 5525TIP3    H216533   3.974   3.799   2.974
 5526TIP3   OH216534   2.413   2.096   3.706
 5526TIP3    H116535   2.356   2.027   3.673
 5526TIP3    H216536   2.495   2.085   3.657
 5527TIP3   OH216537   7.000   5.703   4.955
 5527TIP3    H116538   6.929   5.709   4.892
 5527TIP3    H216539   6.980   5.625   5.007
 5528TIP3   OH216540   6.304   4.115   0.397
 5528TIP3    H116541   6.346   4.192   0.357
 5528TIP3    H216542   6.363   4.090   0.468
 5529TIP3   OH216543   2.616   2.018   2.829
 5529TIP3    H116544   2.568   1.991   2.907
 5529TIP3    H216545   2.708   2.013   2.855
 5530TIP3   OH216546   3.732   2.521   6.244
 5530TIP3    H116547   3.675   2.598   6.235
 5530TIP3    H216548   3.711   2.484   6.329
 5531TIP3   OH216549   7.982   4.322   2.144
 5531TIP3    H116550   7.916   4.391   2.152
 5531TIP3    H216551   7.955   4.256   2.207
 5532TIP3   OH216552   4.986   3.080   1.187
 5532TIP3    H116553   4.953   3.162   1.151
 5532TIP3    H216554   5.049   3.049   1.123
 5533TIP3   OH216555   1.371   4.253   1.385
 5533TIP3    H116556   1.385   4.346   1.404
 5533TIP3    H216557   1.457   4.213   1.398
 5534TIP3   OH216558   2.939   5.961   5.321
 5534TIP3    H116559   2.970   5.871   5.327
 5534TIP3    H216560   3.008   6.014   5.361
 5535TIP3   OH216561   6.913   1.066   2.241
 5535TIP3    H116562   6.903   1.016   2.322
 5535TIP3    H216563   6.937   1.154   2.270
 5536TIP3   OH216564   6.846   4.576   3.363
 5536TIP3    H116565   6.850   4.664   3.325
 5536TIP3    H216566   6.879   4.586   3.452
 5537TIP3   OH216567   1.732   0.961   5.131
 5537TIP3    H116568   1.816   0.999   5.153
 5537TIP3    H216569   1.667   1.024   5.163
 5538TIP3   OH216570   6.350   2.619   6.687
 5538TIP3    H116571   6.306   2.625   6.771
 5538TIP3    H216572   6.363   2.526   6.673
 5539TIP3   OH216573   4.877   3.769   4.020
 5539TIP3    H116574   4.908   3.678   4.016
 5539TIP3    H216575   4.792   3.767   3.977
 5540TIP3   OH216576   7.723   2.783   4.703
 5540TIP3    H116577   7.732   2.767   4.609
 5540TIP3    H216578   7.805   2.825   4.728
 5541TIP3   OH216579   1.498   3.725   5.871
 5541TIP3    H116580   1.576   3.738   5.926
 5541TIP3    H216581   1.530   3.736   5.781
 5542TIP3   OH216582   0.912   2.098   6.163
 5542TIP3    H116583   0.970   2.022   6.167
 5542TIP3    H216584   0.969   2.172   6.184
 5543TIP3   OH216585   5.766   1.949   5.082
 5543TIP3    H116586   5.696   1.973   5.144
 5543TIP3    H216587   5.720   1.921   5.003
 5544TIP3   OH216588   7.372   1.166   2.318
 5544TIP3    H116589   7.433   1.127   2.381
 5544TIP3    H216590   7.341   1.092   2.265
 5545TIP3   OH216591   1.313   3.379   5.247
 5545TIP3    H116592   1.328   3.472   5.228
 5545TIP3    H216593   1.352   3.333   5.173
 5546TIP3   OH216594   7.845   7.304   1.705
 5546TIP3    H116595   7.781   7.297   1.634
 5546TIP3    H216596   7.917   7.246   1.679
 5547TIP3   OH216597   5.131   5.779   1.582
 5547TIP3    H116598   5.171   5.700   1.618
 5547TIP3    H216599   5.095   5.752   1.498
 5548TIP3   OH216600   6.687   0.873   4.515
 5548TIP3    H116601   6.658   0.811   4.449
 5548TIP3    H216602   6.683   0.958   4.472
 5549TIP3   OH216603   3.688   1.257   4.089
 5549TIP3    H116604   3.715   1.274   4.179
 5549TIP3    H216605   3.656   1.342   4.057
 5550TIP3   OH216606   3.222   0.854   3.016
 5550TIP3    H116607   3.191   0.831   3.103
 5550TIP3    H216608   3.314   0.827   3.016
 5551TIP3   OH216609   7.741   3.801   3.358
 5551TIP3    H116610   7.803   3.813   3.431
 5551TIP3    H216611   7.797   3.783   3.282
 5552TIP3   OH216612   4.952   3.713   0.095
 5552TIP3    H116613   4.884   3.678   0.152
 5552TIP3    H216614   5.034   3.694   0.140
 5553TIP3   OH216615   0.045   7.315   4.463
 5553TIP3    H116616   0.061   7.254   4.535
 5553TIP3    H216617  -0.042   7.292   4.431
 5554TIP3   OH216618   3.123   2.628   5.135
 5554TIP3    H116619   3.201   2.578   5.111
 5554TIP3    H216620   3.057   2.601   5.071
 5555TIP3   OH216621   0.281   7.052   3.977
 5555TIP3    H116622   0.283   6.957   3.989
 5555TIP3    H216623   0.215   7.083   4.039
 5556TIP3   OH216624   7.644   7.149   5.227
 5556TIP3    H116625   7.599   7.233   5.237
 5556TIP3    H216626   7.704   7.145   5.301
 5557TIP3   OH216627   4.716   0.178   6.004
 5557TIP3    H116628   4.777   0.175   6.078
 5557TIP3    H216629   4.632   0.201   6.043
 5558TIP3   OH216630   6.541   0.868   5.360
 5558TIP3    H116631   6.623   0.861   5.310
 5558TIP3    H216632   6.539   0.788   5.413
 5559TIP3   OH216633   6.950   4.317   6.700
 5559TIP3    H116634   6.929   4.394   6.646
 5559TIP3    H216635   6.885   4.252   6.675
 5560TIP3   OH216636   6.641   3.703   3.644
 5560TIP3    H116637   6.564   3.660   3.605
 5560TIP3    H216638   6.647   3.664   3.732
 5561TIP3   OH216639   7.307   3.123   1.174
 5561TIP3    H116640   7.367   3.052   1.197
 5561TIP3    H216641   7.269   3.096   1.091
 5562TIP3   OH216642   8.222   3.275   2.296
 5562TIP3    H116643   8.232   3.238   2.384
 5562TIP3    H216644   8.258   3.209   2.238
 5563TIP3   OH216645   4.535   7.567   4.947
 5563TIP3    H116646   4.599   7.553   4.877
 5563TIP3    H216647   4.477   7.636   4.913
 5564TIP3   OH216648   0.653   2.686   6.617
 5564TIP3    H116649   0.643   2.751   6.548
 5564TIP3    H216650   0.670   2.737   6.696
 5565TIP3   OH216651   7.558   6.867   4.370
 5565TIP3    H116652   7.552   6.962   4.379
 5565TIP3    H216653   7.475   6.834   4.404
 5566TIP3   OH216654   1.784   6.545   4.079
 5566TIP3    H116655   1.747   6.544   3.991
 5566TIP3    H216656   1.709   6.546   4.137
 5567TIP3   OH216657   7.198   5.379   0.702
 5567TIP3    H116658   7.232   5.290   0.707
 5567TIP3    H216659   7.116   5.371   0.654
 5568TIP3   OH216660   8.008   2.346   2.550
 5568TIP3    H116661   7.952   2.296   2.491
 5568TIP3    H216662   8.025   2.428   2.504
 5569TIP3   OH216663   0.315   7.536   3.137
 5569TIP3    H116664   0.363   7.544   3.055
 5569TIP3    H216665   0.223   7.542   3.113
 5570TIP3   OH216666   0.425   5.752   5.522
 5570TIP3    H116667   0.446   5.769   5.614
 5570TIP3    H216668   0.345   5.802   5.507
 5571TIP3   OH216669   6.534   5.497   6.695
 5571TIP3    H116670   6.554   5.522   6.786
 5571TIP3    H216671   6.536   5.402   6.696
 5572TIP3   OH216672   0.572   4.137   5.222
 5572TIP3    H116673   0.546   4.160   5.311
 5572TIP3    H216674   0.668   4.130   5.226
 5573TIP3   OH216675   3.746   0.924   6.047
 5573TIP3    H116676   3.834   0.948   6.079
 5573TIP3    H216677   3.760   0.844   5.997
 5574TIP3   OH216678   3.743   3.675   4.460
 5574TIP3    H116679   3.687   3.601   4.487
 5574TIP3    H216680   3.784   3.646   4.379
 5575TIP3   OH216681   2.057   6.781   5.147
 5575TIP3    H116682   1.992   6.845   5.117
 5575TIP3    H216683   2.061   6.717   5.076
 5576TIP3   OH216684   4.452   6.960   6.414
 5576TIP3    H116685   4.526   7.003   6.371
 5576TIP3    H216686   4.376   7.012   6.390
 5577TIP3   OH216687   2.765   7.737   0.976
 5577TIP3    H116688   2.758   7.673   0.905
 5577TIP3    H216689   2.683   7.728   1.024
 5578TIP3   OH216690   7.445   3.490   3.167
 5578TIP3    H116691   7.359   3.491   3.210
 5578TIP3    H216692   7.507   3.479   3.239
 5579TIP3   OH216693   2.795   1.606   4.040
 5579TIP3    H116694   2.729   1.556   3.992
 5579TIP3    H216695   2.879   1.576   4.004
 5580TIP3   OH216696   1.888   4.884   5.814
 5580TIP3    H116697   1.941   4.929   5.748
 5580TIP3    H216698   1.839   4.954   5.858
 5581TIP3   OH216699   7.669   7.314   1.491
 5581TIP3    H116700   7.741   7.320   1.429
 5581TIP3    H216701   7.605   7.256   1.448
 5582TIP3   OH216702   6.707   1.951   0.271
 5582TIP3    H116703   6.710   1.902   0.189
 5582TIP3    H216704   6.796   1.945   0.306
 5583TIP3   OH216705   5.385   1.894   5.916
 5583TIP3    H116706   5.356   1.821   5.862
 5583TIP3    H216707   5.440   1.947   5.858
 5584TIP3   OH216708   3.691   0.964   3.664
 5584TIP3    H116709   3.671   0.980   3.571
 5584TIP3    H216710   3.620   0.907   3.694
 5585TIP3   OH216711   4.467   0.384   1.117
 5585TIP3    H116712   4.486   0.339   1.199
 5585TIP3    H216713   4.391   0.440   1.136
 5586TIP3   OH216714   1.699   7.386   2.009
 5586TIP3    H116715   1.706   7.413   1.918
 5586TIP3    H216716   1.626   7.323   2.010
 5587TIP3   OH216717   4.376   3.754   5.138
 5587TIP3    H116718   4.436   3.781   5.069
 5587TIP3    H216719   4.290   3.784   5.107
 5588TIP3   OH216720   6.313   7.609   2.713
 5588TIP3    H116721   6.245   7.611   2.781
 5588TIP3    H216722   6.287   7.678   2.652
 5589TIP3   OH216723   4.545   1.589   3.843
 5589TIP3    H116724   4.506   1.528   3.780
 5589TIP3    H216725   4.472   1.645   3.871
 5590TIP3   OH216726   4.320   4.492   0.635
 5590TIP3    H116727   4.254   4.535   0.582
 5590TIP3    H216728   4.277   4.411   0.665
 5591TIP3   OH216729   6.697   4.481   0.565
 5591TIP3    H116730   6.728   4.498   0.476
 5591TIP3    H216731   6.746   4.542   0.620
 5592TIP3   OH216732   1.734   7.027   1.025
 5592TIP3    H116733   1.784   6.979   1.092
 5592TIP3    H216734   1.675   6.961   0.989
 5593TIP3   OH216735   1.887   4.826   6.519
 5593TIP3    H116736   1.852   4.813   6.431
 5593TIP3    H216737   1.849   4.909   6.548
 5594TIP3   OH216738   7.092   2.182   3.905
 5594TIP3    H116739   7.031   2.121   3.947
 5594TIP3    H216740   7.150   2.211   3.975
 5595TIP3   OH216741   1.254   2.819   0.304
 5595TIP3    H116742   1.163   2.826   0.278
 5595TIP3    H216743   1.252   2.769   0.386
 5596TIP3   OH216744   7.984   6.860   5.688
 5596TIP3    H116745   7.925   6.785   5.686
 5596TIP3    H216746   8.051   6.837   5.752
 5597TIP3   OH216747   1.414   6.922   3.904
 5597TIP3    H116748   1.428   6.830   3.926
 5597TIP3    H216749   1.430   6.926   3.809
 5598TIP3   OH216750   1.792   6.755   3.870
 5598TIP3    H116751   1.817   6.799   3.788
 5598TIP3    H216752   1.699   6.735   3.858
 5599TIP3   OH216753   2.467   4.717   3.812
 5599TIP3    H116754   2.536   4.693   3.874
 5599TIP3    H216755   2.424   4.792   3.852
 5600TIP3   OH216756   0.356   5.744   1.198
 5600TIP3    H116757   0.374   5.787   1.115
 5600TIP3    H216758   0.262   5.723   1.195
 5601TIP3   OH216759   3.785   4.084   6.366
 5601TIP3    H116760   3.707   4.029   6.375
 5601TIP3    H216761   3.753   4.173   6.375
 5602TIP3   OH216762   3.363   0.320   1.185
 5602TIP3    H116763   3.302   0.295   1.116
 5602TIP3    H216764   3.324   0.286   1.265
 5603TIP3   OH216765   5.157   0.971   1.187
 5603TIP3    H116766   5.206   0.893   1.161
 5603TIP3    H216767   5.102   0.943   1.259
 5604TIP3   OH216768   7.870   4.306   1.695
 5604TIP3    H116769   7.960   4.337   1.683
 5604TIP3    H216770   7.862   4.293   1.789
 5605TIP3   OH216771   0.040   7.701   1.112
 5605TIP3    H116772  -0.007   7.681   1.031
 5605TIP3    H216773   0.006   7.787   1.138
 5606TIP3   OH216774   5.886   0.737   3.967
 5606TIP3    H116775   5.826   0.811   3.964
 5606TIP3    H216776   5.970   0.775   3.991
 5607TIP3   OH216777   3.686   5.251   5.725
 5607TIP3    H116778   3.607   5.289   5.761
 5607TIP3    H216779   3.658   5.166   5.689
 5608TIP3   OH216780   4.757   0.506   6.507
 5608TIP3    H116781   4.789   0.416   6.496
 5608TIP3    H216782   4.766   0.522   6.601
 5609TIP3   OH216783   0.018   3.929   6.254
 5609TIP3    H116784  -0.007   4.009   6.300
 5609TIP3    H216785   0.113   3.926   6.263
 5610TIP3   OH216786   4.228   5.420   3.427
 5610TIP3    H116787   4.287   5.428   3.502
 5610TIP3    H216788   4.265   5.347   3.377
 5611TIP3   OH216789   2.910   6.740   3.449
 5611TIP3    H116790   2.936   6.796   3.523
 5611TIP3    H216791   2.854   6.796   3.396
 5612TIP3   OH216792   3.789   6.533   4.870
 5612TIP3    H116793   3.870   6.516   4.919
 5612TIP3    H216794   3.759   6.617   4.905
 5613TIP3   OH216795   6.694   2.548   5.810
 5613TIP3    H116796   6.760   2.547   5.741
 5613TIP3    H216797   6.687   2.457   5.839
 5614TIP3   OH216798   6.538   0.360   2.668
 5614TIP3    H116799   6.625   0.387   2.639
 5614TIP3    H216800   6.482   0.378   2.592
 5615TIP3   OH216801   8.038   1.752   4.211
 5615TIP3    H116802   8.042   1.657   4.199
 5615TIP3    H216803   8.113   1.785   4.161
 5616TIP3   OH216804   7.773   6.381   4.427
 5616TIP3    H116805   7.752   6.315   4.361
 5616TIP3    H216806   7.747   6.464   4.387
 5617TIP3   OH216807   4.266   4.838   3.579
 5617TIP3    H116808   4.203   4.834   3.507
 5617TIP3    H216809   4.255   4.754   3.625
 5618TIP3   OH216810   7.598   1.630   3.288
 5618TIP3    H116811   7.656   1.557   3.270
 5618TIP3    H216812   7.581   1.625   3.382
 5619TIP3   OH216813   1.912   7.039   2.008
 5619TIP3    H116814   1.830   6.991   2.002
 5619TIP3    H216815   1.919   7.086   1.925
 5620TIP3   OH216816   4.786   2.071   4.975
 5620TIP3    H116817   4.881   2.065   4.983
 5620TIP3    H216818   4.770   2.153   4.929
 5621TIP3   OH216819   2.065   5.872   2.699
 5621TIP3    H116820   2.047   5.898   2.789
 5621TIP3    H216821   2.003   5.921   2.646
 5622TIP3   OH216822   1.111   6.188   4.596
 5622TIP3    H116823   1.128   6.150   4.510
 5622TIP3    H216824   1.019   6.169   4.612
 5623TIP3   OH216825   1.249   6.434   5.477
 5623TIP3    H116826   1.302   6.462   5.402
 5623TIP3    H216827   1.288   6.352   5.505
 5624TIP3   OH216828   4.746   3.816   5.218
 5624TIP3    H116829   4.726   3.723   5.209
 5624TIP3    H216830   4.825   3.819   5.273
 5625TIP3   OH216831   7.060   6.408   5.818
 5625TIP3    H116832   7.076   6.314   5.830
 5625TIP3    H216833   7.101   6.428   5.734
 5626TIP3   OH216834   7.543   4.238   4.775
 5626TIP3    H116835   7.548   4.146   4.799
 5626TIP3    H216836   7.451   4.251   4.751
 5627TIP3   OH216837   0.145   3.904   2.350
 5627TIP3    H116838   0.136   3.983   2.404
 5627TIP3    H216839   0.097   3.924   2.270
 5628TIP3   OH216840   3.557   2.610   0.716
 5628TIP3    H116841   3.552   2.643   0.806
 5628TIP3    H216842   3.563   2.689   0.662
 5629TIP3   OH216843   6.465   0.511   3.126
 5629TIP3    H116844   6.389   0.467   3.090
 5629TIP3    H216845   6.538   0.484   3.070
 5630TIP3   OH216846   3.188   4.703   6.092
 5630TIP3    H116847   3.144   4.782   6.061
 5630TIP3    H216848   3.179   4.640   6.021
 5631TIP3   OH216849   4.050   2.265   5.871
 5631TIP3    H116850   3.967   2.275   5.918
 5631TIP3    H216851   4.024   2.251   5.780
 5632TIP3   OH216852   3.083   3.595   6.246
 5632TIP3    H116853   2.990   3.580   6.232
 5632TIP3    H216854   3.104   3.671   6.191
 5633TIP3   OH216855   1.135   7.595   3.918
 5633TIP3    H116856   1.114   7.504   3.939
 5633TIP3    H216857   1.062   7.645   3.954
 5634TIP3   OH216858   1.354   4.736   3.346
 5634TIP3    H116859   1.388   4.654   3.382
 5634TIP3    H216860   1.424   4.767   3.288
 5635TIP3   OH216861   5.971   3.283   6.472
 5635TIP3    H116862   5.889   3.251   6.510
 5635TIP3    H216863   5.976   3.374   6.501
 5636TIP3   OH216864   4.024   0.843   4.788
 5636TIP3    H116865   4.057   0.763   4.746
 5636TIP3    H216866   3.944   0.863   4.739
 5637TIP3   OH216867   5.512   5.110   4.350
 5637TIP3    H116868   5.566   5.099   4.428
 5637TIP3    H216869   5.435   5.056   4.366
 5638TIP3   OH216870   1.016   2.618   5.666
 5638TIP3    H116871   0.951   2.686   5.681
 5638TIP3    H216872   0.966   2.547   5.625
 5639TIP3   OH216873   0.600   2.090   0.324
 5639TIP3    H116874   0.685   2.122   0.294
 5639TIP3    H216875   0.609   2.086   0.419
 5640TIP3   OH216876   1.627   1.952   4.296
 5640TIP3    H116877   1.671   2.005   4.363
 5640TIP3    H216878   1.632   1.863   4.329
 5641TIP3   OH216879   0.667   3.818   3.475
 5641TIP3    H116880   0.716   3.884   3.427
 5641TIP3    H216881   0.711   3.811   3.559
 5642TIP3   OH216882   2.972   2.720   3.111
 5642TIP3    H116883   2.970   2.681   3.198
 5642TIP3    H216884   3.040   2.672   3.064
 5643TIP3   OH216885   3.533   4.102   3.146
 5643TIP3    H116886   3.627   4.082   3.147
 5643TIP3    H216887   3.525   4.182   3.197
 5644TIP3   OH216888   5.386   1.056   4.434
 5644TIP3    H116889   5.380   1.151   4.430
 5644TIP3    H216890   5.342   1.032   4.515
 5645TIP3   OH216891   4.882   4.942   0.899
 5645TIP3    H116892   4.822   4.873   0.927
 5645TIP3    H216893   4.969   4.906   0.917
 5646TIP3   OH216894   1.012   0.121   4.460
 5646TIP3    H116895   1.085   0.070   4.424
 5646TIP3    H216896   1.044   0.153   4.544
 5647TIP3   OH216897   0.774   4.219   4.565
 5647TIP3    H116898   0.821   4.163   4.504
 5647TIP3    H216899   0.701   4.165   4.596
 5648TIP3   OH216900   4.116   6.036   4.629
 5648TIP3    H116901   4.104   6.128   4.651
 5648TIP3    H216902   4.201   6.034   4.583
 5649TIP3   OH216903   1.667   4.526   1.381
 5649TIP3    H116904   1.674   4.619   1.402
 5649TIP3    H216905   1.629   4.524   1.293
 5650TIP3   OH216906   5.332   0.296   1.044
 5650TIP3    H116907   5.275   0.224   1.018
 5650TIP3    H216908   5.385   0.313   0.966
 5651TIP3   OH216909   5.010   6.011   6.042
 5651TIP3    H116910   4.948   6.084   6.037
 5651TIP3    H216911   5.012   5.976   5.953
 5652TIP3   OH216912   0.452   2.120   6.327
 5652TIP3    H116913   0.375   2.176   6.321
 5652TIP3    H216914   0.441   2.057   6.256
 5653TIP3   OH216915   0.574   1.503   4.197
 5653TIP3    H116916   0.605   1.577   4.249
 5653TIP3    H216917   0.484   1.524   4.175
 5654TIP3   OH216918   4.923   3.495   3.451
 5654TIP3    H116919   4.834   3.469   3.477
 5654TIP3    H216920   4.967   3.516   3.533
 5655TIP3   OH216921   4.518   6.741   1.025
 5655TIP3    H116922   4.456   6.767   0.957
 5655TIP3    H216923   4.468   6.686   1.085
 5656TIP3   OH216924   4.487   1.145   5.263
 5656TIP3    H116925   4.455   1.212   5.201
 5656TIP3    H216926   4.416   1.136   5.326
 5657TIP3   OH216927   7.641   2.749   5.243
 5657TIP3    H116928   7.598   2.666   5.225
 5657TIP3    H216929   7.725   2.725   5.282
 5658TIP3   OH216930   2.657   6.225   1.627
 5658TIP3    H116931   2.721   6.296   1.622
 5658TIP3    H216932   2.629   6.223   1.718
 5659TIP3   OH216933   8.000   3.295   2.126
 5659TIP3    H116934   7.929   3.334   2.177
 5659TIP3    H216935   8.079   3.313   2.177
 5660TIP3   OH216936   1.239   5.957   2.424
 5660TIP3    H116937   1.327   5.920   2.417
 5660TIP3    H216938   1.192   5.921   2.349
 5661TIP3   OH216939   7.958   2.770   2.162
 5661TIP3    H116940   8.022   2.807   2.223
 5661TIP3    H216941   7.900   2.843   2.140
 5662TIP3   OH216942   2.883   0.669   4.197
 5662TIP3    H116943   2.916   0.757   4.214
 5662TIP3    H216944   2.791   0.673   4.222
 5663TIP3   OH216945   4.737   0.784   1.863
 5663TIP3    H116946   4.748   0.865   1.914
 5663TIP3    H216947   4.804   0.725   1.898
 5664TIP3   OH216948   7.630   7.288   4.929
 5664TIP3    H116949   7.725   7.297   4.924
 5664TIP3    H216950   7.606   7.333   5.009
 5665TIP3   OH216951   2.931   2.775   0.800
 5665TIP3    H116952   2.903   2.684   0.791
 5665TIP3    H216953   2.930   2.791   0.894
 5666TIP3   OH216954   6.876   1.321   2.066
 5666TIP3    H116955   6.948   1.319   2.002
 5666TIP3    H216956   6.918   1.347   2.148
 5667TIP3   OH216957   0.085   3.090   3.791
 5667TIP3    H116958   0.052   3.095   3.701
 5667TIP3    H216959   0.117   3.000   3.800
 5668TIP3   OH216960   5.732   2.667   0.022
 5668TIP3    H116961   5.810   2.642  -0.028
 5668TIP3    H216962   5.734   2.763   0.023
 5669TIP3   OH216963   5.716   2.538   3.276
 5669TIP3    H116964   5.733   2.630   3.256
 5669TIP3    H216965   5.657   2.509   3.206
 5670TIP3   OH216966   6.616   6.307   4.379
 5670TIP3    H116967   6.599   6.239   4.313
 5670TIP3    H216968   6.686   6.272   4.433
 5671TIP3   OH216969   0.924   5.623   4.781
 5671TIP3    H116970   1.009   5.653   4.814
 5671TIP3    H216971   0.930   5.634   4.686
 5672TIP3   OH216972   4.298   4.902   4.853
 5672TIP3    H116973   4.310   4.987   4.810
 5672TIP3    H216974   4.240   4.919   4.926
 5673TIP3   OH216975   0.288   3.274   3.496
 5673TIP3    H116976   0.306   3.323   3.416
 5673TIP3    H216977   0.192   3.275   3.504
 5674TIP3   OH216978   5.506   0.395   5.071
 5674TIP3    H116979   5.567   0.440   5.129
 5674TIP3    H216980   5.462   0.465   5.023
 5675TIP3   OH216981   3.416   1.139   6.501
 5675TIP3    H116982   3.433   1.069   6.563
 5675TIP3    H216983   3.403   1.217   6.555
 5676TIP3   OH216984   2.620   7.137   4.009
 5676TIP3    H116985   2.527   7.127   3.988
 5676TIP3    H216986   2.663   7.066   3.962
 5677TIP3   OH216987   7.001   0.579   4.176
 5677TIP3    H116988   6.918   0.560   4.219
 5677TIP3    H216989   7.009   0.512   4.108
 5678TIP3   OH216990   1.201   2.671   3.659
 5678TIP3    H116991   1.160   2.588   3.632
 5678TIP3    H216992   1.255   2.697   3.584
 5679TIP3   OH216993   8.007   3.506   1.958
 5679TIP3    H116994   7.985   3.438   2.022
 5679TIP3    H216995   8.100   3.492   1.939
 5680TIP3   OH216996   4.625   2.670   5.756
 5680TIP3    H116997   4.570   2.734   5.711
 5680TIP3    H216998   4.699   2.656   5.697
 5681TIP3   OH216999   2.562   0.362   0.166
 5681TIP3    H117000   2.476   0.403   0.159
 5681TIP3    H217001   2.604   0.407   0.239
 5682TIP3   OH217002   0.617   1.474   1.096
 5682TIP3    H117003   0.630   1.402   1.158
 5682TIP3    H217004   0.550   1.442   1.036
 5683TIP3   OH217005   7.880   4.148   5.673
 5683TIP3    H117006   7.800   4.129   5.624
 5683TIP3    H217007   7.889   4.074   5.733
 5684TIP3   OH217008   4.909   0.038   3.149
 5684TIP3    H117009   4.883   0.128   3.130
 5684TIP3    H217010   4.986   0.024   3.093
 5685TIP3   OH217011   2.741   5.528   2.384
 5685TIP3    H117012   2.730   5.454   2.444
 5685TIP3    H217013   2.674   5.515   2.318
 5686TIP3   OH217014   0.546   1.388   0.702
 5686TIP3    H117015   0.622   1.443   0.716
 5686TIP3    H217016   0.567   1.305   0.746
 5687TIP3   OH217017   2.084   0.150   2.463
 5687TIP3    H117018   1.993   0.136   2.488
 5687TIP3    H217019   2.115   0.064   2.437
 5688TIP3   OH217020   1.097   6.997   1.694
 5688TIP3    H117021   1.111   6.986   1.600
 5688TIP3    H217022   1.023   7.057   1.700
 5689TIP3   OH217023   6.264   5.751   0.437
 5689TIP3    H117024   6.328   5.821   0.444
 5689TIP3    H217025   6.188   5.784   0.484
 5690TIP3   OH217026   4.926   7.841   6.588
 5690TIP3    H117027   4.977   7.775   6.540
 5690TIP3    H217028   4.926   7.809   6.678
 5691TIP3   OH217029   2.247   4.899   4.494
 5691TIP3    H117030   2.303   4.838   4.446
 5691TIP3    H217031   2.223   4.853   4.574
 5692TIP3   OH217032   8.202   1.569   2.264
 5692TIP3    H117033   8.180   1.643   2.321
 5692TIP3    H217034   8.296   1.579   2.247
 5693TIP3   OH217035   4.363   0.250   4.253
 5693TIP3    H117036   4.449   0.280   4.224
 5693TIP3    H217037   4.368   0.154   4.250
 5694TIP3   OH217038   1.142   7.379   1.896
 5694TIP3    H117039   1.216   7.436   1.914
 5694TIP3    H217040   1.176   7.291   1.908
 5695TIP3   OH217041   5.817   2.904   1.517
 5695TIP3    H117042   5.836   2.953   1.437
 5695TIP3    H217043   5.729   2.932   1.542
 5696TIP3   OH217044   1.928   1.306   0.271
 5696TIP3    H117045   1.845   1.319   0.318
 5696TIP3    H217046   1.974   1.389   0.280
 5697TIP3   OH217047   0.750   2.244   5.391
 5697TIP3    H117048   0.776   2.332   5.418
 5697TIP3    H217049   0.712   2.205   5.469
 5698TIP3   OH217050   3.046   0.750   2.822
 5698TIP3    H117051   3.093   0.797   2.891
 5698TIP3    H217052   3.033   0.662   2.858
 5699TIP3   OH217053   1.177   0.239   3.284
 5699TIP3    H117054   1.147   0.164   3.232
 5699TIP3    H217055   1.139   0.226   3.370
 5700TIP3   OH217056   2.610   3.069   2.620
 5700TIP3    H117057   2.651   3.027   2.544
 5700TIP3    H217058   2.571   3.149   2.584
 5701TIP3   OH217059   2.409   5.096   4.704
 5701TIP3    H117060   2.460   5.015   4.712
 5701TIP3    H217061   2.385   5.119   4.794
 5702TIP3   OH217062   6.350   4.676   0.571
 5702TIP3    H117063   6.259   4.693   0.596
 5702TIP3    H217064   6.401   4.738   0.624
 5703TIP3   OH217065   2.696   0.161   4.970
 5703TIP3    H117066   2.629   0.138   5.035
 5703TIP3    H217067   2.709   0.080   4.920
 5704TIP3   OH217068   2.371   1.780   2.525
 5704TIP3    H117069   2.300   1.816   2.577
 5704TIP3    H217070   2.438   1.848   2.525
 5705TIP3   OH217071   1.360   7.721   2.916
 5705TIP3    H117072   1.297   7.660   2.955
 5705TIP3    H217073   1.445   7.687   2.943
 5706TIP3   OH217074   1.031   4.731   1.554
 5706TIP3    H117075   1.012   4.760   1.644
 5706TIP3    H217076   1.112   4.682   1.562
 5707TIP3   OH217077   5.294   4.630   6.571
 5707TIP3    H117078   5.221   4.622   6.631
 5707TIP3    H217079   5.359   4.681   6.619
 5708TIP3   OH217080   0.932   7.580   2.358
 5708TIP3    H117081   0.925   7.665   2.314
 5708TIP3    H217082   0.945   7.517   2.287
 5709TIP3   OH217083   5.876   6.038   2.728
 5709TIP3    H117084   5.948   6.071   2.781
 5709TIP3    H217085   5.850   6.114   2.675
 5710TIP3   OH217086   0.622   5.450   2.864
 5710TIP3    H117087   0.528   5.464   2.866
 5710TIP3    H217088   0.635   5.367   2.909
 5711TIP3   OH217089   5.384   2.308   1.399
 5711TIP3    H117090   5.306   2.355   1.371
 5711TIP3    H217091   5.411   2.352   1.480
 5712TIP3   OH217092   3.607   5.668   0.912
 5712TIP3    H117093   3.693   5.628   0.928
 5712TIP3    H217094   3.546   5.595   0.915
 5713TIP3   OH217095   0.815   4.480   5.877
 5713TIP3    H117096   0.827   4.408   5.938
 5713TIP3    H217097   0.901   4.496   5.840
 5714TIP3   OH217098   2.076   5.808   1.635
 5714TIP3    H117099   2.141   5.868   1.598
 5714TIP3    H217100   2.127   5.749   1.691
 5715TIP3   OH217101   3.580   3.305  -0.013
 5715TIP3    H117102   3.618   3.381   0.031
 5715TIP3    H217103   3.515   3.271   0.049
 5716TIP3   OH217104   1.408   3.636   4.895
 5716TIP3    H117105   1.427   3.636   4.801
 5716TIP3    H217106   1.339   3.572   4.906
 5717TIP3   OH217107   3.349   1.986   0.250
 5717TIP3    H117108   3.425   1.931   0.268
 5717TIP3    H217109   3.385   2.061   0.202
 5718TIP3   OH217110   0.231   6.700   3.418
 5718TIP3    H117111   0.170   6.712   3.491
 5718TIP3    H217112   0.200   6.762   3.351
 5719TIP3   OH217113   2.066   6.088   5.881
 5719TIP3    H117114   2.027   6.120   5.800
 5719TIP3    H217115   2.132   6.153   5.904
 5720TIP3   OH217116   7.636   2.034   1.475
 5720TIP3    H117117   7.569   1.966   1.477
 5720TIP3    H217118   7.603   2.100   1.415
 5721TIP3   OH217119   1.666   2.074   4.543
 5721TIP3    H117120   1.618   2.022   4.608
 5721TIP3    H217121   1.719   2.134   4.594
 5722TIP3   OH217122   3.280   5.634   1.859
 5722TIP3    H117123   3.331   5.564   1.899
 5722TIP3    H217124   3.189   5.616   1.884
 5723TIP3   OH217125   1.359   3.703   0.834
 5723TIP3    H117126   1.308   3.628   0.865
 5723TIP3    H217127   1.299   3.777   0.841
 5724TIP3   OH217128   1.357   5.344   3.213
 5724TIP3    H117129   1.415   5.320   3.141
 5724TIP3    H217130   1.414   5.350   3.289
 5725TIP3   OH217131   8.237   1.693   0.844
 5725TIP3    H117132   8.163   1.637   0.822
 5725TIP3    H217133   8.199   1.761   0.900
 5726TIP3   OH217134   0.198   4.249   0.255
 5726TIP3    H117135   0.174   4.292   0.173
 5726TIP3    H217136   0.226   4.320   0.313
 5727TIP3   OH217137   3.641   6.743   4.974
 5727TIP3    H117138   3.555   6.716   5.008
 5727TIP3    H217139   3.621   6.792   4.894
 5728TIP3   OH217140   0.223   7.375   6.528
 5728TIP3    H117141   0.185   7.288   6.537
 5728TIP3    H217142   0.194   7.422   6.606
 5729TIP3   OH217143   1.666   5.919   5.532
 5729TIP3    H117144   1.588   5.937   5.584
 5729TIP3    H217145   1.639   5.935   5.442
 5730TIP3   OH217146   7.570   2.929   4.987
 5730TIP3    H117147   7.567   2.850   5.041
 5730TIP3    H217148   7.658   2.930   4.950
 5731TIP3   OH217149   3.213   6.652   0.147
 5731TIP3    H117150   3.302   6.689   0.140
 5731TIP3    H217151   3.214   6.577   0.087
 5732TIP3   OH217152   6.170   1.265   2.088
 5732TIP3    H117153   6.174   1.218   2.171
 5732TIP3    H217154   6.100   1.329   2.100
 5733TIP3   OH217155   2.634   1.317   6.375
 5733TIP3    H117156   2.539   1.302   6.381
 5733TIP3    H217157   2.663   1.319   6.466
 5734TIP3   OH217158   4.865   7.000   2.318
 5734TIP3    H117159   4.781   7.011   2.362
 5734TIP3    H217160   4.846   7.010   2.225
 5735TIP3   OH217161   1.215   1.935   3.601
 5735TIP3    H117162   1.293   1.916   3.549
 5735TIP3    H217163   1.145   1.885   3.559
 5736TIP3   OH217164   3.354   3.342   4.927
 5736TIP3    H117165   3.399   3.274   4.877
 5736TIP3    H217166   3.309   3.294   4.997
 5737TIP3   OH217167   1.829   7.619   4.238
 5737TIP3    H117168   1.893   7.579   4.296
 5737TIP3    H217169   1.753   7.560   4.242
 5738TIP3   OH217170   1.083   2.935   2.670
 5738TIP3    H117171   1.115   2.942   2.580
 5738TIP3    H217172   1.154   2.890   2.717
 5739TIP3   OH217173   0.460   6.409   1.943
 5739TIP3    H117174   0.499   6.455   1.869
 5739TIP3    H217175   0.366   6.410   1.925
 5740TIP3   OH217176   7.907   0.939   1.780
 5740TIP3    H117177   7.883   0.865   1.836
 5740TIP3    H217178   7.823   0.980   1.758
 5741TIP3   OH217179   3.302   6.908   5.027
 5741TIP3    H117180   3.318   6.815   5.013
 5741TIP3    H217181   3.206   6.914   5.032
 5742TIP3   OH217182   6.338   4.983   3.428
 5742TIP3    H117183   6.431   4.961   3.434
 5742TIP3    H217184   6.336   5.061   3.372
 5743TIP3   OH217185   0.560   3.541   6.509
 5743TIP3    H117186   0.523   3.552   6.421
 5743TIP3    H217187   0.653   3.562   6.498
 5744TIP3   OH217188   1.357   0.462   5.176
 5744TIP3    H117189   1.381   0.387   5.230
 5744TIP3    H217190   1.364   0.537   5.235
 5745TIP3   OH217191   1.303   1.838   1.693
 5745TIP3    H117192   1.239   1.808   1.758
 5745TIP3    H217193   1.332   1.924   1.726
 5746TIP3   OH217194   1.191   4.397   6.777
 5746TIP3    H117195   1.143   4.402   6.694
 5746TIP3    H217196   1.250   4.472   6.775
 5747TIP3   OH217197   1.836   6.406   6.187
 5747TIP3    H117198   1.929   6.394   6.206
 5747TIP3    H217199   1.824   6.501   6.188
 5748TIP3   OH217200   2.922   7.792   1.467
 5748TIP3    H117201   2.867   7.724   1.506
 5748TIP3    H217202   2.946   7.848   1.541
 5749TIP3   OH217203   3.787   1.809   2.160
 5749TIP3    H117204   3.843   1.886   2.145
 5749TIP3    H217205   3.819   1.773   2.242
 5750TIP3   OH217206   7.595   3.989   4.896
 5750TIP3    H117207   7.636   3.904   4.877
 5750TIP3    H217208   7.669   4.046   4.918
 5751TIP3   OH217209   3.005   3.309   3.480
 5751TIP3    H117210   3.043   3.381   3.530
 5751TIP3    H217211   3.012   3.336   3.388
 5752TIP3   OH217212   4.188   2.775   0.394
 5752TIP3    H117213   4.099   2.798   0.367
 5752TIP3    H217214   4.245   2.819   0.330
 5753TIP3   OH217215   7.552   3.351   2.614
 5753TIP3    H117216   7.528   3.380   2.701
 5753TIP3    H217217   7.472   3.311   2.579
 5754TIP3   OH217218   3.786   7.343   2.322
 5754TIP3    H117219   3.812   7.371   2.410
 5754TIP3    H217220   3.819   7.254   2.314
 5755TIP3   OH217221   5.028   3.407   2.458
 5755TIP3    H117222   5.030   3.354   2.539
 5755TIP3    H217223   5.091   3.363   2.400
 5756TIP3   OH217224   1.010   3.376   0.801
 5756TIP3    H117225   1.010   3.471   0.810
 5756TIP3    H217226   1.082   3.358   0.740
 5757TIP3   OH217227   4.460   5.979   5.331
 5757TIP3    H117228   4.395   5.926   5.376
 5757TIP3    H217229   4.411   6.024   5.262
 5758TIP3   OH217230   7.673   5.127   0.236
 5758TIP3    H117231   7.756   5.089   0.207
 5758TIP3    H217232   7.691   5.159   0.325
 5759TIP3   OH217233   1.615   5.697   1.351
 5759TIP3    H117234   1.535   5.664   1.392
 5759TIP3    H217235   1.605   5.674   1.258
 5760TIP3   OH217236   5.109   2.247   6.098
 5760TIP3    H117237   5.143   2.234   6.009
 5760TIP3    H217238   5.116   2.160   6.138
 5761TIP3   OH217239   0.861   7.086   0.754
 5761TIP3    H117240   0.944   7.129   0.734
 5761TIP3    H217241   0.884   6.994   0.763
 5762TIP3   OH217242   2.139   2.053   1.650
 5762TIP3    H117243   2.177   2.094   1.727
 5762TIP3    H217244   2.108   1.968   1.680
 5763TIP3   OH217245   2.118   5.013   6.676
 5763TIP3    H117246   2.101   5.107   6.675
 5763TIP3    H217247   2.042   4.975   6.631
 5764TIP3   OH217248   1.322   6.266   2.000
 5764TIP3    H117249   1.327   6.171   2.009
 5764TIP3    H217250   1.378   6.300   2.069
 5765TIP3   OH217251   5.179   7.000   2.395
 5765TIP3    H117252   5.130   7.083   2.395
 5765TIP3    H217253   5.270   7.027   2.378
 5766TIP3   OH217254   1.324   2.598   2.558
 5766TIP3    H117255   1.237   2.561   2.540
 5766TIP3    H217256   1.354   2.551   2.636
 5767TIP3   OH217257   2.870   5.222   4.120
 5767TIP3    H117258   2.779   5.218   4.150
 5767TIP3    H217259   2.867   5.279   4.043
 5768TIP3   OH217260   5.083   3.351   4.228
 5768TIP3    H117261   5.011   3.290   4.242
 5768TIP3    H217262   5.079   3.409   4.304
 5769TIP3   OH217263   7.096   4.982   3.877
 5769TIP3    H117264   7.136   5.020   3.799
 5769TIP3    H217265   7.007   5.016   3.878
 5770TIP3   OH217266   6.210   1.386   1.076
 5770TIP3    H117267   6.146   1.451   1.106
 5770TIP3    H217268   6.295   1.422   1.103
 5771TIP3   OH217269   1.207   0.238   4.146
 5771TIP3    H117270   1.237   0.326   4.167
 5771TIP3    H217271   1.114   0.247   4.126
 5772TIP3   OH217272   2.822   4.135   3.621
 5772TIP3    H117273   2.783   4.073   3.560
 5772TIP3    H217274   2.818   4.091   3.706
 5773TIP3   OH217275   4.382   6.084   1.825
 5773TIP3    H117276   4.345   6.001   1.794
 5773TIP3    H217277   4.439   6.059   1.897
 5774TIP3   OH217278   2.289   6.331   0.607
 5774TIP3    H117279   2.248   6.323   0.521
 5774TIP3    H217280   2.254   6.258   0.658
 5775TIP3   OH217281   8.101   5.494   4.448
 5775TIP3    H117282   8.033   5.505   4.382
 5775TIP3    H217283   8.106   5.579   4.493
 5776TIP3   OH217284   1.962   2.912   3.288
 5776TIP3    H117285   1.963   3.008   3.288
 5776TIP3    H217286   1.968   2.888   3.195
 5777TIP3   OH217287   0.274   4.031   3.149
 5777TIP3    H117288   0.228   3.948   3.140
 5777TIP3    H217289   0.210   4.097   3.119
 5778TIP3   OH217290   3.812   3.020   3.529
 5778TIP3    H117291   3.888   3.074   3.511
 5778TIP3    H217292   3.822   2.995   3.621
 5779TIP3   OH217293   3.184   6.676   5.583
 5779TIP3    H117294   3.157   6.589   5.550
 5779TIP3    H217295   3.245   6.657   5.653
 5780TIP3   OH217296   2.508   5.429   5.114
 5780TIP3    H117297   2.585   5.476   5.146
 5780TIP3    H217298   2.473   5.485   5.045
 5781TIP3   OH217299   3.947   7.769   1.346
 5781TIP3    H117300   3.864   7.743   1.385
 5781TIP3    H217301   4.007   7.698   1.369
 5782TIP3   OH217302   2.414   0.446   5.850
 5782TIP3    H117303   2.434   0.356   5.874
 5782TIP3    H217304   2.498   0.482   5.821
 5783TIP3   OH217305   6.954   7.339   0.655
 5783TIP3    H117306   7.013   7.264   0.655
 5783TIP3    H217307   7.011   7.415   0.642
 5784TIP3   OH217308   0.367   4.157   0.944
 5784TIP3    H117309   0.451   4.120   0.972
 5784TIP3    H217310   0.304   4.087   0.958
 5785TIP3   OH217311   1.997   7.720   4.891
 5785TIP3    H117312   1.967   7.797   4.843
 5785TIP3    H217313   2.013   7.654   4.823
 5786TIP3   OH217314   4.761   1.122   3.679
 5786TIP3    H117315   4.822   1.049   3.688
 5786TIP3    H217316   4.787   1.183   3.749
 5787TIP3   OH217317   7.013   3.336   5.862
 5787TIP3    H117318   6.929   3.313   5.901
 5787TIP3    H217319   7.052   3.398   5.923
 5788TIP3   OH217320   3.276   4.681   0.218
 5788TIP3    H117321   3.326   4.703   0.139
 5788TIP3    H217322   3.198   4.736   0.213
 5789TIP3   OH217323   5.324   6.405   3.761
 5789TIP3    H117324   5.385   6.339   3.727
 5789TIP3    H217325   5.288   6.447   3.683
 5790TIP3   OH217326   4.299   2.541   3.743
 5790TIP3    H117327   4.298   2.620   3.689
 5790TIP3    H217328   4.366   2.485   3.703
 5791TIP3   OH217329   1.134   3.716   4.725
 5791TIP3    H117330   1.144   3.751   4.814
 5791TIP3    H217331   1.193   3.641   4.723
 5792TIP3   OH217332   5.891   1.800   5.256
 5792TIP3    H117333   5.843   1.839   5.183
 5792TIP3    H217334   5.946   1.870   5.289
 5793TIP3   OH217335   5.265   7.461   3.874
 5793TIP3    H117336   5.293   7.506   3.953
 5793TIP3    H217337   5.273   7.368   3.895
 5794TIP3   OH217338   1.281   5.627   0.663
 5794TIP3    H117339   1.374   5.627   0.639
 5794TIP3    H217340   1.243   5.700   0.615
 5795TIP3   OH217341   1.000   2.260   1.435
 5795TIP3    H117342   1.003   2.256   1.340
 5795TIP3    H217343   0.907   2.264   1.456
 5796TIP3   OH217344   5.030   0.807   1.728
 5796TIP3    H117345   4.989   0.732   1.769
 5796TIP3    H217346   5.038   0.783   1.635
 5797TIP3   OH217347   3.367   5.787   0.594
 5797TIP3    H117348   3.365   5.790   0.690
 5797TIP3    H217349   3.454   5.753   0.574
 5798TIP3   OH217350   6.234   7.257   2.885
 5798TIP3    H117351   6.236   7.165   2.858
 5798TIP3    H217352   6.160   7.263   2.945
 5799TIP3   OH217353   7.499   7.328   3.146
 5799TIP3    H117354   7.552   7.346   3.068
 5799TIP3    H217355   7.497   7.411   3.194
 5800TIP3   OH217356   4.139   1.219   4.278
 5800TIP3    H117357   4.084   1.159   4.329
 5800TIP3    H217358   4.228   1.201   4.308
 5801TIP3   OH217359   3.091   4.506   5.155
 5801TIP3    H117360   3.175   4.466   5.180
 5801TIP3    H217361   3.025   4.446   5.189
 5802TIP3   OH217362   0.316   7.744   3.818
 5802TIP3    H117363   0.364   7.752   3.735
 5802TIP3    H217364   0.261   7.822   3.822
 5803TIP3   OH217365   6.513   2.189   5.303
 5803TIP3    H117366   6.449   2.151   5.364
 5803TIP3    H217367   6.519   2.124   5.232
 5804TIP3   OH217368   7.544   4.878   2.080
 5804TIP3    H117369   7.539   4.904   2.172
 5804TIP3    H217370   7.453   4.866   2.054
 5805TIP3   OH217371   7.477   6.021   5.539
 5805TIP3    H117372   7.462   6.021   5.445
 5805TIP3    H217373   7.534   5.946   5.555
 5806TIP3   OH217374   8.142   4.123   2.020
 5806TIP3    H117375   8.114   4.194   2.077
 5806TIP3    H217376   8.140   4.161   1.932
 5807TIP3   OH217377   6.680   7.015   3.494
 5807TIP3    H117378   6.652   6.927   3.518
 5807TIP3    H217379   6.649   7.026   3.404
 5808TIP3   OH217380   7.199   3.591   6.620
 5808TIP3    H117381   7.167   3.582   6.710
 5808TIP3    H217382   7.294   3.581   6.628
 5809TIP3   OH217383   1.251   3.591   1.406
 5809TIP3    H117384   1.197   3.514   1.423
 5809TIP3    H217385   1.249   3.602   1.311
 5810TIP3   OH217386   1.818   0.071   0.262
 5810TIP3    H117387   1.850  -0.017   0.245
 5810TIP3    H217388   1.848   0.091   0.351
 5811TIP3   OH217389   1.302   3.853   3.106
 5811TIP3    H117390   1.367   3.913   3.142
 5811TIP3    H217391   1.237   3.911   3.065
 5812TIP3   OH217392   0.188   4.957   0.099
 5812TIP3    H117393   0.228   5.025   0.154
 5812TIP3    H217394   0.256   4.933   0.036
 5813TIP3   OH217395   4.051   6.022   3.309
 5813TIP3    H117396   4.055   5.961   3.382
 5813TIP3    H217397   4.118   6.088   3.329
 5814TIP3   OH217398   2.387   1.951   4.746
 5814TIP3    H117399   2.328   1.978   4.676
 5814TIP3    H217400   2.368   2.010   4.818
 5815TIP3   OH217401   3.859   7.350   1.351
 5815TIP3    H117402   3.885   7.422   1.294
 5815TIP3    H217403   3.874   7.271   1.298
 5816TIP3   OH217404   0.371   6.327   0.638
 5816TIP3    H117405   0.421   6.398   0.597
 5816TIP3    H217406   0.324   6.286   0.565
 5817TIP3   OH217407   1.505   2.535   6.014
 5817TIP3    H117408   1.472   2.553   6.102
 5817TIP3    H217409   1.510   2.620   5.972
 5818TIP3   OH217410   3.894   2.264   6.530
 5818TIP3    H117411   3.925   2.339   6.478
 5818TIP3    H217412   3.947   2.190   6.500
 5819TIP3   OH217413   7.070   2.519   2.830
 5819TIP3    H117414   7.100   2.437   2.870
 5819TIP3    H217415   7.149   2.557   2.792
 5820TIP3   OH217416   8.082   1.406   0.639
 5820TIP3    H117417   8.090   1.406   0.734
 5820TIP3    H217418   7.995   1.442   0.622
 5821TIP3   OH217419   7.560   1.082   4.742
 5821TIP3    H117420   7.644   1.047   4.772
 5821TIP3    H217421   7.555   1.058   4.650
 5822TIP3   OH217422   3.455   7.760   0.655
 5822TIP3    H117423   3.459   7.670   0.622
 5822TIP3    H217424   3.528   7.766   0.716
 5823TIP3   OH217425   2.538   2.928   1.097
 5823TIP3    H117426   2.486   3.008   1.094
 5823TIP3    H217427   2.474   2.857   1.086
 5824TIP3   OH217428   4.417   6.861   6.047
 5824TIP3    H117429   4.378   6.798   6.108
 5824TIP3    H217430   4.505   6.826   6.030
 5825TIP3   OH217431   0.821   6.166   1.752
 5825TIP3    H117432   0.902   6.143   1.797
 5825TIP3    H217433   0.846   6.237   1.692
 5826TIP3   OH217434   3.452   3.243   0.924
 5826TIP3    H117435   3.391   3.211   0.990
 5826TIP3    H217436   3.465   3.335   0.945
 5827TIP3   OH217437   6.778   4.461   5.777
 5827TIP3    H117438   6.859   4.409   5.771
 5827TIP3    H217439   6.803   4.538   5.827
 5828TIP3   OH217440   3.009   4.973   1.722
 5828TIP3    H117441   2.986   4.887   1.687
 5828TIP3    H217442   3.070   4.954   1.793
 5829TIP3   OH217443   5.714   3.428   6.255
 5829TIP3    H117444   5.764   3.454   6.333
 5829TIP3    H217445   5.746   3.341   6.233
 5830TIP3   OH217446   1.766   4.992   0.858
 5830TIP3    H117447   1.714   5.036   0.791
 5830TIP3    H217448   1.766   5.053   0.932
 5831TIP3   OH217449   7.475   6.592   6.641
 5831TIP3    H117450   7.527   6.642   6.578
 5831TIP3    H217451   7.386   6.625   6.628
 5832TIP3   OH217452   6.611   5.756   1.991
 5832TIP3    H117453   6.582   5.679   1.941
 5832TIP3    H217454   6.553   5.826   1.962
 5833TIP3   OH217455   5.717   3.242   6.563
 5833TIP3    H117456   5.647   3.307   6.560
 5833TIP3    H217457   5.672   3.159   6.572
 5834TIP3   OH217458   1.948   0.782   5.548
 5834TIP3    H117459   1.971   0.692   5.528
 5834TIP3    H217460   1.972   0.831   5.470
 5835TIP3   OH217461   3.036   3.445   1.897
 5835TIP3    H117462   2.997   3.358   1.908
 5835TIP3    H217463   2.964   3.501   1.868
 5836TIP3   OH217464   2.443   2.799   2.645
 5836TIP3    H117465   2.476   2.777   2.732
 5836TIP3    H217466   2.380   2.869   2.661
 5837TIP3   OH217467   2.107   5.630   1.346
 5837TIP3    H117468   2.078   5.715   1.311
 5837TIP3    H217469   2.026   5.581   1.359
 5838TIP3   OH217470   2.354   7.045   3.930
 5838TIP3    H117471   2.325   7.069   3.842
 5838TIP3    H217472   2.288   7.081   3.988
 5839TIP3   OH217473   0.441   2.537   1.602
 5839TIP3    H117474   0.522   2.561   1.647
 5839TIP3    H217475   0.434   2.443   1.612
 5840TIP3   OH217476   5.976   7.466   1.337
 5840TIP3    H117477   6.022   7.518   1.403
 5840TIP3    H217478   6.030   7.388   1.326
 5841TIP3   OH217479   7.784   5.618   3.498
 5841TIP3    H117480   7.807   5.532   3.531
 5841TIP3    H217481   7.864   5.670   3.507
 5842TIP3   OH217482   1.786   5.931   3.806
 5842TIP3    H117483   1.863   5.984   3.824
 5842TIP3    H217484   1.806   5.846   3.846
 5843TIP3   OH217485   2.335   7.062   4.488
 5843TIP3    H117486   2.289   6.988   4.448
 5843TIP3    H217487   2.419   7.026   4.516
 5844TIP3   OH217488   0.653   4.608   0.760
 5844TIP3    H117489   0.745   4.614   0.734
 5844TIP3    H217490   0.618   4.696   0.749
 5845TIP3   OH217491   8.113   6.817   1.627
 5845TIP3    H117492   8.183   6.756   1.651
 5845TIP3    H217493   8.157   6.882   1.572
 5846TIP3   OH217494   3.638   6.854   2.599
 5846TIP3    H117495   3.604   6.941   2.618
 5846TIP3    H217496   3.725   6.853   2.640
 5847TIP3   OH217497   1.525   4.775   1.792
 5847TIP3    H117498   1.455   4.766   1.727
 5847TIP3    H217499   1.605   4.786   1.740
 5848TIP3   OH217500   3.645   2.908   0.088
 5848TIP3    H117501   3.600   2.904   0.004
 5848TIP3    H217502   3.578   2.883   0.152
 5849TIP3   OH217503   1.648   3.648   1.742
 5849TIP3    H117504   1.704   3.711   1.696
 5849TIP3    H217505   1.559   3.677   1.723
 5850TIP3   OH217506   8.098   1.142   1.426
 5850TIP3    H117507   8.071   1.220   1.474
 5850TIP3    H217508   8.139   1.086   1.491
 5851TIP3   OH217509   6.177   1.135   3.945
 5851TIP3    H117510   6.176   1.214   3.998
 5851TIP3    H217511   6.239   1.155   3.874
 5852TIP3   OH217512   6.320   0.551   0.062
 5852TIP3    H117513   6.365   0.529   0.144
 5852TIP3    H217514   6.364   0.630   0.031
 5853TIP3   OH217515   3.623   0.369   2.657
 5853TIP3    H117516   3.653   0.409   2.738
 5853TIP3    H217517   3.609   0.277   2.679
 5854TIP3   OH217518   4.658   7.234   5.070
 5854TIP3    H117519   4.612   7.159   5.107
 5854TIP3    H217520   4.735   7.197   5.027
 5855TIP3   OH217521   4.318   6.211   2.742
 5855TIP3    H117522   4.398   6.199   2.691
 5855TIP3    H217523   4.331   6.160   2.821
 5856TIP3   OH217524   4.182   3.555   6.353
 5856TIP3    H117525   4.203   3.465   6.329
 5856TIP3    H217526   4.191   3.604   6.272
 5857TIP3   OH217527   8.270   6.112   0.620
 5857TIP3    H117528   8.298   6.033   0.666
 5857TIP3    H217529   8.175   6.112   0.626
 5858TIP3   OH217530   2.546   6.377   5.143
 5858TIP3    H117531   2.462   6.331   5.138
 5858TIP3    H217532   2.546   6.435   5.067
 5859TIP3   OH217533   5.604   2.147   3.244
 5859TIP3    H117534   5.684   2.187   3.279
 5859TIP3    H217535   5.628   2.056   3.227
 5860TIP3   OH217536   1.189   7.087   5.199
 5860TIP3    H117537   1.098   7.073   5.226
 5860TIP3    H217538   1.187   7.166   5.146
 5861TIP3   OH217539   2.503   1.515   1.236
 5861TIP3    H117540   2.529   1.446   1.175
 5861TIP3    H217541   2.433   1.477   1.288
 5862TIP3   OH217542   7.971   0.612   3.991
 5862TIP3    H117543   7.996   0.527   4.026
 5862TIP3    H217544   7.983   0.604   3.897
 5863TIP3   OH217545   0.513   1.875   0.721
 5863TIP3    H117546   0.603   1.842   0.729
 5863TIP3    H217547   0.463   1.822   0.783
 5864TIP3   OH217548   7.223   0.011   5.832
 5864TIP3    H117549   7.232   0.102   5.859
 5864TIP3    H217550   7.176   0.015   5.749
 5865TIP3   OH217551   6.011   1.942   6.233
 5865TIP3    H117552   5.997   1.975   6.322
 5865TIP3    H217553   5.990   1.849   6.239
 5866TIP3   OH217554   5.691   0.553   5.208
 5866TIP3    H117555   5.721   0.612   5.139
 5866TIP3    H217556   5.675   0.609   5.283
 5867TIP3   OH217557   4.852   2.681   2.160
 5867TIP3    H117558   4.760   2.699   2.181
 5867TIP3    H217559   4.896   2.681   2.245
 5868TIP3   OH217560   0.532   4.232   5.497
 5868TIP3    H117561   0.627   4.230   5.510
 5868TIP3    H217562   0.505   4.318   5.529
 5869TIP3   OH217563   2.505   1.807   1.307
 5869TIP3    H117564   2.441   1.795   1.236
 5869TIP3    H217565   2.464   1.872   1.365
 5870TIP3   OH217566   7.928   5.655   3.806
 5870TIP3    H117567   7.965   5.566   3.812
 5870TIP3    H217568   7.856   5.654   3.869
 5871TIP3   OH217569   1.145   5.913   2.118
 5871TIP3    H117570   1.108   5.998   2.094
 5871TIP3    H217571   1.083   5.849   2.084
 5872TIP3   OH217572   1.603   5.284   4.725
 5872TIP3    H117573   1.605   5.289   4.629
 5872TIP3    H217574   1.695   5.280   4.751
 5873TIP3   OH217575   3.267   5.225   5.945
 5873TIP3    H117576   3.194   5.281   5.970
 5873TIP3    H217577   3.276   5.237   5.850
 5874TIP3   OH217578   5.548   7.223   2.102
 5874TIP3    H117579   5.470   7.266   2.068
 5874TIP3    H217580   5.620   7.282   2.080
 5875TIP3   OH217581   6.638   4.388   5.548
 5875TIP3    H117582   6.589   4.308   5.565
 5875TIP3    H217583   6.672   4.414   5.634
 5876TIP3   OH217584   6.430   2.424   0.770
 5876TIP3    H117585   6.498   2.387   0.714
 5876TIP3    H217586   6.421   2.515   0.740
 5877TIP3   OH217587   1.353   5.799   5.499
 5877TIP3    H117588   1.340   5.860   5.427
 5877TIP3    H217589   1.278   5.813   5.557
 5878TIP3   OH217590   0.047   6.060   3.445
 5878TIP3    H117591   0.089   6.136   3.405
 5878TIP3    H217592   0.075   5.986   3.390
 5879TIP3   OH217593   2.708   6.793   0.643
 5879TIP3    H117594   2.659   6.873   0.660
 5879TIP3    H217595   2.651   6.723   0.675
 5880TIP3   OH217596   0.298   5.383   3.056
 5880TIP3    H117597   0.262   5.325   2.989
 5880TIP3    H217598   0.314   5.465   3.010
 5881TIP3   OH217599   6.801   4.687   6.416
 5881TIP3    H117600   6.843   4.772   6.404
 5881TIP3    H217601   6.813   4.668   6.509
 5882TIP3   OH217602   6.810   3.184   2.054
 5882TIP3    H117603   6.818   3.156   1.963
 5882TIP3    H217604   6.724   3.153   2.081
 5883TIP3   OH217605   7.944   6.554   2.943
 5883TIP3    H117606   7.947   6.473   2.993
 5883TIP3    H217607   7.853   6.561   2.914
 5884TIP3   OH217608   0.079   1.640   3.711
 5884TIP3    H117609   0.037   1.609   3.791
 5884TIP3    H217610   0.046   1.582   3.642
 5885TIP3   OH217611   6.381   7.527   6.349
 5885TIP3    H117612   6.440   7.586   6.302
 5885TIP3    H217613   6.437   7.453   6.375
 5886TIP3   OH217614   2.953   3.955   2.821
 5886TIP3    H117615   2.994   4.020   2.764
 5886TIP3    H217616   2.963   3.873   2.774
 5887TIP3   OH217617   3.919   4.051   1.642
 5887TIP3    H117618   3.952   3.964   1.620
 5887TIP3    H217619   3.855   4.035   1.712
 5888TIP3   OH217620   2.225   7.655   5.321
 5888TIP3    H117621   2.212   7.748   5.303
 5888TIP3    H217622   2.318   7.640   5.301
 5889TIP3   OH217623   4.093   3.145   1.847
 5889TIP3    H117624   4.179   3.127   1.807
 5889TIP3    H217625   4.044   3.190   1.777
 5890TIP3   OH217626   6.293   5.048   6.008
 5890TIP3    H117627   6.243   5.127   6.029
 5890TIP3    H217628   6.244   5.007   5.936
 5891TIP3   OH217629   2.789   7.060   3.208
 5891TIP3    H117630   2.763   7.045   3.298
 5891TIP3    H217631   2.840   7.141   3.211
 5892TIP3   OH217632   6.635   1.100   5.161
 5892TIP3    H117633   6.681   1.019   5.141
 5892TIP3    H217634   6.581   1.079   5.237
 5893TIP3   OH217635   2.505   4.083   3.657
 5893TIP3    H117636   2.558   4.123   3.726
 5893TIP3    H217637   2.451   4.155   3.624
 5894TIP3   OH217638   2.097   2.814   2.800
 5894TIP3    H117639   2.150   2.863   2.737
 5894TIP3    H217640   2.159   2.752   2.839
 5895TIP3   OH217641   7.343   6.313   0.628
 5895TIP3    H117642   7.402   6.305   0.553
 5895TIP3    H217643   7.386   6.376   0.686
 5896TIP3   OH217644   6.785   7.596   0.242
 5896TIP3    H117645   6.722   7.606   0.313
 5896TIP3    H217646   6.733   7.598   0.162
 5897TIP3   OH217647   3.067   7.417   1.732
 5897TIP3    H117648   3.116   7.497   1.752
 5897TIP3    H217649   3.013   7.441   1.656
 5898TIP3   OH217650   3.265   0.329   2.331
 5898TIP3    H117651   3.331   0.387   2.369
 5898TIP3    H217652   3.301   0.303   2.246
 5899TIP3   OH217653   6.588   0.110   3.149
 5899TIP3    H117654   6.633   0.185   3.187
 5899TIP3    H217655   6.657   0.046   3.133
 5900TIP3   OH217656   3.413   6.179   3.997
 5900TIP3    H117657   3.338   6.230   4.026
 5900TIP3    H217658   3.402   6.171   3.902
 5901TIP3   OH217659   7.979   3.921   1.793
 5901TIP3    H117660   7.971   3.967   1.876
 5901TIP3    H217661   7.890   3.914   1.761
 5902TIP3   OH217662   0.801   6.512   0.547
 5902TIP3    H117663   0.709   6.521   0.522
 5902TIP3    H217664   0.810   6.566   0.626
 5903TIP3   OH217665   3.070   0.112   4.843
 5903TIP3    H117666   3.020   0.092   4.764
 5903TIP3    H217667   3.113   0.029   4.865
 5904TIP3   OH217668   6.820   4.376   1.982
 5904TIP3    H117669   6.882   4.303   1.974
 5904TIP3    H217670   6.852   4.441   1.919
 5905TIP3   OH217671   0.188   4.454   0.444
 5905TIP3    H117672   0.277   4.454   0.481
 5905TIP3    H217673   0.162   4.546   0.444
 5906TIP3   OH217674   4.616   2.560   3.829
 5906TIP3    H117675   4.578   2.521   3.907
 5906TIP3    H217676   4.591   2.500   3.758
 5907TIP3   OH217677   0.408   2.213   0.935
 5907TIP3    H117678   0.442   2.134   0.977
 5907TIP3    H217679   0.464   2.283   0.969
 5908TIP3   OH217680   4.792   1.366   6.279
 5908TIP3    H117681   4.854   1.438   6.290
 5908TIP3    H217682   4.783   1.329   6.367
 5909TIP3   OH217683   4.935   5.673   2.360
 5909TIP3    H117684   4.912   5.755   2.315
 5909TIP3    H217685   4.853   5.625   2.366
 5910TIP3   OH217686   1.850   5.442   3.747
 5910TIP3    H117687   1.864   5.537   3.750
 5910TIP3    H217688   1.928   5.405   3.787
 5911TIP3   OH217689   7.738   0.771   1.102
 5911TIP3    H117690   7.742   0.699   1.040
 5911TIP3    H217691   7.732   0.850   1.047
 5912TIP3   OH217692   3.044   5.689   1.352
 5912TIP3    H117693   3.024   5.599   1.379
 5912TIP3    H217694   3.112   5.718   1.413
 5913TIP3   OH217695   2.422   4.751   4.370
 5913TIP3    H117696   2.400   4.664   4.405
 5913TIP3    H217697   2.430   4.737   4.275
 5914TIP3   OH217698   3.981   0.671   1.473
 5914TIP3    H117699   3.924   0.726   1.526
 5914TIP3    H217700   3.925   0.598   1.445
 5915TIP3   OH217701   4.876   6.120   2.030
 5915TIP3    H117702   4.965   6.104   1.999
 5915TIP3    H217703   4.858   6.212   2.007
 5916TIP3   OH217704   6.446   7.224   1.190
 5916TIP3    H117705   6.405   7.173   1.261
 5916TIP3    H217706   6.502   7.286   1.235
 5917TIP3   OH217707   5.403   0.599   2.231
 5917TIP3    H117708   5.429   0.507   2.221
 5917TIP3    H217709   5.407   0.614   2.326
 5918TIP3   OH217710   1.039   3.053   1.550
 5918TIP3    H117711   1.045   3.148   1.545
 5918TIP3    H217712   1.130   3.023   1.543
 5919TIP3   OH217713   8.065   6.412   3.177
 5919TIP3    H117714   8.104   6.481   3.231
 5919TIP3    H217715   8.134   6.346   3.167
 5920TIP3   OH217716   0.150   3.325   2.756
 5920TIP3    H117717   0.091   3.307   2.829
 5920TIP3    H217718   0.107   3.286   2.680
 5921TIP3   OH217719   7.068   0.470   1.950
 5921TIP3    H117720   7.082   0.386   1.907
 5921TIP3    H217721   7.047   0.449   2.040
 5922TIP3   OH217722   7.591   2.994   3.897
 5922TIP3    H117723   7.673   2.974   3.942
 5922TIP3    H217724   7.527   3.007   3.968
 5923TIP3   OH217725   0.726   6.008   0.746
 5923TIP3    H117726   0.664   6.027   0.676
 5923TIP3    H217727   0.680   5.947   0.803
 5924TIP3   OH217728   5.146   2.355   4.812
 5924TIP3    H117729   5.125   2.421   4.878
 5924TIP3    H217730   5.195   2.402   4.745
 5925TIP3   OH217731   1.984   6.432   2.573
 5925TIP3    H117732   1.924   6.373   2.617
 5925TIP3    H217733   2.063   6.379   2.558
 5926TIP3   OH217734   1.310   5.861   6.285
 5926TIP3    H117735   1.364   5.783   6.300
 5926TIP3    H217736   1.334   5.921   6.355
 5927TIP3   OH217737   2.915   7.232   4.035
 5927TIP3    H117738   2.951   7.171   4.099
 5927TIP3    H217739   2.827   7.199   4.017
 5928TIP3   OH217740   3.408   3.403   5.292
 5928TIP3    H117741   3.350   3.369   5.224
 5928TIP3    H217742   3.399   3.341   5.364
 5929TIP3   OH217743   0.244   1.588   4.723
 5929TIP3    H117744   0.175   1.528   4.694
 5929TIP3    H217745   0.229   1.668   4.674
 5930TIP3   OH217746   3.857   2.303   6.063
 5930TIP3    H117747   3.768   2.328   6.038
 5930TIP3    H217748   3.867   2.337   6.152
 5931TIP3   OH217749   8.133   4.859   5.628
 5931TIP3    H117750   8.129   4.778   5.576
 5931TIP3    H217751   8.078   4.921   5.580
 5932TIP3   OH217752   3.580   1.059   4.888
 5932TIP3    H117753   3.501   1.022   4.928
 5932TIP3    H217754   3.548   1.102   4.808
 5933TIP3   OH217755   1.252   2.743   4.041
 5933TIP3    H117756   1.322   2.769   3.981
 5933TIP3    H217757   1.248   2.648   4.034
 5934TIP3   OH217758   2.874   5.353   6.319
 5934TIP3    H117759   2.789   5.332   6.281
 5934TIP3    H217760   2.897   5.277   6.372
 5935TIP3   OH217761   7.950   7.744   4.697
 5935TIP3    H117762   7.977   7.776   4.783
 5935TIP3    H217763   7.877   7.685   4.714
 5936TIP3   OH217764   3.656   1.150   4.564
 5936TIP3    H117765   3.641   1.207   4.640
 5936TIP3    H217766   3.577   1.160   4.511
 5937TIP3   OH217767   1.232   6.079   3.813
 5937TIP3    H117768   1.260   5.993   3.780
 5937TIP3    H217769   1.178   6.115   3.742
 5938TIP3   OH217770   5.676   5.288   0.478
 5938TIP3    H117771   5.689   5.204   0.434
 5938TIP3    H217772   5.602   5.327   0.433
 5939TIP3   OH217773   6.484   4.066   5.008
 5939TIP3    H117774   6.460   4.048   5.099
 5939TIP3    H217775   6.403   4.099   4.968
 5940TIP3   OH217776   4.540   6.119   1.163
 5940TIP3    H117777   4.514   6.204   1.127
 5940TIP3    H217778   4.611   6.090   1.106
 5941TIP3   OH217779   6.691   5.429   1.642
 5941TIP3    H117780   6.658   5.365   1.705
 5941TIP3    H217781   6.612   5.471   1.608
 5942TIP3   OH217782   5.393   6.122   5.141
 5942TIP3    H117783   5.347   6.062   5.082
 5942TIP3    H217784   5.475   6.077   5.161
 5943TIP3   OH217785   4.316   5.162   5.311
 5943TIP3    H117786   4.234   5.113   5.308
 5943TIP3    H217787   4.290   5.251   5.335
 5944TIP3   OH217788   1.681   2.580   6.347
 5944TIP3    H117789   1.591   2.602   6.324
 5944TIP3    H217790   1.684   2.484   6.345
 5945TIP3   OH217791   8.150   1.815   3.692
 5945TIP3    H117792   8.097   1.853   3.762
 5945TIP3    H217793   8.167   1.725   3.722
 5946TIP3   OH217794   3.173   4.212   0.752
 5946TIP3    H117795   3.150   4.138   0.695
 5946TIP3    H217796   3.195   4.283   0.691
 5947TIP3   OH217797   0.779   2.544   2.866
 5947TIP3    H117798   0.872   2.566   2.874
 5947TIP3    H217799   0.745   2.608   2.803
 5948TIP3   OH217800   4.243   2.233   6.505
 5948TIP3    H117801   4.192   2.204   6.429
 5948TIP3    H217802   4.307   2.294   6.469
 5949TIP3   OH217803   7.324   7.646   0.164
 5949TIP3    H117804   7.325   7.651   0.069
 5949TIP3    H217805   7.232   7.660   0.188
 5950TIP3   OH217806   3.094   3.291   1.418
 5950TIP3    H117807   3.146   3.365   1.451
 5950TIP3    H217808   3.135   3.214   1.458
 5951TIP3   OH217809   2.100   1.285   2.740
 5951TIP3    H117810   2.078   1.249   2.826
 5951TIP3    H217811   2.101   1.380   2.754
 5952TIP3   OH217812   2.045   4.693   2.748
 5952TIP3    H117813   2.092   4.612   2.771
 5952TIP3    H217814   2.073   4.756   2.814
 5953TIP3   OH217815   7.727   1.746   2.313
 5953TIP3    H117816   7.713   1.665   2.264
 5953TIP3    H217817   7.756   1.810   2.247
 5954TIP3   OH217818   2.520   1.165   0.265
 5954TIP3    H117819   2.598   1.193   0.312
 5954TIP3    H217820   2.468   1.118   0.330
 5955TIP3   OH217821   8.314   5.736   1.736
 5955TIP3    H117822   8.226   5.770   1.750
 5955TIP3    H217823   8.301   5.657   1.683
 5956TIP3   OH217824   3.613   4.778   5.756
 5956TIP3    H117825   3.615   4.683   5.762
 5956TIP3    H217826   3.588   4.808   5.844
 5957TIP3   OH217827   6.882   3.822   0.159
 5957TIP3    H117828   6.862   3.812   0.066
 5957TIP3    H217829   6.977   3.806   0.165
 5958TIP3   OH217830   6.672   1.368   6.603
 5958TIP3    H117831   6.687   1.273   6.601
 5958TIP3    H217832   6.693   1.397   6.514
 5959TIP3   OH217833   4.099   5.895   0.167
 5959TIP3    H117834   4.129   5.979   0.131
 5959TIP3    H217835   4.031   5.919   0.229
 5960TIP3   OH217836   7.635   0.231   1.758
 5960TIP3    H117837   7.590   0.186   1.686
 5960TIP3    H217838   7.578   0.218   1.834
 5961TIP3   OH217839   4.554   7.103   2.930
 5961TIP3    H117840   4.502   7.182   2.913
 5961TIP3    H217841   4.597   7.120   3.014
 5962TIP3   OH217842   2.063   6.604   3.560
 5962TIP3    H117843   2.154   6.623   3.538
 5962TIP3    H217844   2.046   6.659   3.637
 5963TIP3   OH217845   4.690   5.644   6.355
 5963TIP3    H117846   4.680   5.722   6.409
 5963TIP3    H217847   4.679   5.676   6.265
 5964TIP3   OH217848   0.962   3.401   6.431
 5964TIP3    H117849   0.903   3.338   6.389
 5964TIP3    H217850   0.933   3.405   6.522
 5965TIP3   OH217851   5.189   2.247   0.135
 5965TIP3    H117852   5.151   2.187   0.199
 5965TIP3    H217853   5.150   2.332   0.155
 5966TIP3   OH217854   5.722   0.181   2.698
 5966TIP3    H117855   5.806   0.142   2.724
 5966TIP3    H217856   5.659   0.109   2.708
 5967TIP3   OH217857   2.808   6.084   0.750
 5967TIP3    H117858   2.719   6.104   0.719
 5967TIP3    H217859   2.816   6.131   0.832
 5968TIP3   OH217860   3.269   5.535   2.945
 5968TIP3    H117861   3.278   5.630   2.935
 5968TIP3    H217862   3.227   5.506   2.864
 5969TIP3   OH217863   1.545   7.481   2.863
 5969TIP3    H117864   1.579   7.488   2.774
 5969TIP3    H217865   1.576   7.560   2.906
 5970TIP3   OH217866   7.167   5.265   6.376
 5970TIP3    H117867   7.075   5.243   6.384
 5970TIP3    H217868   7.206   5.190   6.331
 5971TIP3   OH217869   2.607   5.095   4.515
 5971TIP3    H117870   2.542   5.094   4.585
 5971TIP3    H217871   2.632   5.003   4.503
 5972TIP3   OH217872   8.175   0.697   0.119
 5972TIP3    H117873   8.194   0.662   0.206
 5972TIP3    H217874   8.092   0.657   0.094
 5973TIP3   OH217875   1.363   3.501   5.976
 5973TIP3    H117876   1.439   3.542   5.935
 5973TIP3    H217877   1.289   3.528   5.922
 5974TIP3   OH217878   5.558   3.087   3.107
 5974TIP3    H117879   5.533   3.179   3.099
 5974TIP3    H217880   5.621   3.074   3.036
 5975TIP3   OH217881   4.813   4.680   0.997
 5975TIP3    H117882   4.763   4.614   0.948
 5975TIP3    H217883   4.861   4.630   1.063
 5976TIP3   OH217884   6.208   4.862   4.506
 5976TIP3    H117885   6.185   4.830   4.419
 5976TIP3    H217886   6.213   4.783   4.560
 5977TIP3   OH217887   1.920   2.008   0.923
 5977TIP3    H117888   1.825   1.999   0.915
 5977TIP3    H217889   1.936   2.101   0.912
 5978TIP3   OH217890   2.399   6.481   2.985
 5978TIP3    H117891   2.448   6.428   2.922
 5978TIP3    H217892   2.369   6.556   2.935
 5979TIP3   OH217893   7.091   2.916   5.948
 5979TIP3    H117894   7.122   2.827   5.962
 5979TIP3    H217895   7.011   2.923   6.000
 5980TIP3   OH217896   7.753   3.523   2.859
 5980TIP3    H117897   7.774   3.562   2.775
 5980TIP3    H217898   7.762   3.429   2.845
 5981TIP3   OH217899   4.483   1.019   5.816
 5981TIP3    H117900   4.423   1.010   5.890
 5981TIP3    H217901   4.507   0.929   5.794
 5982TIP3   OH217902   5.871   5.058   1.512
 5982TIP3    H117903   5.913   5.081   1.429
 5982TIP3    H217904   5.912   5.116   1.576
 5983TIP3   OH217905   6.877   7.531   3.592
 5983TIP3    H117906   6.850   7.439   3.583
 5983TIP3    H217907   6.910   7.554   3.505
 5984TIP3   OH217908   6.589   3.540   5.848
 5984TIP3    H117909   6.568   3.576   5.762
 5984TIP3    H217910   6.675   3.500   5.837
 5985TIP3   OH217911   4.721   1.051   5.577
 5985TIP3    H117912   4.633   1.016   5.565
 5985TIP3    H217913   4.759   0.997   5.645
 5986TIP3   OH217914   6.358   5.758   6.286
 5986TIP3    H117915   6.370   5.802   6.371
 5986TIP3    H217916   6.384   5.824   6.221
 5987TIP3   OH217917   5.780   4.815   3.371
 5987TIP3    H117918   5.792   4.870   3.293
 5987TIP3    H217919   5.862   4.827   3.420
 5988TIP3   OH217920   7.796   1.648   3.662
 5988TIP3    H117921   7.720   1.592   3.677
 5988TIP3    H217922   7.858   1.622   3.730
 5989TIP3   OH217923   6.940   5.555   3.727
 5989TIP3    H117924   6.880   5.598   3.666
 5989TIP3    H217925   6.882   5.504   3.784
 5990TIP3   OH217926   5.279   2.708   1.587
 5990TIP3    H117927   5.314   2.629   1.628
 5990TIP3    H217928   5.346   2.735   1.525
 5991TIP3   OH217929   5.092   1.755   0.469
 5991TIP3    H117930   5.046   1.772   0.387
 5991TIP3    H217931   5.047   1.681   0.508
 5992TIP3   OH217932   0.931   4.793   1.793
 5992TIP3    H117933   0.840   4.780   1.818
 5992TIP3    H217934   0.979   4.803   1.875
 5993TIP3   OH217935   2.920   4.342   0.976
 5993TIP3    H117936   2.842   4.298   1.010
 5993TIP3    H217937   2.903   4.352   0.883
 5994TIP3   OH217938   2.641   5.563   1.406
 5994TIP3    H117939   2.639   5.467   1.411
 5994TIP3    H217940   2.612   5.583   1.317
 5995TIP3   OH217941   3.090   4.959   6.037
 5995TIP3    H117942   3.124   5.048   6.034
 5995TIP3    H217943   3.005   4.966   6.080
 5996TIP3   OH217944   5.744   2.367   2.292
 5996TIP3    H117945   5.840   2.364   2.288
 5996TIP3    H217946   5.718   2.405   2.208
 5997TIP3   OH217947   3.331   5.093   5.545
 5997TIP3    H117948   3.372   5.105   5.458
 5997TIP3    H217949   3.254   5.150   5.543
 5998TIP3   OH217950   0.487   5.725   2.298
 5998TIP3    H117951   0.417   5.762   2.351
 5998TIP3    H217952   0.564   5.727   2.355
 5999TIP3   OH217953   0.517   1.217   0.098
 5999TIP3    H117954   0.518   1.174   0.184
 5999TIP3    H217955   0.543   1.149   0.037
 6000TIP3   OH217956   5.231   3.473   2.863
 6000TIP3    H117957   5.217   3.413   2.937
 6000TIP3    H217958   5.226   3.417   2.786
 6001TIP3   OH217959   3.975   5.767   1.777
 6001TIP3    H117960   4.014   5.721   1.850
 6001TIP3    H217961   3.942   5.849   1.815
 6002TIP3   OH217962   7.271   5.075   1.697
 6002TIP3    H117963   7.269   5.020   1.618
 6002TIP3    H217964   7.320   5.153   1.671
 6003TIP3   OH217965   2.181   4.938   3.201
 6003TIP3    H117966   2.140   4.880   3.265
 6003TIP3    H217967   2.141   5.024   3.218
 6004TIP3   OH217968   6.890   1.883   5.280
 6004TIP3    H117969   6.953   1.815   5.304
 6004TIP3    H217970   6.804   1.844   5.298
 6005TIP3   OH217971   6.045   1.670   6.342
 6005TIP3    H117972   6.119   1.636   6.292
 6005TIP3    H217973   5.972   1.611   6.321
 6006TIP3   OH217974   4.530   2.081   2.315
 6006TIP3    H117975   4.488   2.006   2.275
 6006TIP3    H217976   4.494   2.157   2.269
 6007TIP3   OH217977   3.894   6.824   1.196
 6007TIP3    H117978   3.873   6.734   1.174
 6007TIP3    H217979   3.810   6.869   1.194
 6008TIP3   OH217980   5.849   7.660   1.781
 6008TIP3    H117981   5.780   7.726   1.774
 6008TIP3    H217982   5.837   7.605   1.703
 6009TIP3   OH217983   3.919   6.251   3.573
 6009TIP3    H117984   3.973   6.313   3.524
 6009TIP3    H217985   3.964   6.242   3.657
 6010TIP3   OH217986   1.608   3.035   3.475
 6010TIP3    H117987   1.519   3.052   3.507
 6010TIP3    H217988   1.650   3.121   3.474
 6011TIP3   OH217989   1.322   0.527   2.783
 6011TIP3    H117990   1.376   0.600   2.753
 6011TIP3    H217991   1.358   0.503   2.868
 6012TIP3   OH217992   4.807   0.734   1.011
 6012TIP3    H117993   4.856   0.663   1.054
 6012TIP3    H217994   4.874   0.786   0.966
 6013TIP3   OH217995   7.188   0.187   3.793
 6013TIP3    H117996   7.228   0.142   3.719
 6013TIP3    H217997   7.232   0.272   3.796
 6014TIP3   OH217998   7.058   2.374   0.257
 6014TIP3    H117999   7.002   2.451   0.250
 6014TIP3    H218000   7.027   2.316   0.187
 6015TIP3   OH218001   8.031   2.420   3.534
 6015TIP3    H118002   8.007   2.492   3.592
 6015TIP3    H218003   8.060   2.463   3.454
 6016TIP3   OH218004   6.869   1.177   6.563
 6016TIP3    H118005   6.947   1.147   6.516
 6016TIP3    H218006   6.903   1.223   6.640
 6017TIP3   OH218007   7.563   3.327   5.378
 6017TIP3    H118008   7.574   3.233   5.366
 6017TIP3    H218009   7.476   3.346   5.341
 6018TIP3   OH218010   5.643   4.144   6.537
 6018TIP3    H118011   5.627   4.150   6.631
 6018TIP3    H218012   5.694   4.223   6.516
 6019TIP3   OH218013   1.941   6.533   4.303
 6019TIP3    H118014   1.885   6.550   4.227
 6019TIP3    H218015   2.028   6.522   4.267
 6020TIP3   OH218016   0.340   7.512   4.010
 6020TIP3    H118017   0.299   7.568   3.944
 6020TIP3    H218018   0.302   7.425   3.994
 6021TIP3   OH218019   1.880   0.160   6.132
 6021TIP3    H118020   1.805   0.101   6.129
 6021TIP3    H218021   1.866   0.222   6.061
 6022TIP3   OH218022   6.484   3.745   2.053
 6022TIP3    H118023   6.529   3.732   1.970
 6022TIP3    H218024   6.552   3.733   2.119
 6023TIP3   OH218025   7.817   5.960   0.077
 6023TIP3    H118026   7.819   5.865   0.088
 6023TIP3    H218027   7.860   5.994   0.156
 6024TIP3   OH218028   1.216   2.878   3.286
 6024TIP3    H118029   1.267   2.951   3.252
 6024TIP3    H218030   1.129   2.915   3.301
 6025TIP3   OH218031   0.617   2.957   4.165
 6025TIP3    H118032   0.627   2.862   4.156
 6025TIP3    H218033   0.691   2.984   4.219
 6026TIP3   OH218034   2.255   7.150   2.856
 6026TIP3    H118035   2.314   7.164   2.930
 6026TIP3    H218036   2.219   7.063   2.871
 6027TIP3   OH218037   3.570   5.587   4.282
 6027TIP3    H118038   3.571   5.512   4.223
 6027TIP3    H218039   3.660   5.593   4.315
 6028TIP3   OH218040   1.125   5.014   0.320
 6028TIP3    H118041   1.131   4.931   0.273
 6028TIP3    H218042   1.145   4.992   0.411
 6029TIP3   OH218043   8.082   4.615   5.188
 6029TIP3    H118044   7.998   4.569   5.187
 6029TIP3    H218045   8.068   4.690   5.130
 6030TIP3   OH218046   2.175   6.664   2.034
 6030TIP3    H118047   2.103   6.643   2.093
 6030TIP3    H218048   2.229   6.726   2.084
 6031TIP3   OH218049   1.427   5.631   1.584
 6031TIP3    H118050   1.490   5.563   1.611
 6031TIP3    H218051   1.347   5.583   1.563
 6032TIP3   OH218052   2.979   4.997   5.018
 6032TIP3    H118053   3.049   5.006   4.954
 6032TIP3    H218054   3.024   4.981   5.101
 6033TIP3   OH218055   1.303   2.719   2.095
 6033TIP3    H118056   1.303   2.795   2.154
 6033TIP3    H218057   1.347   2.751   2.016
 6034TIP3   OH218058   6.105   1.851   4.569
 6034TIP3    H118059   6.093   1.785   4.500
 6034TIP3    H218060   6.077   1.933   4.528
 6035TIP3   OH218061   5.613   4.109   5.346
 6035TIP3    H118062   5.688   4.081   5.293
 6035TIP3    H218063   5.577   4.183   5.298
 6036TIP3   OH218064   6.237   2.768   0.611
 6036TIP3    H118065   6.213   2.693   0.555
 6036TIP3    H218066   6.206   2.844   0.562
 6037TIP3   OH218067   5.021   2.683   5.796
 6037TIP3    H118068   4.983   2.647   5.876
 6037TIP3    H218069   5.114   2.695   5.817
 6038TIP3   OH218070   4.832   3.541   1.208
 6038TIP3    H118071   4.768   3.567   1.141
 6038TIP3    H218072   4.860   3.454   1.182
 6039TIP3   OH218073   6.977   3.408   1.539
 6039TIP3    H118074   6.904   3.366   1.495
 6039TIP3    H218075   6.961   3.502   1.528
 6040TIP3   OH218076   6.150   3.818   2.037
 6040TIP3    H118077   6.147   3.727   2.007
 6040TIP3    H218078   6.227   3.821   2.094
 6041TIP3   OH218079   0.471   3.533   1.319
 6041TIP3    H118080   0.497   3.457   1.267
 6041TIP3    H218081   0.541   3.545   1.382
 6042TIP3   OH218082   1.975   4.014   1.598
 6042TIP3    H118083   2.039   3.946   1.579
 6042TIP3    H218084   2.026   4.085   1.638
 6043TIP3   OH218085   7.301   5.631   2.974
 6043TIP3    H118086   7.300   5.714   3.023
 6043TIP3    H218087   7.381   5.587   3.004
 6044TIP3   OH218088   3.035   5.333   2.062
 6044TIP3    H118089   2.966   5.295   2.007
 6044TIP3    H218090   3.058   5.415   2.018
 6045TIP3   OH218091   2.139   5.620   2.747
 6045TIP3    H118092   2.115   5.693   2.690
 6045TIP3    H218093   2.106   5.645   2.833
 6046TIP3   OH218094   3.610   4.605   4.050
 6046TIP3    H118095   3.515   4.605   4.041
 6046TIP3    H218096   3.626   4.639   4.138
 6047TIP3   OH218097   7.580   0.989   6.409
 6047TIP3    H118098   7.670   1.017   6.424
 6047TIP3    H218099   7.552   0.952   6.492
 6048TIP3   OH218100   5.424   3.795   1.937
 6048TIP3    H118101   5.455   3.886   1.938
 6048TIP3    H218102   5.439   3.766   1.847
 6049TIP3   OH218103   3.496   5.363   2.778
 6049TIP3    H118104   3.401   5.363   2.777
 6049TIP3    H218105   3.521   5.380   2.687
 6050TIP3   OH218106   1.202   7.368   5.814
 6050TIP3    H118107   1.120   7.417   5.814
 6050TIP3    H218108   1.246   7.393   5.896
 6051TIP3   OH218109   5.933   4.912   3.804
 6051TIP3    H118110   5.908   4.851   3.874
 6051TIP3    H218111   6.023   4.887   3.782
 6052TIP3   OH218112   7.971   0.204   3.123
 6052TIP3    H118113   7.952   0.127   3.177
 6052TIP3    H218114   7.953   0.176   3.033
 6053TIP3   OH218115   5.456   4.407   6.010
 6053TIP3    H118116   5.447   4.337   5.946
 6053TIP3    H218117   5.376   4.402   6.063
 6054TIP3   OH218118   8.290   0.162   6.602
 6054TIP3    H118119   8.249   0.153   6.688
 6054TIP3    H218120   8.216   0.174   6.542
 6055TIP3   OH218121   4.200   4.405   5.827
 6055TIP3    H118122   4.271   4.417   5.890
 6055TIP3    H218123   4.210   4.314   5.799
 6056TIP3   OH218124   4.746   5.780   3.395
 6056TIP3    H118125   4.673   5.739   3.348
 6056TIP3    H218126   4.785   5.839   3.331
 6057TIP3   OH218127   0.147   4.481   6.495
 6057TIP3    H118128   0.119   4.499   6.584
 6057TIP3    H218129   0.211   4.550   6.475
 6058TIP3   OH218130   1.086   0.531   0.081
 6058TIP3    H118131   1.018   0.479   0.123
 6058TIP3    H218132   1.040   0.607   0.044
 6059TIP3   OH218133   6.012   2.303   1.480
 6059TIP3    H118134   6.025   2.378   1.538
 6059TIP3    H218135   6.095   2.255   1.484
 6060TIP3   OH218136   4.427   7.695   1.682
 6060TIP3    H118137   4.350   7.748   1.660
 6060TIP3    H218138   4.391   7.616   1.723
 6061TIP3   OH218139   5.246   3.907   0.183
 6061TIP3    H118140   5.183   3.862   0.239
 6061TIP3    H218141   5.246   3.997   0.215
 6062TIP3   OH218142   6.460   7.766   4.765
 6062TIP3    H118143   6.490   7.812   4.844
 6062TIP3    H218144   6.366   7.782   4.762
 6063TIP3   OH218145   7.121   0.834   2.268
 6063TIP3    H118146   7.046   0.821   2.209
 6063TIP3    H218147   7.090   0.800   2.352
 6064TIP3   OH218148   7.324   1.926   4.308
 6064TIP3    H118149   7.282   1.874   4.240
 6064TIP3    H218150   7.417   1.902   4.302
 6065TIP3   OH218151   2.480   3.104   6.505
 6065TIP3    H118152   2.445   3.089   6.593
 6065TIP3    H218153   2.413   3.070   6.447
 6066TIP3   OH218154   2.347   1.978   5.856
 6066TIP3    H118155   2.278   1.948   5.915
 6066TIP3    H218156   2.308   1.973   5.769
 6067TIP3   OH218157   4.722   3.039   1.341
 6067TIP3    H118158   4.754   3.046   1.431
 6067TIP3    H218159   4.801   3.047   1.287
 6068TIP3   OH218160   0.339   7.308   3.307
 6068TIP3    H118161   0.276   7.277   3.243
 6068TIP3    H218162   0.355   7.400   3.284
 6069TIP3   OH218163   8.166   5.839   5.560
 6069TIP3    H118164   8.125   5.807   5.640
 6069TIP3    H218165   8.203   5.761   5.519
 6070TIP3   OH218166   6.842   7.793   0.491
 6070TIP3    H118167   6.757   7.751   0.488
 6070TIP3    H218168   6.823   7.887   0.486
 6071TIP3   OH218169   2.472   5.271   5.887
 6071TIP3    H118170   2.429   5.234   5.964
 6071TIP3    H218171   2.414   5.249   5.814
 6072TIP3   OH218172   5.010   2.420   4.234
 6072TIP3    H118173   4.999   2.489   4.168
 6072TIP3    H218174   4.947   2.352   4.209
 6073TIP3   OH218175   7.049   0.142   4.589
 6073TIP3    H118176   7.051   0.196   4.510
 6073TIP3    H218177   7.080   0.200   4.659
 6074TIP3   OH218178   2.136   5.825   5.949
 6074TIP3    H118179   2.228   5.834   5.974
 6074TIP3    H218180   2.105   5.914   5.937
 6075TIP3   OH218181   1.588   0.871   4.479
 6075TIP3    H118182   1.616   0.893   4.568
 6075TIP3    H218183   1.665   0.830   4.440
 6076TIP3   OH218184   0.935   1.817   3.601
 6076TIP3    H118185   0.863   1.843   3.543
 6076TIP3    H218186   0.895   1.753   3.660
 6077TIP3   OH218187   0.230   2.846   3.742
 6077TIP3    H118188   0.167   2.774   3.737
 6077TIP3    H218189   0.302   2.818   3.684
 6078TIP3   OH218190   2.337   2.548   4.539
 6078TIP3    H118191   2.271   2.519   4.476
 6078TIP3    H218192   2.419   2.509   4.508
 6079TIP3   OH218193   3.963   1.367   0.621
 6079TIP3    H118194   3.948   1.400   0.710
 6079TIP3    H218195   4.047   1.405   0.595
 6080TIP3   OH218196   7.411   7.539   0.836
 6080TIP3    H118197   7.360   7.461   0.855
 6080TIP3    H218198   7.362   7.584   0.767
 6081TIP3   OH218199   3.983   6.868   4.425
 6081TIP3    H118200   4.021   6.932   4.365
 6081TIP3    H218201   4.036   6.790   4.414
 6082TIP3   OH218202   1.189   6.075   5.514
 6082TIP3    H118203   1.118   6.017   5.487
 6082TIP3    H218204   1.202   6.056   5.607
 6083TIP3   OH218205   3.286   5.294   4.016
 6083TIP3    H118206   3.332   5.376   4.035
 6083TIP3    H218207   3.302   5.279   3.923
 6084TIP3   OH218208   7.856   4.460   5.149
 6084TIP3    H118209   7.826   4.492   5.234
 6084TIP3    H218210   7.776   4.431   5.105
 6085TIP3   OH218211   5.916   1.183   5.688
 6085TIP3    H118212   6.009   1.186   5.666
 6085TIP3    H218213   5.882   1.267   5.656
 6086TIP3   OH218214   2.533   6.621   5.313
 6086TIP3    H118215   2.554   6.528   5.309
 6086TIP3    H218216   2.586   6.654   5.385
 6087TIP3   OH218217   7.917   3.517   6.273
 6087TIP3    H118218   7.849   3.474   6.220
 6087TIP3    H218219   7.933   3.600   6.229
 6088TIP3   OH218220   5.176   5.979   2.440
 6088TIP3    H118221   5.085   6.008   2.427
 6088TIP3    H218222   5.228   6.056   2.418
 6089TIP3   OH218223   0.774   7.133   6.737
 6089TIP3    H118224   0.723   7.056   6.763
 6089TIP3    H218225   0.857   7.097   6.705
 6090TIP3   OH218226   7.942   1.276   4.500
 6090TIP3    H118227   7.942   1.307   4.591
 6090TIP3    H218228   7.936   1.355   4.448
 6091TIP3   OH218229   4.991   3.215   4.957
 6091TIP3    H118230   4.953   3.254   4.878
 6091TIP3    H218231   5.069   3.268   4.974
 6092TIP3   OH218232   2.449   6.931   1.027
 6092TIP3    H118233   2.491   6.969   1.103
 6092TIP3    H218234   2.431   6.840   1.052
 6093TIP3   OH218235   5.639   6.012   1.378
 6093TIP3    H118236   5.662   6.040   1.467
 6093TIP3    H218237   5.559   5.962   1.389
 6094TIP3   OH218238   4.057   4.193   0.437
 6094TIP3    H118239   4.026   4.126   0.498
 6094TIP3    H218240   4.031   4.276   0.478
 6095TIP3   OH218241   3.882   1.459   5.924
 6095TIP3    H118242   3.790   1.445   5.902
 6095TIP3    H218243   3.884   1.464   6.020
 6096TIP3   OH218244   8.011   5.732   5.761
 6096TIP3    H118245   7.979   5.641   5.762
 6096TIP3    H218246   7.945   5.781   5.811
 6097TIP3   OH218247   8.031   6.285   4.786
 6097TIP3    H118248   7.946   6.261   4.823
 6097TIP3    H218249   8.095   6.241   4.842
 6098TIP3   OH218250   0.441   7.472   2.544
 6098TIP3    H118251   0.529   7.508   2.560
 6098TIP3    H218252   0.424   7.488   2.452
 6099TIP3   OH218253   1.235   6.029   4.817
 6099TIP3    H118254   1.206   6.068   4.899
 6099TIP3    H218255   1.205   6.090   4.749
 6100TIP3   OH218256   1.246   4.828   4.793
 6100TIP3    H118257   1.191   4.829   4.871
 6100TIP3    H218258   1.190   4.860   4.723
 6101TIP3   OH218259   7.149   7.763   1.442
 6101TIP3    H118260   7.081   7.809   1.392
 6101TIP3    H218261   7.104   7.685   1.476
 6102TIP3   OH218262   0.484   7.365   1.099
 6102TIP3    H118263   0.426   7.313   1.044
 6102TIP3    H218264   0.459   7.456   1.081
 6103TIP3   OH218265   5.472   4.635   0.478
 6103TIP3    H118266   5.421   4.637   0.559
 6103TIP3    H218267   5.460   4.546   0.444
 6104TIP3   OH218268   0.674   0.902   3.022
 6104TIP3    H118269   0.724   0.962   3.078
 6104TIP3    H218270   0.599   0.876   3.076
 6105TIP3   OH218271   6.272   6.044   0.084
 6105TIP3    H118272   6.277   5.948   0.074
 6105TIP3    H218273   6.181   6.060   0.110
 6106TIP3   OH218274   4.013   6.020   1.285
 6106TIP3    H118275   4.012   5.971   1.202
 6106TIP3    H218276   4.051   5.959   1.348
 6107TIP3   OH218277   5.364   3.574   5.042
 6107TIP3    H118278   5.424   3.648   5.051
 6107TIP3    H218279   5.402   3.504   5.094
 6108TIP3   OH218280   0.452   1.843   2.678
 6108TIP3    H118281   0.479   1.761   2.720
 6108TIP3    H218282   0.403   1.890   2.746
 6109TIP3   OH218283   7.396   0.431   0.813
 6109TIP3    H118284   7.307   0.409   0.788
 6109TIP3    H218285   7.396   0.429   0.909
 6110TIP3   OH218286   4.103   2.592   4.386
 6110TIP3    H118287   4.068   2.646   4.315
 6110TIP3    H218288   4.033   2.529   4.404
 6111TIP3   OH218289   2.062   1.396   6.768
 6111TIP3    H118290   2.097   1.326   6.712
 6111TIP3    H218291   2.005   1.350   6.829
 6112TIP3   OH218292   4.479   5.416   5.461
 6112TIP3    H118293   4.532   5.338   5.478
 6112TIP3    H218294   4.487   5.469   5.540
 6113TIP3   OH218295   1.831   6.313   4.397
 6113TIP3    H118296   1.745   6.352   4.417
 6113TIP3    H218297   1.877   6.381   4.349
 6114TIP3   OH218298   3.787   1.201   1.712
 6114TIP3    H118299   3.875   1.166   1.730
 6114TIP3    H218300   3.788   1.223   1.619
 6115TIP3   OH218301   5.472   5.674   1.566
 6115TIP3    H118302   5.459   5.744   1.502
 6115TIP3    H218303   5.402   5.611   1.548
 6116TIP3   OH218304   1.993   1.962   4.643
 6116TIP3    H118305   1.902   1.977   4.670
 6116TIP3    H218306   1.987   1.897   4.573
 6117TIP3   OH218307   5.532   5.643   0.036
 6117TIP3    H118308   5.513   5.608   0.122
 6117TIP3    H218309   5.509   5.736   0.042
 6118TIP3   OH218310   4.177   7.371   6.440
 6118TIP3    H118311   4.103   7.347   6.496
 6118TIP3    H218312   4.145   7.447   6.390
 6119TIP3   OH218313   6.298   2.939   1.551
 6119TIP3    H118314   6.308   2.933   1.646
 6119TIP3    H218315   6.250   3.021   1.537
 6120TIP3   OH218316   1.795   1.294   3.874
 6120TIP3    H118317   1.793   1.216   3.929
 6120TIP3    H218318   1.746   1.359   3.923
 6121TIP3   OH218319   6.599   1.758   3.325
 6121TIP3    H118320   6.641   1.838   3.293
 6121TIP3    H218321   6.619   1.756   3.419
 6122TIP3   OH218322   7.470   3.740   4.682
 6122TIP3    H118323   7.504   3.761   4.595
 6122TIP3    H218324   7.544   3.755   4.741
 6123TIP3   OH218325   6.861   0.293   5.301
 6123TIP3    H118326   6.872   0.208   5.343
 6123TIP3    H218327   6.928   0.348   5.342
 6124TIP3   OH218328   4.834   7.661   0.625
 6124TIP3    H118329   4.792   7.699   0.547
 6124TIP3    H218330   4.923   7.641   0.596
 6125TIP3   OH218331   1.472   5.689   5.116
 6125TIP3    H118332   1.543   5.668   5.055
 6125TIP3    H218333   1.433   5.769   5.081
 6126TIP3   OH218334   5.033   1.636   1.448
 6126TIP3    H118335   5.078   1.557   1.478
 6126TIP3    H218336   5.081   1.708   1.489
 6127TIP3   OH218337   6.037   0.311   2.558
 6127TIP3    H118338   6.011   0.248   2.625
 6127TIP3    H218339   6.046   0.258   2.478
 6128TIP3   OH218340   3.256   3.519   1.073
 6128TIP3    H118341   3.263   3.488   1.164
 6128TIP3    H218342   3.204   3.599   1.079
 6129TIP3   OH218343   7.425   3.777   4.106
 6129TIP3    H118344   7.359   3.826   4.057
 6129TIP3    H218345   7.477   3.733   4.039
 6130TIP3   OH218346   6.504   7.440   0.625
 6130TIP3    H118347   6.509   7.346   0.645
 6130TIP3    H218348   6.560   7.482   0.690
 6131TIP3   OH218349   7.927   0.611   4.302
 6131TIP3    H118350   7.985   0.670   4.253
 6131TIP3    H218351   7.986   0.542   4.333
 6132TIP3   OH218352   1.491   2.672   3.223
 6132TIP3    H118353   1.548   2.748   3.218
 6132TIP3    H218354   1.419   2.692   3.163
 6133TIP3   OH218355   3.403   1.199   1.003
 6133TIP3    H118356   3.359   1.274   1.042
 6133TIP3    H218357   3.334   1.154   0.954
 6134TIP3   OH218358   6.469   3.226   2.966
 6134TIP3    H118359   6.507   3.286   3.030
 6134TIP3    H218360   6.501   3.257   2.882
 6135TIP3   OH218361   7.016   6.234   3.679
 6135TIP3    H118362   6.972   6.249   3.763
 6135TIP3    H218363   7.095   6.185   3.702
 6136TIP3   OH218364   3.244   0.113   6.487
 6136TIP3    H118365   3.325   0.140   6.530
 6136TIP3    H218366   3.256   0.020   6.469
 6137TIP3   OH218367   5.564   5.270   3.016
 6137TIP3    H118368   5.612   5.303   2.939
 6137TIP3    H218369   5.627   5.213   3.060
 6138TIP3   OH218370   0.384   5.055   5.748
 6138TIP3    H118371   0.386   4.966   5.783
 6138TIP3    H218372   0.444   5.104   5.803
 6139TIP3   OH218373   3.890   3.279   5.069
 6139TIP3    H118374   3.918   3.211   5.007
 6139TIP3    H218375   3.797   3.259   5.085
 6140TIP3   OH218376   6.670   4.502   2.628
 6140TIP3    H118377   6.656   4.441   2.556
 6140TIP3    H218378   6.586   4.506   2.673
 6141TIP3   OH218379   2.726   3.383   0.051
 6141TIP3    H118380   2.708   3.355   0.141
 6141TIP3    H218381   2.661   3.337  -0.002
 6142TIP3   OH218382   7.346   1.099   3.956
 6142TIP3    H118383   7.318   1.184   3.922
 6142TIP3    H218384   7.266   1.046   3.957
 6143TIP3   OH218385   2.701   1.895   0.178
 6143TIP3    H118386   2.747   1.927   0.256
 6143TIP3    H218387   2.647   1.822   0.210
 6144TIP3   OH218388   2.866   1.550   1.649
 6144TIP3    H118389   2.909   1.466   1.633
 6144TIP3    H218390   2.938   1.612   1.659
 6145TIP3   OH218391   1.134   7.726   4.681
 6145TIP3    H118392   1.043   7.705   4.664
 6145TIP3    H218393   1.139   7.739   4.776
 6146TIP3   OH218394   2.144   0.211   5.654
 6146TIP3    H118395   2.202   0.275   5.611
 6146TIP3    H218396   2.156   0.228   5.748
 6147TIP3   OH218397   8.234   0.463   4.794
 6147TIP3    H118398   8.253   0.370   4.787
 6147TIP3    H218399   8.160   0.478   4.735
 6148TIP3   OH218400   4.407   1.007   0.758
 6148TIP3    H118401   4.390   0.999   0.852
 6148TIP3    H218402   4.423   1.100   0.744
 6149TIP3   OH218403   6.298   3.473   4.458
 6149TIP3    H118404   6.335   3.447   4.374
 6149TIP3    H218405   6.212   3.432   4.460
 6150TIP3   OH218406   8.018   4.742   1.629
 6150TIP3    H118407   8.023   4.713   1.720
 6150TIP3    H218408   8.002   4.663   1.578
 6151TIP3   OH218409   1.170   1.139   3.431
 6151TIP3    H118410   1.173   1.165   3.339
 6151TIP3    H218411   1.087   1.092   3.439
 6152TIP3   OH218412   0.762   5.441   0.579
 6152TIP3    H118413   0.773   5.439   0.674
 6152TIP3    H218414   0.823   5.509   0.549
 6153TIP3   OH218415   3.313   5.896   3.822
 6153TIP3    H118416   3.351   5.875   3.907
 6153TIP3    H218417   3.221   5.916   3.840
 6154TIP3   OH218418   3.982   0.970   1.884
 6154TIP3    H118419   4.046   0.970   1.955
 6154TIP3    H218420   4.011   1.041   1.826
 6155TIP3   OH218421   7.857   5.705   6.678
 6155TIP3    H118422   7.875   5.796   6.656
 6155TIP3    H218423   7.808   5.672   6.602
 6156TIP3   OH218424   6.795   5.746   1.157
 6156TIP3    H118425   6.867   5.685   1.169
 6156TIP3    H218426   6.767   5.734   1.066
 6157TIP3   OH218427   5.267   7.165   5.805
 6157TIP3    H118428   5.241   7.228   5.738
 6157TIP3    H218429   5.245   7.079   5.768
 6158TIP3   OH218430   6.703   6.327   5.228
 6158TIP3    H118431   6.684   6.279   5.147
 6158TIP3    H218432   6.617   6.347   5.265
 6159TIP3   OH218433   3.265   6.571   6.096
 6159TIP3    H118434   3.187   6.519   6.116
 6159TIP3    H218435   3.239   6.662   6.111
 6160TIP3   OH218436   1.442   2.867   2.313
 6160TIP3    H118437   1.480   2.782   2.335
 6160TIP3    H218438   1.516   2.927   2.311
 6161TIP3   OH218439   4.976   1.522   4.324
 6161TIP3    H118440   4.984   1.556   4.413
 6161TIP3    H218441   4.898   1.466   4.327
 6162TIP3   OH218442   4.256   5.274   0.699
 6162TIP3    H118443   4.334   5.267   0.754
 6162TIP3    H218444   4.270   5.210   0.630
 6163TIP3   OH218445   5.213   2.786   4.358
 6163TIP3    H118446   5.184   2.788   4.267
 6163TIP3    H218447   5.139   2.748   4.405
 6164TIP3   OH218448   5.769   7.490   1.576
 6164TIP3    H118449   5.699   7.429   1.552
 6164TIP3    H218450   5.846   7.457   1.531
 6165TIP3   OH218451   4.497   1.509   5.125
 6165TIP3    H118452   4.433   1.573   5.095
 6165TIP3    H218453   4.453   1.425   5.116
 6166TIP3   OH218454   1.029   5.285   3.846
 6166TIP3    H118455   0.947   5.235   3.846
 6166TIP3    H218456   1.097   5.221   3.828
 6167TIP3   OH218457   1.630   3.246   6.503
 6167TIP3    H118458   1.706   3.198   6.535
 6167TIP3    H218459   1.655   3.338   6.510
 6168TIP3   OH218460   6.774   4.534   2.221
 6168TIP3    H118461   6.696   4.590   2.228
 6168TIP3    H218462   6.763   4.488   2.138
 6169TIP3   OH218463   1.910   0.876   1.382
 6169TIP3    H118464   1.956   0.810   1.332
 6169TIP3    H218465   1.882   0.940   1.317
 6170TIP3   OH218466   5.741   4.774   0.116
 6170TIP3    H118467   5.674   4.811   0.174
 6170TIP3    H218468   5.775   4.698   0.164
 6171TIP3   OH218469   0.632   7.062   5.751
 6171TIP3    H118470   0.636   7.088   5.843
 6171TIP3    H218471   0.541   7.078   5.726
 6172TIP3   OH218472   5.152   7.209   0.049
 6172TIP3    H118473   5.176   7.143   0.114
 6172TIP3    H218474   5.057   7.220   0.061
 6173TIP3   OH218475   6.941   0.493   0.956
 6173TIP3    H118476   6.896   0.484   1.040
 6173TIP3    H218477   6.873   0.527   0.897
 6174TIP3   OH218478   4.062   2.775   1.591
 6174TIP3    H118479   4.144   2.795   1.635
 6174TIP3    H218480   4.087   2.756   1.501
 6175TIP3   OH218481   5.263   0.927   2.862
 6175TIP3    H118482   5.186   0.870   2.862
 6175TIP3    H218483   5.274   0.952   2.770
 6176TIP3   OH218484   0.810   6.992   3.655
 6176TIP3    H118485   0.770   7.035   3.580
 6176TIP3    H218486   0.779   7.043   3.731
 6177TIP3   OH218487   4.058   5.926   3.057
 6177TIP3    H118488   4.133   5.954   3.004
 6177TIP3    H218489   4.050   5.993   3.125
 6178TIP3   OH218490   2.716   2.218   4.175
 6178TIP3    H118491   2.663   2.166   4.236
 6178TIP3    H218492   2.675   2.202   4.090
 6179TIP3   OH218493   1.759   1.076   6.577
 6179TIP3    H118494   1.791   0.998   6.532
 6179TIP3    H218495   1.674   1.093   6.537
 6180TIP3   OH218496   1.855   3.182   3.206
 6180TIP3    H118497   1.763   3.164   3.187
 6180TIP3    H218498   1.900   3.169   3.123
 6181TIP3   OH218499   0.461   5.894   1.509
 6181TIP3    H118500   0.457   5.966   1.446
 6181TIP3    H218501   0.529   5.921   1.571
 6182TIP3   OH218502   0.999   3.281   3.141
 6182TIP3    H118503   0.960   3.329   3.214
 6182TIP3    H218504   0.924   3.249   3.090
 6183TIP3   OH218505   5.947   4.261   2.825
 6183TIP3    H118506   5.858   4.260   2.791
 6183TIP3    H218507   5.985   4.178   2.796
 6184TIP3   OH218508   1.945   7.181   3.748
 6184TIP3    H118509   1.863   7.168   3.701
 6184TIP3    H218510   2.006   7.214   3.682
 6185TIP3   OH218511   7.888   6.195   1.248
 6185TIP3    H118512   7.921   6.275   1.289
 6185TIP3    H218513   7.882   6.132   1.320
 6186TIP3   OH218514   3.596   3.459   4.563
 6186TIP3    H118515   3.635   3.487   4.646
 6186TIP3    H218516   3.643   3.379   4.540
 6187TIP3   OH218517   0.011   1.776   4.152
 6187TIP3    H118518   0.003   1.684   4.128
 6187TIP3    H218519   0.066   1.814   4.084
 6188TIP3   OH218520   1.868   2.083   0.579
 6188TIP3    H118521   1.920   2.093   0.499
 6188TIP3    H218522   1.781   2.113   0.555
 6189TIP3   OH218523   6.027   3.546   3.943
 6189TIP3    H118524   6.014   3.575   4.033
 6189TIP3    H218525   5.975   3.607   3.891
 6190TIP3   OH218526   3.562   1.452   1.938
 6190TIP3    H118527   3.606   1.509   1.874
 6190TIP3    H218528   3.538   1.511   2.010
 6191TIP3   OH218529   7.380   1.588   1.225
 6191TIP3    H118530   7.289   1.577   1.251
 6191TIP3    H218531   7.424   1.510   1.259
 6192TIP3   OH218532   0.907   2.746   2.290
 6192TIP3    H118533   0.828   2.697   2.269
 6192TIP3    H218534   0.978   2.684   2.272
 6193TIP3   OH218535   5.434   7.422   5.836
 6193TIP3    H118536   5.353   7.389   5.798
 6193TIP3    H218537   5.503   7.384   5.781
 6194TIP3   OH218538   5.226   3.875   2.109
 6194TIP3    H118539   5.273   3.934   2.168
 6194TIP3    H218540   5.293   3.845   2.048
 6195TIP3   OH218541   4.702   0.797   6.089
 6195TIP3    H118542   4.711   0.743   6.011
 6195TIP3    H218543   4.775   0.859   6.084
 6196TIP3   OH218544   5.987   1.354   3.390
 6196TIP3    H118545   5.937   1.274   3.376
 6196TIP3    H218546   5.931   1.409   3.445
 6197TIP3   OH218547   0.274   1.585   0.401
 6197TIP3    H118548   0.276   1.659   0.340
 6197TIP3    H218549   0.181   1.571   0.418
 6198TIP3   OH218550   7.666   3.143   5.150
 6198TIP3    H118551   7.611   3.066   5.132
 6198TIP3    H218552   7.754   3.107   5.164
 6199TIP3   OH218553   4.517   3.955   3.969
 6199TIP3    H118554   4.599   3.970   4.016
 6199TIP3    H218555   4.533   3.987   3.881
 6200TIP3   OH218556   2.534   2.578   5.156
 6200TIP3    H118557   2.626   2.592   5.178
 6200TIP3    H218558   2.522   2.484   5.161
 6201TIP3   OH218559   0.835   7.668   5.471
 6201TIP3    H118560   0.927   7.684   5.490
 6201TIP3    H218561   0.788   7.743   5.507
 6202TIP3   OH218562   6.452   3.733   5.679
 6202TIP3    H118563   6.362   3.706   5.696
 6202TIP3    H218564   6.469   3.804   5.741
 6203TIP3   OH218565   3.525   1.426   1.542
 6203TIP3    H118566   3.599   1.478   1.512
 6203TIP3    H218567   3.560   1.376   1.616
 6204TIP3   OH218568   2.408   3.388   5.112
 6204TIP3    H118569   2.494   3.419   5.139
 6204TIP3    H218570   2.416   3.293   5.108
 6205TIP3   OH218571   0.359   4.653   3.053
 6205TIP3    H118572   0.317   4.710   2.988
 6205TIP3    H218573   0.396   4.581   3.002
 6206TIP3   OH218574   0.191   2.535   5.972
 6206TIP3    H118575   0.242   2.597   5.921
 6206TIP3    H218576   0.179   2.460   5.914
 6207TIP3   OH218577   5.586   0.116   1.166
 6207TIP3    H118578   5.588   0.031   1.121
 6207TIP3    H218579   5.670   0.157   1.144
 6208TIP3   OH218580   7.719   0.564   5.676
 6208TIP3    H118581   7.685   0.540   5.589
 6208TIP3    H218582   7.656   0.629   5.708
 6209TIP3   OH218583   2.288   5.369   6.491
 6209TIP3    H118584   2.341   5.424   6.434
 6209TIP3    H218585   2.265   5.294   6.436
 6210TIP3   OH218586   3.071   1.850   5.676
 6210TIP3    H118587   3.145   1.791   5.687
 6210TIP3    H218588   3.062   1.860   5.581
 6211TIP3   OH218589   7.928   4.290   3.820
 6211TIP3    H118590   7.956   4.259   3.734
 6211TIP3    H218591   7.873   4.219   3.854
 6212TIP3   OH218592   0.606   3.609   3.114
 6212TIP3    H118593   0.611   3.700   3.142
 6212TIP3    H218594   0.593   3.614   3.019
 6213TIP3   OH218595   3.701   5.774   6.631
 6213TIP3    H118596   3.718   5.679   6.633
 6213TIP3    H218597   3.748   5.808   6.706
 6214TIP3   OH218598   5.693   6.233   3.764
 6214TIP3    H118599   5.623   6.186   3.809
 6214TIP3    H218600   5.706   6.185   3.683
 6215TIP3   OH218601   2.688   6.017   5.239
 6215TIP3    H118602   2.765   5.974   5.277
 6215TIP3    H218603   2.689   6.105   5.277
 6216TIP3   OH218604   3.549   0.930   1.160
 6216TIP3    H118605   3.549   1.002   1.096
 6216TIP3    H218606   3.459   0.928   1.193
 6217TIP3   OH218607   1.863   6.457   5.772
 6217TIP3    H118608   1.828   6.372   5.798
 6217TIP3    H218609   1.914   6.440   5.693
 6218TIP3   OH218610   4.546   4.650   5.750
 6218TIP3    H118611   4.543   4.567   5.702
 6218TIP3    H218612   4.632   4.687   5.729
 6219TIP3   OH218613   7.998   6.326   6.380
 6219TIP3    H118614   7.984   6.328   6.474
 6219TIP3    H218615   8.091   6.345   6.369
 6220TIP3   OH218616   8.113   0.619   1.738
 6220TIP3    H118617   8.139   0.558   1.669
 6220TIP3    H218618   8.034   0.661   1.704
 6221TIP3   OH218619   5.973   5.051   3.561
 6221TIP3    H118620   5.962   4.996   3.639
 6221TIP3    H218621   6.004   4.991   3.494
 6222TIP3   OH218622   1.059   1.992   4.343
 6222TIP3    H118623   1.100   1.927   4.400
 6222TIP3    H218624   0.965   1.977   4.354
 6223TIP3   OH218625   1.491   1.618   1.926
 6223TIP3    H118626   1.520   1.623   2.017
 6223TIP3    H218627   1.443   1.699   1.912
 6224TIP3   OH218628   3.116   1.152   1.273
 6224TIP3    H118629   3.134   1.062   1.298
 6224TIP3    H218630   3.059   1.185   1.342
 6225TIP3   OH218631   1.936   3.009   2.655
 6225TIP3    H118632   1.995   3.084   2.665
 6225TIP3    H218633   1.959   2.950   2.727
 6226TIP3   OH218634   0.059   0.709   1.488
 6226TIP3    H118635   0.111   0.633   1.463
 6226TIP3    H218636   0.085   0.726   1.579
 6227TIP3   OH218637   3.279   7.286   6.087
 6227TIP3    H118638   3.361   7.278   6.135
 6227TIP3    H218639   3.302   7.267   5.996
 6228TIP3   OH218640   4.839   7.288   4.642
 6228TIP3    H118641   4.756   7.251   4.672
 6228TIP3    H218642   4.876   7.221   4.585
 6229TIP3   OH218643   7.908   6.949   0.594
 6229TIP3    H118644   7.971   6.902   0.538
 6229TIP3    H218645   7.951   6.953   0.680
 6230TIP3   OH218646   8.172   5.251   4.557
 6230TIP3    H118647   8.248   5.276   4.609
 6230TIP3    H218648   8.154   5.328   4.502
 6231TIP3   OH218649   0.322   1.166   0.526
 6231TIP3    H118650   0.246   1.200   0.573
 6231TIP3    H218651   0.334   1.077   0.560
 6232TIP3   OH218652   0.403   6.813   5.988
 6232TIP3    H118653   0.381   6.776   6.073
 6232TIP3    H218654   0.483   6.864   6.003
 6233TIP3   OH218655   5.245   1.223   5.565
 6233TIP3    H118656   5.226   1.310   5.599
 6233TIP3    H218657   5.325   1.197   5.610
 6234TIP3   OH218658   6.731   2.262   2.602
 6234TIP3    H118659   6.764   2.340   2.646
 6234TIP3    H218660   6.783   2.190   2.636
 6235TIP3   OH218661   4.530   1.490   5.976
 6235TIP3    H118662   4.535   1.432   5.901
 6235TIP3    H218663   4.536   1.432   6.052
 6236TIP3   OH218664   2.155   3.230   1.434
 6236TIP3    H118665   2.215   3.291   1.392
 6236TIP3    H218666   2.107   3.189   1.361
 6237TIP3   OH218667   6.618   2.860   6.634
 6237TIP3    H118668   6.643   2.795   6.701
 6237TIP3    H218669   6.534   2.894   6.664
 6238TIP3   OH218670   3.652   4.329   4.087
 6238TIP3    H118671   3.661   4.351   3.994
 6238TIP3    H218672   3.642   4.414   4.130
 6239TIP3   OH218673   6.886   0.522   4.506
 6239TIP3    H118674   6.835   0.551   4.431
 6239TIP3    H218675   6.825   0.523   4.579
 6240TIP3   OH218676   6.058   7.143   5.022
 6240TIP3    H118677   6.153   7.149   5.014
 6240TIP3    H218678   6.027   7.232   5.009
 6241TIP3   OH218679   5.136   2.136   5.642
 6241TIP3    H118680   5.145   2.121   5.736
 6241TIP3    H218681   5.189   2.214   5.625
 6242TIP3   OH218682   5.239   2.373   5.580
 6242TIP3    H118683   5.148   2.399   5.568
 6242TIP3    H218684   5.283   2.403   5.500
 6243TIP3   OH218685   7.160   4.458   5.833
 6243TIP3    H118686   7.094   4.394   5.808
 6243TIP3    H218687   7.137   4.537   5.783
 6244TIP3   OH218688   7.996   7.597   2.572
 6244TIP3    H118689   7.919   7.601   2.629
 6244TIP3    H218690   7.981   7.520   2.517
 6245TIP3   OH218691   3.314   6.580   5.843
 6245TIP3    H118692   3.296   6.604   5.934
 6245TIP3    H218693   3.326   6.485   5.845
 6246TIP3   OH218694   4.177   1.685   3.531
 6246TIP3    H118695   4.241   1.755   3.545
 6246TIP3    H218696   4.094   1.731   3.516
 6247TIP3   OH218697   4.981   2.891   3.790
 6247TIP3    H118698   4.944   2.961   3.735
 6247TIP3    H218699   5.073   2.886   3.763
 6248TIP3   OH218700   5.458   2.179   1.157
 6248TIP3    H118701   5.446   2.243   1.227
 6248TIP3    H218702   5.422   2.221   1.079
 6249TIP3   OH218703   3.220   5.813   1.512
 6249TIP3    H118704   3.283   5.812   1.441
 6249TIP3    H218705   3.189   5.904   1.516
 6250TIP3   OH218706   7.697   1.569   4.778
 6250TIP3    H118707   7.624   1.563   4.840
 6250TIP3    H218708   7.726   1.478   4.767
 6251TIP3   OH218709   2.906   7.646   6.215
 6251TIP3    H118710   2.846   7.591   6.166
 6251TIP3    H218711   2.993   7.618   6.187
 6252TIP3   OH218712   0.981   4.307   0.727
 6252TIP3    H118713   0.948   4.301   0.817
 6252TIP3    H218714   0.950   4.227   0.685
 6253TIP3   OH218715   1.732   3.541   4.926
 6253TIP3    H118716   1.704   3.466   4.978
 6253TIP3    H218717   1.709   3.519   4.836
 6254TIP3   OH218718   6.926   0.000   2.798
 6254TIP3    H118719   7.002   0.023   2.850
 6254TIP3    H218720   6.934   0.052   2.718
 6255TIP3   OH218721   3.520   6.461   1.098
 6255TIP3    H118722   3.542   6.530   1.036
 6255TIP3    H218723   3.602   6.412   1.109
 6256TIP3   OH218724   2.038   0.917   2.440
 6256TIP3    H118725   2.111   0.977   2.457
 6256TIP3    H218726   2.077   0.846   2.388
 6257TIP3   OH218727   1.414   0.521   5.629
 6257TIP3    H118728   1.365   0.498   5.550
 6257TIP3    H218729   1.397   0.449   5.690
 6258TIP3   OH218730   0.373   4.343   6.640
 6258TIP3    H118731   0.393   4.428   6.601
 6258TIP3    H218732   0.451   4.290   6.626
 6259TIP3   OH218733   5.073   5.251   4.272
 6259TIP3    H118734   5.012   5.186   4.237
 6259TIP3    H218735   5.066   5.326   4.213
 6260TIP3   OH218736   2.598   6.991   4.538
 6260TIP3    H118737   2.649   6.964   4.614
 6260TIP3    H218738   2.654   6.971   4.463
 6261TIP3   OH218739   3.750   4.804   3.532
 6261TIP3    H118740   3.822   4.867   3.528
 6261TIP3    H218741   3.743   4.781   3.625
 6262TIP3   OH218742   8.100   0.146   0.361
 6262TIP3    H118743   8.021   0.146   0.415
 6262TIP3    H218744   8.155   0.214   0.400
 6263TIP3   OH218745   6.102   0.379   5.745
 6263TIP3    H118746   6.009   0.365   5.760
 6263TIP3    H218747   6.107   0.440   5.672
 6264TIP3   OH218748   8.237   4.675   4.085
 6264TIP3    H118749   8.200   4.635   4.006
 6264TIP3    H218750   8.233   4.606   4.151
 6265TIP3   OH218751   5.902   2.722   2.430
 6265TIP3    H118752   5.975   2.766   2.473
 6265TIP3    H218753   5.833   2.720   2.496
 6266TIP3   OH218754   6.559   3.362   3.416
 6266TIP3    H118755   6.520   3.277   3.432
 6266TIP3    H218756   6.562   3.370   3.321
 6267TIP3   OH218757   6.935   2.111   0.427
 6267TIP3    H118758   6.970   2.178   0.368
 6267TIP3    H218759   6.924   2.157   0.511
 6268TIP3   OH218760   1.629   5.067   5.518
 6268TIP3    H118761   1.621   5.056   5.613
 6268TIP3    H218762   1.610   5.160   5.504
 6269TIP3   OH218763   3.419   3.201   1.816
 6269TIP3    H118764   3.490   3.181   1.756
 6269TIP3    H218765   3.461   3.216   1.900
 6270TIP3   OH218766   2.855   0.476   1.388
 6270TIP3    H118767   2.877   0.436   1.472
 6270TIP3    H218768   2.885   0.414   1.322
 6271TIP3   OH218769   5.358   1.195   6.562
 6271TIP3    H118770   5.284   1.250   6.589
 6271TIP3    H218771   5.331   1.106   6.585
 6272TIP3   OH218772   4.894   0.577   5.341
 6272TIP3    H118773   4.834   0.589   5.268
 6272TIP3    H218774   4.851   0.513   5.397
 6273TIP3   OH218775   0.402   0.937   5.719
 6273TIP3    H118776   0.429   1.002   5.785
 6273TIP3    H218777   0.374   0.990   5.644
 6274TIP3   OH218778   7.803   6.817   5.179
 6274TIP3    H118779   7.787   6.728   5.148
 6274TIP3    H218780   7.723   6.839   5.228
 6275TIP3   OH218781   0.966   5.656   2.760
 6275TIP3    H118782   1.011   5.691   2.683
 6275TIP3    H218783   1.022   5.585   2.791
 6276TIP3   OH218784   2.333   2.724   2.046
 6276TIP3    H118785   2.299   2.781   1.977
 6276TIP3    H218786   2.365   2.646   2.000
 6277TIP3   OH218787   3.697   4.569   2.553
 6277TIP3    H118788   3.661   4.657   2.562
 6277TIP3    H218789   3.623   4.511   2.573
 6278TIP3   OH218790   3.135   3.493   3.648
 6278TIP3    H118791   3.178   3.544   3.579
 6278TIP3    H218792   3.137   3.549   3.725
 6279TIP3   OH218793   4.954   6.941   1.964
 6279TIP3    H118794   4.995   6.915   2.046
 6279TIP3    H218795   4.860   6.939   1.983
 6280TIP3   OH218796   6.795   4.626   1.670
 6280TIP3    H118797   6.764   4.542   1.638
 6280TIP3    H218798   6.783   4.622   1.765
 6281TIP3   OH218799   3.896   6.988   0.602
 6281TIP3    H118800   3.876   6.917   0.540
 6281TIP3    H218801   3.946   6.945   0.672
 6282TIP3   OH218802   0.290   3.248   5.918
 6282TIP3    H118803   0.276   3.226   5.826
 6282TIP3    H218804   0.245   3.332   5.930
 6283TIP3   OH218805   1.108   1.421   2.218
 6283TIP3    H118806   1.129   1.509   2.249
 6283TIP3    H218807   1.077   1.375   2.296
 6284TIP3   OH218808   8.317   0.790   1.867
 6284TIP3    H118809   8.282   0.871   1.904
 6284TIP3    H218810   8.239   0.742   1.838
 6285TIP3   OH218811   2.892   5.499   5.460
 6285TIP3    H118812   2.853   5.426   5.411
 6285TIP3    H218813   2.908   5.464   5.548
 6286TIP3   OH218814   7.864   0.704   2.178
 6286TIP3    H118815   7.864   0.650   2.257
 6286TIP3    H218816   7.954   0.737   2.171
 6287TIP3   OH218817   7.678   6.537   5.406
 6287TIP3    H118818   7.741   6.525   5.334
 6287TIP3    H218819   7.608   6.589   5.368
 6288TIP3   OH218820   0.785   0.340   1.521
 6288TIP3    H118821   0.810   0.402   1.452
 6288TIP3    H218822   0.705   0.299   1.489
 6289TIP3   OH218823   0.078   2.896   6.684
 6289TIP3    H118824   0.096   2.969   6.625
 6289TIP3    H218825   0.156   2.892   6.740
 6290TIP3   OH218826   7.869   0.514   1.950
 6290TIP3    H118827   7.909   0.574   2.013
 6290TIP3    H218828   7.820   0.571   1.891
 6291TIP3   OH218829   7.324   0.270   4.915
 6291TIP3    H118830   7.253   0.243   4.973
 6291TIP3    H218831   7.328   0.202   4.848
 6292TIP3   OH218832   7.710   7.725   4.129
 6292TIP3    H118833   7.755   7.738   4.212
 6292TIP3    H218834   7.778   7.734   4.062
 6293TIP3   OH218835   4.303   5.038   0.070
 6293TIP3    H118836   4.383   5.070   0.029
 6293TIP3    H218837   4.331   4.962   0.120
 6294TIP3   OH218838   5.309   2.585   0.751
 6294TIP3    H118839   5.307   2.556   0.660
 6294TIP3    H218840   5.402   2.589   0.772
 6295TIP3   OH218841   0.992   6.730   4.031
 6295TIP3    H118842   0.934   6.655   4.041
 6295TIP3    H218843   1.073   6.704   4.075
 6296TIP3   OH218844   7.782   0.687   4.759
 6296TIP3    H118845   7.831   0.673   4.840
 6296TIP3    H218846   7.697   0.719   4.788
 6297TIP3   OH218847   7.951   4.004   6.317
 6297TIP3    H118848   7.963   4.082   6.263
 6297TIP3    H218849   7.941   4.038   6.406
 6298TIP3   OH218850   8.071   1.453   6.261
 6298TIP3    H118851   8.160   1.419   6.250
 6298TIP3    H218852   8.025   1.425   6.182
 6299TIP3   OH218853   5.392   2.481   1.689
 6299TIP3    H118854   5.387   2.537   1.766
 6299TIP3    H218855   5.362   2.396   1.719
 6300TIP3   OH218856   4.756   1.570   5.220
 6300TIP3    H118857   4.670   1.581   5.178
 6300TIP3    H218858   4.779   1.657   5.252
 6301TIP3   OH218859   6.152   4.382   6.625
 6301TIP3    H118860   6.195   4.467   6.624
 6301TIP3    H218861   6.107   4.377   6.541
 6302TIP3   OH218862   5.812   0.707   4.290
 6302TIP3    H118863   5.794   0.616   4.314
 6302TIP3    H218864   5.793   0.711   4.196
 6303TIP3   OH218865   0.329   3.779   4.555
 6303TIP3    H118866   0.307   3.792   4.463
 6303TIP3    H218867   0.360   3.689   4.560
 6304TIP3   OH218868   1.671   3.311   3.527
 6304TIP3    H118869   1.605   3.275   3.586
 6304TIP3    H218870   1.742   3.339   3.585
 6305TIP3   OH218871   7.884   5.149   6.733
 6305TIP3    H118872   7.897   5.226   6.788
 6305TIP3    H218873   7.804   5.108   6.766
 6306TIP3   OH218874   3.132   4.011   0.486
 6306TIP3    H118875   3.169   3.984   0.401
 6306TIP3    H218876   3.137   4.106   0.485
 6307TIP3   OH218877   5.619   6.555   5.878
 6307TIP3    H118878   5.534   6.578   5.917
 6307TIP3    H218879   5.683   6.577   5.946
 6308TIP3   OH218880   4.949   1.275   1.159
 6308TIP3    H118881   5.024   1.299   1.214
 6308TIP3    H218882   4.974   1.304   1.071
 6309TIP3   OH218883   2.690   0.518   5.841
 6309TIP3    H118884   2.764   0.474   5.883
 6309TIP3    H218885   2.727   0.556   5.761
 6310TIP3   OH218886   7.870   5.809   0.624
 6310TIP3    H118887   7.937   5.810   0.555
 6310TIP3    H218888   7.811   5.881   0.601
 6311TIP3   OH218889   4.360   4.028   4.602
 6311TIP3    H118890   4.433   4.014   4.541
 6311TIP3    H218891   4.393   4.000   4.687
 6312TIP3   OH218892   3.136   4.097   5.943
 6312TIP3    H118893   3.155   4.005   5.960
 6312TIP3    H218894   3.218   4.142   5.963
 6313TIP3   OH218895   5.330   5.853   5.101
 6313TIP3    H118896   5.299   5.801   5.026
 6313TIP3    H218897   5.276   5.823   5.174
 6314TIP3   OH218898   5.474   3.613   6.168
 6314TIP3    H118899   5.558   3.570   6.183
 6314TIP3    H218900   5.498   3.701   6.138
 6315TIP3   OH218901   3.271   4.362   2.110
 6315TIP3    H118902   3.285   4.452   2.078
 6315TIP3    H218903   3.348   4.314   2.080
 6316TIP3   OH218904   1.088   3.191   4.603
 6316TIP3    H118905   1.008   3.168   4.557
 6316TIP3    H218906   1.127   3.261   4.550
 6317TIP3   OH218907   3.958   4.786   5.333
 6317TIP3    H118908   3.917   4.729   5.268
 6317TIP3    H218909   3.916   4.765   5.415
 6318TIP3   OH218910   4.405   5.914   1.519
 6318TIP3    H118911   4.320   5.899   1.561
 6318TIP3    H218912   4.383   5.935   1.428
 6319TIP3   OH218913   1.408   2.946   5.911
 6319TIP3    H118914   1.479   2.968   5.850
 6319TIP3    H218915   1.337   2.916   5.855
 6320TIP3   OH218916   4.434   1.705   6.541
 6320TIP3    H118917   4.441   1.671   6.452
 6320TIP3    H218918   4.511   1.670   6.586
 6321TIP3   OH218919   2.894   2.421   2.211
 6321TIP3    H118920   2.822   2.381   2.162
 6321TIP3    H218921   2.942   2.346   2.247
 6322TIP3   OH218922   6.829   6.169   0.713
 6322TIP3    H118923   6.793   6.211   0.635
 6322TIP3    H218924   6.845   6.241   0.774
 6323TIP3   OH218925   1.942   7.472   2.478
 6323TIP3    H118926   1.899   7.548   2.516
 6323TIP3    H218927   1.895   7.456   2.397
 6324TIP3   OH218928   2.144   2.429   4.355
 6324TIP3    H118929   2.051   2.449   4.354
 6324TIP3    H218930   2.158   2.373   4.279
 6325TIP3   OH218931   0.225   1.316   6.419
 6325TIP3    H118932   0.299   1.305   6.479
 6325TIP3    H218933   0.206   1.227   6.388
 6326TIP3   OH218934   5.358   2.754   5.578
 6326TIP3    H118935   5.416   2.756   5.654
 6326TIP3    H218936   5.415   2.776   5.504
 6327TIP3   OH218937   4.307   0.334   1.628
 6327TIP3    H118938   4.279   0.422   1.603
 6327TIP3    H218939   4.240   0.304   1.689
 6328TIP3   OH218940   7.152   3.767   0.298
 6328TIP3    H118941   7.198   3.787   0.216
 6328TIP3    H218942   7.138   3.673   0.295
 6329TIP3   OH218943   5.741   0.085   0.557
 6329TIP3    H118944   5.784   0.148   0.615
 6329TIP3    H218945   5.811   0.026   0.530
 6330TIP3   OH218946   1.412   1.939   4.132
 6330TIP3    H118947   1.494   1.928   4.181
 6330TIP3    H218948   1.364   1.857   4.147
 6331TIP3   OH218949   4.277   1.967   5.096
 6331TIP3    H118950   4.334   2.011   5.033
 6331TIP3    H218951   4.337   1.919   5.153
 6332TIP3   OH218952   4.750   3.039   2.681
 6332TIP3    H118953   4.800   2.979   2.735
 6332TIP3    H218954   4.802   3.119   2.679
 6333TIP3   OH218955   6.090   5.380   2.914
 6333TIP3    H118956   6.117   5.466   2.945
 6333TIP3    H218957   6.018   5.355   2.972
 6334TIP3   OH218958   0.280   0.817   2.205
 6334TIP3    H118959   0.270   0.735   2.158
 6334TIP3    H218960   0.274   0.885   2.137
 6335TIP3   OH218961   4.703   6.503   6.208
 6335TIP3    H118962   4.685   6.596   6.222
 6335TIP3    H218963   4.681   6.487   6.117
 6336TIP3   OH218964   1.938   1.116   2.133
 6336TIP3    H118965   1.850   1.077   2.137
 6336TIP3    H218966   1.997   1.045   2.158
 6337TIP3   OH218967   3.348   7.161   2.076
 6337TIP3    H118968   3.420   7.142   2.136
 6337TIP3    H218969   3.353   7.255   2.060
 6338TIP3   OH218970   3.308   2.584   0.254
 6338TIP3    H118971   3.221   2.559   0.284
 6338TIP3    H218972   3.297   2.672   0.218
 6339TIP3   OH218973   0.683   2.533   3.961
 6339TIP3    H118974   0.603   2.483   3.977
 6339TIP3    H218975   0.753   2.468   3.960
 6340TIP3   OH218976   1.998   0.250   1.174
 6340TIP3    H118977   1.930   0.264   1.240
 6340TIP3    H218978   1.955   0.268   1.091
 6341TIP3   OH218979   3.336   4.623   2.054
 6341TIP3    H118980   3.397   4.628   1.980
 6341TIP3    H218981   3.355   4.701   2.106
 6342TIP3   OH218982   2.241   6.311   1.446
 6342TIP3    H118983   2.208   6.383   1.392
 6342TIP3    H218984   2.336   6.317   1.438
 6343TIP3   OH218985   2.954   1.141   1.906
 6343TIP3    H118986   3.035   1.099   1.932
 6343TIP3    H218987   2.888   1.072   1.910
 6344TIP3   OH218988   7.346   6.925   0.171
 6344TIP3    H118989   7.381   6.965   0.092
 6344TIP3    H218990   7.277   6.984   0.200
 6345TIP3   OH218991   6.671   7.729   5.901
 6345TIP3    H118992   6.670   7.821   5.928
 6345TIP3    H218993   6.751   7.720   5.849
 6346TIP3   OH218994   5.047   3.736   5.635
 6346TIP3    H118995   5.120   3.691   5.592
 6346TIP3    H218996   5.089   3.800   5.692
 6347TIP3   OH218997   1.568   2.635   5.360
 6347TIP3    H118998   1.529   2.568   5.416
 6347TIP3    H218999   1.586   2.589   5.277
 6348TIP3   OH219000   3.037   5.583   6.737
 6348TIP3    H119001   3.032   5.496   6.777
 6348TIP3    H219002   3.076   5.639   6.804
 6349TIP3   OH219003   0.062   3.483   3.294
 6349TIP3    H119004   0.123   3.486   3.220
 6349TIP3    H219005   0.008   3.561   3.283
 6350TIP3   OH219006   0.721   5.254   5.793
 6350TIP3    H119007   0.664   5.317   5.749
 6350TIP3    H219008   0.685   5.247   5.882
 6351TIP3   OH219009   3.805   0.460   3.659
 6351TIP3    H119010   3.823   0.504   3.742
 6351TIP3    H219011   3.720   0.418   3.672
 6352TIP3   OH219012   0.947   2.447   6.005
 6352TIP3    H119013   1.003   2.374   6.032
 6352TIP3    H219014   0.874   2.446   6.068
 6353TIP3   OH219015   1.899   4.165   0.671
 6353TIP3    H119016   1.852   4.200   0.746
 6353TIP3    H219017   1.841   4.180   0.596
 6354TIP3   OH219018   7.391   3.567   4.896
 6354TIP3    H119019   7.413   3.583   4.804
 6354TIP3    H219020   7.351   3.480   4.896
 6355TIP3   OH219021   6.872   4.993   5.876
 6355TIP3    H119022   6.833   5.079   5.861
 6355TIP3    H219023   6.799   4.938   5.906
 6356TIP3   OH219024   6.734   7.486   0.779
 6356TIP3    H119025   6.793   7.411   0.768
 6356TIP3    H219026   6.772   7.555   0.724
 6357TIP3   OH219027   2.279   4.277   0.925
 6357TIP3    H119028   2.332   4.356   0.917
 6357TIP3    H219029   2.196   4.307   0.960
 6358TIP3   OH219030   2.430   1.491   4.756
 6358TIP3    H119031   2.395   1.566   4.708
 6358TIP3    H219032   2.524   1.510   4.764
 6359TIP3   OH219033   5.670   0.835   4.828
 6359TIP3    H119034   5.590   0.824   4.880
 6359TIP3    H219035   5.708   0.747   4.824
 6360TIP3   OH219036   3.832   2.873   1.247
 6360TIP3    H119037   3.847   2.903   1.158
 6360TIP3    H219038   3.890   2.797   1.257
 6361TIP3   OH219039   2.524   2.449   6.245
 6361TIP3    H119040   2.550   2.366   6.205
 6361TIP3    H219041   2.444   2.428   6.293
 6362TIP3   OH219042   2.381   3.237   5.691
 6362TIP3    H119043   2.391   3.247   5.786
 6362TIP3    H219044   2.366   3.325   5.658
 6363TIP3   OH219045   7.384   1.413   0.469
 6363TIP3    H119046   7.342   1.499   0.476
 6363TIP3    H219047   7.454   1.426   0.405
 6364TIP3   OH219048   2.708   1.439   5.547
 6364TIP3    H119049   2.695   1.531   5.571
 6364TIP3    H219050   2.662   1.390   5.615
 6365TIP3   OH219051   7.809   5.059   0.539
 6365TIP3    H119052   7.884   5.023   0.490
 6365TIP3    H219053   7.831   5.151   0.552
 6366TIP3   OH219054   6.649   0.687   3.934
 6366TIP3    H119055   6.735   0.724   3.953
 6366TIP3    H219056   6.640   0.613   3.994
 6367TIP3   OH219057   4.945   3.929   3.351
 6367TIP3    H119058   4.932   3.838   3.323
 6367TIP3    H219059   5.016   3.961   3.294
 6368TIP3   OH219060   5.796   4.624   4.216
 6368TIP3    H119061   5.789   4.641   4.310
 6368TIP3    H219062   5.876   4.573   4.206
 6369TIP3   OH219063   5.587   7.452   3.198
 6369TIP3    H119064   5.579   7.493   3.285
 6369TIP3    H219065   5.591   7.525   3.137
 6370TIP3   OH219066   1.548   7.399   5.049
 6370TIP3    H119067   1.529   7.377   5.140
 6370TIP3    H219068   1.596   7.482   5.054
 6371TIP3   OH219069   8.210   5.346   6.043
 6371TIP3    H119070   8.177   5.271   5.993
 6371TIP3    H219071   8.215   5.417   5.978
 6372TIP3   OH219072   3.198   1.313   2.641
 6372TIP3    H119073   3.144   1.280   2.713
 6372TIP3    H219074   3.260   1.242   2.623
 6373TIP3   OH219075   2.106   7.406   3.278
 6373TIP3    H119076   2.065   7.384   3.194
 6373TIP3    H219077   2.094   7.500   3.287
 6374TIP3   OH219078   4.926   0.995   3.409
 6374TIP3    H119079   4.975   0.969   3.488
 6374TIP3    H219080   4.835   1.003   3.439
 6375TIP3   OH219081   3.799   4.737   5.566
 6375TIP3    H119082   3.862   4.672   5.597
 6375TIP3    H219083   3.737   4.746   5.638
 6376TIP3   OH219084   8.128   0.932   4.516
 6376TIP3    H119085   8.215   0.911   4.549
 6376TIP3    H219086   8.072   0.863   4.551
 6377TIP3   OH219087   4.094   7.771   4.028
 6377TIP3    H119088   4.151   7.815   4.091
 6377TIP3    H219089   4.133   7.792   3.943
 6378TIP3   OH219090   2.738   2.043   0.631
 6378TIP3    H119091   2.720   1.953   0.605
 6378TIP3    H219092   2.826   2.041   0.669
 6379TIP3   OH219093   1.645   6.665   1.481
 6379TIP3    H119094   1.684   6.752   1.471
 6379TIP3    H219095   1.627   6.637   1.391
 6380TIP3   OH219096   4.410   1.243   2.262
 6380TIP3    H119097   4.363   1.321   2.233
 6380TIP3    H219098   4.375   1.172   2.208
 6381TIP3   OH219099   4.211   4.331   1.004
 6381TIP3    H119100   4.140   4.289   1.052
 6381TIP3    H219101   4.290   4.310   1.054
 6382TIP3   OH219102   1.378   1.572   3.751
 6382TIP3    H119103   1.318   1.630   3.800
 6382TIP3    H219104   1.423   1.630   3.690
 6383TIP3   OH219105   1.486   2.892   3.903
 6383TIP3    H119106   1.555   2.890   3.837
 6383TIP3    H219107   1.521   2.950   3.971
 6384TIP3   OH219108   5.969   4.740   4.992
 6384TIP3    H119109   5.957   4.645   4.999
 6384TIP3    H219110   5.890   4.770   4.948
 6385TIP3   OH219111   3.819   5.830   6.393
 6385TIP3    H119112   3.873   5.755   6.367
 6385TIP3    H219113   3.771   5.799   6.470
 6386TIP3   OH219114   0.534   7.247   2.827
 6386TIP3    H119115   0.578   7.332   2.824
 6386TIP3    H219116   0.599   7.185   2.795
 6387TIP3   OH219117   7.113   6.134   5.846
 6387TIP3    H119118   7.207   6.131   5.863
 6387TIP3    H219119   7.089   6.044   5.825
 6388TIP3   OH219120   6.652   1.555   1.408
 6388TIP3    H119121   6.671   1.639   1.450
 6388TIP3    H219122   6.680   1.490   1.472
 6389TIP3   OH219123   6.190   6.242   2.738
 6389TIP3    H119124   6.166   6.303   2.669
 6389TIP3    H219125   6.121   6.250   2.803
 6390TIP3   OH219126   7.788   2.881   2.726
 6390TIP3    H119127   7.872   2.897   2.683
 6390TIP3    H219128   7.743   2.966   2.725
 6391TIP3   OH219129   1.934   0.548   2.687
 6391TIP3    H119130   1.902   0.635   2.666
 6391TIP3    H219131   2.018   0.542   2.642
 6392TIP3   OH219132   5.180   7.209   1.357
 6392TIP3    H119133   5.271   7.197   1.331
 6392TIP3    H219134   5.135   7.131   1.324
 6393TIP3   OH219135   3.318   7.255   3.944
 6393TIP3    H119136   3.278   7.216   4.022
 6393TIP3    H219137   3.354   7.338   3.975
 6394TIP3   OH219138   8.088   1.798   1.521
 6394TIP3    H119139   8.059   1.797   1.429
 6394TIP3    H219140   8.039   1.871   1.560
 6395TIP3   OH219141   7.682   2.518   6.608
 6395TIP3    H119142   7.662   2.511   6.701
 6395TIP3    H219143   7.738   2.596   6.601
 6396TIP3   OH219144   6.367   7.836   3.915
 6396TIP3    H119145   6.442   7.818   3.858
 6396TIP3    H219146   6.310   7.759   3.904
 6397TIP3   OH219147   6.878   2.382   1.688
 6397TIP3    H119148   6.866   2.375   1.593
 6397TIP3    H219149   6.943   2.451   1.699
 6398TIP3   OH219150   4.681   2.629   3.255
 6398TIP3    H119151   4.635   2.588   3.328
 6398TIP3    H219152   4.713   2.555   3.203
 6399TIP3   OH219153   3.967   6.254   1.696
 6399TIP3    H119154   4.032   6.246   1.766
 6399TIP3    H219155   4.014   6.229   1.617
 6400TIP3   OH219156   0.472   7.076   5.111
 6400TIP3    H119157   0.484   7.096   5.204
 6400TIP3    H219158   0.543   7.016   5.090
 6401TIP3   OH219159   5.944   7.599   1.091
 6401TIP3    H119160   5.956   7.558   1.176
 6401TIP3    H219161   5.850   7.594   1.075
 6402TIP3   OH219162   5.122   2.970   5.252
 6402TIP3    H119163   5.038   2.983   5.209
 6402TIP3    H219164   5.187   2.981   5.182
 6403TIP3   OH219165   6.745   2.177   2.915
 6403TIP3    H119166   6.809   2.140   2.854
 6403TIP3    H219167   6.713   2.101   2.964
 6404TIP3   OH219168   5.637   5.960   4.735
 6404TIP3    H119169   5.586   6.034   4.769
 6404TIP3    H219170   5.722   5.969   4.779
 6405TIP3   OH219171   3.888   7.282   6.073
 6405TIP3    H119172   3.884   7.343   6.000
 6405TIP3    H219173   3.900   7.196   6.032
 6406TIP3   OH219174   2.702   1.096   3.384
 6406TIP3    H119175   2.671   1.127   3.298
 6406TIP3    H219176   2.780   1.045   3.364
 6407TIP3   OH219177   6.433   6.093   5.461
 6407TIP3    H119178   6.421   6.090   5.366
 6407TIP3    H219179   6.346   6.115   5.496
 6408TIP3   OH219180   3.717   6.927   3.785
 6408TIP3    H119181   3.660   7.000   3.806
 6408TIP3    H219182   3.668   6.849   3.813
 6409TIP3   OH219183   7.386   2.525   6.535
 6409TIP3    H119184   7.460   2.464   6.544
 6409TIP3    H219185   7.374   2.559   6.624
 6410TIP3   OH219186   6.094   5.606   0.772
 6410TIP3    H119187   6.184   5.624   0.746
 6410TIP3    H219188   6.099   5.586   0.865
 6411TIP3   OH219189   6.862   3.420   0.975
 6411TIP3    H119190   6.890   3.471   1.051
 6411TIP3    H219191   6.860   3.482   0.903
 6412TIP3   OH219192   0.928   3.749   1.712
 6412TIP3    H119193   0.834   3.743   1.692
 6412TIP3    H219194   0.934   3.813   1.782
 6413TIP3   OH219195   3.571   3.171   4.847
 6413TIP3    H119196   3.526   3.096   4.808
 6413TIP3    H219197   3.610   3.135   4.927
 6414TIP3   OH219198   2.942   4.985   6.721
 6414TIP3    H119199   2.989   4.990   6.804
 6414TIP3    H219200   2.926   4.891   6.709
 6415TIP3   OH219201   6.038   6.400   3.593
 6415TIP3    H119202   6.126   6.407   3.630
 6415TIP3    H219203   5.982   6.444   3.657
 6416TIP3   OH219204   3.092   5.224   1.642
 6416TIP3    H119205   3.047   5.148   1.679
 6416TIP3    H219206   3.155   5.186   1.580
 6417TIP3   OH219207   1.933   3.760   0.901
 6417TIP3    H119208   1.943   3.787   0.809
 6417TIP3    H219209   1.905   3.839   0.946
 6418TIP3   OH219210   0.412   4.532   0.592
 6418TIP3    H119211   0.464   4.527   0.672
 6418TIP3    H219212   0.361   4.613   0.601
 6419TIP3   OH219213   1.950   4.355   4.096
 6419TIP3    H119214   1.923   4.268   4.067
 6419TIP3    H219215   2.042   4.344   4.122
 6420TIP3   OH219216   1.545   1.177   1.999
 6420TIP3    H119217   1.600   1.253   1.980
 6420TIP3    H219218   1.602   1.119   2.049
 6421TIP3   OH219219   2.659   1.529   5.148
 6421TIP3    H119220   2.734   1.551   5.202
 6421TIP3    H219221   2.681   1.562   5.061
 6422TIP3   OH219222   4.739   4.798   0.294
 6422TIP3    H119223   4.704   4.719   0.252
 6422TIP3    H219224   4.834   4.789   0.285
 6423TIP3   OH219225   7.637   2.149   3.473
 6423TIP3    H119226   7.708   2.174   3.532
 6423TIP3    H219227   7.560   2.140   3.530
 6424TIP3   OH219228   5.457   0.028   0.604
 6424TIP3    H119229   5.449  -0.044   0.666
 6424TIP3    H219230   5.551   0.041   0.594
 6425TIP3   OH219231  -0.015   3.938   3.827
 6425TIP3    H119232   0.061   3.885   3.848
 6425TIP3    H219233  -0.031   3.990   3.907
 6426TIP3   OH219234   5.608   5.588   3.356
 6426TIP3    H119235   5.642   5.611   3.269
 6426TIP3    H219236   5.534   5.530   3.338
 6427TIP3   OH219237   5.509   1.434   3.761
 6427TIP3    H119238   5.467   1.393   3.685
 6427TIP3    H219239   5.600   1.405   3.755
 6428TIP3   OH219240   5.154   2.937   1.039
 6428TIP3    H119241   5.234   2.884   1.031
 6428TIP3    H219242   5.115   2.934   0.952
 6429TIP3   OH219243   0.963   2.973   3.363
 6429TIP3    H119244   0.942   2.917   3.437
 6429TIP3    H219245   0.935   3.061   3.391
 6430TIP3   OH219246   5.720   3.143   6.263
 6430TIP3    H119247   5.745   3.056   6.232
 6430TIP3    H219248   5.690   3.129   6.353
 6431TIP3   OH219249   1.987   5.786   0.152
 6431TIP3    H119250   1.947   5.706   0.119
 6431TIP3    H219251   2.009   5.836   0.073
 6432TIP3   OH219252   3.335   0.743   5.511
 6432TIP3    H119253   3.394   0.818   5.500
 6432TIP3    H219254   3.247   0.782   5.511
 6433TIP3   OH219255   6.213   3.248   6.606
 6433TIP3    H119256   6.277   3.279   6.542
 6433TIP3    H219257   6.136   3.225   6.554
 6434TIP3   OH219258   6.601   7.447   1.295
 6434TIP3    H119259   6.696   7.449   1.304
 6434TIP3    H219260   6.586   7.458   1.201
 6435TIP3   OH219261   1.734   0.943   3.133
 6435TIP3    H119262   1.698   0.855   3.148
 6435TIP3    H219263   1.817   0.928   3.088
 6436TIP3   OH219264   6.934   3.344   6.394
 6436TIP3    H119265   6.913   3.416   6.334
 6436TIP3    H219266   6.848   3.312   6.423
 6437TIP3   OH219267   6.574   2.464   5.302
 6437TIP3    H119268   6.590   2.370   5.291
 6437TIP3    H219269   6.495   2.469   5.355
 6438TIP3   OH219270   1.385   1.215   1.780
 6438TIP3    H119271   1.374   1.123   1.756
 6438TIP3    H219272   1.414   1.213   1.871
 6439TIP3   OH219273   0.222   7.583   1.561
 6439TIP3    H119274   0.224   7.587   1.466
 6439TIP3    H219275   0.143   7.535   1.582
 6440TIP3   OH219276   3.973   3.110   0.537
 6440TIP3    H119277   4.017   3.114   0.453
 6440TIP3    H219278   4.021   3.171   0.593
 6441TIP3   OH219279   7.411   3.969   4.379
 6441TIP3    H119280   7.475   4.037   4.402
 6441TIP3    H219281   7.365   4.005   4.303
 6442TIP3   OH219282   3.615   2.686   1.248
 6442TIP3    H119283   3.634   2.772   1.209
 6442TIP3    H219284   3.680   2.676   1.318
 6443TIP3   OH219285   7.632   0.306   1.254
 6443TIP3    H119286   7.599   0.354   1.330
 6443TIP3    H219287   7.578   0.337   1.181
 6444TIP3   OH219288   2.026   2.778   5.006
 6444TIP3    H119289   2.050   2.825   4.925
 6444TIP3    H219290   1.947   2.729   4.983
 6445TIP3   OH219291   4.896   3.011   5.767
 6445TIP3    H119292   4.984   2.978   5.749
 6445TIP3    H219293   4.910   3.089   5.819
 6446TIP3   OH219294   0.020   6.116   1.163
 6446TIP3    H119295  -0.075   6.116   1.148
 6446TIP3    H219296   0.029   6.080   1.251
 6447TIP3   OH219297   5.382   6.108   4.468
 6447TIP3    H119298   5.378   6.187   4.523
 6447TIP3    H219299   5.402   6.142   4.381
 6448TIP3   OH219300   6.952   7.162   0.064
 6448TIP3    H119301   6.962   7.184  -0.028
 6448TIP3    H219302   6.907   7.237   0.103
 6449TIP3   OH219303   4.763   3.374   1.467
 6449TIP3    H119304   4.760   3.436   1.393
 6449TIP3    H219305   4.847   3.329   1.456
 6450TIP3   OH219306   3.266   5.734   4.610
 6450TIP3    H119307   3.190   5.689   4.647
 6450TIP3    H219308   3.329   5.740   4.682
 6451TIP3   OH219309   6.275   6.423   2.340
 6451TIP3    H119310   6.371   6.417   2.337
 6451TIP3    H219311   6.246   6.378   2.260
 6452TIP3   OH219312   5.044   4.106   3.532
 6452TIP3    H119313   5.002   4.073   3.612
 6452TIP3    H219314   5.010   4.050   3.463
 6453TIP3   OH219315   1.955   6.271   6.676
 6453TIP3    H119316   1.876   6.323   6.660
 6453TIP3    H219317   1.962   6.213   6.600
 6454TIP3   OH219318  -0.001   7.602   5.392
 6454TIP3    H119319  -0.030   7.540   5.458
 6454TIP3    H219320   0.083   7.567   5.361
 6455TIP3   OH219321   0.021   2.647   4.503
 6455TIP3    H119322   0.070   2.728   4.486
 6455TIP3    H219323  -0.069   2.668   4.475
 6456TIP3   OH219324   7.422   2.722   3.334
 6456TIP3    H119325   7.514   2.707   3.310
 6456TIP3    H219326   7.373   2.704   3.254
 6457TIP3   OH219327   1.332   4.859   2.249
 6457TIP3    H119328   1.372   4.814   2.324
 6457TIP3    H219329   1.403   4.868   2.186
 6458TIP3   OH219330   5.611   3.762   0.517
 6458TIP3    H119331   5.532   3.786   0.564
 6458TIP3    H219332   5.612   3.666   0.518
 6459TIP3   OH219333   6.060   5.164   4.103
 6459TIP3    H119334   5.984   5.153   4.159
 6459TIP3    H219335   6.052   5.094   4.038
 6460TIP3   OH219336   1.293   7.134   4.108
 6460TIP3    H119337   1.313   7.063   4.047
 6460TIP3    H219338   1.234   7.191   4.058
 6461TIP3   OH219339   2.881   3.056   2.745
 6461TIP3    H119340   2.794   3.055   2.705
 6461TIP3    H219341   2.935   3.003   2.686
 6462TIP3   OH219342   5.258   0.641   6.650
 6462TIP3    H119343   5.262   0.579   6.578
 6462TIP3    H219344   5.314   0.603   6.717
 6463TIP3   OH219345   4.463   4.438   1.935
 6463TIP3    H119346   4.472   4.412   1.844
 6463TIP3    H219347   4.400   4.511   1.933
 6464TIP3   OH219348   7.434   0.304   5.262
 6464TIP3    H119349   7.472   0.237   5.205
 6464TIP3    H219350   7.348   0.268   5.287
 6465TIP3   OH219351   7.786   0.460   0.563
 6465TIP3    H119352   7.767   0.553   0.573
 6465TIP3    H219353   7.708   0.416   0.594
 6466TIP3   OH219354   5.891   6.699   1.815
 6466TIP3    H119355   5.874   6.746   1.733
 6466TIP3    H219356   5.814   6.718   1.869
 6467TIP3   OH219357   3.009   2.035   0.680
 6467TIP3    H119358   3.043   1.985   0.605
 6467TIP3    H219359   3.083   2.089   0.707
 6468TIP3   OH219360   1.002   6.097   0.040
 6468TIP3    H119361   0.931   6.035   0.025
 6468TIP3    H219362   0.969   6.156   0.108
 6469TIP3   OH219363   2.717   7.663   1.612
 6469TIP3    H119364   2.681   7.608   1.681
 6469TIP3    H219365   2.640   7.703   1.571
 6470TIP3   OH219366   3.550   6.214   6.024
 6470TIP3    H119367   3.511   6.209   5.937
 6470TIP3    H219368   3.513   6.140   6.071
 6471TIP3   OH219369   3.641   4.573   4.334
 6471TIP3    H119370   3.629   4.494   4.386
 6471TIP3    H219371   3.596   4.641   4.383
 6472TIP3   OH219372   4.035   7.358   0.257
 6472TIP3    H119373   3.989   7.389   0.334
 6472TIP3    H219374   3.987   7.394   0.183
 6473TIP3   OH219375   1.798   4.850   3.146
 6473TIP3    H119376   1.795   4.838   3.051
 6473TIP3    H219377   1.770   4.940   3.160
 6474TIP3   OH219378   4.855   0.732   5.565
 6474TIP3    H119379   4.944   0.743   5.597
 6474TIP3    H219380   4.862   0.670   5.493
 6475TIP3   OH219381   3.617   4.128   6.020
 6475TIP3    H119382   3.705   4.151   6.051
 6475TIP3    H219383   3.609   4.034   6.039
 6476TIP3   OH219384   6.314   3.866   3.752
 6476TIP3    H119385   6.264   3.834   3.677
 6476TIP3    H219386   6.249   3.908   3.809
 6477TIP3   OH219387   3.677   2.244   3.091
 6477TIP3    H119388   3.712   2.156   3.078
 6477TIP3    H219389   3.653   2.247   3.184
 6478TIP3   OH219390   6.912   0.647   2.389
 6478TIP3    H119391   6.845   0.583   2.413
 6478TIP3    H219392   6.885   0.679   2.303
 6479TIP3   OH219393   4.763   0.081   3.939
 6479TIP3    H119394   4.709   0.014   3.895
 6479TIP3    H219395   4.717   0.163   3.921
 6480TIP3   OH219396   8.174   4.392   5.712
 6480TIP3    H119397   8.089   4.432   5.733
 6480TIP3    H219398   8.151   4.320   5.653
 6481TIP3   OH219399   7.166   6.821   6.527
 6481TIP3    H119400   7.163   6.783   6.614
 6481TIP3    H219401   7.075   6.846   6.509
 6482TIP3   OH219402   2.633   5.417   3.616
 6482TIP3    H119403   2.563   5.444   3.556
 6482TIP3    H219404   2.712   5.422   3.563
 6483TIP3   OH219405   2.554   3.778   6.371
 6483TIP3    H119406   2.600   3.828   6.304
 6483TIP3    H219407   2.478   3.741   6.326
 6484TIP3   OH219408   6.652   1.427   2.883
 6484TIP3    H119409   6.656   1.370   2.960
 6484TIP3    H219410   6.590   1.384   2.824
 6485TIP3   OH219411   2.628   3.429   1.939
 6485TIP3    H119412   2.535   3.451   1.930
 6485TIP3    H219413   2.629   3.333   1.942
 6486TIP3   OH219414   0.887   1.017   3.172
 6486TIP3    H119415   0.918   1.096   3.127
 6486TIP3    H219416   0.951   0.950   3.149
 6487TIP3   OH219417   1.900   2.296   4.991
 6487TIP3    H119418   1.870   2.332   5.074
 6487TIP3    H219419   1.993   2.320   4.986
 6488TIP3   OH219420   7.784   7.037   3.241
 6488TIP3    H119421   7.783   6.998   3.328
 6488TIP3    H219422   7.822   7.125   3.254
 6489TIP3   OH219423   2.245   3.268   3.072
 6489TIP3    H119424   2.291   3.219   3.140
 6489TIP3    H219425   2.314   3.305   3.017
 6490TIP3   OH219426   4.942   3.712   1.937
 6490TIP3    H119427   4.862   3.701   1.887
 6490TIP3    H219428   4.979   3.623   1.943
 6491TIP3   OH219429   7.738   6.601   4.891
 6491TIP3    H119430   7.701   6.523   4.931
 6491TIP3    H219431   7.831   6.583   4.885
 6492TIP3   OH219432   2.739   4.613   0.643
 6492TIP3    H119433   2.673   4.631   0.710
 6492TIP3    H219434   2.774   4.699   0.620
 6493TIP3   OH219435   0.705   0.534   1.992
 6493TIP3    H119436   0.800   0.534   2.000
 6493TIP3    H219437   0.688   0.580   1.909
 6494TIP3   OH219438   4.328   1.145   6.306
 6494TIP3    H119439   4.282   1.228   6.316
 6494TIP3    H219440   4.262   1.078   6.325
 6495TIP3   OH219441   2.724   5.250   2.218
 6495TIP3    H119442   2.690   5.264   2.306
 6495TIP3    H219443   2.717   5.156   2.204
 6496TIP3   OH219444   0.131   5.885   4.400
 6496TIP3    H119445   0.082   5.908   4.321
 6496TIP3    H219446   0.117   5.959   4.460
 6497TIP3   OH219447   5.938   5.093   6.589
 6497TIP3    H119448   6.000   5.044   6.535
 6497TIP3    H219449   5.856   5.093   6.539
 6498TIP3   OH219450   6.615   6.167   3.135
 6498TIP3    H119451   6.709   6.160   3.149
 6498TIP3    H219452   6.604   6.161   3.040
 6499TIP3   OH219453   1.178   7.154   6.538
 6499TIP3    H119454   1.189   7.200   6.621
 6499TIP3    H219455   1.102   7.097   6.552
 6500TIP3   OH219456   0.533   3.602   4.280
 6500TIP3    H119457   0.561   3.564   4.197
 6500TIP3    H219458   0.454   3.651   4.258
 6501TIP3   OH219459   5.918   6.204   6.012
 6501TIP3    H119460   6.000   6.236   6.049
 6501TIP3    H219461   5.928   6.108   6.010
 6502TIP3   OH219462   2.632   4.059   1.341
 6502TIP3    H119463   2.611   4.039   1.432
 6502TIP3    H219464   2.632   3.974   1.297
 6503TIP3   OH219465   2.439   2.862   0.441
 6503TIP3    H119466   2.506   2.909   0.392
 6503TIP3    H219467   2.422   2.917   0.518
 6504TIP3   OH219468   5.455   0.131   3.567
 6504TIP3    H119469   5.503   0.124   3.650
 6504TIP3    H219470   5.487   0.057   3.515
 6505TIP3   OH219471   0.354   2.690   6.500
 6505TIP3    H119472   0.284   2.732   6.450
 6505TIP3    H219473   0.403   2.763   6.538
 6506TIP3   OH219474   0.253   5.106   6.799
 6506TIP3    H119475   0.200   5.043   6.750
 6506TIP3    H219476   0.244   5.188   6.751
 6507TIP3   OH219477   7.120   6.978   4.841
 6507TIP3    H119478   7.170   6.898   4.856
 6507TIP3    H219479   7.095   6.974   4.748
 6508TIP3   OH219480   3.834   4.688   5.106
 6508TIP3    H119481   3.847   4.594   5.111
 6508TIP3    H219482   3.825   4.706   5.013
 6509TIP3   OH219483   0.624   6.659   2.006
 6509TIP3    H119484   0.657   6.610   1.930
 6509TIP3    H219485   0.572   6.596   2.055
 6510TIP3   OH219486   5.324   1.963   2.718
 6510TIP3    H119487   5.366   1.879   2.733
 6510TIP3    H219488   5.304   1.964   2.624
 6511TIP3   OH219489   5.832   1.371   2.798
 6511TIP3    H119490   5.869   1.396   2.882
 6511TIP3    H219491   5.904   1.383   2.736
 6512TIP3   OH219492   7.128   6.627   2.135
 6512TIP3    H119493   7.205   6.622   2.079
 6512TIP3    H219494   7.069   6.687   2.090
 6513TIP3   OH219495   5.271   7.681   0.247
 6513TIP3    H119496   5.248   7.733   0.169
 6513TIP3    H219497   5.361   7.652   0.231
 6514TIP3   OH219498   5.594   7.594   1.178
 6514TIP3    H119499   5.632   7.638   1.253
 6514TIP3    H219500   5.593   7.660   1.109
 6515TIP3   OH219501   6.178   0.877   5.789
 6515TIP3    H119502   6.110   0.816   5.761
 6515TIP3    H219503   6.231   0.891   5.711
 6516TIP3   OH219504   2.190   5.295   4.243
 6516TIP3    H119505   2.178   5.373   4.189
 6516TIP3    H219506   2.221   5.228   4.182
 6517TIP3   OH219507   5.161   2.447   1.294
 6517TIP3    H119508   5.107   2.505   1.349
 6517TIP3    H219509   5.112   2.439   1.212
 6518TIP3   OH219510   2.351   3.367   3.402
 6518TIP3    H119511   2.445   3.381   3.410
 6518TIP3    H219512   2.319   3.440   3.350
 6519TIP3   OH219513   1.315   5.704   4.684
 6519TIP3    H119514   1.307   5.609   4.694
 6519TIP3    H219515   1.257   5.740   4.750
 6520TIP3   OH219516   2.086   2.281   1.833
 6520TIP3    H119517   2.072   2.300   1.740
 6520TIP3    H219518   2.107   2.366   1.872
 6521TIP3   OH219519   7.665   7.429   1.953
 6521TIP3    H119520   7.729   7.400   1.887
 6521TIP3    H219521   7.593   7.366   1.946
 6522TIP3   OH219522   8.216   3.774   1.885
 6522TIP3    H119523   8.125   3.796   1.865
 6522TIP3    H219524   8.236   3.701   1.826
 6523TIP3   OH219525   6.379   5.238   0.785
 6523TIP3    H119526   6.400   5.184   0.861
 6523TIP3    H219527   6.464   5.266   0.751
 6524TIP3   OH219528   1.095   2.064   2.253
 6524TIP3    H119529   1.188   2.069   2.274
 6524TIP3    H219530   1.051   2.077   2.337
 6525TIP3   OH219531   5.677   1.402   4.406
 6525TIP3    H119532   5.759   1.354   4.417
 6525TIP3    H219533   5.657   1.395   4.313
 6526TIP3   OH219534   4.948   7.744   6.155
 6526TIP3    H119535   4.943   7.650   6.138
 6526TIP3    H219536   4.953   7.784   6.068
 6527TIP3   OH219537   6.698   2.127   4.774
 6527TIP3    H119538   6.678   2.158   4.686
 6527TIP3    H219539   6.616   2.138   4.822
 6528TIP3   OH219540   3.552   0.786   2.486
 6528TIP3    H119541   3.496   0.755   2.556
 6528TIP3    H219542   3.493   0.799   2.412
 6529TIP3   OH219543   3.037   4.713   5.543
 6529TIP3    H119544   3.015   4.790   5.595
 6529TIP3    H219545   3.030   4.640   5.604
 6530TIP3   OH219546   6.310   3.407   3.871
 6530TIP3    H119547   6.281   3.388   3.960
 6530TIP3    H219548   6.267   3.490   3.849
 6531TIP3   OH219549   3.022   6.890   4.000
 6531TIP3    H119550   2.945   6.866   4.052
 6531TIP3    H219551   3.096   6.868   4.056
 6532TIP3   OH219552   4.965   1.844   6.054
 6532TIP3    H119553   4.910   1.851   6.133
 6532TIP3    H219554   4.941   1.760   6.015
 6533TIP3   OH219555   0.833   6.245   2.736
 6533TIP3    H119556   0.755   6.255   2.682
 6533TIP3    H219557   0.854   6.151   2.731
 6534TIP3   OH219558   8.009   3.665   4.711
 6534TIP3    H119559   7.965   3.715   4.642
 6534TIP3    H219560   7.945   3.601   4.739
 6535TIP3   OH219561   7.234   7.175   6.254
 6535TIP3    H119562   7.188   7.216   6.327
 6535TIP3    H219563   7.190   7.209   6.176
 6536TIP3   OH219564   8.078   6.045   5.858
 6536TIP3    H119565   8.015   5.974   5.847
 6536TIP3    H219566   8.034   6.107   5.916
 6537TIP3   OH219567   5.386   5.476   5.411
 6537TIP3    H119568   5.393   5.478   5.507
 6537TIP3    H219569   5.318   5.540   5.391
 6538TIP3   OH219570   7.569   3.189   0.957
 6538TIP3    H119571   7.640   3.199   0.894
 6538TIP3    H219572   7.493   3.228   0.915
 6539TIP3   OH219573   0.143   6.333   3.877
 6539TIP3    H119574   0.208   6.296   3.817
 6539TIP3    H219575   0.060   6.322   3.831
 6540TIP3   OH219576   6.897   0.792   3.993
 6540TIP3    H119577   6.926   0.732   4.062
 6540TIP3    H219578   6.958   0.866   3.999
 6541TIP3   OH219579   1.779   1.330   1.125
 6541TIP3    H119580   1.717   1.288   1.186
 6541TIP3    H219581   1.812   1.406   1.173
 6542TIP3   OH219582   8.268   0.128   4.090
 6542TIP3    H119583   8.346   0.085   4.125
 6542TIP3    H219584   8.210   0.056   4.067
 6543TIP3   OH219585   5.868   4.748   1.780
 6543TIP3    H119586   5.852   4.667   1.730
 6543TIP3    H219587   5.962   4.762   1.774
 6544TIP3   OH219588   3.703   7.776   2.086
 6544TIP3    H119589   3.687   7.783   2.180
 6544TIP3    H219590   3.699   7.866   2.054
 6545TIP3   OH219591   5.754   7.486   1.964
 6545TIP3    H119592   5.824   7.543   1.930
 6545TIP3    H219593   5.676   7.542   1.962
 6546TIP3   OH219594   7.394   4.331   1.730
 6546TIP3    H119595   7.428   4.366   1.813
 6546TIP3    H219596   7.466   4.280   1.694
 6547TIP3   OH219597   7.692   0.433   3.262
 6547TIP3    H119598   7.733   0.353   3.294
 6547TIP3    H219599   7.761   0.477   3.213
 6548TIP3   OH219600   2.619   4.393   6.011
 6548TIP3    H119601   2.655   4.311   5.977
 6548TIP3    H219602   2.570   4.367   6.088
 6549TIP3   OH219603   0.609   1.250   3.144
 6549TIP3    H119604   0.656   1.237   3.226
 6549TIP3    H219605   0.531   1.195   3.151
 6550TIP3   OH219606   1.129   4.112   3.612
 6550TIP3    H119607   1.067   4.146   3.677
 6550TIP3    H219608   1.080   4.108   3.531
 6551TIP3   OH219609   8.260   5.163   3.845
 6551TIP3    H119610   8.255   5.148   3.940
 6551TIP3    H219611   8.170   5.151   3.815
 6552TIP3   OH219612   2.616   6.558   1.670
 6552TIP3    H119613   2.611   6.512   1.753
 6552TIP3    H219614   2.525   6.567   1.642
 6553TIP3   OH219615   0.425   5.872   6.661
 6553TIP3    H119616   0.402   5.909   6.576
 6553TIP3    H219617   0.346   5.826   6.689
 6554TIP3   OH219618   8.008   4.635   3.071
 6554TIP3    H119619   7.950   4.683   3.012
 6554TIP3    H219620   8.095   4.649   3.034
 6555TIP3   OH219621   3.121   6.548   4.806
 6555TIP3    H119622   3.203   6.500   4.796
 6555TIP3    H219623   3.099   6.540   4.899
 6556TIP3   OH219624   0.989   4.106   6.293
 6556TIP3    H119625   0.993   4.094   6.198
 6556TIP3    H219626   1.072   4.072   6.325
 6557TIP3   OH219627   1.861   4.600   0.835
 6557TIP3    H119628   1.881   4.684   0.794
 6557TIP3    H219629   1.910   4.535   0.784
 6558TIP3   OH219630   2.411   2.835   5.104
 6558TIP3    H119631   2.432   2.845   5.011
 6558TIP3    H219632   2.453   2.910   5.146
 6559TIP3   OH219633   6.687   5.648   4.559
 6559TIP3    H119634   6.778   5.620   4.552
 6559TIP3    H219635   6.640   5.569   4.587
 6560TIP3   OH219636   1.794   7.038   6.799
 6560TIP3    H119637   1.705   7.064   6.772
 6560TIP3    H219638   1.847   7.049   6.720
 6561TIP3   OH219639   5.539   0.688   2.635
 6561TIP3    H119640   5.553   0.762   2.695
 6561TIP3    H219641   5.600   0.704   2.563
 6562TIP3   OH219642   1.925   1.950   6.679
 6562TIP3    H119643   1.839   1.932   6.716
 6562TIP3    H219644   1.978   1.875   6.704
 6563TIP3   OH219645   6.396   0.749   3.733
 6563TIP3    H119646   6.465   0.689   3.763
 6563TIP3    H219647   6.323   0.734   3.793
 6564TIP3   OH219648   0.755   2.189   5.674
 6564TIP3    H119649   0.762   2.167   5.767
 6564TIP3    H219650   0.830   2.144   5.634
 6565TIP3   OH219651   5.661   6.727   4.963
 6565TIP3    H119652   5.674   6.737   4.869
 6565TIP3    H219653   5.676   6.814   5.000
 6566TIP3   OH219654   7.328   2.590   2.705
 6566TIP3    H119655   7.393   2.569   2.638
 6566TIP3    H219656   7.285   2.669   2.672
 6567TIP3   OH219657   4.186   2.415   4.965
 6567TIP3    H119658   4.279   2.396   4.954
 6567TIP3    H219659   4.179   2.510   4.955
 6568TIP3   OH219660   3.497   4.155   1.122
 6568TIP3    H119661   3.456   4.210   1.055
 6568TIP3    H219662   3.424   4.118   1.171
 6569TIP3   OH219663   3.472   1.212   5.668
 6569TIP3    H119664   3.390   1.177   5.703
 6569TIP3    H219665   3.445   1.270   5.597
 6570TIP3   OH219666   1.803   1.781   6.412
 6570TIP3    H119667   1.757   1.719   6.468
 6570TIP3    H219668   1.828   1.853   6.471
 6571TIP3   OH219669   3.141   0.591   0.815
 6571TIP3    H119670   3.204   0.543   0.868
 6571TIP3    H219671   3.168   0.682   0.821
 6572TIP3   OH219672   2.203   5.586   6.291
 6572TIP3    H119673   2.240   5.563   6.205
 6572TIP3    H219674   2.109   5.573   6.280
 6573TIP3   OH219675   6.980   1.302   5.649
 6573TIP3    H119676   7.058   1.316   5.702
 6573TIP3    H219677   6.953   1.212   5.670
 6574TIP3   OH219678   8.312   6.150   4.401
 6574TIP3    H119679   8.348   6.221   4.348
 6574TIP3    H219680   8.240   6.189   4.450
 6575TIP3   OH219681   2.586   7.169   2.551
 6575TIP3    H119682   2.548   7.201   2.633
 6575TIP3    H219683   2.513   7.125   2.506
 6576TIP3   OH219684   6.495   6.445   0.406
 6576TIP3    H119685   6.469   6.523   0.456
 6576TIP3    H219686   6.501   6.476   0.316
 6577TIP3   OH219687   4.595   4.940   0.486
 6577TIP3    H119688   4.665   4.880   0.458
 6577TIP3    H219689   4.606   5.017   0.432
 6578TIP3   OH219690   0.252   4.249   1.978
 6578TIP3    H119691   0.239   4.234   2.071
 6578TIP3    H219692   0.194   4.187   1.935
 6579TIP3   OH219693   6.450   3.429   5.436
 6579TIP3    H119694   6.366   3.474   5.445
 6579TIP3    H219695   6.473   3.403   5.525
 6580TIP3   OH219696   1.002   0.807   5.843
 6580TIP3    H119697   1.077   0.861   5.870
 6580TIP3    H219698   0.934   0.871   5.821
 6581TIP3   OH219699   7.281   7.558   2.207
 6581TIP3    H119700   7.341   7.483   2.214
 6581TIP3    H219701   7.208   7.525   2.155
 6582TIP3   OH219702   1.367   1.611   4.706
 6582TIP3    H119703   1.446   1.561   4.723
 6582TIP3    H219704   1.297   1.562   4.748
 6583TIP3   OH219705   4.916   3.275   2.683
 6583TIP3    H119706   4.995   3.245   2.729
 6583TIP3    H219707   4.855   3.297   2.754
 6584TIP3   OH219708   2.571   2.348   2.302
 6584TIP3    H119709   2.610   2.309   2.380
 6584TIP3    H219710   2.633   2.328   2.232
 6585TIP3   OH219711   3.135   4.829   4.096
 6585TIP3    H119712   3.148   4.900   4.158
 6585TIP3    H219713   3.092   4.871   4.021
 6586TIP3   OH219714   7.081   0.185   1.907
 6586TIP3    H119715   7.068   0.139   1.990
 6586TIP3    H219716   7.154   0.139   1.865
 6587TIP3   OH219717   3.600   7.204   3.350
 6587TIP3    H119718   3.546   7.125   3.359
 6587TIP3    H219719   3.545   7.266   3.303
 6588TIP3   OH219720   4.049   6.253   3.071
 6588TIP3    H119721   4.000   6.334   3.060
 6588TIP3    H219722   4.005   6.208   3.143
 6589TIP3   OH219723   2.621   3.814   3.096
 6589TIP3    H119724   2.679   3.890   3.086
 6589TIP3    H219725   2.678   3.744   3.127
 6590TIP3   OH219726   0.047   6.001   1.415
 6590TIP3    H119727   0.117   6.020   1.477
 6590TIP3    H219728   0.048   5.906   1.407
 6591TIP3   OH219729   0.410   7.189   2.554
 6591TIP3    H119730   0.432   7.193   2.647
 6591TIP3    H219731   0.359   7.268   2.539
 6592TIP3   OH219732   0.692   3.717   3.986
 6592TIP3    H119733   0.624   3.783   3.997
 6592TIP3    H219734   0.646   3.642   3.947
 6593TIP3   OH219735   3.981   5.638   1.278
 6593TIP3    H119736   3.976   5.545   1.256
 6593TIP3    H219737   3.942   5.644   1.365
 6594TIP3   OH219738   3.396   5.021   1.678
 6594TIP3    H119739   3.346   4.940   1.667
 6594TIP3    H219740   3.366   5.077   1.607
 6595TIP3   OH219741   6.572   7.094   2.517
 6595TIP3    H119742   6.603   7.040   2.590
 6595TIP3    H219743   6.478   7.101   2.532
 6596TIP3   OH219744   3.601   5.399   6.345
 6596TIP3    H119745   3.607   5.338   6.271
 6596TIP3    H219746   3.679   5.454   6.337
 6597TIP3   OH219747   3.838   2.077   3.641
 6597TIP3    H119748   3.879   2.129   3.573
 6597TIP3    H219749   3.884   2.101   3.721
 6598TIP3   OH219750   0.253   1.076   6.031
 6598TIP3    H119751   0.345   1.097   6.014
 6598TIP3    H219752   0.211   1.077   5.945
 6599TIP3   OH219753   5.323   0.932   6.607
 6599TIP3    H119754   5.374   0.926   6.687
 6599TIP3    H219755   5.277   0.849   6.601
 6600TIP3   OH219756   2.646   5.059   5.973
 6600TIP3    H119757   2.612   4.977   5.936
 6600TIP3    H219758   2.616   5.127   5.912
 6601TIP3   OH219759   4.364   7.536   0.240
 6601TIP3    H119760   4.338   7.607   0.299
 6601TIP3    H219761   4.344   7.568   0.152
 6602TIP3   OH219762   7.408   5.344   5.678
 6602TIP3    H119763   7.324   5.300   5.691
 6602TIP3    H219764   7.388   5.437   5.684
 6603TIP3   OH219765   6.740   0.575   5.706
 6603TIP3    H119766   6.833   0.573   5.729
 6603TIP3    H219767   6.706   0.491   5.738
 6604TIP3   OH219768   6.097   0.751   2.522
 6604TIP3    H119769   6.186   0.749   2.555
 6604TIP3    H219770   6.075   0.660   2.504
 6605TIP3   OH219771   7.237   0.980   1.060
 6605TIP3    H119772   7.211   1.062   1.019
 6605TIP3    H219773   7.195   0.981   1.146
 6606TIP3   OH219774   8.103   6.573   4.672
 6606TIP3    H119775   8.146   6.655   4.698
 6606TIP3    H219776   8.104   6.520   4.752
 6607TIP3   OH219777   1.071   6.881   3.648
 6607TIP3    H119778   0.982   6.909   3.670
 6607TIP3    H219779   1.119   6.962   3.638
 6608TIP3   OH219780   4.094   4.818   2.580
 6608TIP3    H119781   4.033   4.753   2.545
 6608TIP3    H219782   4.131   4.776   2.658
 6609TIP3   OH219783   5.915   7.559   5.364
 6609TIP3    H119784   5.846   7.573   5.429
 6609TIP3    H219785   5.893   7.476   5.323
 6610TIP3   OH219786   4.650   0.602   5.239
 6610TIP3    H119787   4.621   0.693   5.247
 6610TIP3    H219788   4.596   0.554   5.302
 6611TIP3   OH219789   5.038   0.973   5.171
 6611TIP3    H119790   4.992   0.915   5.232
 6611TIP3    H219791   5.032   1.060   5.211
 6612TIP3   OH219792   0.802   3.429   1.957
 6612TIP3    H119793   0.861   3.354   1.960
 6612TIP3    H219794   0.850   3.500   2.000
 6613TIP3   OH219795   1.302   0.006   2.289
 6613TIP3    H119796   1.215   0.001   2.250
 6613TIP3    H219797   1.287   0.043   2.376
 6614TIP3   OH219798   4.477   3.942   6.050
 6614TIP3    H119799   4.501   4.034   6.041
 6614TIP3    H219800   4.529   3.896   5.984
 6615TIP3   OH219801   6.286   6.774   1.526
 6615TIP3    H119802   6.304   6.756   1.434
 6615TIP3    H219803   6.363   6.741   1.573
 6616TIP3   OH219804   4.406   4.959   4.185
 6616TIP3    H119805   4.464   4.883   4.173
 6616TIP3    H219806   4.319   4.927   4.160
 6617TIP3   OH219807   2.517   7.774   3.844
 6617TIP3    H119808   2.553   7.762   3.757
 6617TIP3    H219809   2.425   7.798   3.829
 6618TIP3   OH219810   4.172   1.985   4.438
 6618TIP3    H119811   4.206   1.896   4.426
 6618TIP3    H219812   4.199   2.010   4.526
 6619TIP3   OH219813   0.936   3.208   2.067
 6619TIP3    H119814   0.899   3.141   2.124
 6619TIP3    H219815   1.009   3.166   2.023
 6620TIP3   OH219816   1.587   0.745   2.127
 6620TIP3    H119817   1.577   0.707   2.040
 6620TIP3    H219818   1.515   0.708   2.177
 6621TIP3   OH219819   0.723  -0.011   5.545
 6621TIP3    H119820   0.628  -0.003   5.557
 6621TIP3    H219821   0.760   0.061   5.595
 6622TIP3   OH219822   7.655   5.846   5.664
 6622TIP3    H119823   7.626   5.843   5.755
 6622TIP3    H219824   7.733   5.901   5.665
 6623TIP3   OH219825   1.828   4.508   5.656
 6623TIP3    H119826   1.857   4.421   5.628
 6623TIP3    H219827   1.904   4.565   5.641
 6624TIP3   OH219828   4.116   1.625   0.330
 6624TIP3    H119829   4.156   1.648   0.246
 6624TIP3    H219830   4.167   1.673   0.395
 6625TIP3   OH219831   0.345   5.825   3.172
 6625TIP3    H119832   0.389   5.814   3.087
 6625TIP3    H219833   0.392   5.896   3.214
 6626TIP3   OH219834   7.423   6.724   0.707
 6626TIP3    H119835   7.404   6.636   0.739
 6626TIP3    H219836   7.518   6.726   0.697
 6627TIP3   OH219837   1.296   5.470   2.374
 6627TIP3    H119838   1.234   5.400   2.354
 6627TIP3    H219839   1.330   5.498   2.288
 6628TIP3   OH219840   7.508   6.864   0.410
 6628TIP3    H119841   7.444   6.870   0.480
 6628TIP3    H219842   7.465   6.905   0.334
 6629TIP3   OH219843   7.882   0.515   5.419
 6629TIP3    H119844   7.856   0.542   5.331
 6629TIP3    H219845   7.815   0.452   5.446
 6630TIP3   OH219846   1.915   4.531   5.238
 6630TIP3    H119847   1.975   4.462   5.267
 6630TIP3    H219848   1.942   4.609   5.288
 6631TIP3   OH219849   2.586   4.390   0.814
 6631TIP3    H119850   2.625   4.451   0.877
 6631TIP3    H219851   2.512   4.437   0.776
 6632TIP3   OH219852   4.208   0.399   0.237
 6632TIP3    H119853   4.289   0.350   0.232
 6632TIP3    H219854   4.178   0.406   0.147
 6633TIP3   OH219855   8.190   2.379   5.948
 6633TIP3    H119856   8.239   2.318   5.894
 6633TIP3    H219857   8.150   2.324   6.016
 6634TIP3   OH219858   4.067   7.208   1.904
 6634TIP3    H119859   4.117   7.131   1.930
 6634TIP3    H219860   3.976   7.180   1.907
 6635TIP3   OH219861   1.241   1.070   1.516
 6635TIP3    H119862   1.186   1.020   1.457
 6635TIP3    H219863   1.180   1.119   1.571
 6636TIP3   OH219864   3.990   2.022   6.061
 6636TIP3    H119865   3.959   2.102   6.019
 6636TIP3    H219866   4.086   2.031   6.061
 6637TIP3   OH219867   5.022   4.988   6.473
 6637TIP3    H119868   4.972   4.936   6.536
 6637TIP3    H219869   4.977   5.073   6.471
 6638TIP3   OH219870   1.756   2.758   2.802
 6638TIP3    H119871   1.788   2.818   2.870
 6638TIP3    H219872   1.729   2.680   2.850
 6639TIP3   OH219873   0.555   0.930   4.392
 6639TIP3    H119874   0.525   1.021   4.404
 6639TIP3    H219875   0.566   0.921   4.297
 6640TIP3   OH219876   6.597   2.218   0.945
 6640TIP3    H119877   6.519   2.271   0.927
 6640TIP3    H219878   6.667   2.263   0.898
 6641TIP3   OH219879   2.475   6.006   5.628
 6641TIP3    H119880   2.525   5.971   5.702
 6641TIP3    H219881   2.409   5.939   5.611
 6642TIP3   OH219882   3.444   6.628   1.305
 6642TIP3    H119883   3.529   6.671   1.308
 6642TIP3    H219884   3.455   6.557   1.242
 6643TIP3   OH219885   6.502   4.988   0.206
 6643TIP3    H119886   6.506   5.067   0.259
 6643TIP3    H219887   6.435   4.934   0.247
 6644TIP3   OH219888   7.023   5.112   2.133
 6644TIP3    H119889   6.983   5.027   2.114
 6644TIP3    H219890   7.106   5.110   2.086
 6645TIP3   OH219891   0.245   3.946   6.752
 6645TIP3    H119892   0.209   4.023   6.708
 6645TIP3    H219893   0.322   3.923   6.700
 6646TIP3   OH219894   1.761   5.819   1.722
 6646TIP3    H119895   1.763   5.747   1.785
 6646TIP3    H219896   1.672   5.854   1.727
 6647TIP3   OH219897   8.008   0.412   6.574
 6647TIP3    H119898   8.051   0.372   6.650
 6647TIP3    H219899   8.040   0.362   6.499
 6648TIP3   OH219900   0.836   3.687   0.386
 6648TIP3    H119901   0.751   3.650   0.411
 6648TIP3    H219902   0.878   3.707   0.470
 6649TIP3   OH219903   3.856   2.067   1.730
 6649TIP3    H119904   3.830   1.977   1.748
 6649TIP3    H219905   3.873   2.069   1.636
 6650TIP3   OH219906   3.763   1.279   0.247
 6650TIP3    H119907   3.699   1.350   0.260
 6650TIP3    H219908   3.760   1.262   0.153
 6651TIP3   OH219909   4.520   3.733   2.386
 6651TIP3    H119910   4.504   3.654   2.436
 6651TIP3    H219911   4.512   3.804   2.450
 6652TIP3   OH219912   4.313   4.974   1.029
 6652TIP3    H119913   4.399   4.939   1.008
 6652TIP3    H219914   4.309   4.974   1.125
 6653TIP3   OH219915   7.742   0.410   6.459
 6653TIP3    H119916   7.752   0.327   6.411
 6653TIP3    H219917   7.819   0.414   6.515
 6654TIP3   OH219918   0.732   2.879   5.170
 6654TIP3    H119919   0.646   2.904   5.204
 6654TIP3    H219920   0.773   2.962   5.147
 6655TIP3   OH219921   5.738   5.084   6.416
 6655TIP3    H119922   5.676   5.014   6.396
 6655TIP3    H219923   5.686   5.151   6.460
 6656TIP3   OH219924   8.059   7.623   3.990
 6656TIP3    H119925   8.030   7.578   4.070
 6656TIP3    H219926   8.036   7.715   4.005
 6657TIP3   OH219927   3.911   7.748   5.609
 6657TIP3    H119928   3.976   7.729   5.676
 6657TIP3    H219929   3.828   7.756   5.657
 6658TIP3   OH219930   2.513   1.270   2.712
 6658TIP3    H119931   2.593   1.226   2.683
 6658TIP3    H219932   2.462   1.283   2.633
 6659TIP3   OH219933   4.360   2.503   0.576
 6659TIP3    H119934   4.426   2.469   0.636
 6659TIP3    H219935   4.293   2.434   0.572
 6660TIP3   OH219936   4.981   2.365   5.386
 6660TIP3    H119937   4.969   2.285   5.335
 6660TIP3    H219938   4.923   2.355   5.461
 6661TIP3   OH219939   2.817   7.812   6.422
 6661TIP3    H119940   2.859   7.767   6.349
 6661TIP3    H219941   2.835   7.755   6.498
 6662TIP3   OH219942   2.581   6.028   3.700
 6662TIP3    H119943   2.542   5.941   3.694
 6662TIP3    H219944   2.633   6.026   3.781
 6663TIP3   OH219945   2.650   5.056   6.711
 6663TIP3    H119946   2.733   5.021   6.680
 6663TIP3    H219947   2.611   5.097   6.634
 6664TIP3   OH219948   4.356   1.120   4.597
 6664TIP3    H119949   4.405   1.051   4.551
 6664TIP3    H219950   4.376   1.105   4.690
 6665TIP3   OH219951   1.158   4.137   2.891
 6665TIP3    H119952   1.224   4.100   2.832
 6665TIP3    H219953   1.093   4.176   2.832
 6666TIP3   OH219954   8.269   5.609   2.834
 6666TIP3    H119955   8.352   5.584   2.794
 6666TIP3    H219956   8.225   5.661   2.766
 6667TIP3   OH219957   2.429   7.547   4.015
 6667TIP3    H119958   2.496   7.482   3.994
 6667TIP3    H219959   2.446   7.620   3.954
 6668TIP3   OH219960   1.985   4.649   6.698
 6668TIP3    H119961   1.960   4.720   6.639
 6668TIP3    H219962   2.016   4.579   6.640
 6669TIP3   OH219963   3.222   3.881   0.736
 6669TIP3    H119964   3.212   3.891   0.641
 6669TIP3    H219965   3.239   3.787   0.749
 6670TIP3   OH219966   0.622   7.676   6.526
 6670TIP3    H119967   0.662   7.736   6.589
 6670TIP3    H219968   0.671   7.691   6.444
 6671TIP3   OH219969   4.854   3.061   4.003
 6671TIP3    H119970   4.777   3.012   3.975
 6671TIP3    H219971   4.925   3.028   3.947
 6672TIP3   OH219972   5.145   1.876   3.445
 6672TIP3    H119973   5.072   1.818   3.467
 6672TIP3    H219974   5.126   1.958   3.491
 6673TIP3   OH219975   7.521   5.079   6.249
 6673TIP3    H119976   7.550   5.062   6.339
 6673TIP3    H219977   7.426   5.063   6.251
 6674TIP3   OH219978   5.411   1.533   3.988
 6674TIP3    H119979   5.455   1.529   3.903
 6674TIP3    H219980   5.351   1.607   3.981
 6675TIP3   OH219981   7.856   3.795   4.523
 6675TIP3    H119982   7.779   3.739   4.510
 6675TIP3    H219983   7.855   3.854   4.448
 6676TIP3   OH219984   7.954   3.563   3.053
 6676TIP3    H119985   7.924   3.644   3.095
 6676TIP3    H219986   7.883   3.540   2.993
 6677TIP3   OH219987   7.422   5.833   4.871
 6677TIP3    H119988   7.447   5.790   4.789
 6677TIP3    H219989   7.502   5.874   4.902
 6678TIP3   OH219990   2.310   5.730   1.177
 6678TIP3    H119991   2.309   5.730   1.081
 6678TIP3    H219992   2.237   5.673   1.202
 6679TIP3   OH219993   4.957   2.226   2.488
 6679TIP3    H119994   4.907   2.208   2.409
 6679TIP3    H219995   5.009   2.304   2.466
 6680TIP3   OH219996   6.130   4.844   0.582
 6680TIP3    H119997   6.191   4.918   0.580
 6680TIP3    H219998   6.073   4.862   0.657
 6681TIP3   OH219999   3.657   6.598   0.206
 6681TIP3    H120000   3.595   6.576   0.276
 6681TIP3    H220001   3.729   6.643   0.250
 6682TIP3   OH220002   2.956   6.903   4.681
 6682TIP3    H120003   2.894   6.854   4.733
 6682TIP3    H220004   3.022   6.839   4.654
 6683TIP3   OH220005   6.115   2.354   1.207
 6683TIP3    H120006   6.100   2.448   1.200
 6683TIP3    H220007   6.090   2.332   1.297
 6684TIP3   OH220008   6.993   1.561   5.578
 6684TIP3    H120009   7.004   1.469   5.555
 6684TIP3    H220010   6.964   1.603   5.497
 6685TIP3   OH220011   6.859   6.790   2.325
 6685TIP3    H120012   6.768   6.814   2.306
 6685TIP3    H220013   6.906   6.802   2.242
 6686TIP3   OH220014   4.410   0.980   0.250
 6686TIP3    H120015   4.422   0.958   0.342
 6686TIP3    H220016   4.401   0.896   0.206
 6687TIP3   OH220017   4.259   6.225   3.329
 6687TIP3    H120018   4.237   6.305   3.376
 6687TIP3    H220019   4.270   6.252   3.238
 6688TIP3   OH220020   2.348   4.281   3.575
 6688TIP3    H120021   2.415   4.343   3.606
 6688TIP3    H220022   2.287   4.335   3.524
 6689TIP3   OH220023   8.101   1.781   0.396
 6689TIP3    H120024   8.049   1.703   0.411
 6689TIP3    H220025   8.037   1.852   0.392
 6690TIP3   OH220026   3.686   7.702   2.384
 6690TIP3    H120027   3.656   7.615   2.410
 6690TIP3    H220028   3.696   7.749   2.466
 6691TIP3   OH220029   6.515   4.414   3.467
 6691TIP3    H120030   6.553   4.343   3.415
 6691TIP3    H220031   6.571   4.421   3.544
 6692TIP3   OH220032   5.883   4.160   0.412
 6692TIP3    H120033   5.858   4.107   0.487
 6692TIP3    H220034   5.962   4.206   0.441
 6693TIP3   OH220035   6.082   5.904   6.485
 6693TIP3    H120036   6.177   5.913   6.470
 6693TIP3    H220037   6.062   5.814   6.460
 6694TIP3   OH220038   1.297   1.103   5.554
 6694TIP3    H120039   1.225   1.078   5.612
 6694TIP3    H220040   1.321   1.191   5.582
 6695TIP3   OH220041   6.692   6.073   4.245
 6695TIP3    H120042   6.656   5.985   4.253
 6695TIP3    H220043   6.781   6.065   4.279
 6696TIP3   OH220044   5.517   5.917   4.116
 6696TIP3    H120045   5.462   5.991   4.089
 6696TIP3    H220046   5.479   5.841   4.072
 6697TIP3   OH220047   4.107   0.390   6.619
 6697TIP3    H120048   4.181   0.449   6.635
 6697TIP3    H220049   4.148   0.309   6.589
 6698TIP3   OH220050   4.112   4.326   5.507
 6698TIP3    H120051   4.200   4.295   5.528
 6698TIP3    H220052   4.126   4.401   5.449
 6699TIP3   OH220053   4.857   0.433   1.361
 6699TIP3    H120054   4.927   0.370   1.374
 6699TIP3    H220055   4.811   0.403   1.283
 6700TIP3   OH220056   2.598   0.040   0.589
 6700TIP3    H120057   2.631  -0.018   0.657
 6700TIP3    H220058   2.644   0.122   0.602
 6701TIP3   OH220059   5.331   7.115   1.057
 6701TIP3    H120060   5.355   7.095   0.967
 6701TIP3    H220061   5.386   7.191   1.081
 6702TIP3   OH220062   8.161   1.606   5.984
 6702TIP3    H120063   8.200   1.530   5.942
 6702TIP3    H220064   8.234   1.647   6.031
 6703TIP3   OH220065   2.655   2.637   4.471
 6703TIP3    H120066   2.681   2.550   4.440
 6703TIP3    H220067   2.655   2.629   4.566
 6704TIP3   OH220068   4.305   0.285   0.824
 6704TIP3    H120069   4.218   0.323   0.838
 6704TIP3    H220070   4.313   0.277   0.729
 6705TIP3   OH220071   1.743   0.535   1.196
 6705TIP3    H120072   1.728   0.477   1.121
 6705TIP3    H220073   1.721   0.623   1.163
 6706TIP3   OH220074   4.737   1.713   0.557
 6706TIP3    H120075   4.748   1.807   0.543
 6706TIP3    H220076   4.665   1.707   0.620
 6707TIP3   OH220077   0.251   3.470   0.206
 6707TIP3    H120078   0.344   3.474   0.182
 6707TIP3    H220079   0.204   3.490   0.124
 6708TIP3   OH220080   4.853   1.146   0.052
 6708TIP3    H120081   4.776   1.093   0.070
 6708TIP3    H220082   4.864   1.200   0.130
 6709TIP3   OH220083   2.530   2.544   5.920
 6709TIP3    H120084   2.518   2.451   5.902
 6709TIP3    H220085   2.450   2.570   5.967
 6710TIP3   OH220086   6.116   1.635   5.819
 6710TIP3    H120087   6.174   1.583   5.763
 6710TIP3    H220088   6.028   1.609   5.792
 6711TIP3   OH220089   1.443   2.560   0.477
 6711TIP3    H120090   1.481   2.527   0.396
 6711TIP3    H220091   1.349   2.557   0.462
 6712TIP3   OH220092   2.726   2.636   5.345
 6712TIP3    H120093   2.799   2.697   5.346
 6712TIP3    H220094   2.714   2.611   5.437
 6713TIP3   OH220095   1.182   6.642   2.514
 6713TIP3    H120096   1.147   6.555   2.533
 6713TIP3    H220097   1.146   6.699   2.583
 6714TIP3   OH220098   8.286   3.180   2.571
 6714TIP3    H120099   8.201   3.224   2.578
 6714TIP3    H220100   8.274   3.098   2.618
 6715TIP3   OH220101   3.937   3.982   3.850
 6715TIP3    H120102   3.889   3.900   3.861
 6715TIP3    H220103   3.879   4.038   3.799
 6716TIP3   OH220104   0.300   0.352   5.346
 6716TIP3    H120105   0.337   0.431   5.307
 6716TIP3    H220106   0.224   0.332   5.291
 6717TIP3   OH220107   2.831   5.912   5.600
 6717TIP3    H120108   2.861   5.931   5.511
 6717TIP3    H220109   2.783   5.990   5.626
 6718TIP3   OH220110   7.176   2.651   0.326
 6718TIP3    H120111   7.120   2.610   0.260
 6718TIP3    H220112   7.171   2.592   0.401
 6719TIP3   OH220113   1.530   2.615   2.390
 6719TIP3    H120114   1.521   2.545   2.326
 6719TIP3    H220115   1.451   2.608   2.445
 6720TIP3   OH220116   4.556   0.634   4.072
 6720TIP3    H120117   4.468   0.601   4.088
 6720TIP3    H220118   4.565   0.634   3.977
 6721TIP3   OH220119   4.919   6.414   0.490
 6721TIP3    H120120   4.926   6.458   0.405
 6721TIP3    H220121   4.884   6.327   0.469
 6722TIP3   OH220122   0.953   7.297   2.200
 6722TIP3    H120123   1.004   7.225   2.163
 6722TIP3    H220124   0.877   7.305   2.142
 6723TIP3   OH220125   3.721   6.065   2.306
 6723TIP3    H120126   3.702   6.113   2.225
 6723TIP3    H220127   3.795   6.112   2.345
 6724TIP3   OH220128   3.814   1.802   3.799
 6724TIP3    H120129   3.857   1.724   3.764
 6724TIP3    H220130   3.809   1.862   3.726
 6725TIP3   OH220131   2.594   6.880   6.668
 6725TIP3    H120132   2.503   6.860   6.647
 6725TIP3    H220133   2.645   6.817   6.617
 6726TIP3   OH220134   4.323   7.108   1.445
 6726TIP3    H120135   4.303   7.189   1.492
 6726TIP3    H220136   4.276   7.116   1.362
 6727TIP3   OH220137   0.764   6.719   3.709
 6727TIP3    H120138   0.827   6.693   3.641
 6727TIP3    H220139   0.766   6.815   3.709
 6728TIP3   OH220140   7.154   3.712   3.185
 6728TIP3    H120141   7.083   3.730   3.247
 6728TIP3    H220142   7.234   3.721   3.238
 6729TIP3   OH220143   2.335   0.544   1.589
 6729TIP3    H120144   2.411   0.496   1.559
 6729TIP3    H220145   2.322   0.516   1.680
 6730TIP3   OH220146   7.910   6.801   3.819
 6730TIP3    H120147   7.915   6.772   3.910
 6730TIP3    H220148   7.838   6.749   3.782
 6731TIP3   OH220149   5.240   4.894   1.285
 6731TIP3    H120150   5.158   4.936   1.260
 6731TIP3    H220151   5.216   4.804   1.305
 6732TIP3   OH220152   2.656   1.035   0.953
 6732TIP3    H120153   2.664   0.967   0.886
 6732TIP3    H220154   2.742   1.078   0.954
 6733TIP3   OH220155   4.095   0.356   4.571
 6733TIP3    H120156   4.072   0.440   4.611
 6733TIP3    H220157   4.097   0.294   4.644
 6734TIP3   OH220158   3.260   6.164   1.809
 6734TIP3    H120159   3.291   6.082   1.771
 6734TIP3    H220160   3.165   6.162   1.797
 6735TIP3   OH220161   0.274   4.632   4.743
 6735TIP3    H120162   0.245   4.698   4.806
 6735TIP3    H220163   0.198   4.615   4.688
 6736TIP3   OH220164   6.533   4.679   2.191
 6736TIP3    H120165   6.477   4.739   2.141
 6736TIP3    H220166   6.498   4.682   2.280
 6737TIP3   OH220167   4.918   4.507   5.579
 6737TIP3    H120168   4.917   4.587   5.526
 6737TIP3    H220169   4.914   4.436   5.515
 6738TIP3   OH220170   1.508   0.820   6.567
 6738TIP3    H120171   1.574   0.863   6.513
 6738TIP3    H220172   1.524   0.854   6.655
 6739TIP3   OH220173   2.945   6.722   1.929
 6739TIP3    H120174   2.953   6.812   1.961
 6739TIP3    H220175   2.964   6.728   1.835
 6740TIP3   OH220176   2.348   4.601   2.717
 6740TIP3    H120177   2.277   4.538   2.703
 6740TIP3    H220178   2.365   4.637   2.630
 6741TIP3   OH220179   2.108   6.337   6.242
 6741TIP3    H120180   2.188   6.332   6.190
 6741TIP3    H220181   2.107   6.255   6.292
 6742TIP3   OH220182   2.427   1.960   3.063
 6742TIP3    H120183   2.460   1.889   3.119
 6742TIP3    H220184   2.343   1.928   3.031
 6743TIP3   OH220185   2.519   6.671   3.552
 6743TIP3    H120186   2.428   6.661   3.580
 6743TIP3    H220187   2.551   6.582   3.543
 6744TIP3   OH220188   0.113   1.091   5.795
 6744TIP3    H120189   0.039   1.059   5.846
 6744TIP3    H220190   0.087   1.078   5.704
 6745TIP3   OH220191   3.489   0.813   3.380
 6745TIP3    H120192   3.460   0.815   3.289
 6745TIP3    H220193   3.504   0.905   3.402
 6746TIP3   OH220194   3.123   6.083   1.511
 6746TIP3    H120195   3.031   6.088   1.536
 6746TIP3    H220196   3.144   6.170   1.476
 6747TIP3   OH220197   7.986   5.815   2.343
 6747TIP3    H120198   7.944   5.802   2.257
 6747TIP3    H220199   7.942   5.752   2.401
 6748TIP3   OH220200   3.325   3.213   5.794
 6748TIP3    H120201   3.373   3.263   5.861
 6748TIP3    H220202   3.355   3.123   5.805
 6749TIP3   OH220203   5.941   0.079   2.820
 6749TIP3    H120204   6.025   0.035   2.808
 6749TIP3    H220205   5.961   0.154   2.876
 6750TIP3   OH220206   3.653   2.079   4.096
 6750TIP3    H120207   3.666   1.995   4.052
 6750TIP3    H220208   3.633   2.140   4.025
 6751TIP3   OH220209   1.731   5.417   5.014
 6751TIP3    H120210   1.752   5.362   4.938
 6751TIP3    H220211   1.654   5.375   5.053
 6752TIP3   OH220212   2.169   2.841   0.628
 6752TIP3    H120213   2.084   2.798   0.624
 6752TIP3    H220214   2.229   2.774   0.661
 6753TIP3   OH220215   8.096   3.282   1.235
 6753TIP3    H120216   8.148   3.266   1.314
 6753TIP3    H220217   8.152   3.339   1.181
 6754TIP3   OH220218   3.722   7.516   0.201
 6754TIP3    H120219   3.639   7.559   0.180
 6754TIP3    H220220   3.706   7.424   0.184
 6755TIP3   OH220221   3.288   4.768   3.618
 6755TIP3    H120222   3.319   4.678   3.627
 6755TIP3    H220223   3.361   4.815   3.577
 6756TIP3   OH220224   4.044   3.552   2.793
 6756TIP3    H120225   4.135   3.548   2.824
 6756TIP3    H220226   4.050   3.532   2.700
 6757TIP3   OH220227   7.289   3.614   4.283
 6757TIP3    H120228   7.283   3.663   4.365
 6757TIP3    H220229   7.322   3.678   4.219
 6758TIP3   OH220230   5.068   2.952   0.792
 6758TIP3    H120231   5.132   3.010   0.749
 6758TIP3    H220232   4.983   2.993   0.774
 6759TIP3   OH220233   5.382   2.108   4.041
 6759TIP3    H120234   5.327   2.031   4.026
 6759TIP3    H220235   5.327   2.167   4.092
 6760TIP3   OH220236   4.499   6.194   4.822
 6760TIP3    H120237   4.423   6.211   4.767
 6760TIP3    H220238   4.544   6.279   4.828
 6761TIP3   OH220239   2.150   2.763   3.483
 6761TIP3    H120240   2.134   2.794   3.573
 6761TIP3    H220241   2.080   2.803   3.432
 6762TIP3   OH220242   1.427   2.550   4.807
 6762TIP3    H120243   1.375   2.567   4.886
 6762TIP3    H220244   1.410   2.459   4.786
 6763TIP3   OH220245   7.955   3.072   2.546
 6763TIP3    H120246   7.877   3.118   2.516
 6763TIP3    H220247   8.014   3.141   2.577
 6764TIP3   OH220248   3.860   2.200   2.557
 6764TIP3    H120249   3.827   2.289   2.544
 6764TIP3    H220250   3.783   2.148   2.580
 6765TIP3   OH220251   1.367   2.751   5.584
 6765TIP3    H120252   1.349   2.845   5.593
 6765TIP3    H220253   1.444   2.736   5.639
 6766TIP3   OH220254   7.341   2.144   4.062
 6766TIP3    H120255   7.378   2.077   4.004
 6766TIP3    H220256   7.350   2.107   4.150
 6767TIP3   OH220257   2.390   6.696   1.190
 6767TIP3    H120258   2.384   6.760   1.260
 6767TIP3    H220259   2.469   6.645   1.211
 6768TIP3   OH220260   1.385   4.971   3.614
 6768TIP3    H120261   1.312   4.941   3.561
 6768TIP3    H220262   1.382   4.916   3.692
 6769TIP3   OH220263   8.014   2.285   4.357
 6769TIP3    H120264   8.007   2.358   4.295
 6769TIP3    H220265   7.944   2.300   4.420
 6770TIP3   OH220266   3.793   4.194   5.086
 6770TIP3    H120267   3.855   4.121   5.079
 6770TIP3    H220268   3.736   4.184   5.010
 6771TIP3   OH220269   4.622   4.267   6.379
 6771TIP3    H120270   4.555   4.321   6.335
 6771TIP3    H220271   4.650   4.320   6.453
 6772TIP3   OH220272   1.009   4.917   1.361
 6772TIP3    H120273   1.024   4.873   1.444
 6772TIP3    H220274   0.988   5.008   1.384
 6773TIP3   OH220275   3.806   5.346   5.101
 6773TIP3    H120276   3.724   5.383   5.067
 6773TIP3    H220277   3.778   5.289   5.172
 6774TIP3   OH220278   7.870   7.359   5.629
 6774TIP3    H120279   7.825   7.274   5.624
 6774TIP3    H220280   7.802   7.419   5.659
 6775TIP3   OH220281   6.202   7.297   4.635
 6775TIP3    H120282   6.279   7.352   4.623
 6775TIP3    H220283   6.147   7.315   4.559
 6776TIP3   OH220284   4.089   1.318   1.466
 6776TIP3    H120285   4.140   1.289   1.391
 6776TIP3    H220286   4.009   1.355   1.429
 6777TIP3   OH220287   3.447   5.049   4.742
 6777TIP3    H120288   3.517   5.012   4.690
 6777TIP3    H220289   3.419   5.127   4.694
 6778TIP3   OH220290   6.869   1.963   1.626
 6778TIP3    H120291   6.881   2.044   1.575
 6778TIP3    H220292   6.874   1.992   1.717
 6779TIP3   OH220293   7.440   5.796   5.344
 6779TIP3    H120294   7.357   5.826   5.382
 6779TIP3    H220295   7.416   5.762   5.258
 6780TIP3   OH220296   7.227   5.702   2.132
 6780TIP3    H120297   7.183   5.784   2.109
 6780TIP3    H220298   7.155   5.639   2.143
 6781TIP3   OH220299   0.811   7.642   3.850
 6781TIP3    H120300   0.783   7.688   3.929
 6781TIP3    H220301   0.753   7.566   3.844
 6782TIP3   OH220302   0.212   0.552   4.544
 6782TIP3    H120303   0.270   0.617   4.505
 6782TIP3    H220304   0.148   0.532   4.475
 6783TIP3   OH220305   7.789   3.452   5.465
 6783TIP3    H120306   7.711   3.401   5.446
 6783TIP3    H220307   7.783   3.471   5.559
 6784TIP3   OH220308   7.782   6.717   0.035
 6784TIP3    H120309   7.761   6.720  -0.058
 6784TIP3    H220310   7.737   6.792   0.073
 6785TIP3   OH220311   5.702   5.572   1.535
 6785TIP3    H120312   5.757   5.646   1.562
 6785TIP3    H220313   5.612   5.605   1.543
 6786TIP3   OH220314   0.864   4.765   0.913
 6786TIP3    H120315   0.845   4.678   0.877
 6786TIP3    H220316   0.803   4.774   0.987
 6787TIP3   OH220317   7.965   7.796   3.039
 6787TIP3    H120318   8.034   7.735   3.011
 6787TIP3    H220319   8.002   7.883   3.023
 6788TIP3   OH220320   7.420   0.190   0.020
 6788TIP3    H120321   7.351   0.250   0.049
 6788TIP3    H220322   7.374   0.125  -0.034
 6789TIP3   OH220323   8.204   4.462   1.983
 6789TIP3    H120324   8.152   4.416   2.048
 6789TIP3    H220325   8.288   4.477   2.026
 6790TIP3   OH220326   7.964   2.783   2.916
 6790TIP3    H120327   8.044   2.798   2.866
 6790TIP3    H220328   7.894   2.814   2.859
 6791TIP3   OH220329   4.426   1.777   3.195
 6791TIP3    H120330   4.456   1.853   3.145
 6791TIP3    H220331   4.449   1.796   3.286
 6792TIP3   OH220332   6.542   2.154   0.173
 6792TIP3    H120333   6.595   2.229   0.201
 6792TIP3    H220334   6.577   2.081   0.223
 6793TIP3   OH220335   4.572   5.405   1.129
 6793TIP3    H120336   4.655   5.361   1.146
 6793TIP3    H220337   4.576   5.485   1.180
 6794TIP3   OH220338   4.837   6.343   5.904
 6794TIP3    H120339   4.912   6.363   5.848
 6794TIP3    H220340   4.772   6.304   5.844
 6795TIP3   OH220341   0.318   2.479   1.849
 6795TIP3    H120342   0.401   2.501   1.891
 6795TIP3    H220343   0.317   2.530   1.768
 6796TIP3   OH220344   5.226   3.032   2.961
 6796TIP3    H120345   5.166   2.966   2.996
 6796TIP3    H220346   5.278   2.985   2.896
 6797TIP3   OH220347   2.753   4.055   4.886
 6797TIP3    H120348   2.769   4.096   4.971
 6797TIP3    H220349   2.698   3.979   4.906
 6798TIP3   OH220350   6.768   2.387   1.436
 6798TIP3    H120351   6.703   2.455   1.418
 6798TIP3    H220352   6.717   2.309   1.452
 6799TIP3   OH220353   1.775   0.778   0.542
 6799TIP3    H120354   1.710   0.717   0.577
 6799TIP3    H220355   1.743   0.865   0.566
 6800TIP3   OH220356   2.711   3.701   4.337
 6800TIP3    H120357   2.770   3.711   4.262
 6800TIP3    H220358   2.633   3.659   4.301
 6801TIP3   OH220359   6.207   0.097   6.074
 6801TIP3    H120360   6.168   0.172   6.119
 6801TIP3    H220361   6.152   0.083   5.997
 6802TIP3   OH220362   1.049   3.622   4.372
 6802TIP3    H120363   0.988   3.629   4.299
 6802TIP3    H220364   1.012   3.679   4.439
 6803TIP3   OH220365   7.259   1.784   3.405
 6803TIP3    H120366   7.264   1.837   3.484
 6803TIP3    H220367   7.265   1.846   3.333
 6804TIP3   OH220368   3.901   1.388   4.321
 6804TIP3    H120369   3.974   1.329   4.301
 6804TIP3    H220370   3.927   1.431   4.402
 6805TIP3   OH220371   5.426   0.561   3.235
 6805TIP3    H120372   5.482   0.545   3.158
 6805TIP3    H220373   5.358   0.494   3.230
 6806TIP3   OH220374   7.555   4.041   3.448
 6806TIP3    H120375   7.607   3.967   3.416
 6806TIP3    H220376   7.575   4.044   3.542
 6807TIP3   OH220377   1.244   4.929   0.603
 6807TIP3    H120378   1.274   4.844   0.569
 6807TIP3    H220379   1.164   4.908   0.651
 6808TIP3   OH220380   3.067   0.821   4.916
 6808TIP3    H120381   3.156   0.805   4.949
 6808TIP3    H220382   3.033   0.734   4.897
 6809TIP3   OH220383   1.606   6.630   1.214
 6809TIP3    H120384   1.590   6.558   1.153
 6809TIP3    H220385   1.688   6.669   1.184
 6810TIP3   OH220386   7.846   4.536   1.167
 6810TIP3    H120387   7.911   4.509   1.102
 6810TIP3    H220388   7.895   4.547   1.248
 6811TIP3   OH220389   2.955   0.041   5.392
 6811TIP3    H120390   2.938   0.062   5.484
 6811TIP3    H220391   2.926   0.118   5.344
 6812TIP3   OH220392   8.122   0.309   1.089
 6812TIP3    H120393   8.163   0.371   1.149
 6812TIP3    H220394   8.048   0.273   1.138
 6813TIP3   OH220395   6.337   0.604   1.693
 6813TIP3    H120396   6.310   0.600   1.785
 6813TIP3    H220397   6.310   0.691   1.664
 6814TIP3   OH220398   4.415   0.053   5.638
 6814TIP3    H120399   4.399  -0.025   5.692
 6814TIP3    H220400   4.398   0.023   5.549
 6815TIP3   OH220401   7.706   0.028   3.003
 6815TIP3    H120402   7.801   0.021   2.994
 6815TIP3    H220403   7.693   0.053   3.095
 6816TIP3   OH220404   3.911   5.839   2.827
 6816TIP3    H120405   3.942   5.851   2.917
 6816TIP3    H220406   3.989   5.852   2.773
 6817TIP3   OH220407   6.429   6.750   1.993
 6817TIP3    H120408   6.490   6.685   2.025
 6817TIP3    H220409   6.408   6.722   1.904
 6818TIP3   OH220410   3.737   0.431   5.122
 6818TIP3    H120411   3.762   0.524   5.123
 6818TIP3    H220412   3.780   0.396   5.045
 6819TIP3   OH220413   2.016   4.073   0.955
 6819TIP3    H120414   2.086   4.093   0.892
 6819TIP3    H220415   1.943   4.127   0.928
 6820TIP3   OH220416   3.506   6.149   0.640
 6820TIP3    H120417   3.419   6.152   0.601
 6820TIP3    H220418   3.550   6.227   0.608
 6821TIP3   OH220419   2.359   0.531   0.282
 6821TIP3    H120420   2.307   0.457   0.315
 6821TIP3    H220421   2.347   0.599   0.348
 6822TIP3   OH220422   0.787   2.504   3.668
 6822TIP3    H120423   0.772   2.597   3.656
 6822TIP3    H220424   0.851   2.499   3.739
 6823TIP3   OH220425   6.329   0.261   4.416
 6823TIP3    H120426   6.388   0.242   4.344
 6823TIP3    H220427   6.281   0.180   4.431
 6824TIP3   OH220428   6.169   7.692   2.233
 6824TIP3    H120429   6.235   7.669   2.168
 6824TIP3    H220430   6.107   7.748   2.186
 6825TIP3   OH220431   3.549   7.361   3.746
 6825TIP3    H120432   3.635   7.374   3.787
 6825TIP3    H220433   3.535   7.267   3.748
 6826TIP3   OH220434   4.025   3.059   3.945
 6826TIP3    H120435   4.045   3.153   3.944
 6826TIP3    H220436   4.021   3.037   4.038
 6827TIP3   OH220437   6.239   3.930   2.280
 6827TIP3    H120438   6.249   3.840   2.312
 6827TIP3    H220439   6.194   3.975   2.352
 6828TIP3   OH220440   7.030   7.046   2.740
 6828TIP3    H120441   7.110   7.079   2.698
 6828TIP3    H220442   7.061   6.976   2.798
 6829TIP3   OH220443   5.109   1.452   1.854
 6829TIP3    H120444   5.170   1.471   1.925
 6829TIP3    H220445   5.147   1.495   1.777
 6830TIP3   OH220446   7.845   3.072   3.056
 6830TIP3    H120447   7.941   3.080   3.056
 6830TIP3    H220448   7.815   3.151   3.011
 6831TIP3   OH220449   6.615   4.320   2.416
 6831TIP3    H120450   6.595   4.359   2.331
 6831TIP3    H220451   6.617   4.226   2.400
 6832TIP3   OH220452   2.939   0.934   4.182
 6832TIP3    H120453   3.021   0.982   4.173
 6832TIP3    H220454   2.883   0.969   4.112
 6833TIP3   OH220455   0.261   7.273   6.204
 6833TIP3    H120456   0.211   7.215   6.146
 6833TIP3    H220457   0.304   7.215   6.266
 6834TIP3   OH220458   7.135   5.054   4.297
 6834TIP3    H120459   7.072   5.051   4.225
 6834TIP3    H220460   7.216   5.087   4.256
 6835TIP3   OH220461   7.463   4.639   0.703
 6835TIP3    H120462   7.512   4.721   0.693
 6835TIP3    H220463   7.502   4.597   0.780
 6836TIP3   OH220464   7.524   6.113   4.013
 6836TIP3    H120465   7.447   6.095   4.067
 6836TIP3    H220466   7.489   6.150   3.932
 6837TIP3   OH220467   5.124   2.122   3.590
 6837TIP3    H120468   5.139   2.177   3.667
 6837TIP3    H220469   5.121   2.183   3.517
 6838TIP3   OH220470   2.637   0.887   5.325
 6838TIP3    H120471   2.596   0.893   5.239
 6838TIP3    H220472   2.728   0.865   5.307
 6839TIP3   OH220473   3.147   7.556   6.144
 6839TIP3    H120474   3.166   7.464   6.126
 6839TIP3    H220475   3.233   7.595   6.163
 6840TIP3   OH220476   1.835   3.686   2.032
 6840TIP3    H120477   1.911   3.739   2.057
 6840TIP3    H220478   1.852   3.662   1.940
 6841TIP3   OH220479   0.762   5.951   2.139
 6841TIP3    H120480   0.767   5.920   2.229
 6841TIP3    H220481   0.668   5.968   2.125
 6842TIP3   OH220482   3.488   6.198   0.906
 6842TIP3    H120483   3.504   6.117   0.955
 6842TIP3    H220484   3.481   6.169   0.815
 6843TIP3   OH220485   1.059   2.099   1.864
 6843TIP3    H120486   1.059   2.160   1.789
 6843TIP3    H220487   1.069   2.013   1.825
 6844TIP3   OH220488   6.984   5.899   3.844
 6844TIP3    H120489   6.971   5.855   3.928
 6844TIP3    H220490   6.939   5.983   3.855
 6845TIP3   OH220491   7.818   5.231   1.643
 6845TIP3    H120492   7.859   5.240   1.729
 6845TIP3    H220493   7.869   5.162   1.600
 6846TIP3   OH220494   0.930   3.979   1.867
 6846TIP3    H120495   0.978   3.954   1.946
 6846TIP3    H220496   0.897   4.067   1.887
 6847TIP3   OH220497   3.399   1.573   0.905
 6847TIP3    H120498   3.328   1.536   0.853
 6847TIP3    H220499   3.479   1.551   0.856
 6848TIP3   OH220500   1.481   5.912   4.040
 6848TIP3    H120501   1.504   6.005   4.037
 6848TIP3    H220502   1.476   5.892   4.133
 6849TIP3   OH220503   6.589   2.965   3.042
 6849TIP3    H120504   6.552   2.930   2.961
 6849TIP3    H220505   6.562   3.057   3.044
 6850TIP3   OH220506   0.454   4.915   2.515
 6850TIP3    H120507   0.414   4.972   2.450
 6850TIP3    H220508   0.432   4.956   2.599
 6851TIP3   OH220509   2.347   1.239   4.815
 6851TIP3    H120510   2.384   1.323   4.787
 6851TIP3    H220511   2.413   1.202   4.873
 6852TIP3   OH220512   3.072   7.242   6.364
 6852TIP3    H120513   3.049   7.160   6.409
 6852TIP3    H220514   3.010   7.248   6.292
 6853TIP3   OH220515   5.568   0.215   5.740
 6853TIP3    H120516   5.501   0.149   5.718
 6853TIP3    H220517   5.622   0.172   5.806
 6854TIP3   OH220518   6.121   6.623   1.228
 6854TIP3    H120519   6.161   6.656   1.308
 6854TIP3    H220520   6.055   6.688   1.206
 6855TIP3   OH220521   3.437   4.181   5.202
 6855TIP3    H120522   3.510   4.137   5.245
 6855TIP3    H220523   3.398   4.114   5.146
 6856TIP3   OH220524   5.682   3.898   0.876
 6856TIP3    H120525   5.698   3.957   0.802
 6856TIP3    H220526   5.720   3.815   0.849
 6857TIP3   OH220527   8.145   2.779   5.310
 6857TIP3    H120528   8.054   2.797   5.333
 6857TIP3    H220529   8.192   2.784   5.393
 6858TIP3   OH220530   1.826   1.866   3.735
 6858TIP3    H120531   1.853   1.935   3.675
 6858TIP3    H220532   1.791   1.912   3.811
 6859TIP3   OH220533   5.955   4.271   5.994
 6859TIP3    H120534   5.872   4.308   6.022
 6859TIP3    H220535   5.933   4.213   5.922
 6860TIP3   OH220536   6.719   4.920   5.531
 6860TIP3    H120537   6.676   4.863   5.594
 6860TIP3    H220538   6.764   4.860   5.471
 6861TIP3   OH220539   4.475   2.848   3.316
 6861TIP3    H120540   4.383   2.861   3.340
 6861TIP3    H220541   4.503   2.772   3.367
 6862TIP3   OH220542   4.796   4.480   3.189
 6862TIP3    H120543   4.868   4.470   3.251
 6862TIP3    H220544   4.734   4.411   3.213
 6863TIP3   OH220545   0.932   5.216   3.491
 6863TIP3    H120546   1.025   5.233   3.507
 6863TIP3    H220547   0.918   5.127   3.525
 6864TIP3   OH220548   5.166   0.525   2.105
 6864TIP3    H120549   5.252   0.485   2.087
 6864TIP3    H220550   5.186   0.617   2.123
 6865TIP3   OH220551   1.469   4.825   6.039
 6865TIP3    H120552   1.485   4.745   6.089
 6865TIP3    H220553   1.437   4.795   5.954
 6866TIP3   OH220554   1.608   6.819   0.909
 6866TIP3    H120555   1.646   6.791   0.826
 6866TIP3    H220556   1.518   6.788   0.906
 6867TIP3   OH220557   0.539   4.513   5.541
 6867TIP3    H120558   0.574   4.567   5.470
 6867TIP3    H220559   0.570   4.555   5.621
 6868TIP3   OH220560   6.799   3.614   5.352
 6868TIP3    H120561   6.828   3.661   5.273
 6868TIP3    H220562   6.783   3.525   5.322
 6869TIP3   OH220563   2.512   3.573   4.134
 6869TIP3    H120564   2.487   3.516   4.207
 6869TIP3    H220565   2.451   3.550   4.064
 6870TIP3   OH220566   7.041  -0.010   0.716
 6870TIP3    H120567   7.031   0.074   0.673
 6870TIP3    H220568   7.033   0.009   0.810
 6871TIP3   OH220569   4.149   0.644   5.461
 6871TIP3    H120570   4.129   0.557   5.428
 6871TIP3    H220571   4.210   0.628   5.533
 6872TIP3   OH220572   4.851   6.273   6.173
 6872TIP3    H120573   4.832   6.301   6.084
 6872TIP3    H220574   4.791   6.323   6.228
 6873TIP3   OH220575   6.379   0.258   5.298
 6873TIP3    H120576   6.442   0.226   5.362
 6873TIP3    H220577   6.295   0.259   5.346
 6874TIP3   OH220578   6.723   6.145   6.308
 6874TIP3    H120579   6.785   6.074   6.295
 6874TIP3    H220580   6.736   6.203   6.232
 6875TIP3   OH220581   7.004   3.678   3.885
 6875TIP3    H120582   7.037   3.731   3.958
 6875TIP3    H220583   7.064   3.604   3.880
 6876TIP3   OH220584   6.160   3.163   1.526
 6876TIP3    H120585   6.225   3.229   1.502
 6876TIP3    H220586   6.080   3.191   1.480
 6877TIP3   OH220587   1.654   5.125   0.641
 6877TIP3    H120588   1.565   5.158   0.634
 6877TIP3    H220589   1.708   5.202   0.656
 6878TIP3   OH220590   6.410   0.199   2.022
 6878TIP3    H120591   6.320   0.188   2.053
 6878TIP3    H220592   6.436   0.286   2.054
 6879TIP3   OH220593   1.029   3.850   2.983
 6879TIP3    H120594   1.056   3.812   2.899
 6879TIP3    H220595   1.030   3.776   3.044
 6880TIP3   OH220596   2.835   6.121   1.208
 6880TIP3    H120597   2.917   6.160   1.239
 6880TIP3    H220598   2.854   6.027   1.202
 6881TIP3   OH220599   6.038   5.228   4.742
 6881TIP3    H120600   6.039   5.153   4.681
 6881TIP3    H220601   5.975   5.203   4.809
 6882TIP3   OH220602   3.500   2.270   1.597
 6882TIP3    H120603   3.557   2.198   1.625
 6882TIP3    H220604   3.465   2.242   1.513
 6883TIP3   OH220605   0.714   2.300   1.928
 6883TIP3    H120606   0.770   2.263   1.997
 6883TIP3    H220607   0.719   2.236   1.857
 6884TIP3   OH220608   2.719   4.282   1.591
 6884TIP3    H120609   2.775   4.322   1.657
 6884TIP3    H220610   2.725   4.188   1.608
 6885TIP3   OH220611   5.029   4.599   0.769
 6885TIP3    H120612   4.935   4.617   0.768
 6885TIP3    H220613   5.042   4.541   0.844
 6886TIP3   OH220614   5.944   6.023   0.781
 6886TIP3    H120615   5.986   5.990   0.702
 6886TIP3    H220616   6.014   6.024   0.847
 6887TIP3   OH220617   4.347   3.089   1.741
 6887TIP3    H120618   4.419   3.057   1.795
 6887TIP3    H220619   4.385   3.162   1.691
 6888TIP3   OH220620   0.093   6.339   2.388
 6888TIP3    H120621   0.013   6.340   2.442
 6888TIP3    H220622   0.062   6.357   2.300
 6889TIP3   OH220623   4.982   1.258   4.903
 6889TIP3    H120624   5.002   1.315   4.977
 6889TIP3    H220625   5.037   1.291   4.832
 6890TIP3   OH220626   4.667   0.117   4.760
 6890TIP3    H120627   4.577   0.149   4.768
 6890TIP3    H220628   4.686   0.125   4.667
 6891TIP3   OH220629   7.844   4.538   3.564
 6891TIP3    H120630   7.875   4.451   3.539
 6891TIP3    H220631   7.889   4.597   3.503
 6892TIP3   OH220632   0.076   1.009   2.286
 6892TIP3    H120633   0.060   1.086   2.232
 6892TIP3    H220634   0.157   0.972   2.253
 6893TIP3   OH220635   1.856   7.800   3.599
 6893TIP3    H120636   1.843   7.721   3.547
 6893TIP3    H220637   1.828   7.776   3.687
 6894TIP3   OH220638   1.952   5.797   4.492
 6894TIP3    H120639   1.965   5.771   4.583
 6894TIP3    H220640   1.885   5.866   4.496
 6895TIP3   OH220641   6.712   5.366   0.375
 6895TIP3    H120642   6.670   5.327   0.299
 6895TIP3    H220643   6.786   5.417   0.339
 6896TIP3   OH220644   0.276   6.700   1.773
 6896TIP3    H120645   0.261   6.789   1.743
 6896TIP3    H220646   0.362   6.677   1.738
 6897TIP3   OH220647   5.726   4.461   5.713
 6897TIP3    H120648   5.816   4.477   5.744
 6897TIP3    H220649   5.671   4.509   5.775
 6898TIP3   OH220650   2.935   2.149   1.582
 6898TIP3    H120651   2.955   2.225   1.527
 6898TIP3    H220652   3.011   2.091   1.570
 6899TIP3   OH220653   2.121   1.714   0.460
 6899TIP3    H120654   2.110   1.803   0.492
 6899TIP3    H220655   2.147   1.663   0.537
 6900TIP3   OH220656   0.434   5.547   1.780
 6900TIP3    H120657   0.524   5.552   1.813
 6900TIP3    H220658   0.383   5.600   1.841
 6901TIP3   OH220659   3.012   0.949   0.411
 6901TIP3    H120660   2.981   1.031   0.450
 6901TIP3    H220661   2.961   0.940   0.331
 6902TIP3   OH220662   4.162   3.260   4.303
 6902TIP3    H120663   4.151   3.300   4.217
 6902TIP3    H220664   4.226   3.190   4.289
 6903TIP3   OH220665   5.354   1.803   0.392
 6903TIP3    H120666   5.358   1.810   0.297
 6903TIP3    H220667   5.262   1.784   0.411
 6904TIP3   OH220668   5.724   1.661   6.135
 6904TIP3    H120669   5.789   1.593   6.151
 6904TIP3    H220670   5.730   1.719   6.211
 6905TIP3   OH220671   2.297   5.867   6.370
 6905TIP3    H120672   2.387   5.852   6.342
 6905TIP3    H220673   2.279   5.797   6.433
 6906TIP3   OH220674   4.914   4.834   6.196
 6906TIP3    H120675   4.988   4.836   6.136
 6906TIP3    H220676   4.938   4.770   6.262
 6907TIP3   OH220677   6.781   1.344   2.488
 6907TIP3    H120678   6.693   1.314   2.463
 6907TIP3    H220679   6.817   1.381   2.407
 6908TIP3   OH220680   3.250   6.674   3.419
 6908TIP3    H120681   3.300   6.594   3.433
 6908TIP3    H220682   3.173   6.664   3.475
 6909TIP3   OH220683   4.661   5.179   6.047
 6909TIP3    H120684   4.658   5.248   5.980
 6909TIP3    H220685   4.722   5.212   6.113
 6910TIP3   OH220686   5.435   0.761   4.935
 6910TIP3    H120687   5.397   0.798   5.015
 6910TIP3    H220688   5.391   0.677   4.924
 6911TIP3   OH220689   7.824   6.580   0.261
 6911TIP3    H120690   7.854   6.490   0.275
 6911TIP3    H220691   7.829   6.594   0.167
 6912TIP3   OH220692   3.933   7.759   2.273
 6912TIP3    H120693   3.850   7.723   2.304
 6912TIP3    H220694   3.999   7.698   2.306
 6913TIP3   OH220695   2.020   5.824   5.079
 6913TIP3    H120696   1.927   5.801   5.075
 6913TIP3    H220697   2.032   5.862   5.166
 6914TIP3   OH220698   3.671   4.843   2.508
 6914TIP3    H120699   3.658   4.872   2.598
 6914TIP3    H220700   3.702   4.921   2.462
 6915TIP3   OH220701   7.081   3.508   6.053
 6915TIP3    H120702   7.010   3.553   6.099
 6915TIP3    H220703   7.117   3.573   5.993
 6916TIP3   OH220704   7.825   2.274   1.764
 6916TIP3    H120705   7.878   2.250   1.688
 6916TIP3    H220706   7.846   2.366   1.779
 6917TIP3   OH220707   3.050   0.396   2.175
 6917TIP3    H120708   3.021   0.482   2.205
 6917TIP3    H220709   3.127   0.376   2.229
 6918TIP3   OH220710   3.891   0.028   0.351
 6918TIP3    H120711   3.980   0.043   0.383
 6918TIP3    H220712   3.835   0.057   0.422
 6919TIP3   OH220713   4.592   5.198   0.426
 6919TIP3    H120714   4.640   5.207   0.344
 6919TIP3    H220715   4.641   5.253   0.488
 6920TIP3   OH220716   2.504   6.101   3.094
 6920TIP3    H120717   2.442   6.168   3.122
 6920TIP3    H220718   2.576   6.108   3.156
 6921TIP3   OH220719   0.448   7.709   4.915
 6921TIP3    H120720   0.497   7.688   4.995
 6921TIP3    H220721   0.489   7.656   4.847
 6922TIP3   OH220722   1.857   5.253   5.365
 6922TIP3    H120723   1.776   5.303   5.381
 6922TIP3    H220724   1.832   5.162   5.380
 6923TIP3   OH220725   7.499   6.196   2.024
 6923TIP3    H120726   7.531   6.281   2.056
 6923TIP3    H220727   7.432   6.170   2.088
 6924TIP3   OH220728   1.390   0.233   1.384
 6924TIP3    H120729   1.438   0.243   1.466
 6924TIP3    H220730   1.325   0.165   1.403
 6925TIP3   OH220731   8.269   7.002   3.013
 6925TIP3    H120732   8.263   7.047   2.929
 6925TIP3    H220733   8.194   7.034   3.063
 6926TIP3   OH220734   1.218   3.892   5.899
 6926TIP3    H120735   1.258   3.844   5.971
 6926TIP3    H220736   1.285   3.894   5.831
 6927TIP3   OH220737   3.049   3.110   5.698
 6927TIP3    H120738   3.115   3.175   5.720
 6927TIP3    H220739   3.076   3.031   5.745
 6928TIP3   OH220740   2.935   2.581   4.517
 6928TIP3    H120741   2.902   2.604   4.430
 6928TIP3    H220742   3.010   2.524   4.500
 6929TIP3   OH220743   8.172   3.885   1.583
 6929TIP3    H120744   8.214   3.800   1.576
 6929TIP3    H220745   8.105   3.873   1.651
 6930TIP3   OH220746   2.996   2.998   2.437
 6930TIP3    H120747   3.054   2.978   2.511
 6930TIP3    H220748   3.048   2.978   2.360
 6931TIP3   OH220749   2.747   7.701   2.111
 6931TIP3    H120750   2.727   7.787   2.076
 6931TIP3    H220751   2.754   7.714   2.205
 6932TIP3   OH220752   3.145   6.143   5.440
 6932TIP3    H120753   3.214   6.094   5.395
 6932TIP3    H220754   3.186   6.226   5.464
 6933TIP3   OH220755   3.746   0.819   1.946
 6933TIP3    H120756   3.716   0.876   2.017
 6933TIP3    H220757   3.833   0.852   1.924
 6934TIP3   OH220758   0.416   2.848   1.466
 6934TIP3    H120759   0.347   2.783   1.455
 6934TIP3    H220760   0.457   2.826   1.550
 6935TIP3   OH220761   4.570   4.857   2.775
 6935TIP3    H120762   4.490   4.861   2.828
 6935TIP3    H220763   4.641   4.851   2.839
 6936TIP3   OH220764   6.002   5.571   2.009
 6936TIP3    H120765   5.973   5.621   2.085
 6936TIP3    H220766   5.921   5.550   1.962
 6937TIP3   OH220767   3.781   6.214   6.168
 6937TIP3    H120768   3.721   6.258   6.108
 6937TIP3    H220769   3.728   6.148   6.212
 6938TIP3   OH220770   8.016   5.612   6.235
 6938TIP3    H120771   8.018   5.520   6.261
 6938TIP3    H220772   8.106   5.642   6.244
 6939TIP3   OH220773   0.395   6.391   5.541
 6939TIP3    H120774   0.402   6.486   5.541
 6939TIP3    H220775   0.470   6.361   5.490
 6940TIP3   OH220776   0.280   7.493   3.554
 6940TIP3    H120777   0.326   7.418   3.517
 6940TIP3    H220778   0.229   7.456   3.627
 6941TIP3   OH220779   3.854   4.612   6.354
 6941TIP3    H120780   3.934   4.663   6.341
 6941TIP3    H220781   3.791   4.649   6.292
 6942TIP3   OH220782   7.799   5.335   3.512
 6942TIP3    H120783   7.878   5.284   3.496
 6942TIP3    H220784   7.772   5.308   3.600
 6943TIP3   OH220785   0.208   6.865   5.420
 6943TIP3    H120786   0.191   6.771   5.430
 6943TIP3    H220787   0.300   6.875   5.446
 6944TIP3   OH220788   5.303   6.811   2.720
 6944TIP3    H120789   5.232   6.873   2.704
 6944TIP3    H220790   5.383   6.863   2.716
 6945TIP3   OH220791   5.915   3.775   0.669
 6945TIP3    H120792   5.931   3.869   0.672
 6945TIP3    H220793   5.885   3.759   0.579
 6946TIP3   OH220794   8.087   7.629  -0.041
 6946TIP3    H120795   8.102   7.658   0.049
 6946TIP3    H220796   8.174   7.622  -0.079
 6947TIP3   OH220797   5.855   1.287   5.957
 6947TIP3    H120798   5.900   1.249   5.882
 6947TIP3    H220799   5.923   1.331   6.007
 6948TIP3   OH220800   7.965   2.562   4.827
 6948TIP3    H120801   8.058   2.539   4.819
 6948TIP3    H220802   7.945   2.546   4.919
 6949TIP3   OH220803   4.193   3.293   6.233
 6949TIP3    H120804   4.177   3.322   6.144
 6949TIP3    H220805   4.107   3.270   6.268
 6950TIP3   OH220806   3.316   5.251   2.161
 6950TIP3    H120807   3.226   5.219   2.167
 6950TIP3    H220808   3.369   5.172   2.154
 6951TIP3   OH220809   6.912   6.526   2.648
 6951TIP3    H120810   6.878   6.542   2.559
 6951TIP3    H220811   6.931   6.613   2.682
 6952TIP3   OH220812   0.438   5.857   5.788
 6952TIP3    H120813   0.516   5.818   5.829
 6952TIP3    H220814   0.459   5.950   5.783
 6953TIP3   OH220815   4.645   4.285   2.570
 6953TIP3    H120816   4.622   4.374   2.594
 6953TIP3    H220817   4.588   4.230   2.623
 6954TIP3   OH220818   4.818   1.225   6.034
 6954TIP3    H120819   4.853   1.143   6.070
 6954TIP3    H220820   4.839   1.291   6.100
 6955TIP3   OH220821   5.153   2.723   3.425
 6955TIP3    H120822   5.115   2.711   3.512
 6955TIP3    H220823   5.125   2.646   3.376
 6956TIP3   OH220824   2.389   4.358   5.378
 6956TIP3    H120825   2.381   4.279   5.431
 6956TIP3    H220826   2.392   4.327   5.288
 6957TIP3   OH220827   2.092   4.648   3.180
 6957TIP3    H120828   2.144   4.716   3.137
 6957TIP3    H220829   2.067   4.686   3.264
 6958TIP3   OH220830   4.001   3.787   1.613
 6958TIP3    H120831   4.071   3.802   1.676
 6958TIP3    H220832   4.026   3.705   1.569
 6959TIP3   OH220833   7.850   0.098   1.478
 6959TIP3    H120834   7.831   0.179   1.526
 6959TIP3    H220835   7.766   0.073   1.440
 6960TIP3   OH220836   7.567   4.104   1.987
 6960TIP3    H120837   7.545   4.067   1.901
 6960TIP3    H220838   7.499   4.070   2.045
 6961TIP3   OH220839   4.895   1.774   1.824
 6961TIP3    H120840   4.865   1.864   1.812
 6961TIP3    H220841   4.991   1.780   1.826
 6962TIP3   OH220842   2.694   2.878   4.144
 6962TIP3    H120843   2.685   2.971   4.125
 6962TIP3    H220844   2.747   2.874   4.223
 6963TIP3   OH220845   8.038   5.119   1.288
 6963TIP3    H120846   8.056   5.025   1.287
 6963TIP3    H220847   7.949   5.127   1.254
 6964TIP3   OH220848   4.983   2.819   5.442
 6964TIP3    H120849   5.049   2.863   5.389
 6964TIP3    H220850   4.916   2.887   5.457
 6965TIP3   OH220851   4.474   4.948   3.385
 6965TIP3    H120852   4.482   4.858   3.417
 6965TIP3    H220853   4.492   5.002   3.462
 6966TIP3   OH220854   2.434   1.628   5.352
 6966TIP3    H120855   2.350   1.597   5.317
 6966TIP3    H220856   2.498   1.567   5.316
 6967TIP3   OH220857   7.123   4.294   0.549
 6967TIP3    H120858   7.055   4.352   0.584
 6967TIP3    H220859   7.200   4.313   0.604
 6968TIP3   OH220860   3.434   5.147   4.191
 6968TIP3    H120861   3.390   5.209   4.132
 6968TIP3    H220862   3.368   5.080   4.209
 6969TIP3   OH220863   4.750   5.582   1.666
 6969TIP3    H120864   4.815   5.516   1.643
 6969TIP3    H220865   4.763   5.652   1.603
 6970TIP3   OH220866   0.073   7.092   6.057
 6970TIP3    H120867   0.012   7.161   6.083
 6970TIP3    H220868   0.090   7.043   6.137
 6971TIP3   OH220869   6.051   5.652   5.731
 6971TIP3    H120870   6.017   5.641   5.642
 6971TIP3    H220871   6.145   5.643   5.723
 6972TIP3   OH220872   3.094   0.500   6.374
 6972TIP3    H120873   3.031   0.525   6.441
 6972TIP3    H220874   3.060   0.417   6.340
 6973TIP3   OH220875   2.897   0.871   5.297
 6973TIP3    H120876   2.926   0.949   5.345
 6973TIP3    H220877   2.943   0.799   5.340
 6974TIP3   OH220878   3.823   4.873   3.241
 6974TIP3    H120879   3.789   4.848   3.327
 6974TIP3    H220880   3.765   4.828   3.179
 6975TIP3   OH220881   7.330   7.764   1.632
 6975TIP3    H120882   7.271   7.809   1.692
 6975TIP3    H220883   7.288   7.774   1.546
 6976TIP3   OH220884   5.404   0.171   3.077
 6976TIP3    H120885   5.366   0.229   3.011
 6976TIP3    H220886   5.498   0.174   3.060
 6977TIP3   OH220887   0.085   1.685   6.102
 6977TIP3    H120888   0.178   1.662   6.097
 6977TIP3    H220889   0.065   1.684   6.196
 6978TIP3   OH220890   2.053   0.016   1.653
 6978TIP3    H120891   2.140   0.046   1.679
 6978TIP3    H220892   2.008   0.096   1.627
 6979TIP3   OH220893   2.979   6.462   2.317
 6979TIP3    H120894   3.027   6.465   2.235
 6979TIP3    H220895   3.024   6.526   2.373
 6980TIP3   OH220896   3.212   0.639   6.687
 6980TIP3    H120897   3.276   0.587   6.639
 6980TIP3    H220898   3.216   0.725   6.647
 6981TIP3   OH220899   7.827   0.414   4.636
 6981TIP3    H120900   7.758   0.434   4.573
 6981TIP3    H220901   7.806   0.466   4.713
 6982TIP3   OH220902   4.484   3.584   4.468
 6982TIP3    H120903   4.393   3.574   4.441
 6982TIP3    H220904   4.484   3.562   4.561
 6983TIP3   OH220905   0.935   2.449   0.519
 6983TIP3    H120906   0.988   2.439   0.439
 6983TIP3    H220907   0.875   2.521   0.498
 6984TIP3   OH220908   1.895   6.914   3.680
 6984TIP3    H120909   1.908   6.979   3.749
 6984TIP3    H220910   1.894   6.965   3.599
 6985TIP3   OH220911   3.901   7.346   3.726
 6985TIP3    H120912   3.879   7.303   3.808
 6985TIP3    H220913   3.995   7.364   3.734
 6986TIP3   OH220914   6.105   5.923   4.092
 6986TIP3    H120915   6.167   5.889   4.157
 6986TIP3    H220916   6.028   5.867   4.102
 6987TIP3   OH220917   2.285   3.073   1.983
 6987TIP3    H120918   2.264   3.153   1.934
 6987TIP3    H220919   2.316   3.104   2.068
 6988TIP3   OH220920   6.047   5.569   0.381
 6988TIP3    H120921   6.112   5.637   0.399
 6988TIP3    H220922   5.973   5.591   0.437
 6989TIP3   OH220923   0.877   3.709   2.754
 6989TIP3    H120924   0.831   3.653   2.691
 6989TIP3    H220925   0.844   3.680   2.839
 6990TIP3   OH220926   1.922   2.116   1.435
 6990TIP3    H120927   1.843   2.142   1.482
 6990TIP3    H220928   1.988   2.105   1.503
 6991TIP3   OH220929   1.594   0.631   0.073
 6991TIP3    H120930   1.543   0.710   0.054
 6991TIP3    H220931   1.645   0.654   0.150
 6992TIP3   OH220932   3.944   4.793   0.120
 6992TIP3    H120933   3.928   4.881   0.084
 6992TIP3    H220934   4.005   4.808   0.192
 6993TIP3   OH220935   6.553   5.353   0.136
 6993TIP3    H120936   6.553   5.448   0.123
 6993TIP3    H220937   6.462   5.327   0.122
 6994TIP3   OH220938   3.323   3.226   2.603
 6994TIP3    H120939   3.414   3.208   2.624
 6994TIP3    H220940   3.288   3.142   2.574
 6995TIP3   OH220941   0.204   1.905   1.109
 6995TIP3    H120942   0.198   1.963   1.034
 6995TIP3    H220943   0.297   1.887   1.117
 6996TIP3   OH220944   6.263   5.991   0.675
 6996TIP3    H120945   6.309   6.045   0.610
 6996TIP3    H220946   6.189   5.953   0.627
 6997TIP3   OH220947   5.635   2.759   3.085
 6997TIP3    H120948   5.616   2.739   2.994
 6997TIP3    H220949   5.694   2.834   3.082
 6998TIP3   OH220950   2.677   3.759   4.609
 6998TIP3    H120951   2.761   3.805   4.615
 6998TIP3    H220952   2.659   3.755   4.515
 6999TIP3   OH220953   0.611   2.857   5.878
 6999TIP3    H120954   0.636   2.922   5.944
 6999TIP3    H220955   0.560   2.907   5.814
 7000TIP3   OH220956   3.594   7.056   2.195
 7000TIP3    H120957   3.685   7.082   2.210
 7000TIP3    H220958   3.598   6.961   2.185
 7001TIP3   OH220959   8.085   3.565   1.417
 7001TIP3    H120960   8.077   3.470   1.414
 7001TIP3    H220961   8.136   3.588   1.340
 7002TIP3   OH220962   2.919   5.611   6.198
 7002TIP3    H120963   2.912   5.523   6.235
 7002TIP3    H220964   2.831   5.647   6.203
 7003TIP3   OH220965   4.306   3.060   4.154
 7003TIP3    H120966   4.375   2.996   4.171
 7003TIP3    H220967   4.321   3.090   4.064
 7004TIP3   OH220968   2.118   4.682   2.044
 7004TIP3    H120969   2.085   4.621   2.111
 7004TIP3    H220970   2.209   4.698   2.070
 7005TIP3   OH220971   5.518   2.156   2.943
 7005TIP3    H120972   5.481   2.207   3.015
 7005TIP3    H220973   5.602   2.125   2.976
 7006TIP3   OH220974   4.672   7.105   0.245
 7006TIP3    H120975   4.634   7.185   0.282
 7006TIP3    H220976   4.721   7.135   0.169
 7007TIP3   OH220977   2.967   3.195   4.393
 7007TIP3    H120978   2.874   3.212   4.379
 7007TIP3    H220979   2.976   3.190   4.488
 7008TIP3   OH220980   0.835   0.869   6.348
 7008TIP3    H120981   0.913   0.833   6.305
 7008TIP3    H220982   0.869   0.936   6.408
 7009TIP3   OH220983   0.569   1.611   6.453
 7009TIP3    H120984   0.615   1.666   6.515
 7009TIP3    H220985   0.634   1.589   6.386
 7010TIP3   OH220986   3.897   2.575   2.961
 7010TIP3    H120987   3.836   2.607   3.027
 7010TIP3    H220988   3.847   2.510   2.911
 7011TIP3   OH220989   1.776   1.366   2.094
 7011TIP3    H120990   1.821   1.431   2.041
 7011TIP3    H220991   1.842   1.299   2.111
 7012TIP3   OH220992   6.512   0.158   4.249
 7012TIP3    H120993   6.508   0.214   4.172
 7012TIP3    H220994   6.474   0.075   4.220
 7013TIP3   OH220995   3.486   1.081   1.585
 7013TIP3    H120996   3.495   1.088   1.680
 7013TIP3    H220997   3.571   1.109   1.551
 7014TIP3   OH220998   1.446   0.217   5.001
 7014TIP3    H120999   1.490   0.298   5.024
 7014TIP3    H221000   1.361   0.222   5.044
 7015TIP3   OH221001   5.299   3.492   1.105
 7015TIP3    H121002   5.290   3.472   1.012
 7015TIP3    H221003   5.228   3.442   1.147
 7016TIP3   OH221004   5.151   3.380   0.339
 7016TIP3    H121005   5.085   3.314   0.318
 7016TIP3    H221006   5.232   3.330   0.349
 7017TIP3   OH221007   2.160   3.328   6.114
 7017TIP3    H121008   2.210   3.304   6.192
 7017TIP3    H221009   2.156   3.247   6.062
 7018TIP3   OH221010   3.324   0.139   5.948
 7018TIP3    H121011   3.395   0.099   5.999
 7018TIP3    H221012   3.259   0.164   6.014
 7019TIP3   OH221013   1.303   5.327   5.399
 7019TIP3    H121014   1.321   5.416   5.367
 7019TIP3    H221015   1.373   5.310   5.462
 7020TIP3   OH221016   0.866   3.965   1.240
 7020TIP3    H121017   0.866   3.887   1.295
 7020TIP3    H221018   0.845   3.933   1.152
 7021TIP3   OH221019   6.471   5.958   4.774
 7021TIP3    H121020   6.481   5.865   4.797
 7021TIP3    H221021   6.496   6.005   4.854
 7022TIP3   OH221022   1.693   5.648   4.595
 7022TIP3    H121023   1.702   5.595   4.516
 7022TIP3    H221024   1.782   5.658   4.627
 7023TIP3   OH221025   2.399   1.220   0.867
 7023TIP3    H121026   2.491   1.207   0.889
 7023TIP3    H221027   2.358   1.245   0.950
 7024TIP3   OH221028   6.738   3.789   3.382
 7024TIP3    H121029   6.700   3.754   3.462
 7024TIP3    H221030   6.832   3.769   3.390
 7025TIP3   OH221031   7.387   7.066   3.020
 7025TIP3    H121032   7.471   7.032   2.989
 7025TIP3    H221033   7.383   7.155   2.986
 7026TIP3   OH221034   7.686   1.426   2.488
 7026TIP3    H121035   7.592   1.437   2.475
 7026TIP3    H221036   7.725   1.449   2.403
 7027TIP3   OH221037   5.923   0.059   5.453
 7027TIP3    H121038   5.878   0.134   5.413
 7027TIP3    H221039   5.852   0.006   5.489
 7028TIP3   OH221040   1.145   5.782   1.739
 7028TIP3    H121041   1.066   5.757   1.692
 7028TIP3    H221042   1.116   5.797   1.829
 7029TIP3   OH221043   6.911   4.641   3.615
 7029TIP3    H121044   6.988   4.658   3.669
 7029TIP3    H221045   6.851   4.595   3.673
 7030TIP3   OH221046   7.877   1.706   5.383
 7030TIP3    H121047   7.889   1.751   5.467
 7030TIP3    H221048   7.785   1.720   5.362
 7031TIP3   OH221049   4.169   2.361   6.754
 7031TIP3    H121050   4.189   2.301   6.682
 7031TIP3    H221051   4.249   2.412   6.765
 7032TIP3   OH221052   5.846   0.358   5.847
 7032TIP3    H121053   5.849   0.400   5.933
 7032TIP3    H221054   5.766   0.393   5.807
 7033TIP3   OH221055   7.574   3.755   4.398
 7033TIP3    H121056   7.568   3.726   4.307
 7033TIP3    H221057   7.520   3.834   4.402
 7034TIP3   OH221058   5.280   5.500   0.756
 7034TIP3    H121059   5.317   5.416   0.730
 7034TIP3    H221060   5.307   5.560   0.686
 7035TIP3   OH221061   3.197   2.138   5.421
 7035TIP3    H121062   3.126   2.138   5.357
 7035TIP3    H221063   3.153   2.143   5.506
 7036TIP3   OH221064   4.686   6.822   6.028
 7036TIP3    H121065   4.775   6.795   6.004
 7036TIP3    H221066   4.674   6.906   5.985
 7037TIP3   OH221067   3.404   6.063   3.597
 7037TIP3    H121068   3.488   6.045   3.555
 7037TIP3    H221069   3.408   6.013   3.679
 7038TIP3   OH221070   7.403   4.966   0.296
 7038TIP3    H121071   7.424   5.030   0.364
 7038TIP3    H221072   7.455   4.995   0.220
 7039TIP3   OH221073   7.226   4.319   3.179
 7039TIP3    H121074   7.158   4.267   3.136
 7039TIP3    H221075   7.291   4.255   3.208
 7040TIP3   OH221076   4.263   3.945   6.270
 7040TIP3    H121077   4.332   3.924   6.207
 7040TIP3    H221078   4.310   3.974   6.348
 7041TIP3   OH221079   3.048   1.004   4.730
 7041TIP3    H121080   3.080   0.962   4.650
 7041TIP3    H221081   3.063   0.938   4.798
 7042TIP3   OH221082   5.848   0.712   5.779
 7042TIP3    H121083   5.918   0.659   5.816
 7042TIP3    H221084   5.832   0.674   5.693
 7043TIP3   OH221085   4.137   6.148   1.498
 7043TIP3    H121086   4.160   6.060   1.526
 7043TIP3    H221087   4.155   6.150   1.405
 7044TIP3   OH221088   5.127   4.971   3.686
 7044TIP3    H121089   5.164   5.003   3.603
 7044TIP3    H221090   5.081   4.891   3.662
 7045TIP3   OH221091   5.755   3.085   1.902
 7045TIP3    H121092   5.818   3.117   1.836
 7045TIP3    H221093   5.809   3.062   1.977
 7046TIP3   OH221094   6.599   0.533   2.367
 7046TIP3    H121095   6.591   0.438   2.378
 7046TIP3    H221096   6.611   0.545   2.273
 7047TIP3   OH221097   0.862   7.334   5.590
 7047TIP3    H121098   0.941   7.288   5.560
 7047TIP3    H221099   0.895   7.399   5.652
 7048TIP3   OH221100   7.230   1.956   6.292
 7048TIP3    H121101   7.256   2.043   6.324
 7048TIP3    H221102   7.137   1.950   6.311
 7049TIP3   OH221103   5.506   2.343   3.677
 7049TIP3    H121104   5.451   2.334   3.755
 7049TIP3    H221105   5.462   2.410   3.625
 7050TIP3   OH221106   4.835   0.649   2.371
 7050TIP3    H121107   4.757   0.692   2.405
 7050TIP3    H221108   4.816   0.634   2.279
 7051TIP3   OH221109   0.828   0.612   2.332
 7051TIP3    H121110   0.794   0.529   2.364
 7051TIP3    H221111   0.754   0.654   2.288
 7052TIP3   OH221112   5.099   4.162   3.836
 7052TIP3    H121113   5.029   4.100   3.816
 7052TIP3    H221114   5.152   4.166   3.756
 7053TIP3   OH221115   6.436   4.714   5.410
 7053TIP3    H121116   6.430   4.799   5.367
 7053TIP3    H221117   6.522   4.680   5.385
 7054TIP3   OH221118   4.653   5.658   1.207
 7054TIP3    H121119   4.712   5.723   1.170
 7054TIP3    H221120   4.653   5.676   1.301
 7055TIP3   OH221121   3.412   4.862   2.218
 7055TIP3    H121122   3.358   4.811   2.278
 7055TIP3    H221123   3.431   4.943   2.265
 7056TIP3   OH221124   4.882   6.910   3.707
 7056TIP3    H121125   4.878   6.998   3.670
 7056TIP3    H221126   4.953   6.914   3.770
 7057TIP3   OH221127   6.348   4.652   5.674
 7057TIP3    H121128   6.259   4.674   5.647
 7057TIP3    H221129   6.402   4.672   5.597
 7058TIP3   OH221130   3.065   2.227   0.275
 7058TIP3    H121131   3.146   2.216   0.224
 7058TIP3    H221132   3.069   2.318   0.306
 7059TIP3   OH221133   5.542   7.422   5.330
 7059TIP3    H121134   5.448   7.441   5.331
 7059TIP3    H221135   5.580   7.492   5.277
 7060TIP3   OH221136   5.831   0.216   1.115
 7060TIP3    H121137   5.859   0.222   1.024
 7060TIP3    H221138   5.900   0.167   1.159
 7061TIP3   OH221139   7.930   1.994   1.834
 7061TIP3    H121140   7.988   2.067   1.859
 7061TIP3    H221141   7.903   2.016   1.745
 7062TIP3   OH221142   5.608   5.043   4.069
 7062TIP3    H121143   5.527   5.006   4.103
 7062TIP3    H221144   5.594   5.049   3.975
 7063TIP3   OH221145   2.249   2.821   4.579
 7063TIP3    H121146   2.310   2.858   4.515
 7063TIP3    H221147   2.250   2.727   4.563
 7064TIP3   OH221148   6.653   2.530   4.222
 7064TIP3    H121149   6.685   2.444   4.250
 7064TIP3    H221150   6.585   2.552   4.285
 7065TIP3   OH221151   6.340   4.431   6.354
 7065TIP3    H121152   6.317   4.341   6.379
 7065TIP3    H221153   6.280   4.451   6.282
 7066TIP3   OH221154   0.528   2.820   4.869
 7066TIP3    H121155   0.488   2.905   4.889
 7066TIP3    H221156   0.611   2.841   4.827
 7067TIP3   OH221157   1.555   1.785   5.004
 7067TIP3    H121158   1.633   1.813   5.052
 7067TIP3    H221159   1.573   1.694   4.979
 7068TIP3   OH221160   2.775   6.659   6.600
 7068TIP3    H121161   2.726   6.608   6.665
 7068TIP3    H221162   2.856   6.610   6.587
 7069TIP3   OH221163   1.779   4.333   4.321
 7069TIP3    H121164   1.787   4.428   4.320
 7069TIP3    H221165   1.829   4.304   4.244
 7070TIP3   OH221166   0.647   2.798   0.261
 7070TIP3    H121167   0.631   2.874   0.205
 7070TIP3    H221168   0.592   2.729   0.223
 7071TIP3   OH221169   2.705   2.764   0.186
 7071TIP3    H121170   2.620   2.786   0.146
 7071TIP3    H221171   2.704   2.808   0.271
 7072TIP3   OH221172   0.809   5.540   6.322
 7072TIP3    H121173   0.798   5.584   6.406
 7072TIP3    H221174   0.843   5.454   6.344
 7073TIP3   OH221175   1.364   0.654   1.067
 7073TIP3    H121176   1.307   0.730   1.057
 7073TIP3    H221177   1.353   0.627   1.159
 7074TIP3   OH221178   0.804   0.256   2.543
 7074TIP3    H121179   0.709   0.262   2.558
 7074TIP3    H221180   0.836   0.344   2.560
 7075TIP3   OH221181   3.331   0.854   4.355
 7075TIP3    H121182   3.291   0.851   4.268
 7075TIP3    H221183   3.409   0.798   4.348
 7076TIP3   OH221184   7.706   1.181   3.098
 7076TIP3    H121185   7.786   1.166   3.150
 7076TIP3    H221186   7.699   1.276   3.092
 7077TIP3   OH221187   0.157   3.323   0.441
 7077TIP3    H121188   0.182   3.376   0.366
 7077TIP3    H221189   0.102   3.253   0.405
 7078TIP3   OH221190   5.165   1.371   5.104
 7078TIP3    H121191   5.186   1.452   5.058
 7078TIP3    H221192   5.247   1.321   5.104
 7079TIP3   OH221193   5.883   5.354   0.257
 7079TIP3    H121194   5.942   5.417   0.299
 7079TIP3    H221195   5.801   5.361   0.307
 7080TIP3   OH221196   4.736   1.811   0.169
 7080TIP3    H121197   4.664   1.846   0.221
 7080TIP3    H221198   4.770   1.887   0.122
 7081TIP3   OH221199   6.357   4.758   6.074
 7081TIP3    H121200   6.327   4.744   6.164
 7081TIP3    H221201   6.333   4.849   6.054
 7082TIP3   OH221202   3.963   1.800   1.389
 7082TIP3    H121203   3.970   1.706   1.403
 7082TIP3    H221204   3.912   1.808   1.308
 7083TIP3   OH221205   7.800   0.275   2.106
 7083TIP3    H121206   7.708   0.294   2.122
 7083TIP3    H221207   7.830   0.347   2.052
 7084TIP3   OH221208   2.843   1.784   1.900
 7084TIP3    H121209   2.909   1.783   1.831
 7084TIP3    H221210   2.793   1.865   1.884
 7085TIP3   OH221211   0.988   2.105   0.301
 7085TIP3    H121212   0.942   2.092   0.218
 7085TIP3    H221213   0.951   2.186   0.336
 7086TIP3   OH221214   2.496   5.465   1.881
 7086TIP3    H121215   2.411   5.496   1.851
 7086TIP3    H221216   2.533   5.420   1.805
 7087TIP3   OH221217   2.253   3.600   4.532
 7087TIP3    H121218   2.167   3.604   4.574
 7087TIP3    H221219   2.252   3.673   4.470
 7088TIP3   OH221220   5.630   2.475   2.054
 7088TIP3    H121221   5.686   2.512   1.986
 7088TIP3    H221222   5.609   2.386   2.023
 7089TIP3   OH221223   1.765   6.084   0.186
 7089TIP3    H121224   1.738   6.003   0.229
 7089TIP3    H221225   1.846   6.061   0.140
 7090TIP3   OH221226   1.136   6.599   2.129
 7090TIP3    H121227   1.133   6.684   2.173
 7090TIP3    H221228   1.061   6.551   2.166
 7091TIP3   OH221229   0.256   6.310   6.530
 7091TIP3    H121230   0.234   6.385   6.475
 7091TIP3    H221231   0.195   6.241   6.501
 7092TIP3   OH221232   1.719   6.281   2.680
 7092TIP3    H121233   1.723   6.188   2.658
 7092TIP3    H221234   1.644   6.314   2.630
 7093TIP3   OH221235   4.456   6.202   2.175
 7093TIP3    H121236   4.538   6.236   2.211
 7093TIP3    H221237   4.481   6.166   2.090
 7094TIP3   OH221238   5.615   7.597   4.377
 7094TIP3    H121239   5.557   7.655   4.427
 7094TIP3    H221240   5.686   7.576   4.437
 7095TIP3   OH221241   1.137   3.077   1.963
 7095TIP3    H121242   1.181   3.069   2.048
 7095TIP3    H221243   1.193   3.136   1.913
 7096TIP3   OH221244   3.133   0.539   5.810
 7096TIP3    H121245   3.112   0.480   5.882
 7096TIP3    H221246   3.140   0.625   5.850
 7097TIP3   OH221247   2.067   0.787   5.794
 7097TIP3    H121248   2.052   0.706   5.842
 7097TIP3    H221249   2.013   0.780   5.716
 7098TIP3   OH221250   7.823   0.651   3.166
 7098TIP3    H121251   7.865   0.706   3.099
 7098TIP3    H221252   7.895   0.622   3.222
 7099TIP3   OH221253   7.249   6.679   4.835
 7099TIP3    H121254   7.167   6.638   4.809
 7099TIP3    H221255   7.314   6.608   4.828
 7100TIP3   OH221256   7.242   4.136   2.633
 7100TIP3    H121257   7.333   4.123   2.606
 7100TIP3    H221258   7.240   4.224   2.670
 7101TIP3   OH221259   3.572   7.338   0.537
 7101TIP3    H121260   3.661   7.302   0.532
 7101TIP3    H221261   3.517   7.270   0.498
 7102TIP3   OH221262   8.099   5.329   1.645
 7102TIP3    H121263   8.161   5.282   1.701
 7102TIP3    H221264   8.016   5.325   1.692
 7103TIP3   OH221265   6.898   2.505   0.575
 7103TIP3    H121266   6.837   2.564   0.531
 7103TIP3    H221267   6.858   2.488   0.661
 7104TIP3   OH221268   3.421   4.215   0.250
 7104TIP3    H121269   3.402   4.121   0.250
 7104TIP3    H221270   3.336   4.257   0.265
 7105TIP3   OH221271   4.348   5.146   1.558
 7105TIP3    H121272   4.354   5.226   1.507
 7105TIP3    H221273   4.282   5.165   1.625
 7106TIP3   OH221274   2.049   7.014   3.177
 7106TIP3    H121275   2.121   7.075   3.195
 7106TIP3    H221276   2.090   6.927   3.181
 7107TIP3   OH221277   8.070   4.494   0.739
 7107TIP3    H121278   8.043   4.471   0.828
 7107TIP3    H221279   8.014   4.442   0.682
 7108TIP3   OH221280   4.070   2.533   3.534
 7108TIP3    H121281   4.129   2.609   3.537
 7108TIP3    H221282   3.983   2.571   3.543
 7109TIP3   OH221283   1.294   3.315   0.690
 7109TIP3    H121284   1.362   3.271   0.741
 7109TIP3    H221285   1.274   3.254   0.619
 7110TIP3   OH221286   7.681   0.740   4.233
 7110TIP3    H121287   7.755   0.705   4.284
 7110TIP3    H221288   7.721   0.771   4.152
 7111TIP3   OH221289   8.244   2.207   0.435
 7111TIP3    H121290   8.155   2.204   0.469
 7111TIP3    H221291   8.275   2.295   0.454
 7112TIP3   OH221292   3.587   6.317   3.341
 7112TIP3    H121293   3.560   6.291   3.253
 7112TIP3    H221294   3.633   6.400   3.329
 7113TIP3   OH221295   0.856   1.414   1.329
 7113TIP3    H121296   0.793   1.359   1.375
 7113TIP3    H221297   0.931   1.419   1.389
 7114TIP3   OH221298   1.600   7.827   4.160
 7114TIP3    H121299   1.650   7.745   4.168
 7114TIP3    H221300   1.518   7.809   4.206
 7115TIP3   OH221301   5.634   5.203   4.766
 7115TIP3    H121302   5.578   5.136   4.806
 7115TIP3    H221303   5.572   5.267   4.730
 7116TIP3   OH221304   0.701   3.123   4.898
 7116TIP3    H121305   0.703   3.216   4.916
 7116TIP3    H221306   0.789   3.092   4.921
 7117TIP3   OH221307   6.177   7.170   1.609
 7117TIP3    H121308   6.183   7.111   1.684
 7117TIP3    H221309   6.264   7.164   1.568
 7118TIP3   OH221310   7.470   4.295   5.154
 7118TIP3    H121311   7.553   4.295   5.201
 7118TIP3    H221312   7.403   4.288   5.222
 7119TIP3   OH221313   3.522   4.103   4.514
 7119TIP3    H121314   3.452   4.069   4.458
 7119TIP3    H221315   3.592   4.038   4.507
 7120TIP3   OH221316   1.693   5.689   3.239
 7120TIP3    H121317   1.746   5.769   3.232
 7120TIP3    H221318   1.604   5.721   3.248
 7121TIP3   OH221319   6.826   6.792   4.755
 7121TIP3    H121320   6.863   6.720   4.705
 7121TIP3    H221321   6.783   6.848   4.690
 7122TIP3   OH221322   7.314   7.045   2.010
 7122TIP3    H121323   7.255   7.024   1.938
 7122TIP3    H221324   7.259   7.043   2.088
 7123TIP3   OH221325   3.227   7.726   3.799
 7123TIP3    H121326   3.275   7.651   3.763
 7123TIP3    H221327   3.155   7.740   3.738
 7124TIP3   OH221328   0.431   1.155   1.278
 7124TIP3    H121329   0.376   1.228   1.249
 7124TIP3    H221330   0.397   1.079   1.231
 7125TIP3   OH221331   7.980   5.858   5.253
 7125TIP3    H121332   7.886   5.865   5.233
 7125TIP3    H221333   7.989   5.773   5.296
 7126TIP3   OH221334   0.224   6.962   0.107
 7126TIP3    H121335   0.210   7.040   0.053
 7126TIP3    H221336   0.282   6.991   0.177
 7127TIP3   OH221337   1.729   3.536   6.511
 7127TIP3    H121338   1.679   3.616   6.494
 7127TIP3    H221339   1.819   3.558   6.487
 7128TIP3   OH221340   0.558   3.171   1.929
 7128TIP3    H121341   0.561   3.193   2.022
 7128TIP3    H221342   0.549   3.076   1.926
 7129TIP3   OH221343   6.447   4.053   0.706
 7129TIP3    H121344   6.370   4.069   0.761
 7129TIP3    H221345   6.468   3.960   0.720
 7130TIP3   OH221346   2.310   6.562   3.406
 7130TIP3    H121347   2.342   6.485   3.360
 7130TIP3    H221348   2.348   6.636   3.358
 7131TIP3   OH221349   3.951   7.619   3.614
 7131TIP3    H121350   3.949   7.601   3.520
 7131TIP3    H221351   4.004   7.549   3.652
 7132TIP3   OH221352   7.904   0.909   5.384
 7132TIP3    H121353   7.979   0.878   5.334
 7132TIP3    H221354   7.942   0.945   5.464
 7133TIP3   OH221355   3.482   7.291   5.894
 7133TIP3    H121356   3.558   7.349   5.886
 7133TIP3    H221357   3.516   7.212   5.937
 7134TIP3   OH221358   2.380   4.557   4.890
 7134TIP3    H121359   2.448   4.605   4.936
 7134TIP3    H221360   2.326   4.518   4.959
 7135TIP3   OH221361   5.614   1.415   3.406
 7135TIP3    H121362   5.660   1.467   3.471
 7135TIP3    H221363   5.600   1.330   3.448
 7136TIP3   OH221364   1.082   7.132   5.512
 7136TIP3    H121365   1.172   7.146   5.542
 7136TIP3    H221366   1.088   7.059   5.451
 7137TIP3   OH221367   2.710   0.416   4.859
 7137TIP3    H121368   2.618   0.402   4.835
 7137TIP3    H221369   2.741   0.331   4.888
 7138TIP3   OH221370   5.245   3.753   0.880
 7138TIP3    H121371   5.290   3.735   0.797
 7138TIP3    H221372   5.315   3.780   0.939
 7139TIP3   OH221373   4.867   2.833   3.207
 7139TIP3    H121374   4.865   2.895   3.280
 7139TIP3    H221375   4.809   2.762   3.235
 7140TIP3   OH221376   2.982   5.555   0.291
 7140TIP3    H121377   2.946   5.467   0.282
 7140TIP3    H221378   2.952   5.600   0.212
 7141TIP3   OH221379   5.934   2.943   2.624
 7141TIP3    H121380   5.854   2.966   2.576
 7141TIP3    H221381   5.991   3.019   2.613
 7142TIP3   OH221382   3.749   1.694   5.790
 7142TIP3    H121383   3.757   1.667   5.698
 7142TIP3    H221384   3.814   1.642   5.836
 7143TIP3   OH221385   5.101   5.861   0.111
 7143TIP3    H121386   5.113   5.941   0.162
 7143TIP3    H221387   5.039   5.809   0.163
 7144TIP3   OH221388   1.659   5.198   1.310
 7144TIP3    H121389   1.657   5.178   1.216
 7144TIP3    H221390   1.630   5.117   1.352
 7145TIP3   OH221391   4.150   6.998   2.105
 7145TIP3    H121392   4.076   7.013   2.164
 7145TIP3    H221393   4.112   6.954   2.029
 7146TIP3   OH221394   7.041   6.629   2.946
 7146TIP3    H121395   7.136   6.615   2.951
 7146TIP3    H221396   7.030   6.694   2.876
 7147TIP3   OH221397   6.390   4.117   2.678
 7147TIP3    H121398   6.409   4.176   2.605
 7147TIP3    H221399   6.457   4.137   2.743
 7148TIP3   OH221400   5.912   5.760   4.498
 7148TIP3    H121401   5.996   5.775   4.543
 7148TIP3    H221402   5.874   5.685   4.543
 7149TIP3   OH221403   1.861   6.995   5.056
 7149TIP3    H121404   1.928   7.060   5.076
 7149TIP3    H221405   1.812   7.033   4.982
 7150TIP3   OH221406   6.579   2.036   2.472
 7150TIP3    H121407   6.615   1.974   2.536
 7150TIP3    H221408   6.604   2.122   2.506
 7151TIP3   OH221409   6.636   2.267   3.826
 7151TIP3    H121410   6.684   2.193   3.862
 7151TIP3    H221411   6.698   2.311   3.768
 7152TIP3   OH221412   7.083   4.198   2.367
 7152TIP3    H121413   7.025   4.140   2.319
 7152TIP3    H221414   7.079   4.167   2.457
 7153TIP3   OH221415   5.915   2.784   0.466
 7153TIP3    H121416   5.826   2.763   0.435
 7153TIP3    H221417   5.968   2.710   0.437
 7154TIP3   OH221418   5.742   3.900   4.608
 7154TIP3    H121419   5.683   3.931   4.539
 7154TIP3    H221420   5.827   3.938   4.587
 7155TIP3   OH221421   1.875   5.584   0.921
 7155TIP3    H121422   1.968   5.568   0.908
 7155TIP3    H221423   1.862   5.675   0.893
 7156TIP3   OH221424   0.086   2.185   4.023
 7156TIP3    H121425   0.179   2.163   4.014
 7156TIP3    H221426   0.084   2.248   4.095
 7157TIP3   OH221427   2.966   7.327   5.585
 7157TIP3    H121428   2.895   7.368   5.635
 7157TIP3    H221429   3.018   7.400   5.552
 7158TIP3   OH221430   4.206   1.068   5.762
 7158TIP3    H121431   4.238   1.136   5.821
 7158TIP3    H221432   4.162   1.115   5.692
 7159TIP3   OH221433   6.464   2.517   6.410
 7159TIP3    H121434   6.478   2.497   6.503
 7159TIP3    H221435   6.508   2.602   6.398
 7160TIP3   OH221436   5.675   2.113   4.054
 7160TIP3    H121437   5.583   2.091   4.037
 7160TIP3    H221438   5.698   2.063   4.132
 7161TIP3   OH221439   0.366   2.709   5.857
 7161TIP3    H121440   0.334   2.792   5.892
 7161TIP3    H221441   0.461   2.712   5.869
 7162TIP3   OH221442   0.363   4.777   5.419
 7162TIP3    H121443   0.333   4.709   5.359
 7162TIP3    H221444   0.445   4.809   5.380
 7163TIP3   OH221445   2.900   4.799   3.473
 7163TIP3    H121446   2.987   4.823   3.443
 7163TIP3    H221447   2.885   4.712   3.435
 7164TIP3   OH221448   4.121   1.857   1.755
 7164TIP3    H121449   4.127   1.869   1.660
 7164TIP3    H221450   4.126   1.762   1.768
 7165TIP3   OH221451   7.404   1.434   2.413
 7165TIP3    H121452   7.379   1.346   2.385
 7165TIP3    H221453   7.339   1.456   2.481
 7166TIP3   OH221454   1.130   1.705   0.078
 7166TIP3    H121455   1.098   1.719   0.166
 7166TIP3    H221456   1.209   1.759   0.073
 7167TIP3   OH221457   7.558   4.733   2.968
 7167TIP3    H121458   7.559   4.638   2.972
 7167TIP3    H221459   7.473   4.758   3.004
 7168TIP3   OH221460   0.167   5.287   4.652
 7168TIP3    H121461   0.201   5.260   4.567
 7168TIP3    H221462   0.166   5.207   4.704
 7169TIP3   OH221463   1.582   6.899   4.242
 7169TIP3    H121464   1.578   6.985   4.285
 7169TIP3    H221465   1.495   6.862   4.256
 7170TIP3   OH221466   3.894   1.759   0.110
 7170TIP3    H121467   3.932   1.814   0.041
 7170TIP3    H221468   3.903   1.811   0.189
 7171TIP3   OH221469   1.446   0.463   0.291
 7171TIP3    H121470   1.472   0.401   0.360
 7171TIP3    H221471   1.464   0.417   0.209
 7172TIP3   OH221472   2.755   1.327   5.887
 7172TIP3    H121473   2.722   1.414   5.863
 7172TIP3    H221474   2.687   1.292   5.945
 7173TIP3   OH221475   0.609   0.795   2.239
 7173TIP3    H121476   0.520   0.810   2.273
 7173TIP3    H221477   0.597   0.791   2.144
 7174TIP3   OH221478   1.982   0.621   3.233
 7174TIP3    H121479   1.941   0.622   3.147
 7174TIP3    H221480   2.072   0.591   3.217
 7175TIP3   OH221481   5.459   6.838   5.762
 7175TIP3    H121482   5.520   6.910   5.746
 7175TIP3    H221483   5.509   6.760   5.739
 7176TIP3   OH221484   6.100   0.500   1.590
 7176TIP3    H121485   6.158   0.455   1.651
 7176TIP3    H221486   6.159   0.539   1.526
 7177TIP3   OH221487   5.229   7.214   0.711
 7177TIP3    H121488   5.211   7.306   0.732
 7177TIP3    H221489   5.323   7.205   0.720
 7178TIP3   OH221490   5.614   6.300   6.083
 7178TIP3    H121491   5.698   6.254   6.073
 7178TIP3    H221492   5.638   6.393   6.087
 7179TIP3   OH221493   2.489   4.467   6.289
 7179TIP3    H121494   2.551   4.524   6.336
 7179TIP3    H221495   2.484   4.388   6.343
 7180TIP3   OH221496   1.929   6.657   2.152
 7180TIP3    H121497   1.888   6.625   2.072
 7180TIP3    H221498   1.880   6.615   2.223
 7181TIP3   OH221499   7.275   4.194   6.443
 7181TIP3    H121500   7.263   4.113   6.394
 7181TIP3    H221501   7.232   4.261   6.390
 7182TIP3   OH221502   0.817   2.779   2.723
 7182TIP3    H121503   0.778   2.843   2.782
 7182TIP3    H221504   0.903   2.815   2.702
 7183TIP3   OH221505   4.797   5.437   5.951
 7183TIP3    H121506   4.839   5.425   5.866
 7183TIP3    H221507   4.854   5.497   5.998
 7184TIP3   OH221508   4.803   0.598   5.895
 7184TIP3    H121509   4.890   0.638   5.884
 7184TIP3    H221510   4.820   0.504   5.896
 7185TIP3   OH221511   1.432   2.930   6.774
 7185TIP3    H121512   1.440   3.026   6.772
 7185TIP3    H221513   1.469   2.902   6.691
 7186TIP3   OH221514   4.285   6.083   3.010
 7186TIP3    H121515   4.381   6.086   3.006
 7186TIP3    H221516   4.259   6.175   3.017
 7187TIP3   OH221517   1.216   7.830   2.711
 7187TIP3    H121518   1.287   7.818   2.774
 7187TIP3    H221519   1.214   7.749   2.661
 7188TIP3   OH221520   5.879   0.382   0.569
 7188TIP3    H121521   5.899   0.350   0.481
 7188TIP3    H221522   5.905   0.474   0.568
 7189TIP3   OH221523   4.809   5.612   5.682
 7189TIP3    H121524   4.816   5.554   5.607
 7189TIP3    H221525   4.716   5.607   5.707
 7190TIP3   OH221526   6.104   1.517   0.670
 7190TIP3    H121527   6.054   1.598   0.658
 7190TIP3    H221528   6.125   1.488   0.581
 7191TIP3   OH221529   3.355   2.748   4.229
 7191TIP3    H121530   3.271   2.793   4.221
 7191TIP3    H221531   3.343   2.666   4.180
 7192TIP3   OH221532   1.233   0.769   6.571
 7192TIP3    H121533   1.186   0.851   6.588
 7192TIP3    H221534   1.320   0.796   6.542
 7193TIP3   OH221535   3.928   6.458   2.086
 7193TIP3    H121536   3.905   6.399   2.015
 7193TIP3    H221537   3.982   6.525   2.045
 7194TIP3   OH221538   4.988   5.154   4.727
 7194TIP3    H121539   5.012   5.216   4.796
 7194TIP3    H221540   5.035   5.074   4.749
 7195TIP3   OH221541   4.909   0.173   0.531
 7195TIP3    H121542   4.945   0.251   0.572
 7195TIP3    H221543   4.886   0.200   0.442
 7196TIP3   OH221544   5.611   7.182   3.517
 7196TIP3    H121545   5.540   7.188   3.581
 7196TIP3    H221546   5.570   7.142   3.441
 7197TIP3   OH221547   4.138   2.759   5.005
 7197TIP3    H121548   4.079   2.823   4.965
 7197TIP3    H221549   4.146   2.787   5.097
 7198TIP3   OH221550   4.240   0.535   0.573
 7198TIP3    H121551   4.209   0.541   0.664
 7198TIP3    H221552   4.195   0.607   0.529
 7199TIP3   OH221553   2.724   2.157   6.697
 7199TIP3    H121554   2.736   2.115   6.612
 7199TIP3    H221555   2.790   2.226   6.699
 7200TIP3   OH221556   6.431   1.002   1.949
 7200TIP3    H121557   6.450   0.909   1.936
 7200TIP3    H221558   6.516   1.042   1.965
 7201TIP3   OH221559   4.999   0.457   3.065
 7201TIP3    H121560   5.054   0.399   3.117
 7201TIP3    H221561   5.044   0.542   3.068
 7202TIP3   OH221562   5.015   6.427   4.673
 7202TIP3    H121563   4.965   6.482   4.612
 7202TIP3    H221564   5.105   6.431   4.641
 7203TIP3   OH221565   4.103   7.332   4.271
 7203TIP3    H121566   4.014   7.368   4.268
 7203TIP3    H221567   4.159   7.408   4.253
 7204TIP3   OH221568   7.936   0.448   5.062
 7204TIP3    H121569   7.915   0.383   5.129
 7204TIP3    H221570   7.864   0.511   5.066
 7205TIP3   OH221571   5.031   1.530   3.104
 7205TIP3    H121572   5.098   1.565   3.046
 7205TIP3    H221573   4.950   1.573   3.076
 7206TIP3   OH221574   5.897   1.673   2.308
 7206TIP3    H121575   5.861   1.623   2.382
 7206TIP3    H221576   5.955   1.737   2.349
 7207TIP3   OH221577   7.060   6.507   4.180
 7207TIP3    H121578   7.076   6.452   4.256
 7207TIP3    H221579   7.127   6.482   4.116
 7208TIP3   OH221580   2.023   3.873   2.128
 7208TIP3    H121581   2.086   3.939   2.158
 7208TIP3    H221582   1.945   3.887   2.181
 7209TIP3   OH221583   6.833   4.746   1.326
 7209TIP3    H121584   6.809   4.783   1.241
 7209TIP3    H221585   6.906   4.687   1.306
 7210TIP3   OH221586   5.578   2.828   6.817
 7210TIP3    H121587   5.504   2.879   6.785
 7210TIP3    H221588   5.649   2.892   6.827
 7211TIP3   OH221589   5.395   2.823   0.959
 7211TIP3    H121590   5.401   2.860   0.871
 7211TIP3    H221591   5.471   2.857   1.005
 7212TIP3   OH221592   4.664   4.351   3.395
 7212TIP3    H121593   4.602   4.343   3.467
 7212TIP3    H221594   4.742   4.390   3.434
 7213TIP3   OH221595   0.514   7.421   6.168
 7213TIP3    H121596   0.423   7.394   6.180
 7213TIP3    H221597   0.539   7.459   6.252
 7214TIP3   OH221598   2.347   3.657   2.701
 7214TIP3    H121599   2.403   3.650   2.779
 7214TIP3    H221600   2.258   3.659   2.736
 7215TIP3   OH221601   6.438   1.396   6.764
 7215TIP3    H121602   6.351   1.425   6.791
 7215TIP3    H221603   6.435   1.301   6.771
 7216TIP3   OH221604   7.680   6.921   0.171
 7216TIP3    H121605   7.638   7.000   0.138
 7216TIP3    H221606   7.684   6.935   0.266
 7217TIP3   OH221607   2.675   3.454   1.533
 7217TIP3    H121608   2.723   3.397   1.474
 7217TIP3    H221609   2.739   3.479   1.600
 7218TIP3   OH221610   7.537   4.280   3.589
 7218TIP3    H121611   7.578   4.366   3.579
 7218TIP3    H221612   7.577   4.226   3.520
 7219TIP3   OH221613   5.967   3.187   5.380
 7219TIP3    H121614   5.975   3.246   5.455
 7219TIP3    H221615   6.032   3.118   5.396
 7220TIP3   OH221616   2.515   3.443   0.942
 7220TIP3    H121617   2.576   3.373   0.919
 7220TIP3    H221618   2.471   3.465   0.860
 7221TIP3   OH221619   2.098   1.658   6.198
 7221TIP3    H121620   2.123   1.737   6.245
 7221TIP3    H221621   2.170   1.642   6.137
 7222TIP3   OH221622   0.877   5.117   3.240
 7222TIP3    H121623   0.874   5.134   3.334
 7222TIP3    H221624   0.950   5.056   3.229
 7223TIP3   OH221625   5.777   1.488   1.032
 7223TIP3    H121626   5.721   1.544   1.086
 7223TIP3    H221627   5.719   1.456   0.962
 7224TIP3   OH221628   2.946   6.380   4.948
 7224TIP3    H121629   2.960   6.303   5.004
 7224TIP3    H221630   2.972   6.351   4.860
 7225TIP3   OH221631   0.330   1.019   3.526
 7225TIP3    H121632   0.383   1.037   3.604
 7225TIP3    H221633   0.264   1.087   3.526
 7226TIP3   OH221634   2.978   7.275   2.910
 7226TIP3    H121635   2.964   7.192   2.864
 7226TIP3    H221636   3.072   7.275   2.931
 7227TIP3   OH221637   2.622   3.860   2.364
 7227TIP3    H121638   2.671   3.791   2.321
 7227TIP3    H221639   2.681   3.895   2.431
 7228TIP3   OH221640   5.895   1.068   3.027
 7228TIP3    H121641   5.841   1.044   3.102
 7228TIP3    H221642   5.985   1.059   3.058
 7229TIP3   OH221643   7.037   2.182   0.735
 7229TIP3    H121644   7.083   2.265   0.750
 7229TIP3    H221645   7.090   2.116   0.780
 7230TIP3   OH221646   5.960   5.705   5.486
 7230TIP3    H121647   5.966   5.643   5.413
 7230TIP3    H221648   6.011   5.781   5.457
 7231TIP3   OH221649   2.269   6.063   2.689
 7231TIP3    H121650   2.345   6.010   2.713
 7231TIP3    H221651   2.196   6.002   2.689
 7232TIP3   OH221652   5.185   3.710   6.058
 7232TIP3    H121653   5.244   3.646   6.098
 7232TIP3    H221654   5.219   3.723   5.970
 7233TIP3   OH221655   4.538   0.613   3.789
 7233TIP3    H121656   4.450   0.644   3.768
 7233TIP3    H221657   4.562   0.559   3.713
 7234TIP3   OH221658   6.996   6.999   2.440
 7234TIP3    H121659   7.061   6.932   2.420
 7234TIP3    H221660   6.914   6.950   2.450
 7235TIP3   OH221661   5.561   2.099   5.213
 7235TIP3    H121662   5.488   2.136   5.262
 7235TIP3    H221663   5.552   2.135   5.125
 7236TIP3   OH221664   0.608   2.574   1.874
 7236TIP3    H121665   0.671   2.509   1.903
 7236TIP3    H221666   0.646   2.658   1.900
 7237TIP3   OH221667   3.233   7.585   0.886
 7237TIP3    H121668   3.232   7.550   0.975
 7237TIP3    H221669   3.314   7.552   0.848
 7238TIP3   OH221670   1.200   4.768   2.020
 7238TIP3    H121671   1.109   4.792   2.040
 7238TIP3    H221672   1.251   4.810   2.089
 7239TIP3   OH221673   3.863   3.622   2.181
 7239TIP3    H121674   3.942   3.574   2.157
 7239TIP3    H221675   3.894   3.693   2.237
 7240TIP3   OH221676   3.560   2.660   6.064
 7240TIP3    H121677   3.560   2.584   6.007
 7240TIP3    H221678   3.488   2.714   6.032
 7241TIP3   OH221679   3.676   0.532   6.226
 7241TIP3    H121680   3.695   0.581   6.146
 7241TIP3    H221681   3.759   0.532   6.274
 7242TIP3   OH221682   5.038   4.139   1.059
 7242TIP3    H121683   4.997   4.097   1.135
 7242TIP3    H221684   4.968   4.147   0.995
 7243TIP3   OH221685   4.915   6.201   1.642
 7243TIP3    H121686   4.880   6.113   1.631
 7243TIP3    H221687   5.006   6.188   1.671
 7244TIP3   OH221688   0.624   3.989   2.530
 7244TIP3    H121689   0.695   3.969   2.592
 7244TIP3    H221690   0.668   3.998   2.446
 7245TIP3   OH221691   5.949   3.824   1.002
 7245TIP3    H121692   5.947   3.850   0.910
 7245TIP3    H221693   6.037   3.846   1.032
 7246TIP3   OH221694   5.588   3.684   3.275
 7246TIP3    H121695   5.565   3.678   3.367
 7246TIP3    H221696   5.519   3.636   3.230
 7247TIP3   OH221697   5.733   0.750   2.945
 7247TIP3    H121698   5.800   0.809   2.911
 7247TIP3    H221699   5.650   0.789   2.916
 7248TIP3   OH221700   6.197   3.110   5.215
 7248TIP3    H121701   6.216   3.042   5.151
 7248TIP3    H221702   6.229   3.075   5.298
 7249TIP3   OH221703   4.733   5.267   5.112
 7249TIP3    H121704   4.664   5.202   5.122
 7249TIP3    H221705   4.708   5.338   5.171
 7250TIP3   OH221706   5.830   0.681   0.573
 7250TIP3    H121707   5.894   0.721   0.515
 7250TIP3    H221708   5.745   0.707   0.538
 7251TIP3   OH221709   7.078   1.280   1.482
 7251TIP3    H121710   7.084   1.298   1.388
 7251TIP3    H221711   7.068   1.185   1.488
 7252TIP3   OH221712   4.963   6.689   6.244
 7252TIP3    H121713   5.021   6.613   6.248
 7252TIP3    H221714   4.880   6.655   6.210
 7253TIP3   OH221715   4.126   4.189   3.818
 7253TIP3    H121716   4.070   4.120   3.782
 7253TIP3    H221717   4.078   4.221   3.894
 7254TIP3   OH221718   4.208   7.786   6.093
 7254TIP3    H121719   4.184   7.715   6.153
 7254TIP3    H221720   4.219   7.743   6.008
 7255TIP3   OH221721   6.141   4.440   0.252
 7255TIP3    H121722   6.146   4.392   0.334
 7255TIP3    H221723   6.207   4.400   0.196
 7256TIP3   OH221724   2.043   0.766   0.566
 7256TIP3    H121725   1.953   0.786   0.591
 7256TIP3    H221726   2.096   0.833   0.610
 7257TIP3   OH221727   2.978   5.629   5.909
 7257TIP3    H121728   2.969   5.635   6.004
 7257TIP3    H221729   3.019   5.712   5.884
 7258TIP3   OH221730   6.240   0.423   3.324
 7258TIP3    H121731   6.216   0.405   3.415
 7258TIP3    H221732   6.309   0.360   3.304
 7259TIP3   OH221733   7.266   1.290   0.669
 7259TIP3    H121734   7.320   1.324   0.598
 7259TIP3    H221735   7.304   1.204   0.689
 7260TIP3   OH221736   6.129   3.759   3.109
 7260TIP3    H121737   6.138   3.727   3.019
 7260TIP3    H221738   6.048   3.811   3.107
 7261TIP3   OH221739   2.261   3.620   4.954
 7261TIP3    H121740   2.344   3.655   4.923
 7261TIP3    H221741   2.285   3.543   5.006
 7262TIP3   OH221742   0.509   3.442   0.142
 7262TIP3    H121743   0.532   3.443   0.049
 7262TIP3    H221744   0.540   3.357   0.174
 7263TIP3   OH221745   7.613   6.414   3.066
 7263TIP3    H121746   7.611   6.473   3.142
 7263TIP3    H221747   7.617   6.472   2.990
 7264TIP3   OH221748   1.798   3.381   2.880
 7264TIP3    H121749   1.742   3.415   2.811
 7264TIP3    H221750   1.738   3.336   2.940
 7265TIP3   OH221751   0.044   4.283   5.372
 7265TIP3    H121752   0.011   4.316   5.288
 7265TIP3    H221753  -0.006   4.203   5.388
 7266TIP3   OH221754   4.925   5.741   0.822
 7266TIP3    H121755   4.987   5.682   0.866
 7266TIP3    H221756   4.981   5.802   0.774
 7267TIP3   OH221757   5.840   1.036   3.530
 7267TIP3    H121758   5.786   0.957   3.526
 7267TIP3    H221759   5.874   1.036   3.620
 7268TIP3   OH221760   8.185   2.643   2.660
 7268TIP3    H121761   8.262   2.589   2.639
 7268TIP3    H221762   8.112   2.581   2.664
 7269TIP3   OH221763   6.348   2.883   6.077
 7269TIP3    H121764   6.261   2.920   6.093
 7269TIP3    H221765   6.389   2.879   6.164
 7270TIP3   OH221766   8.197   3.212   5.821
 7270TIP3    H121767   8.115   3.166   5.804
 7270TIP3    H221768   8.172   3.284   5.878
 7271TIP3   OH221769   4.638   0.330   2.545
 7271TIP3    H121770   4.680   0.262   2.494
 7271TIP3    H221771   4.636   0.406   2.487
 7272TIP3   OH221772   2.793   1.968   5.663
 7272TIP3    H121773   2.869   1.986   5.607
 7272TIP3    H221774   2.735   2.043   5.649
 7273TIP3   OH221775   7.086   3.101   3.564
 7273TIP3    H121776   7.056   3.095   3.473
 7273TIP3    H221777   7.093   3.010   3.593
 7274TIP3   OH221778   3.146   4.806   5.166
 7274TIP3    H121779   3.072   4.758   5.202
 7274TIP3    H221780   3.195   4.836   5.243
 7275TIP3   OH221781   1.243   3.497   1.922
 7275TIP3    H121782   1.288   3.416   1.898
 7275TIP3    H221783   1.226   3.488   2.016
 7276TIP3   OH221784   1.999   2.948   4.450
 7276TIP3    H121785   2.041   2.875   4.404
 7276TIP3    H221786   2.018   3.025   4.396
 7277TIP3   OH221787   4.515   1.254   0.704
 7277TIP3    H121788   4.565   1.211   0.634
 7277TIP3    H221789   4.501   1.343   0.672
 7278TIP3   OH221790   6.315   1.385   0.029
 7278TIP3    H121791   6.334   1.320   0.097
 7278TIP3    H221792   6.266   1.454   0.074
 7279TIP3   OH221793   3.364   1.326   3.812
 7279TIP3    H121794   3.453   1.299   3.790
 7279TIP3    H221795   3.358   1.313   3.907
 7280TIP3   OH221796   0.435   2.375   5.098
 7280TIP3    H121797   0.447   2.466   5.073
 7280TIP3    H221798   0.496   2.327   5.042
 7281TIP3   OH221799   6.502   7.468   2.627
 7281TIP3    H121800   6.423   7.520   2.645
 7281TIP3    H221801   6.521   7.425   2.710
 7282TIP3   OH221802   1.686   2.466   1.964
 7282TIP3    H121803   1.735   2.544   1.940
 7282TIP3    H221804   1.699   2.406   1.890
 7283TIP3   OH221805   5.278   5.005   5.689
 7283TIP3    H121806   5.298   4.956   5.769
 7283TIP3    H221807   5.353   4.991   5.632
 7284TIP3   OH221808   1.596   0.253   1.580
 7284TIP3    H121809   1.660   0.270   1.649
 7284TIP3    H221810   1.547   0.177   1.611
 7285TIP3   OH221811   3.084   2.495   3.640
 7285TIP3    H121812   3.004   2.546   3.649
 7285TIP3    H221813   3.092   2.448   3.723
 7286TIP3   OH221814   4.617   3.730   6.306
 7286TIP3    H121815   4.699   3.711   6.351
 7286TIP3    H221816   4.598   3.821   6.328
 7287TIP3   OH221817   1.726   7.100   3.035
 7287TIP3    H121818   1.743   7.009   3.011
 7287TIP3    H221819   1.673   7.095   3.115
 7288TIP3   OH221820   7.903   1.972   0.455
 7288TIP3    H121821   7.885   2.062   0.481
 7288TIP3    H221822   7.846   1.956   0.380
 7289TIP3   OH221823   6.319   5.835   3.597
 7289TIP3    H121824   6.247   5.882   3.639
 7289TIP3    H221825   6.377   5.904   3.564
 7290TIP3   OH221826   3.695   0.090   0.528
 7290TIP3    H121827   3.615   0.038   0.520
 7290TIP3    H221828   3.741   0.053   0.603
 7291TIP3   OH221829   4.295   0.056   3.417
 7291TIP3    H121830   4.294   0.102   3.501
 7291TIP3    H221831   4.226   0.099   3.366
 7292TIP3   OH221832   7.446   7.776   2.103
 7292TIP3    H121833   7.377   7.806   2.045
 7292TIP3    H221834   7.404   7.709   2.158
 7293TIP3   OH221835   5.777   2.447   3.012
 7293TIP3    H121836   5.824   2.368   3.039
 7293TIP3    H221837   5.839   2.519   3.026
 7294TIP3   OH221838   1.653   0.620   5.551
 7294TIP3    H121839   1.559   0.614   5.569
 7294TIP3    H221840   1.658   0.667   5.468
 7295TIP3   OH221841   6.488   4.721   6.548
 7295TIP3    H121842   6.518   4.791   6.607
 7295TIP3    H221843   6.535   4.643   6.578
 7296TIP3   OH221844   4.937   6.337   3.058
 7296TIP3    H121845   4.971   6.389   2.985
 7296TIP3    H221846   4.847   6.317   3.032
 7297TIP3   OH221847   2.849   3.790   3.403
 7297TIP3    H121848   2.891   3.789   3.489
 7297TIP3    H221849   2.770   3.842   3.415
 7298TIP3   OH221850   1.638   0.095   4.831
 7298TIP3    H121851   1.543   0.088   4.840
 7298TIP3    H221852   1.672   0.014   4.868
 7299TIP3   OH221853   1.578   4.623   2.230
 7299TIP3    H121854   1.596   4.571   2.151
 7299TIP3    H221855   1.505   4.578   2.272
 7300TIP3   OH221856   0.803   2.493   5.480
 7300TIP3    H121857   0.707   2.494   5.478
 7300TIP3    H221858   0.830   2.563   5.421
 7301TIP3   OH221859   1.983   3.883   6.393
 7301TIP3    H121860   1.988   3.922   6.480
 7301TIP3    H221861   2.020   3.950   6.335
 7302TIP3   OH221862   3.804   1.810   5.518
 7302TIP3    H121863   3.890   1.794   5.555
 7302TIP3    H221864   3.762   1.724   5.515
 7303TIP3   OH221865   1.772   3.592   5.310
 7303TIP3    H121866   1.837   3.627   5.249
 7303TIP3    H221867   1.724   3.668   5.341
 7304TIP3   OH221868   5.274  -0.036   6.643
 7304TIP3    H121869   5.347   0.018   6.675
 7304TIP3    H221870   5.242   0.012   6.566
 7305TIP3   OH221871   4.510   5.060   2.427
 7305TIP3    H121872   4.576   5.128   2.418
 7305TIP3    H221873   4.559   4.980   2.447
 7306TIP3   OH221874   2.279   5.721   1.799
 7306TIP3    H121875   2.261   5.678   1.882
 7306TIP3    H221876   2.310   5.808   1.823
 7307TIP3   OH221877   2.744   3.105   6.455
 7307TIP3    H121878   2.650   3.094   6.466
 7307TIP3    H221879   2.766   3.054   6.377
 7308TIP3   OH221880   3.171   3.298   5.121
 7308TIP3    H121881   3.161   3.258   5.207
 7308TIP3    H221882   3.134   3.386   5.131
 7309TIP3   OH221883   6.788   5.297  -0.011
 7309TIP3    H121884   6.701   5.307   0.028
 7309TIP3    H221885   6.848   5.311   0.062
 7310TIP3   OH221886   0.453   2.776   6.171
 7310TIP3    H121887   0.440   2.870   6.158
 7310TIP3    H221888   0.543   2.760   6.142
 7311TIP3   OH221889   4.520   0.223   2.252
 7311TIP3    H121890   4.471   0.262   2.180
 7311TIP3    H221891   4.456   0.215   2.323
 7312TIP3   OH221892   8.202   7.009   3.889
 7312TIP3    H121893   8.263   7.007   3.816
 7312TIP3    H221894   8.236   6.945   3.951
 7313TIP3   OH221895   1.817   2.692   1.931
 7313TIP3    H121896   1.854   2.765   1.881
 7313TIP3    H221897   1.893   2.639   1.956
 7314TIP3   OH221898   2.690   6.642   5.896
 7314TIP3    H121899   2.707   6.719   5.950
 7314TIP3    H221900   2.713   6.568   5.951
 7315TIP3   OH221901   0.502   5.048   0.472
 7315TIP3    H121902   0.571   5.089   0.524
 7315TIP3    H221903   0.491   4.961   0.511
 7316TIP3   OH221904   6.486   5.087   4.577
 7316TIP3    H121905   6.396   5.096   4.607
 7316TIP3    H221906   6.525   5.173   4.589
 7317TIP3   OH221907   2.281   2.615   0.751
 7317TIP3    H121908   2.336   2.586   0.678
 7317TIP3    H221909   2.281   2.541   0.811
 7318TIP3   OH221910   0.442   2.531   6.722
 7318TIP3    H121911   0.362   2.555   6.676
 7318TIP3    H221912   0.510   2.585   6.681
 7319TIP3   OH221913   0.470   7.749   3.590
 7319TIP3    H121914   0.532   7.818   3.563
 7319TIP3    H221915   0.444   7.707   3.509
 7320TIP3   OH221916   3.649   5.921   1.393
 7320TIP3    H121917   3.733   5.918   1.347
 7320TIP3    H221918   3.672   5.941   1.484
 7321TIP3   OH221919   7.812   6.164   5.907
 7321TIP3    H121920   7.721   6.165   5.879
 7321TIP3    H221921   7.835   6.256   5.922
 7322TIP3   OH221922   3.540   5.162   1.188
 7322TIP3    H121923   3.625   5.120   1.172
 7322TIP3    H221924   3.505   5.116   1.264
 7323TIP3   OH221925   4.581   3.497   1.643
 7323TIP3    H121926   4.539   3.557   1.581
 7323TIP3    H221927   4.666   3.478   1.603
 7324TIP3   OH221928   7.222   4.909   1.507
 7324TIP3    H121929   7.243   4.879   1.419
 7324TIP3    H221930   7.132   4.882   1.522
 7325TIP3   OH221931   5.726   0.230   5.045
 7325TIP3    H121932   5.654   0.293   5.049
 7325TIP3    H221933   5.788   0.269   4.984
 7326TIP3   OH221934   7.259   7.327   6.487
 7326TIP3    H121935   7.166   7.347   6.482
 7326TIP3    H221936   7.291   7.381   6.559
 7327TIP3   OH221937   1.640   4.091   0.580
 7327TIP3    H121938   1.581   4.118   0.509
 7327TIP3    H221939   1.653   3.997   0.566
 7328TIP3   OH221940   4.652   0.304   4.225
 7328TIP3    H121941   4.710   0.347   4.162
 7328TIP3    H221942   4.675   0.343   4.309
 7329TIP3   OH221943   5.746   3.516   2.403
 7329TIP3    H121944   5.786   3.473   2.479
 7329TIP3    H221945   5.660   3.474   2.395
 7330TIP3   OH221946   0.550   3.640   4.732
 7330TIP3    H121947   0.587   3.678   4.652
 7330TIP3    H221948   0.572   3.703   4.801
 7331TIP3   OH221949   4.241   0.174   0.502
 7331TIP3    H121950   4.299   0.228   0.449
 7331TIP3    H221951   4.153   0.209   0.485
 7332TIP3   OH221952   5.146   0.619   0.622
 7332TIP3    H121953   5.214   0.584   0.679
 7332TIP3    H221954   5.175   0.708   0.602
 7333TIP3   OH221955   6.822   3.797   4.697
 7333TIP3    H121956   6.766   3.847   4.757
 7333TIP3    H221957   6.910   3.803   4.736
 7334TIP3   OH221958   0.761   2.409   4.746
 7334TIP3    H121959   0.813   2.438   4.672
 7334TIP3    H221960   0.817   2.423   4.823
 7335TIP3   OH221961   4.410   6.110   5.672
 7335TIP3    H121962   4.347   6.075   5.735
 7335TIP3    H221963   4.436   6.035   5.618
 7336TIP3   OH221964   2.339   0.067   2.006
 7336TIP3    H121965   2.385  -0.004   2.048
 7336TIP3    H221966   2.285   0.105   2.075
 7337TIP3   OH221967   1.687   3.829   0.564
 7337TIP3    H121968   1.603   3.783   0.566
 7337TIP3    H221969   1.732   3.793   0.487
 7338TIP3   OH221970   5.195   1.980   6.074
 7338TIP3    H121971   5.119   1.926   6.053
 7338TIP3    H221972   5.267   1.941   6.025
 7339TIP3   OH221973   7.566   2.513   6.218
 7339TIP3    H121974   7.597   2.449   6.154
 7339TIP3    H221975   7.545   2.461   6.296
 7340TIP3   OH221976   7.198   5.841   6.406
 7340TIP3    H121977   7.124   5.785   6.427
 7340TIP3    H221978   7.261   5.827   6.477
 7341TIP3   OH221979   6.076   4.709   5.997
 7341TIP3    H121980   5.998   4.676   6.042
 7341TIP3    H221981   6.149   4.682   6.053
 7342TIP3   OH221982   7.998   6.699   2.058
 7342TIP3    H121983   7.953   6.627   2.015
 7342TIP3    H221984   8.011   6.764   1.989
 7343TIP3   OH221985   0.419   0.461   1.616
 7343TIP3    H121986   0.444   0.486   1.705
 7343TIP3    H221987   0.388   0.371   1.625
 7344TIP3   OH221988   4.407   6.951   0.139
 7344TIP3    H121989   4.369   7.017   0.196
 7344TIP3    H221990   4.335   6.893   0.116
 7345TIP3   OH221991   5.743   4.167   5.789
 7345TIP3    H121992   5.647   4.167   5.790
 7345TIP3    H221993   5.766   4.244   5.737
 7346TIP3   OH221994   1.993   2.555   1.037
 7346TIP3    H121995   1.988   2.486   0.970
 7346TIP3    H221996   2.066   2.529   1.093
 7347TIP3   OH221997   1.282   1.375   6.750
 7347TIP3    H121998   1.203   1.425   6.728
 7347TIP3    H221999   1.306   1.331   6.668
 7348TIP3   OH222000   3.922   6.466   6.766
 7348TIP3    H122001   3.855   6.506   6.712
 7348TIP3    H222002   3.996   6.527   6.762
 7349TIP3   OH222003   2.866   4.703   5.331
 7349TIP3    H122004   2.952   4.699   5.372
 7349TIP3    H222005   2.838   4.612   5.324
 7350TIP3   OH222006   2.772   4.697   3.773
 7350TIP3    H122007   2.797   4.772   3.719
 7350TIP3    H222008   2.849   4.640   3.772
 7351TIP3   OH222009   6.377   2.068   2.292
 7351TIP3    H122010   6.383   2.012   2.215
 7351TIP3    H222011   6.447   2.037   2.349
 7352TIP3   OH222012   1.862   5.577   1.841
 7352TIP3    H122013   1.935   5.631   1.871
 7352TIP3    H222014   1.858   5.504   1.904
 7353TIP3   OH222015   2.161   7.263   5.989
 7353TIP3    H122016   2.143   7.193   5.928
 7353TIP3    H222017   2.106   7.244   6.065
 7354TIP3   OH222018   2.221   0.000   0.117
 7354TIP3    H122019   2.314  -0.003   0.142
 7354TIP3    H222020   2.189   0.081   0.157
 7355TIP3   OH222021   6.695   2.789   2.715
 7355TIP3    H122022   6.690   2.842   2.635
 7355TIP3    H222023   6.607   2.793   2.752
 7356TIP3   OH222024   5.679   0.218   6.217
 7356TIP3    H122025   5.751   0.266   6.176
 7356TIP3    H222026   5.655   0.151   6.153
 7357TIP3   OH222027   5.209   0.392   3.287
 7357TIP3    H122028   5.221   0.297   3.294
 7357TIP3    H222029   5.151   0.414   3.361
 7358TIP3   OH222030   5.050   1.829   3.020
 7358TIP3    H122031   5.063   1.805   2.928
 7358TIP3    H222032   5.139   1.833   3.057
 7359TIP3   OH222033   3.597   4.451   3.581
 7359TIP3    H122034   3.544   4.522   3.619
 7359TIP3    H222035   3.652   4.421   3.654
 7360TIP3   OH222036   1.880   2.449   6.034
 7360TIP3    H122037   1.802   2.414   6.078
 7360TIP3    H222038   1.941   2.468   6.105
 7361TIP3   OH222039   3.669   4.811   1.416
 7361TIP3    H122040   3.682   4.787   1.508
 7361TIP3    H222041   3.627   4.735   1.377
 7362TIP3   OH222042   1.520   4.115   3.790
 7362TIP3    H122043   1.579   4.160   3.850
 7362TIP3    H222044   1.433   4.135   3.824
 7363TIP3   OH222045   6.925   3.203   0.829
 7363TIP3    H122046   6.892   3.283   0.869
 7363TIP3    H222047   6.959   3.230   0.744
 7364TIP3   OH222048   4.193   7.820   1.619
 7364TIP3    H122049   4.192   7.916   1.612
 7364TIP3    H222050   4.129   7.800   1.687
 7365TIP3   OH222051   3.023   6.833   3.700
 7365TIP3    H122052   3.052   6.856   3.788
 7365TIP3    H222053   3.086   6.766   3.671
 7366TIP3   OH222054   3.292   3.590   3.426
 7366TIP3    H122055   3.321   3.681   3.432
 7366TIP3    H222056   3.321   3.560   3.340
 7367TIP3   OH222057   3.450   4.925   2.948
 7367TIP3    H122058   3.524   4.871   2.975
 7367TIP3    H222059   3.486   4.984   2.882
 7368TIP3   OH222060   0.529   1.127   3.694
 7368TIP3    H122061   0.475   1.140   3.772
 7368TIP3    H222062   0.619   1.136   3.725
 7369TIP3   OH222063   8.042   4.824   1.178
 7369TIP3    H122064   7.950   4.799   1.170
 7369TIP3    H222065   8.090   4.749   1.144
 7370TIP3   OH222066   5.719   0.458   6.389
 7370TIP3    H122067   5.718   0.380   6.333
 7370TIP3    H222068   5.703   0.531   6.329
 7371TIP3   OH222069   7.519   7.596   3.196
 7371TIP3    H122070   7.482   7.613   3.282
 7371TIP3    H222071   7.611   7.621   3.204
 7372TIP3   OH222072   8.005   0.712   0.849
 7372TIP3    H122073   7.953   0.676   0.920
 7372TIP3    H222074   7.944   0.721   0.776
 7373TIP3   OH222075   6.006   7.085   4.696
 7373TIP3    H122076   6.074   7.027   4.730
 7373TIP3    H222077   5.961   7.118   4.774
 7374TIP3   OH222078   4.879   2.426   1.539
 7374TIP3    H122079   4.925   2.347   1.567
 7374TIP3    H222080   4.808   2.436   1.602
 7375TIP3   OH222081   7.893   2.744   6.006
 7375TIP3    H122082   7.953   2.818   5.993
 7375TIP3    H222083   7.950   2.674   6.039
 7376TIP3   OH222084   6.020   7.364   3.590
 7376TIP3    H122085   6.052   7.277   3.566
 7376TIP3    H222086   5.940   7.376   3.540
 7377TIP3   OH222087   0.388   3.243   1.500
 7377TIP3    H122088   0.341   3.198   1.571
 7377TIP3    H222089   0.438   3.174   1.456
 7378TIP3   OH222090   7.858   4.546   6.625
 7378TIP3    H122091   7.839   4.453   6.622
 7378TIP3    H222092   7.826   4.575   6.710
 7379TIP3   OH222093   0.152   5.800   4.812
 7379TIP3    H122094   0.234   5.845   4.790
 7379TIP3    H222095   0.169   5.708   4.793
 7380TIP3   OH222096   0.211   4.651   5.673
 7380TIP3    H122097   0.238   4.677   5.584
 7380TIP3    H222098   0.158   4.725   5.704
 7381TIP3   OH222099   4.050   4.570   2.276
 7381TIP3    H122100   4.139   4.564   2.241
 7381TIP3    H222101   4.011   4.485   2.256
 7382TIP3   OH222102   5.559   1.345   4.650
 7382TIP3    H122103   5.573   1.255   4.681
 7382TIP3    H222104   5.605   1.349   4.567
 7383TIP3   OH222105   7.507   0.970   5.993
 7383TIP3    H122106   7.418   1.005   6.009
 7383TIP3    H222107   7.538   0.946   6.080
 7384TIP3   OH222108   7.523   4.040   5.745
 7384TIP3    H122109   7.551   3.966   5.798
 7384TIP3    H222110   7.529   4.115   5.805
 7385TIP3   OH222111   1.469   7.014   5.457
 7385TIP3    H122112   1.487   6.953   5.529
 7385TIP3    H222113   1.455   7.098   5.499
 7386TIP3   OH222114   6.192   3.020   4.387
 7386TIP3    H122115   6.161   2.942   4.432
 7386TIP3    H222116   6.275   3.041   4.430
 7387TIP3   OH222117   6.936   6.362   3.934
 7387TIP3    H122118   7.018   6.375   3.981
 7387TIP3    H222119   6.879   6.318   3.997
 7388TIP3   OH222120   7.024   6.713   5.615
 7388TIP3    H122121   7.056   6.775   5.550
 7388TIP3    H222122   7.082   6.638   5.609
 7389TIP3   OH222123   7.542   5.251   6.537
 7389TIP3    H122124   7.458   5.210   6.558
 7389TIP3    H222125   7.606   5.202   6.589
 7390TIP3   OH222126   2.493   3.172   1.346
 7390TIP3    H122127   2.481   3.160   1.252
 7390TIP3    H222128   2.441   3.250   1.367
 7391TIP3   OH222129   6.742   1.737   6.350
 7391TIP3    H122130   6.750   1.764   6.258
 7391TIP3    H222131   6.725   1.644   6.346
 7392TIP3   OH222132   8.302   0.334   0.432
 7392TIP3    H122133   8.381   0.291   0.466
 7392TIP3    H222134   8.252   0.356   0.511
 7393TIP3   OH222135   6.444   5.000   5.605
 7393TIP3    H122136   6.462   4.944   5.681
 7393TIP3    H222137   6.530   5.018   5.567
 7394TIP3   OH222138   7.233   5.537   6.383
 7394TIP3    H122139   7.143   5.556   6.408
 7394TIP3    H222140   7.233   5.442   6.365
 7395TIP3   OH222141   6.104   1.006   4.909
 7395TIP3    H122142   6.079   0.927   4.861
 7395TIP3    H222143   6.031   1.022   4.969
 7396TIP3   OH222144   5.057   2.316   1.899
 7396TIP3    H122145   4.997   2.243   1.909
 7396TIP3    H222146   5.087   2.310   1.808
 7397TIP3   OH222147   0.823   0.502   6.129
 7397TIP3    H122148   0.908   0.466   6.106
 7397TIP3    H222149   0.820   0.587   6.085
 7398TIP3   OH222150   0.347   2.325   5.508
 7398TIP3    H122151   0.311   2.276   5.434
 7398TIP3    H222152   0.399   2.394   5.468
 7399TIP3   OH222153   2.890   3.090   4.156
 7399TIP3    H122154   2.906   2.999   4.129
 7399TIP3    H222155   2.916   3.092   4.248
 7400TIP3   OH222156   2.017   0.827   4.839
 7400TIP3    H122157   2.001   0.886   4.765
 7400TIP3    H222158   1.929   0.801   4.868
 7401TIP3   OH222159   5.126   1.874   5.527
 7401TIP3    H122160   5.140   1.958   5.569
 7401TIP3    H222161   5.068   1.827   5.587
 7402TIP3   OH222162   4.328   4.971   4.478
 7402TIP3    H122163   4.344   5.064   4.488
 7402TIP3    H222164   4.387   4.943   4.408
 7403TIP3   OH222165   2.017   0.546   5.056
 7403TIP3    H122166   2.027   0.575   4.965
 7403TIP3    H222167   2.103   0.559   5.095
 7404TIP3   OH222168   3.101   1.677   1.344
 7404TIP3    H122169   3.077   1.589   1.315
 7404TIP3    H222170   3.077   1.734   1.271
 7405TIP3   OH222171   1.616   3.359   5.300
 7405TIP3    H122172   1.550   3.375   5.367
 7405TIP3    H222173   1.681   3.429   5.313
 7406TIP3   OH222174   3.150   7.691   0.487
 7406TIP3    H122175   3.236   7.652   0.473
 7406TIP3    H222176   3.089   7.634   0.440
 7407TIP3   OH222177   2.783   1.094   5.489
 7407TIP3    H122178   2.739   1.050   5.416
 7407TIP3    H222179   2.814   1.177   5.453
 7408TIP3   OH222180   7.671   2.218   2.920
 7408TIP3    H122181   7.615   2.258   2.853
 7408TIP3    H222182   7.759   2.218   2.882
 7409TIP3   OH222183   7.365   7.703   1.144
 7409TIP3    H122184   7.378   7.745   1.229
 7409TIP3    H222185   7.439   7.644   1.133
 7410TIP3   OH222186   4.985   3.126   0.350
 7410TIP3    H122187   4.960   3.073   0.274
 7410TIP3    H222188   4.976   3.066   0.424
 7411TIP3   OH222189   0.737   2.593   5.181
 7411TIP3    H122190   0.727   2.688   5.178
 7411TIP3    H222191   0.669   2.564   5.242
 7412TIP3   OH222192   0.722   2.869   6.412
 7412TIP3    H122193   0.694   2.864   6.320
 7412TIP3    H222194   0.728   2.962   6.431
 7413TIP3   OH222195   2.073   4.928   1.007
 7413TIP3    H122196   2.042   5.001   1.060
 7413TIP3    H222197   2.106   4.865   1.071
 7414TIP3   OH222198   8.152   2.412   1.028
 7414TIP3    H122199   8.245   2.401   1.050
 7414TIP3    H222200   8.146   2.389   0.936
 7415TIP3   OH222201   0.773   6.600   2.906
 7415TIP3    H122202   0.680   6.606   2.885
 7415TIP3    H222203   0.782   6.515   2.951
 7416TIP3   OH222204   5.057   2.633   1.449
 7416TIP3    H122205   5.014   2.578   1.515
 7416TIP3    H222206   5.133   2.669   1.494
 7417TIP3   OH222207   6.939   4.259   0.835
 7417TIP3    H122208   6.899   4.345   0.826
 7417TIP3    H222209   6.890   4.217   0.906
 7418TIP3   OH222210   1.025   3.025   0.669
 7418TIP3    H122211   1.047   3.109   0.628
 7418TIP3    H222212   1.066   3.029   0.755
 7419TIP3   OH222213   0.548   4.568   0.047
 7419TIP3    H122214   0.618   4.560  -0.017
 7419TIP3    H222215   0.501   4.485   0.043
 7420TIP3   OH222216   5.073   1.105   1.608
 7420TIP3    H122217   5.067   1.022   1.561
 7420TIP3    H222218   5.163   1.107   1.640
 7421TIP3   OH222219   7.005   4.574   0.448
 7421TIP3    H122220   6.955   4.616   0.519
 7421TIP3    H222221   7.095   4.601   0.464
 7422TIP3   OH222222   8.247   0.014   4.510
 7422TIP3    H122223   8.290   0.066   4.442
 7422TIP3    H222224   8.315  -0.003   4.574
 7423TIP3   OH222225   3.632   3.498   4.184
 7423TIP3    H122226   3.679   3.451   4.252
 7423TIP3    H222227   3.559   3.440   4.161
 7424TIP3   OH222228   1.074   0.012   0.957
 7424TIP3    H122229   1.154   0.023   1.010
 7424TIP3    H222230   1.051   0.101   0.931
 7425TIP3   OH222231   7.446   7.330   2.190
 7425TIP3    H122232   7.525   7.329   2.244
 7425TIP3    H222233   7.448   7.246   2.145
 7426TIP3   OH222234   5.770   6.317   6.407
 7426TIP3    H122235   5.851   6.366   6.393
 7426TIP3    H222236   5.799   6.229   6.433
 7427TIP3   OH222237   0.116   0.144   2.438
 7427TIP3    H122238   0.082   0.192   2.362
 7427TIP3    H222239   0.040   0.136   2.497
 7428TIP3   OH222240   7.640   6.362   2.199
 7428TIP3    H122241   7.649   6.453   2.227
 7428TIP3    H222242   7.634   6.312   2.281
 7429TIP3   OH222243   3.624   1.292   5.430
 7429TIP3    H122244   3.696   1.294   5.367
 7429TIP3    H222245   3.557   1.237   5.389
 7430TIP3   OH222246   2.728   4.913   1.148
 7430TIP3    H122247   2.672   4.942   1.076
 7430TIP3    H222248   2.756   4.825   1.123
 7431TIP3   OH222249   3.072   1.044   6.260
 7431TIP3    H122250   3.123   1.007   6.188
 7431TIP3    H222251   3.113   1.007   6.339
 7432TIP3   OH222252   6.723   2.273   3.323
 7432TIP3    H122253   6.795   2.328   3.355
 7432TIP3    H222254   6.689   2.319   3.247
 7433TIP3   OH222255   7.590   1.679   1.054
 7433TIP3    H122256   7.530   1.616   1.094
 7433TIP3    H222257   7.557   1.691   0.965
 7434TIP3   OH222258   7.644   1.998   0.326
 7434TIP3    H122259   7.603   2.012   0.411
 7434TIP3    H222260   7.610   2.069   0.271
 7435TIP3   OH222261   6.163   1.262   1.522
 7435TIP3    H122262   6.092   1.241   1.582
 7435TIP3    H222263   6.195   1.177   1.491
 7436TIP3   OH222264   2.900   7.594   1.194
 7436TIP3    H122265   2.857   7.626   1.115
 7436TIP3    H222266   2.869   7.652   1.264
 7437TIP3   OH222267   2.407   2.756   5.405
 7437TIP3    H122268   2.390   2.846   5.431
 7437TIP3    H222269   2.470   2.724   5.471
 7438TIP3   OH222270   7.968   5.181   0.956
 7438TIP3    H122271   8.058   5.211   0.968
 7438TIP3    H222272   7.915   5.259   0.966
 7439TIP3   OH222273   5.195   4.491   5.634
 7439TIP3    H122274   5.196   4.447   5.719
 7439TIP3    H222275   5.102   4.504   5.614
 7440TIP3   OH222276   6.270   7.279   3.983
 7440TIP3    H122277   6.276   7.359   3.931
 7440TIP3    H222278   6.259   7.209   3.918
 7441TIP3   OH222279   7.997   6.115   2.337
 7441TIP3    H122280   7.956   6.035   2.305
 7441TIP3    H222281   8.052   6.145   2.264
 7442TIP3   OH222282   5.741   5.435   3.569
 7442TIP3    H122283   5.704   5.484   3.496
 7442TIP3    H222284   5.760   5.502   3.636
 7443TIP3   OH222285   6.642   0.894   6.160
 7443TIP3    H122286   6.631   0.852   6.074
 7443TIP3    H222287   6.734   0.918   6.163
 7444TIP3   OH222288   4.286   5.476   3.835
 7444TIP3    H122289   4.266   5.554   3.783
 7444TIP3    H222290   4.301   5.509   3.924
 7445TIP3   OH222291   1.090   1.196   2.025
 7445TIP3    H122292   1.105   1.120   1.969
 7445TIP3    H222293   1.085   1.161   2.113
 7446TIP3   OH222294   0.823   1.764   1.878
 7446TIP3    H122295   0.756   1.721   1.825
 7446TIP3    H222296   0.782   1.775   1.964
 7447TIP3   OH222297   7.638   7.439   0.397
 7447TIP3    H122298   7.593   7.441   0.481
 7447TIP3    H222299   7.613   7.522   0.355
 7448TIP3   OH222300   2.642   0.907   6.702
 7448TIP3    H122301   2.600   0.958   6.633
 7448TIP3    H222302   2.576   0.843   6.730
 7449TIP3   OH222303   3.529   6.959   3.174
 7449TIP3    H122304   3.502   6.868   3.180
 7449TIP3    H222305   3.596   6.968   3.242
 7450TIP3   OH222306   6.870   0.290   0.081
 7450TIP3    H122307   6.809   0.362   0.062
 7450TIP3    H222308   6.881   0.294   0.176
 7451TIP3   OH222309   0.337   0.707   1.269
 7451TIP3    H122310   0.408   0.642   1.278
 7451TIP3    H222311   0.263   0.657   1.236
 7452TIP3   OH222312   0.155   1.745   4.529
 7452TIP3    H122313   0.095   1.681   4.489
 7452TIP3    H222314   0.162   1.815   4.464
 7453TIP3   OH222315   3.527   1.916   1.828
 7453TIP3    H122316   3.585   1.840   1.833
 7453TIP3    H222317   3.533   1.957   1.914
 7454TIP3   OH222318   6.154   0.720   5.278
 7454TIP3    H122319   6.239   0.730   5.235
 7454TIP3    H222320   6.093   0.702   5.207
 7455TIP3   OH222321   1.601   0.233   0.202
 7455TIP3    H122322   1.526   0.174   0.210
 7455TIP3    H222323   1.678   0.177   0.207
 7456TIP3   OH222324   3.498   6.116   5.534
 7456TIP3    H122325   3.493   6.148   5.444
 7456TIP3    H222326   3.570   6.053   5.534
 7457TIP3   OH222327   2.969   3.436   4.644
 7457TIP3    H122328   2.943   3.344   4.647
 7457TIP3    H222329   2.907   3.478   4.585
 7458TIP3   OH222330   2.402   6.634   0.147
 7458TIP3    H122331   2.327   6.609   0.201
 7458TIP3    H222332   2.463   6.674   0.209
 7459TIP3   OH222333   7.431   7.531   2.554
 7459TIP3    H122334   7.431   7.442   2.519
 7459TIP3    H222335   7.339   7.554   2.562
 7460TIP3   OH222336   4.986   6.426   5.465
 7460TIP3    H122337   4.975   6.396   5.375
 7460TIP3    H222338   5.048   6.499   5.458
 7461TIP3   OH222339   5.386   0.386   4.581
 7461TIP3    H122340   5.379   0.305   4.631
 7461TIP3    H222341   5.374   0.360   4.490
 7462TIP3   OH222342   1.346   2.134   0.853
 7462TIP3    H122343   1.377   2.072   0.786
 7462TIP3    H222344   1.263   2.097   0.883
 7463TIP3   OH222345   3.787   2.900   5.912
 7463TIP3    H122346   3.764   2.918   6.003
 7463TIP3    H222347   3.882   2.914   5.908
 7464TIP3   OH222348   3.243   1.584   3.798
 7464TIP3    H122349   3.305   1.656   3.786
 7464TIP3    H222350   3.298   1.506   3.809
 7465TIP3   OH222351   1.777   4.853   1.681
 7465TIP3    H122352   1.831   4.831   1.606
 7465TIP3    H222353   1.839   4.891   1.744
 7466TIP3   OH222354   3.310   0.570   1.064
 7466TIP3    H122355   3.378   0.580   0.998
 7466TIP3    H222356   3.352   0.522   1.135
 7467TIP3   OH222357   6.101   3.449   0.506
 7467TIP3    H122358   6.054   3.519   0.461
 7467TIP3    H222359   6.112   3.381   0.439
 7468TIP3   OH222360   7.170   5.833   5.389
 7468TIP3    H122361   7.114   5.869   5.321
 7468TIP3    H222362   7.117   5.765   5.431
 7469TIP3   OH222363   0.368   2.135   4.002
 7469TIP3    H122364   0.435   2.080   4.043
 7469TIP3    H222365   0.417   2.198   3.950
 7470TIP3   OH222366   4.970   1.438   4.050
 7470TIP3    H122367   4.898   1.497   4.028
 7470TIP3    H222368   4.994   1.462   4.140
 7471TIP3   OH222369   3.763   2.586   6.608
 7471TIP3    H122370   3.858   2.575   6.613
 7471TIP3    H222371   3.729   2.497   6.618
 7472TIP3   OH222372   5.803   1.280   1.374
 7472TIP3    H122373   5.753   1.361   1.376
 7472TIP3    H222374   5.857   1.284   1.453
 7473TIP3   OH222375   6.237   1.029   4.613
 7473TIP3    H122376   6.284   0.967   4.669
 7473TIP3    H222377   6.202   1.094   4.673
 7474TIP3   OH222378   1.359   6.430   1.138
 7474TIP3    H122379   1.340   6.438   1.231
 7474TIP3    H222380   1.336   6.339   1.116
 7475TIP3   OH222381   1.107   5.328   1.708
 7475TIP3    H122382   1.146   5.343   1.794
 7475TIP3    H222383   1.140   5.399   1.654
 7476TIP3   OH222384   4.700   6.938   1.102
 7476TIP3    H122385   4.648   6.873   1.054
 7476TIP3    H222386   4.642   7.013   1.113
 7477TIP3   OH222387   0.915   0.860   4.328
 7477TIP3    H122388   0.891   0.940   4.373
 7477TIP3    H222389   0.980   0.818   4.385
 7478TIP3   OH222390   6.878   5.784   2.015
 7478TIP3    H122391   6.794   5.778   1.970
 7478TIP3    H222392   6.892   5.697   2.053
 7479TIP3   OH222393   8.121   6.805   3.617
 7479TIP3    H122394   8.213   6.791   3.641
 7479TIP3    H222395   8.074   6.804   3.701
 7480TIP3   OH222396   7.947   7.283   0.957
 7480TIP3    H122397   7.891   7.222   0.910
 7480TIP3    H222398   8.007   7.317   0.890
 7481TIP3   OH222399   5.129   7.295   2.693
 7481TIP3    H122400   5.153   7.289   2.601
 7481TIP3    H222401   5.039   7.264   2.697
 7482TIP3   OH222402   0.919   7.185   1.507
 7482TIP3    H122403   1.009   7.215   1.516
 7482TIP3    H222404   0.916   7.145   1.420
 7483TIP3   OH222405   2.698   0.754   4.392
 7483TIP3    H122406   2.740   0.838   4.411
 7483TIP3    H222407   2.704   0.706   4.475
 7484TIP3   OH222408   7.604   4.178   1.625
 7484TIP3    H122409   7.673   4.219   1.677
 7484TIP3    H222410   7.651   4.118   1.567
 7485TIP3   OH222411   6.553   0.902   2.953
 7485TIP3    H122412   6.612   0.965   2.911
 7485TIP3    H222413   6.570   0.819   2.908
 7486TIP3   OH222414   5.260   7.075   0.477
 7486TIP3    H122415   5.283   7.161   0.441
 7486TIP3    H222416   5.214   7.095   0.558
 7487TIP3   OH222417   4.004   4.310   2.648
 7487TIP3    H122418   4.100   4.308   2.651
 7487TIP3    H222419   3.982   4.401   2.631
 7488TIP3   OH222420   6.858   2.895   3.452
 7488TIP3    H122421   6.827   2.964   3.393
 7488TIP3    H222422   6.853   2.815   3.401
 7489TIP3   OH222423   3.448   2.101   1.029
 7489TIP3    H122424   3.481   2.063   1.111
 7489TIP3    H222425   3.497   2.056   0.960
 7490TIP3   OH222426   4.360   2.148   3.702
 7490TIP3    H122427   4.353   2.151   3.798
 7490TIP3    H222428   4.280   2.192   3.671
 7491TIP3   OH222429   2.797   3.291   5.235
 7491TIP3    H122430   2.850   3.218   5.264
 7491TIP3    H222431   2.790   3.281   5.140
 7492TIP3   OH222432   3.986   4.254   1.145
 7492TIP3    H122433   3.963   4.272   1.235
 7492TIP3    H222434   3.907   4.274   1.095
 7493TIP3   OH222435   6.605   3.988   0.411
 7493TIP3    H122436   6.621   4.040   0.490
 7493TIP3    H222437   6.656   4.032   0.343
 7494TIP3   OH222438   5.732   7.091   1.419
 7494TIP3    H122439   5.790   7.050   1.355
 7494TIP3    H222440   5.790   7.136   1.480
 7495TIP3   OH222441   0.455   6.288   4.032
 7495TIP3    H122442   0.366   6.265   4.058
 7495TIP3    H222443   0.470   6.242   3.950
 7496TIP3   OH222444   1.599   7.602   0.594
 7496TIP3    H122445   1.572   7.632   0.681
 7496TIP3    H222446   1.694   7.591   0.601
 7497TIP3   OH222447   4.489   0.666   1.813
 7497TIP3    H122448   4.491   0.640   1.721
 7497TIP3    H222449   4.580   0.690   1.833
 7498TIP3   OH222450   7.399   2.256   6.118
 7498TIP3    H122451   7.338   2.301   6.059
 7498TIP3    H222452   7.353   2.253   6.202
 7499TIP3   OH222453   3.333   5.750   4.119
 7499TIP3    H122454   3.342   5.765   4.213
 7499TIP3    H222455   3.249   5.790   4.097
 7500TIP3   OH222456   2.452   2.163   5.378
 7500TIP3    H122457   2.426   2.084   5.330
 7500TIP3    H222458   2.374   2.187   5.428
 7501TIP3   OH222459   2.312   1.334   0.353
 7501TIP3    H122460   2.353   1.273   0.291
 7501TIP3    H222461   2.383   1.356   0.414
 7502TIP3   OH222462   0.045   2.224   2.093
 7502TIP3    H122463   0.112   2.217   2.161
 7502TIP3    H222464  -0.030   2.175   2.129
 7503TIP3   OH222465   6.723   6.053   4.913
 7503TIP3    H122466   6.665   6.129   4.917
 7503TIP3    H222467   6.759   6.045   5.001
 7504TIP3   OH222468   1.749   6.222   5.905
 7504TIP3    H122469   1.814   6.186   5.965
 7504TIP3    H222470   1.680   6.157   5.903
 7505TIP3   OH222471   3.959   4.577   2.536
 7505TIP3    H122472   3.976   4.580   2.442
 7505TIP3    H222473   3.865   4.593   2.544
 7506TIP3   OH222474   3.837   3.295   2.619
 7506TIP3    H122475   3.767   3.296   2.554
 7506TIP3    H222476   3.836   3.205   2.653
 7507TIP3   OH222477   7.099   3.066   4.022
 7507TIP3    H122478   7.087   3.142   3.966
 7507TIP3    H222479   7.062   3.092   4.106
 7508TIP3   OH222480   7.356   4.257   4.398
 7508TIP3    H122481   7.298   4.216   4.335
 7508TIP3    H222482   7.330   4.222   4.483
 7509TIP3   OH222483   2.492   3.838   4.054
 7509TIP3    H122484   2.584   3.865   4.052
 7509TIP3    H222485   2.494   3.750   4.092
 7510TIP3   OH222486   7.068   5.321   6.002
 7510TIP3    H122487   7.153   5.354   6.029
 7510TIP3    H222488   7.077   5.226   6.003
 7511TIP3   OH222489   3.615   2.464   2.051
 7511TIP3    H122490   3.633   2.519   1.975
 7511TIP3    H222491   3.536   2.503   2.090
 7512TIP3   OH222492   2.688   1.585   6.006
 7512TIP3    H122493   2.782   1.585   6.023
 7512TIP3    H222494   2.678   1.644   5.931
 7513TIP3   OH222495   4.034   1.491   5.161
 7513TIP3    H122496   4.006   1.582   5.175
 7513TIP3    H222497   4.074   1.492   5.074
 7514TIP3   OH222498   1.524   5.072   1.052
 7514TIP3    H122499   1.438   5.055   1.091
 7514TIP3    H222500   1.572   4.990   1.063
 7515TIP3   OH222501   6.622   0.209   4.942
 7515TIP3    H122502   6.654   0.165   4.863
 7515TIP3    H222503   6.599   0.138   5.001
 7516TIP3   OH222504   1.064   6.634   2.980
 7516TIP3    H122505   1.134   6.696   2.958
 7516TIP3    H222506   1.002   6.642   2.907
 7517TIP3   OH222507   3.381   7.070   1.768
 7517TIP3    H122508   3.451   7.015   1.806
 7517TIP3    H222509   3.313   7.007   1.744
 7518TIP3   OH222510   2.061   3.369   3.285
 7518TIP3    H122511   2.008   3.289   3.284
 7518TIP3    H222512   2.135   3.350   3.228
 7519TIP3   OH222513   6.573   5.042   6.434
 7519TIP3    H122514   6.668   5.048   6.425
 7519TIP3    H222515   6.541   5.025   6.345
 7520TIP3   OH222516   5.232   3.571   6.301
 7520TIP3    H122517   5.247   3.644   6.360
 7520TIP3    H222518   5.311   3.568   6.247
 7521TIP3   OH222519   3.611   5.877   3.396
 7521TIP3    H122520   3.583   5.902   3.307
 7521TIP3    H222521   3.653   5.956   3.430
 7522TIP3   OH222522   0.265   2.538   4.821
 7522TIP3    H122523   0.305   2.563   4.904
 7522TIP3    H222524   0.336   2.501   4.770
 7523TIP3   OH222525   7.095   3.795   1.553
 7523TIP3    H122526   7.098   3.774   1.646
 7523TIP3    H222527   7.013   3.757   1.521
 7524TIP3   OH222528   2.329   4.733   0.416
 7524TIP3    H122529   2.241   4.770   0.419
 7524TIP3    H222530   2.334   4.690   0.331
 7525TIP3   OH222531   4.887   4.985   2.598
 7525TIP3    H122532   4.880   5.070   2.555
 7525TIP3    H222533   4.865   5.003   2.690
 7526TIP3   OH222534   0.067   0.825   4.584
 7526TIP3    H122535   0.145   0.784   4.619
 7526TIP3    H222536   0.020   0.754   4.540
 7527TIP3   OH222537   3.113   4.012   4.409
 7527TIP3    H122538   3.084   3.938   4.463
 7527TIP3    H222539   3.197   3.984   4.373
 7528TIP3   OH222540   0.179   4.979   5.354
 7528TIP3    H122541   0.211   4.894   5.386
 7528TIP3    H222542   0.084   4.971   5.354
 7529TIP3   OH222543   6.764   3.197   6.578
 7529TIP3    H122544   6.774   3.264   6.646
 7529TIP3    H222545   6.846   3.148   6.581
 7530TIP3   OH222546   5.465   3.440   0.464
 7530TIP3    H122547   5.492   3.400   0.546
 7530TIP3    H222548   5.424   3.369   0.415
 7531TIP3   OH222549   6.030   0.229   6.254
 7531TIP3    H122550   5.974   0.170   6.304
 7531TIP3    H222551   5.984   0.242   6.171
 7532TIP3   OH222552   5.884   7.150   6.308
 7532TIP3    H122553   5.838   7.202   6.374
 7532TIP3    H222554   5.830   7.158   6.229
 7533TIP3   OH222555   0.495   3.806   5.273
 7533TIP3    H122556   0.449   3.770   5.349
 7533TIP3    H222557   0.436   3.873   5.239
 7534TIP3   OH222558   1.071   5.405   4.100
 7534TIP3    H122559   1.142   5.464   4.074
 7534TIP3    H222560   1.039   5.368   4.018
 7535TIP3   OH222561   7.110   5.553   2.530
 7535TIP3    H122562   7.052   5.628   2.544
 7535TIP3    H222563   7.093   5.527   2.439
 7536TIP3   OH222564   7.095   6.951   5.883
 7536TIP3    H122565   7.094   6.964   5.977
 7536TIP3    H222566   7.073   6.858   5.871
 7537TIP3   OH222567   3.036   7.416   1.988
 7537TIP3    H122568   2.956   7.386   2.031
 7537TIP3    H222569   3.026   7.390   1.897
 7538TIP3   OH222570   1.787   5.626   5.185
 7538TIP3    H122571   1.766   5.550   5.132
 7538TIP3    H222572   1.853   5.595   5.247
 7539TIP3   OH222573   7.624   3.428   1.653
 7539TIP3    H122574   7.575   3.472   1.584
 7539TIP3    H222575   7.713   3.461   1.644
 7540TIP3   OH222576   3.922   4.536   1.297
 7540TIP3    H122577   3.915   4.493   1.212
 7540TIP3    H222578   4.002   4.590   1.290
 7541TIP3   OH222579   3.953   1.506   1.310
 7541TIP3    H122580   3.895   1.469   1.244
 7541TIP3    H222581   4.037   1.519   1.265
 7542TIP3   OH222582   4.001   3.125   1.126
 7542TIP3    H122583   3.980   3.067   1.054
 7542TIP3    H222584   3.917   3.140   1.171
 7543TIP3   OH222585   4.328   3.757   4.144
 7543TIP3    H122586   4.422   3.770   4.131
 7543TIP3    H222587   4.287   3.808   4.074
 7544TIP3   OH222588   3.872   5.020   4.357
 7544TIP3    H122589   3.801   5.024   4.421
 7544TIP3    H222590   3.917   4.938   4.376
 7545TIP3   OH222591   3.099   3.835   1.460
 7545TIP3    H122592   3.039   3.836   1.535
 7545TIP3    H222593   3.044   3.812   1.385
 7546TIP3   OH222594   4.851   0.233   2.076
 7546TIP3    H122595   4.802   0.278   2.007
 7546TIP3    H222596   4.800   0.154   2.093
 7547TIP3   OH222597   0.352   2.130   1.959
 7547TIP3    H122598   0.268   2.176   1.963
 7547TIP3    H222599   0.403   2.166   2.032
 7548TIP3   OH222600   7.445   3.744   0.356
 7548TIP3    H122601   7.352   3.767   0.354
 7548TIP3    H222602   7.472   3.765   0.445
 7549TIP3   OH222603   0.381   4.357   5.810
 7549TIP3    H122604   0.474   4.360   5.787
 7549TIP3    H222605   0.336   4.386   5.730
 7550TIP3   OH222606   4.843   0.092   6.385
 7550TIP3    H122607   4.828   0.139   6.468
 7550TIP3    H222608   4.821   0.001   6.405
 7551TIP3   OH222609   8.003   2.669   3.625
 7551TIP3    H122610   7.913   2.703   3.620
 7551TIP3    H222611   8.038   2.703   3.707
 7552TIP3   OH222612   3.218   4.882   2.654
 7552TIP3    H122613   3.284   4.949   2.637
 7552TIP3    H222614   3.179   4.907   2.738
 7553TIP3   OH222615   2.156   4.038   5.932
 7553TIP3    H122616   2.080   4.012   5.983
 7553TIP3    H222617   2.140   4.002   5.845
 7554TIP3   OH222618   2.902   0.576   5.678
 7554TIP3    H122619   2.895   0.669   5.657
 7554TIP3    H222620   2.984   0.569   5.727
 7555TIP3   OH222621   3.472   0.505   0.835
 7555TIP3    H122622   3.444   0.420   0.802
 7555TIP3    H222623   3.548   0.528   0.781
 7556TIP3   OH222624   3.936   4.589   4.272
 7556TIP3    H122625   3.850   4.589   4.313
 7556TIP3    H222626   3.924   4.543   4.189
 7557TIP3   OH222627   2.252   1.181   1.879
 7557TIP3    H122628   2.296   1.113   1.828
 7557TIP3    H222629   2.291   1.263   1.850
 7558TIP3   OH222630   4.280   2.175   3.961
 7558TIP3    H122631   4.289   2.110   4.030
 7558TIP3    H222632   4.219   2.240   3.996
 7559TIP3   OH222633   4.674   2.823   3.849
 7559TIP3    H122634   4.770   2.829   3.844
 7559TIP3    H222635   4.655   2.732   3.826
 7560TIP3   OH222636   4.901   2.996   5.109
 7560TIP3    H122637   4.921   3.083   5.073
 7560TIP3    H222638   4.872   2.945   5.033
 7561TIP3   OH222639   3.706   2.569   5.075
 7561TIP3    H122640   3.747   2.654   5.093
 7561TIP3    H222641   3.779   2.509   5.065
 7562TIP3   OH222642   1.601   6.405   5.169
 7562TIP3    H122643   1.684   6.395   5.216
 7562TIP3    H222644   1.598   6.499   5.148
 7563TIP3   OH222645   6.776   5.244   3.965
 7563TIP3    H122646   6.771   5.190   3.886
 7563TIP3    H222647   6.700   5.302   3.960
 7564TIP3   OH222648   0.377   3.505   1.620
 7564TIP3    H122649   0.434   3.472   1.689
 7564TIP3    H222650   0.373   3.433   1.557
 7565TIP3   OH222651   4.116   3.579   4.679
 7565TIP3    H122652   4.186   3.625   4.725
 7565TIP3    H222653   4.160   3.528   4.611
 7566TIP3   OH222654   3.499   5.219   0.615
 7566TIP3    H122655   3.479   5.131   0.584
 7566TIP3    H222656   3.413   5.261   0.626
 7567TIP3   OH222657   4.953   7.520   3.097
 7567TIP3    H122658   5.033   7.570   3.113
 7567TIP3    H222659   4.949   7.458   3.170
 7568TIP3   OH222660   6.132   4.314   0.468
 7568TIP3    H122661   6.157   4.348   0.553
 7568TIP3    H222662   6.200   4.251   0.446
 7569TIP3   OH222663   8.062   3.304   2.638
 7569TIP3    H122664   7.969   3.291   2.654
 7569TIP3    H222665   8.073   3.399   2.637
 7570TIP3   OH222666   7.495   4.383  -0.003
 7570TIP3    H122667   7.528   4.392   0.086
 7570TIP3    H222668   7.400   4.378   0.006
 7571TIP3   OH222669   3.792   4.696   3.806
 7571TIP3    H122670   3.715   4.703   3.861
 7571TIP3    H222671   3.859   4.748   3.851
 7572TIP3   OH222672   0.025   5.702   1.349
 7572TIP3    H122673   0.069   5.658   1.276
 7572TIP3    H222674   0.039   5.643   1.424
 7573TIP3   OH222675   6.672   5.351   2.981
 7573TIP3    H122676   6.695   5.369   2.890
 7573TIP3    H222677   6.755   5.355   3.028
 7574TIP3   OH222678   7.695   4.702   0.856
 7574TIP3    H122679   7.710   4.652   0.775
 7574TIP3    H222680   7.766   4.766   0.858
 7575TIP3   OH222681   7.514   3.960   0.570
 7575TIP3    H122682   7.548   4.001   0.490
 7575TIP3    H222683   7.460   4.028   0.610
 7576TIP3   OH222684   4.361   5.319   5.072
 7576TIP3    H122685   4.266   5.326   5.072
 7576TIP3    H222686   4.381   5.266   5.149
 7577TIP3   OH222687   5.905   7.035   5.878
 7577TIP3    H122688   5.861   7.066   5.798
 7577TIP3    H222689   5.998   7.042   5.858
 7578TIP3   OH222690   7.374   6.763   2.762
 7578TIP3    H122691   7.423   6.837   2.725
 7578TIP3    H222692   7.369   6.700   2.690
 7579TIP3   OH222693   2.102   0.019   5.465
 7579TIP3    H122694   2.088   0.076   5.542
 7579TIP3    H222695   2.156   0.072   5.407
 7580TIP3   OH222696   3.092   1.744   1.719
 7580TIP3    H122697   3.182   1.714   1.725
 7580TIP3    H222698   3.098   1.829   1.676
 7581TIP3   OH222699   4.258   3.566   3.500
 7581TIP3    H122700   4.331   3.529   3.549
 7581TIP3    H222701   4.284   3.656   3.481
 7582TIP3   OH222702   7.761   4.799   2.372
 7582TIP3    H122703   7.705   4.762   2.441
 7582TIP3    H222704   7.763   4.731   2.304
 7583TIP3   OH222705   3.494   4.006   2.795
 7583TIP3    H122706   3.449   3.969   2.719
 7583TIP3    H222707   3.541   3.932   2.833
 7584TIP3   OH222708   5.126   2.426   6.309
 7584TIP3    H122709   5.149   2.366   6.238
 7584TIP3    H222710   5.053   2.384   6.354
 7585TIP3   OH222711   5.544   3.503   2.753
 7585TIP3    H122712   5.448   3.512   2.754
 7585TIP3    H222713   5.562   3.451   2.675
 7586TIP3   OH222714   1.331   5.699   3.621
 7586TIP3    H122715   1.353   5.606   3.616
 7586TIP3    H222716   1.402   5.737   3.672
 7587TIP3   OH222717   2.461   7.201   5.475
 7587TIP3    H122718   2.435   7.286   5.438
 7587TIP3    H222719   2.550   7.187   5.443
 7588TIP3   OH222720   4.171   0.595   3.631
 7588TIP3    H122721   4.153   0.685   3.605
 7588TIP3    H222722   4.190   0.601   3.725
 7589TIP3   OH222723   1.995   2.580   5.329
 7589TIP3    H122724   1.937   2.509   5.301
 7589TIP3    H222725   1.940   2.634   5.386
 7590TIP3   OH222726   5.744   1.847   6.311
 7590TIP3    H122727   5.649   1.852   6.320
 7590TIP3    H222728   5.777   1.901   6.383
 7591TIP3   OH222729   6.138   6.742   5.523
 7591TIP3    H122730   6.189   6.810   5.567
 7591TIP3    H222731   6.060   6.733   5.577
 7592TIP3   OH222732   2.181   6.079   5.532
 7592TIP3    H122733   2.224   6.153   5.490
 7592TIP3    H222734   2.243   6.048   5.598
 7593TIP3   OH222735   4.525   1.907   0.305
 7593TIP3    H122736   4.494   1.955   0.228
 7593TIP3    H222737   4.504   1.964   0.379
 7594TIP3   OH222738   1.633   5.306   4.089
 7594TIP3    H122739   1.728   5.315   4.100
 7594TIP3    H222740   1.612   5.363   4.015
 7595TIP3   OH222741   4.188   0.926   2.116
 7595TIP3    H122742   4.125   0.941   2.187
 7595TIP3    H222743   4.158   0.844   2.075
 7596TIP3   OH222744   4.289   1.595   2.268
 7596TIP3    H122745   4.378   1.576   2.240
 7596TIP3    H222746   4.297   1.622   2.360
 7597TIP3   OH222747   4.449   7.363   6.469
 7597TIP3    H122748   4.457   7.449   6.429
 7597TIP3    H222749   4.357   7.340   6.458
 7598TIP3   OH222750   4.936   5.676   5.073
 7598TIP3    H122751   4.959   5.754   5.023
 7598TIP3    H222752   4.873   5.630   5.018
 7599TIP3   OH222753   0.170   3.692   5.012
 7599TIP3    H122754   0.257   3.724   5.036
 7599TIP3    H222755   0.162   3.713   4.919
 7600TIP3   OH222756   5.974   4.420   3.392
 7600TIP3    H122757   5.939   4.334   3.369
 7600TIP3    H222758   5.912   4.455   3.456
 7601TIP3   OH222759   7.483   0.940   4.191
 7601TIP3    H122760   7.559   0.882   4.189
 7601TIP3    H222761   7.499   1.001   4.118
 7602TIP3   OH222762   7.516   6.208   5.717
 7602TIP3    H122763   7.467   6.161   5.784
 7602TIP3    H222764   7.497   6.160   5.636
 7603TIP3   OH222765   2.628   3.854   2.782
 7603TIP3    H122766   2.664   3.902   2.707
 7603TIP3    H222767   2.693   3.864   2.851
 7604TIP3   OH222768   6.100   3.980   3.926
 7604TIP3    H122769   6.021   4.030   3.948
 7604TIP3    H222770   6.164   4.005   3.993
 7605TIP3   OH222771   2.780   2.718   3.896
 7605TIP3    H122772   2.812   2.763   3.975
 7605TIP3    H222773   2.736   2.640   3.929
 7606TIP3   OH222774   0.361   3.447   6.647
 7606TIP3    H122775   0.302   3.503   6.596
 7606TIP3    H222776   0.449   3.478   6.624
 7607TIP3   OH222777   5.442   2.051   1.527
 7607TIP3    H122778   5.455   2.113   1.455
 7607TIP3    H222779   5.413   1.970   1.483
 7608TIP3   OH222780   8.243   5.234   1.433
 7608TIP3    H122781   8.180   5.201   1.370
 7608TIP3    H222782   8.190   5.273   1.503
 7609TIP3   OH222783   6.145   3.066   4.700
 7609TIP3    H122784   6.092   3.129   4.652
 7609TIP3    H222785   6.092   2.987   4.704
 7610TIP3   OH222786   4.092   4.041   4.847
 7610TIP3    H122787   4.058   4.108   4.788
 7610TIP3    H222788   4.015   3.998   4.882
 7611TIP3   OH222789   6.289   2.952   1.836
 7611TIP3    H122790   6.287   3.029   1.892
 7611TIP3    H222791   6.295   2.878   1.897
 7612TIP3   OH222792   2.907   3.562   6.598
 7612TIP3    H122793   2.875   3.610   6.674
 7612TIP3    H222794   2.892   3.470   6.619
 7613TIP3   OH222795   1.781   5.479   5.773
 7613TIP3    H122796   1.862   5.527   5.790
 7613TIP3    H222797   1.754   5.507   5.685
 7614TIP3   OH222798   6.496   7.647   6.139
 7614TIP3    H122799   6.573   7.701   6.124
 7614TIP3    H222800   6.478   7.607   6.054
 7615TIP3   OH222801   7.433   7.735   6.712
 7615TIP3    H122802   7.464   7.798   6.778
 7615TIP3    H222803   7.357   7.693   6.753
 7616TIP3   OH222804   8.090   6.999   6.180
 7616TIP3    H122805   8.043   6.999   6.263
 7616TIP3    H222806   8.110   7.092   6.164
 7617TIP3   OH222807   5.609   5.633   5.531
 7617TIP3    H122808   5.530   5.582   5.548
 7617TIP3    H222809   5.581   5.699   5.466
 7618TIP3   OH222810   7.835   1.421   2.705
 7618TIP3    H122811   7.777   1.443   2.631
 7618TIP3    H222812   7.776   1.401   2.777
 7619TIP3   OH222813   1.512   0.304   4.301
 7619TIP3    H122814   1.431   0.354   4.311
 7619TIP3    H222815   1.517   0.251   4.381
 7620TIP3   OH222816   3.435   4.959   6.725
 7620TIP3    H122817   3.385   4.984   6.647
 7620TIP3    H222818   3.476   4.875   6.702
 7621TIP3   OH222819   0.597   3.384   5.198
 7621TIP3    H122820   0.596   3.317   5.266
 7621TIP3    H222821   0.635   3.461   5.241
 7622TIP3   OH222822   0.324   1.792   0.186
 7622TIP3    H122823   0.345   1.879   0.219
 7622TIP3    H222824   0.228   1.790   0.186
 7623TIP3   OH222825   4.061   6.844   1.900
 7623TIP3    H122826   4.068   6.752   1.926
 7623TIP3    H222827   4.109   6.850   1.818
 7624TIP3   OH222828   5.742   4.415   6.427
 7624TIP3    H122829   5.785   4.477   6.486
 7624TIP3    H222830   5.657   4.456   6.409
 7625TIP3   OH222831   7.821   4.795   2.943
 7625TIP3    H122832   7.734   4.768   2.972
 7625TIP3    H222833   7.827   4.888   2.965
 7626TIP3   OH222834   2.622   4.270   2.525
 7626TIP3    H122835   2.563   4.321   2.469
 7626TIP3    H222836   2.674   4.334   2.572
 7627TIP3   OH222837   0.095   6.784   1.275
 7627TIP3    H122838   0.073   6.775   1.182
 7627TIP3    H222839   0.056   6.707   1.316
 7628TIP3   OH222840   0.787   6.752   6.051
 7628TIP3    H122841   0.770   6.766   5.958
 7628TIP3    H222842   0.775   6.838   6.091
 7629TIP3   OH222843   2.191   2.881   1.236
 7629TIP3    H122844   2.238   2.853   1.314
 7629TIP3    H222845   2.217   2.819   1.168
 7630TIP3   OH222846   2.722   2.062   6.427
 7630TIP3    H122847   2.650   2.125   6.431
 7630TIP3    H222848   2.796   2.112   6.393
 7631TIP3   OH222849   6.595   3.080   1.153
 7631TIP3    H122850   6.681   3.060   1.116
 7631TIP3    H222851   6.611   3.151   1.215
 7632TIP3   OH222852   3.118   2.782   3.828
 7632TIP3    H122853   3.067   2.702   3.814
 7632TIP3    H222854   3.208   2.757   3.807
 7633TIP3   OH222855   3.223   2.840   0.164
 7633TIP3    H122856   3.163   2.912   0.181
 7633TIP3    H222857   3.231   2.837   0.069
 7634TIP3   OH222858   6.903   5.735   0.089
 7634TIP3    H122859   6.931   5.666   0.029
 7634TIP3    H222860   6.953   5.812   0.061
 7635TIP3   OH222861   2.416   7.346   3.576
 7635TIP3    H122862   2.487   7.326   3.637
 7635TIP3    H222863   2.355   7.398   3.627
 7636TIP3   OH222864   5.689   0.966   4.405
 7636TIP3    H122865   5.646   1.006   4.330
 7636TIP3    H222866   5.622   0.910   4.445
 7637TIP3   OH222867   5.896   1.250   2.331
 7637TIP3    H122868   5.945   1.327   2.304
 7637TIP3    H222869   5.957   1.200   2.385
 7638TIP3   OH222870   5.887   4.026   3.020
 7638TIP3    H122871   5.793   4.025   3.035
 7638TIP3    H222872   5.897   4.048   2.927
 7639TIP3   OH222873   6.071   7.031   0.335
 7639TIP3    H122874   6.083   6.962   0.400
 7639TIP3    H222875   6.034   7.104   0.384
 7640TIP3   OH222876   1.002   4.308   1.658
 7640TIP3    H122877   1.091   4.339   1.678
 7640TIP3    H222878   1.015   4.227   1.608
 7641TIP3   OH222879   6.384   2.883   5.639
 7641TIP3    H122880   6.417   2.794   5.632
 7641TIP3    H222881   6.393   2.920   5.551
 7642TIP3   OH222882   3.398   7.536   0.472
 7642TIP3    H122883   3.423   7.538   0.380
 7642TIP3    H222884   3.447   7.463   0.509
 7643TIP3   OH222885   1.274   2.445   3.910
 7643TIP3    H122886   1.193   2.461   3.959
 7643TIP3    H222887   1.302   2.358   3.938
 7644TIP3   OH222888   5.518   1.833   5.013
 7644TIP3    H122889   5.530   1.740   5.029
 7644TIP3    H222890   5.475   1.867   5.092
 7645TIP3   OH222891   6.834   4.084   0.236
 7645TIP3    H122892   6.919   4.121   0.258
 7645TIP3    H222893   6.854   3.999   0.198
 7646TIP3   OH222894   1.224   5.956   0.702
 7646TIP3    H122895   1.303   5.917   0.740
 7646TIP3    H222896   1.156   5.937   0.766
 7647TIP3   OH222897   3.758   1.800   6.298
 7647TIP3    H122898   3.705   1.720   6.294
 7647TIP3    H222899   3.787   1.804   6.389
 7648TIP3   OH222900   6.954   6.922   1.318
 7648TIP3    H122901   6.966   6.848   1.377
 7648TIP3    H222902   6.872   6.903   1.272
 7649TIP3   OH222903   5.974   4.519   5.826
 7649TIP3    H122904   6.010   4.469   5.900
 7649TIP3    H222905   6.021   4.603   5.829
 7650TIP3   OH222906   0.144   2.568   6.684
 7650TIP3    H122907   0.190   2.634   6.632
 7650TIP3    H222908   0.126   2.611   6.767
 7651TIP3   OH222909   6.741   1.630   6.609
 7651TIP3    H122910   6.825   1.595   6.581
 7651TIP3    H222911   6.720   1.698   6.545
 7652TIP3   OH222912   5.274   2.683   5.901
 7652TIP3    H122913   5.369   2.678   5.893
 7652TIP3    H222914   5.257   2.677   5.995
 7653TIP3   OH222915   2.994   2.994   6.358
 7653TIP3    H122916   2.926   2.959   6.301
 7653TIP3    H222917   3.027   2.919   6.407
 7654TIP3   OH222918   6.599   7.696   0.084
 7654TIP3    H122919   6.619   7.787   0.107
 7654TIP3    H222920   6.593   7.697  -0.012
 7655TIP3   OH222921   2.300   0.975   1.041
 7655TIP3    H122922   2.217   0.976   0.994
 7655TIP3    H222923   2.304   1.059   1.086
 7656TIP3   OH222924   2.509   0.301   1.013
 7656TIP3    H122925   2.526   0.376   1.069
 7656TIP3    H222926   2.426   0.266   1.044
 7657TIP3   OH222927   0.460   3.391   1.045
 7657TIP3    H122928   0.368   3.378   1.023
 7657TIP3    H222929   0.506   3.319   1.002
 7658TIP3   OH222930   7.637   0.600   2.622
 7658TIP3    H122931   7.615   0.545   2.696
 7658TIP3    H222932   7.692   0.670   2.658
 7659TIP3   OH222933   0.110   3.314   1.149
 7659TIP3    H122934   0.137   3.387   1.205
 7659TIP3    H222935   0.108   3.351   1.061
 7660TIP3   OH222936   5.072   3.676   2.223
 7660TIP3    H122937   4.989   3.686   2.177
 7660TIP3    H222938   5.132   3.736   2.179
 7661TIP3   OH222939   6.776   3.149   4.307
 7661TIP3    H122940   6.787   3.216   4.375
 7661TIP3    H222941   6.693   3.107   4.327
 7662TIP3   OH222942   2.700   6.966   3.642
 7662TIP3    H122943   2.653   6.920   3.572
 7662TIP3    H222944   2.750   7.033   3.595
 7663TIP3   OH222945   3.650   2.834   0.540
 7663TIP3    H122946   3.678   2.916   0.500
 7663TIP3    H222947   3.731   2.795   0.573
 7664TIP3   OH222948   4.841   7.100   3.482
 7664TIP3    H122949   4.884   7.094   3.397
 7664TIP3    H222950   4.757   7.055   3.470
 7665TIP3   OH222951   2.922   5.199   0.302
 7665TIP3    H122952   2.888   5.110   0.307
 7665TIP3    H222953   2.844   5.253   0.285
 7666TIP3   OH222954   1.447   3.224   3.656
 7666TIP3    H122955   1.436   3.306   3.705
 7666TIP3    H222956   1.370   3.172   3.680
 7667TIP3   OH222957   2.974   6.189   0.078
 7667TIP3    H122958   3.025   6.202  -0.002
 7667TIP3    H222959   2.892   6.237   0.063
 7668TIP3   OH222960   8.236   6.541   0.812
 7668TIP3    H122961   8.196   6.466   0.857
 7668TIP3    H222962   8.166   6.606   0.808
 7669TIP3   OH222963   0.436   4.545   4.555
 7669TIP3    H122964   0.376   4.574   4.624
 7669TIP3    H222965   0.522   4.576   4.583
 7670TIP3   OH222966   3.974   2.172   0.269
 7670TIP3    H122967   3.963   2.231   0.343
 7670TIP3    H222968   4.055   2.202   0.227
 7671TIP3   OH222969   4.329   7.219   2.170
 7671TIP3    H122970   4.282   7.136   2.176
 7671TIP3    H222971   4.274   7.275   2.115
 7672TIP3   OH222972   3.237   4.862   4.661
 7672TIP3    H122973   3.290   4.936   4.690
 7672TIP3    H222974   3.275   4.786   4.706
 7673TIP3   OH222975   5.121   4.022   4.388
 7673TIP3    H122976   5.115   3.994   4.296
 7673TIP3    H222977   5.195   4.082   4.390
 7674TIP3   OH222978   5.681   7.714   1.440
 7674TIP3    H122979   5.628   7.763   1.502
 7674TIP3    H222980   5.711   7.637   1.489
 7675TIP3   OH222981   7.157   1.845   1.976
 7675TIP3    H122982   7.145   1.867   2.068
 7675TIP3    H222983   7.172   1.751   1.975
 7676TIP3   OH222984   6.284   5.100   4.911
 7676TIP3    H122985   6.260   5.010   4.888
 7676TIP3    H222986   6.213   5.131   4.967
 7677TIP3   OH222987   2.856   2.895   4.775
 7677TIP3    H122988   2.809   2.830   4.724
 7677TIP3    H222989   2.855   2.974   4.721
 7678TIP3   OH222990   8.263   0.026   2.803
 7678TIP3    H122991   8.251   0.039   2.709
 7678TIP3    H222992   8.271   0.115   2.838
 7679TIP3   OH222993   0.623   2.409   0.325
 7679TIP3    H122994   0.617   2.388   0.418
 7679TIP3    H222995   0.717   2.401   0.305
 7680TIP3   OH222996   2.602   5.135   1.846
 7680TIP3    H122997   2.573   5.193   1.776
 7680TIP3    H222998   2.521   5.101   1.885
 7681TIP3   OH222999   2.448   2.518   1.555
 7681TIP3    H123000   2.470   2.426   1.548
 7681TIP3    H223001   2.529   2.564   1.533
 7682TIP3   OH223002   0.077   3.145   4.831
 7682TIP3    H123003   0.055   3.073   4.891
 7682TIP3    H223004   0.149   3.111   4.778
 7683TIP3   OH223005   6.040   6.955   1.452
 7683TIP3    H123006   6.104   6.901   1.498
 7683TIP3    H223007   6.041   7.038   1.500
 7684TIP3   OH223008   4.465   7.188   0.786
 7684TIP3    H123009   4.559   7.171   0.791
 7684TIP3    H223010   4.425   7.101   0.783
 7685TIP3   OH223011   3.051   3.537   2.378
 7685TIP3    H123012   3.051   3.455   2.329
 7685TIP3    H223013   3.129   3.533   2.433
 7686TIP3   OH223014   4.652   5.662   2.396
 7686TIP3    H123015   4.629   5.673   2.304
 7686TIP3    H223016   4.639   5.569   2.413
 7687TIP3   OH223017   4.206   5.759   4.386
 7687TIP3    H123018   4.163   5.840   4.361
 7687TIP3    H223019   4.286   5.786   4.432
 7688TIP3   OH223020   5.346   6.509   5.201
 7688TIP3    H123021   5.356   6.480   5.110
 7688TIP3    H223022   5.327   6.428   5.249
 7689TIP3   OH223023   4.569   3.984   6.438
 7689TIP3    H123024   4.654   4.026   6.454
 7689TIP3    H223025   4.517   4.051   6.395
 7690TIP3   OH223026   4.137   6.989   5.397
 7690TIP3    H123027   4.198   6.916   5.401
 7690TIP3    H223028   4.147   7.034   5.481
 7691TIP3   OH223029   3.983   5.537   0.627
 7691TIP3    H123030   3.971   5.483   0.550
 7691TIP3    H223031   4.013   5.477   0.695
 7692TIP3   OH223032   3.225   0.993   0.888
 7692TIP3    H123033   3.251   0.951   0.970
 7692TIP3    H223034   3.246   0.929   0.820
 7693TIP3   OH223035   7.733   3.348   0.761
 7693TIP3    H123036   7.797   3.285   0.727
 7693TIP3    H223037   7.669   3.358   0.691
 7694TIP3   OH223038   3.926   0.605   6.351
 7694TIP3    H123039   3.948   0.680   6.296
 7694TIP3    H223040   3.994   0.540   6.331
 7695TIP3   OH223041   3.934   2.742   1.830
 7695TIP3    H123042   3.967   2.742   1.741
 7695TIP3    H223043   3.841   2.765   1.822
 7696TIP3   OH223044   5.307   0.917   0.375
 7696TIP3    H123045   5.220   0.891   0.345
 7696TIP3    H223046   5.301   1.013   0.383
 7697TIP3   OH223047   6.720   4.241   3.595
 7697TIP3    H123048   6.699   4.169   3.537
 7697TIP3    H223049   6.767   4.201   3.668
 7698TIP3   OH223050   3.740   4.513   1.502
 7698TIP3    H123051   3.671   4.456   1.467
 7698TIP3    H223052   3.803   4.522   1.430
 7699TIP3   OH223053   5.866   1.208   4.422
 7699TIP3    H123054   5.803   1.138   4.403
 7699TIP3    H223055   5.931   1.201   4.352
 7700TIP3   OH223056   6.245   6.244   1.865
 7700TIP3    H123057   6.303   6.319   1.877
 7700TIP3    H223058   6.226   6.215   1.954
 7701TIP3   OH223059   6.653   6.612   3.364
 7701TIP3    H123060   6.608   6.677   3.419
 7701TIP3    H223061   6.635   6.640   3.274
 7702TIP3   OH223062   5.566   2.287   0.294
 7702TIP3    H123063   5.638   2.249   0.245
 7702TIP3    H223064   5.523   2.213   0.335
 7703TIP3   OH223065   4.368   6.526   6.345
 7703TIP3    H123066   4.310   6.482   6.407
 7703TIP3    H223067   4.418   6.455   6.305
 7704TIP3   OH223068   6.593   3.007   6.007
 7704TIP3    H123069   6.528   2.947   6.042
 7704TIP3    H223070   6.542   3.071   5.958
 7705TIP3   OH223071   3.213   5.519   3.433
 7705TIP3    H123072   3.222   5.424   3.443
 7705TIP3    H223073   3.145   5.531   3.367
 7706TIP3   OH223074   4.319   6.116   4.461
 7706TIP3    H123075   4.400   6.094   4.509
 7706TIP3    H223076   4.336   6.086   4.372
 7707TIP3   OH223077   6.769   1.100   3.394
 7707TIP3    H123078   6.724   1.079   3.312
 7707TIP3    H223079   6.852   1.137   3.367
 7708TIP3   OH223080   6.919   2.102   6.374
 7708TIP3    H123081   6.835   2.073   6.338
 7708TIP3    H223082   6.916   2.197   6.368
 7709TIP3   OH223083   0.364   3.101   1.734
 7709TIP3    H123084   0.410   3.124   1.815
 7709TIP3    H223085   0.428   3.050   1.685
 7710TIP3   OH223086   0.516   1.280   5.392
 7710TIP3    H123087   0.571   1.359   5.389
 7710TIP3    H223088   0.445   1.302   5.451
 7711TIP3   OH223089   7.461   3.959   1.000
 7711TIP3    H123090   7.435   4.016   0.928
 7711TIP3    H223091   7.502   4.017   1.064
 7712TIP3   OH223092   6.117   6.140   4.660
 7712TIP3    H123093   6.183   6.095   4.608
 7712TIP3    H223094   6.041   6.146   4.602
 7713TIP3   OH223095   5.357   3.533   4.740
 7713TIP3    H123096   5.409   3.609   4.766
 7713TIP3    H223097   5.272   3.570   4.715
 7714TIP3   OH223098   0.990   6.182   5.882
 7714TIP3    H123099   1.027   6.131   5.953
 7714TIP3    H223100   1.023   6.271   5.896
 7715TIP3   OH223101   3.329   1.776   1.426
 7715TIP3    H123102   3.237   1.757   1.409
 7715TIP3    H223103   3.375   1.695   1.400
 7716TIP3   OH223104   2.131   1.251   4.352
 7716TIP3    H123105   2.067   1.185   4.326
 7716TIP3    H223106   2.211   1.201   4.368
 7717TIP3   OH223107   7.892   3.953   5.904
 7717TIP3    H123108   7.864   3.884   5.843
 7717TIP3    H223109   7.981   3.928   5.929
 7718TIP3   OH223110   7.352   4.020   1.745
 7718TIP3    H123111   7.329   4.102   1.788
 7718TIP3    H223112   7.285   4.009   1.677
 7719TIP3   OH223113   4.057   3.528   1.527
 7719TIP3    H123114   4.093   3.468   1.593
 7719TIP3    H223115   3.979   3.482   1.494
 7720TIP3   OH223116   2.746   7.484   6.053
 7720TIP3    H123117   2.798   7.403   6.046
 7720TIP3    H223118   2.692   7.486   5.974
 7721TIP3   OH223119   1.988   2.808   0.910
 7721TIP3    H123120   1.981   2.717   0.941
 7721TIP3    H223121   2.027   2.800   0.823
 7722TIP3   OH223122   5.116   4.162   0.251
 7722TIP3    H123123   5.125   4.245   0.297
 7722TIP3    H223124   5.022   4.145   0.251
 7723TIP3   OH223125   1.591   5.321   3.801
 7723TIP3    H123126   1.675   5.361   3.780
 7723TIP3    H223127   1.611   5.228   3.810
 7724TIP3   OH223128   7.417   6.963   0.840
 7724TIP3    H123129   7.456   6.883   0.805
 7724TIP3    H223130   7.363   6.997   0.768
 7725TIP3   OH223131   3.025   3.557   4.354
 7725TIP3    H123132   3.030   3.466   4.324
 7725TIP3    H223133   2.958   3.597   4.297
 7726TIP3   OH223134   6.387   2.612   4.308
 7726TIP3    H123135   6.377   2.670   4.233
 7726TIP3    H223136   6.397   2.671   4.383
 7727TIP3   OH223137   7.610   3.811   6.457
 7727TIP3    H123138   7.597   3.905   6.465
 7727TIP3    H223139   7.593   3.776   6.544
 7728TIP3   OH223140   1.552   5.585   4.062
 7728TIP3    H123141   1.553   5.679   4.080
 7728TIP3    H223142   1.461   5.566   4.037
 7729TIP3   OH223143   0.060   3.063   2.165
 7729TIP3    H123144  -0.002   2.995   2.140
 7729TIP3    H223145   0.143   3.018   2.175
 7730TIP3   OH223146   5.856   7.809   6.005
 7730TIP3    H123147   5.859   7.863   6.084
 7730TIP3    H223148   5.763   7.791   5.991
 7731TIP3   OH223149   5.288   0.943   1.885
 7731TIP3    H123150   5.336   0.908   1.960
 7731TIP3    H223151   5.199   0.955   1.917
 7732TIP3   OH223152   0.216   3.415   0.927
 7732TIP3    H123153   0.186   3.370   0.848
 7732TIP3    H223154   0.212   3.508   0.905
 7733TIP3   OH223155   4.863   4.501   1.657
 7733TIP3    H123156   4.789   4.530   1.605
 7733TIP3    H223157   4.908   4.437   1.602
 7734TIP3   OH223158   4.018   5.583   0.092
 7734TIP3    H123159   4.005   5.668   0.133
 7734TIP3    H223160   3.934   5.565   0.049
 7735TIP3   OH223161   4.595   1.974   5.706
 7735TIP3    H123162   4.565   1.916   5.776
 7735TIP3    H223163   4.690   1.977   5.717
 7736TIP3   OH223164   4.324   2.847   6.697
 7736TIP3    H123165   4.395   2.836   6.759
 7736TIP3    H223166   4.337   2.777   6.632
 7737TIP3   OH223167   2.580   2.602   3.554
 7737TIP3    H123168   2.573   2.584   3.460
 7737TIP3    H223169   2.550   2.692   3.564
 7738TIP3   OH223170   8.034   0.401   4.474
 7738TIP3    H123171   8.020   0.311   4.443
 7738TIP3    H223172   7.961   0.417   4.534
 7739TIP3   OH223173   4.024   2.191   1.970
 7739TIP3    H123174   3.976   2.117   2.006
 7739TIP3    H223175   4.023   2.177   1.875
 7740TIP3   OH223176   4.516   6.468   0.213
 7740TIP3    H123177   4.424   6.469   0.186
 7740TIP3    H223178   4.563   6.509   0.140
 7741TIP3   OH223179   1.794   6.891   1.416
 7741TIP3    H123180   1.827   6.876   1.327
 7741TIP3    H223181   1.827   6.978   1.440
 7742TIP3   OH223182   0.576   3.718   2.694
 7742TIP3    H123183   0.492   3.672   2.684
 7742TIP3    H223184   0.557   3.789   2.755
 7743TIP3   OH223185   5.112   7.451   1.065
 7743TIP3    H123186   5.158   7.497   1.135
 7743TIP3    H223187   5.059   7.385   1.110
 7744TIP3   OH223188   7.595  -0.023   0.098
 7744TIP3    H123189   7.557   0.062   0.074
 7744TIP3    H223190   7.654  -0.003   0.171
 7745TIP3   OH223191   7.258   5.400   2.020
 7745TIP3    H123192   7.309   5.345   1.961
 7745TIP3    H223193   7.213   5.462   1.963
 7746TIP3   OH223194   5.250   3.099   2.521
 7746TIP3    H123195   5.208   3.055   2.448
 7746TIP3    H223196   5.340   3.065   2.521
 7747TIP3   OH223197   7.181   1.897   5.750
 7747TIP3    H123198   7.163   1.936   5.664
 7747TIP3    H223199   7.257   1.945   5.783
 7748TIP3   OH223200   2.887   1.987   6.009
 7748TIP3    H123201   2.970   1.941   6.004
 7748TIP3    H223202   2.829   1.938   5.951
 7749TIP3   OH223203   6.783   2.891   0.803
 7749TIP3    H123204   6.799   2.972   0.754
 7749TIP3    H223205   6.688   2.878   0.797
 7750TIP3   OH223206   0.582   1.369   2.409
 7750TIP3    H123207   0.613   1.355   2.320
 7750TIP3    H223208   0.631   1.305   2.461
 7751TIP3   OH223209   2.096   0.201   5.048
 7751TIP3    H123210   2.029   0.247   4.997
 7751TIP3    H223211   2.135   0.140   4.986
 7752TIP3   OH223212   3.350   0.642   0.479
 7752TIP3    H123213   3.260   0.624   0.504
 7752TIP3    H223214   3.344   0.701   0.404
 7753TIP3   OH223215   4.340   0.558   2.446
 7753TIP3    H123216   4.303   0.574   2.360
 7753TIP3    H223217   4.343   0.462   2.455
 7754TIP3   OH223218   3.976   0.682   3.209
 7754TIP3    H123219   3.899   0.646   3.254
 7754TIP3    H223220   4.034   0.606   3.197
 7755TIP3   OH223221   4.841   6.095   5.146
 7755TIP3    H123222   4.927   6.067   5.115
 7755TIP3    H223223   4.794   6.013   5.164
 7756TIP3   OH223224   2.202   2.359   0.460
 7756TIP3    H123225   2.239   2.323   0.541
 7756TIP3    H223226   2.278   2.369   0.402
 7757TIP3   OH223227   1.045   4.856   2.421
 7757TIP3    H123228   0.978   4.793   2.395
 7757TIP3    H223229   1.116   4.843   2.358
 7758TIP3   OH223230   0.234   1.905   4.827
 7758TIP3    H123231   0.175   1.850   4.878
 7758TIP3    H223232   0.188   1.920   4.745
 7759TIP3   OH223233   0.448   1.826   1.264
 7759TIP3    H123234   0.396   1.814   1.344
 7759TIP3    H223235   0.513   1.756   1.268
 7760TIP3   OH223236   5.554   7.675   6.608
 7760TIP3    H123237   5.599   7.652   6.689
 7760TIP3    H223238   5.519   7.763   6.624
 7761TIP3   OH223239   5.541   4.897   3.476
 7761TIP3    H123240   5.552   4.991   3.463
 7761TIP3    H223241   5.628   4.860   3.467
 7762TIP3   OH223242   7.108   3.949   5.107
 7762TIP3    H123243   7.192   3.907   5.091
 7762TIP3    H223244   7.045   3.894   5.061
 7763TIP3   OH223245   6.738   5.728   2.508
 7763TIP3    H123246   6.721   5.686   2.424
 7763TIP3    H223247   6.652   5.759   2.538
 7764TIP3   OH223248   2.242   1.866   4.364
 7764TIP3    H123249   2.319   1.890   4.313
 7764TIP3    H223250   2.198   1.949   4.382
 7765TIP3   OH223251   6.461   1.726   0.677
 7765TIP3    H123252   6.415   1.776   0.745
 7765TIP3    H223253   6.444   1.773   0.596
 7766TIP3   OH223254   0.597   6.771   1.242
 7766TIP3    H123255   0.640   6.691   1.213
 7766TIP3    H223256   0.509   6.765   1.205
 7767TIP3   OH223257   1.995   0.101   4.077
 7767TIP3    H123258   1.979   0.121   3.985
 7767TIP3    H223259   2.076   0.050   4.077
 7768TIP3   OH223260   2.688   5.775   5.859
 7768TIP3    H123261   2.723   5.723   5.786
 7768TIP3    H223262   2.645   5.711   5.916
 7769TIP3   OH223263   8.000   2.801   5.046
 7769TIP3    H123264   7.942   2.851   5.104
 7769TIP3    H223265   7.995   2.711   5.079
 7770TIP3   OH223266   5.375   0.099   4.070
 7770TIP3    H123267   5.293   0.145   4.049
 7770TIP3    H223268   5.368   0.016   4.023
 7771TIP3   OH223269   3.098   2.510   1.290
 7771TIP3    H123270   3.070   2.570   1.221
 7771TIP3    H223271   3.192   2.523   1.296
 7772TIP3   OH223272   5.269   1.981   6.354
 7772TIP3    H123273   5.235   1.958   6.267
 7772TIP3    H223274   5.192   2.008   6.404
 7773TIP3   OH223275   4.179   1.881   5.410
 7773TIP3    H123276   4.270   1.910   5.402
 7773TIP3    H223277   4.167   1.866   5.504
 7774TIP3   OH223278   2.328   6.713   0.869
 7774TIP3    H123279   2.347   6.709   0.775
 7774TIP3    H223280   2.381   6.785   0.901
 7775TIP3   OH223281   2.085   7.128   0.410
 7775TIP3    H123282   2.056   7.062   0.473
 7775TIP3    H223283   2.180   7.126   0.415
 7776TIP3   OH223284   1.999   6.016   2.924
 7776TIP3    H123285   1.940   6.090   2.909
 7776TIP3    H223286   2.053   6.043   2.999
 7777TIP3   OH223287   3.497   4.704   4.562
 7777TIP3    H123288   3.418   4.651   4.569
 7777TIP3    H223289   3.471   4.781   4.512
 7778TIP3   OH223290   3.943   1.756   4.915
 7778TIP3    H123291   3.866   1.808   4.936
 7778TIP3    H223292   3.985   1.739   4.999
 7779TIP3   OH223293   5.048   3.215   3.250
 7779TIP3    H123294   5.044   3.288   3.312
 7779TIP3    H223295   5.072   3.139   3.305
 7780TIP3   OH223296   6.333   4.186   3.632
 7780TIP3    H123297   6.421   4.172   3.597
 7780TIP3    H223298   6.277   4.129   3.578
 7781TIP3   OH223299   5.245   7.371   5.585
 7781TIP3    H123300   5.270   7.440   5.524
 7781TIP3    H223301   5.154   7.390   5.606
 7782TIP3   OH223302   5.946   7.527   0.596
 7782TIP3    H123303   5.936   7.622   0.599
 7782TIP3    H223304   5.964   7.503   0.687
 7783TIP3   OH223305   1.087   0.228   5.600
 7783TIP3    H123306   1.174   0.187   5.603
 7783TIP3    H223307   1.081   0.264   5.511
 7784TIP3   OH223308   0.910   7.277   2.507
 7784TIP3    H123309   0.987   7.293   2.452
 7784TIP3    H223310   0.841   7.253   2.446
 7785TIP3   OH223311   5.544   0.038   1.780
 7785TIP3    H123312   5.457   0.064   1.811
 7785TIP3    H223313   5.528  -0.041   1.729
 7786TIP3   OH223314   6.598   7.773   5.534
 7786TIP3    H123315   6.539   7.848   5.541
 7786TIP3    H223316   6.685   7.811   5.544
 7787TIP3   OH223317   6.732   6.319   1.730
 7787TIP3    H123318   6.818   6.285   1.707
 7787TIP3    H223319   6.749   6.388   1.794
 7788TIP3   OH223320   7.241   4.804   6.482
 7788TIP3    H123321   7.189   4.815   6.562
 7788TIP3    H223322   7.258   4.710   6.476
 7789TIP3   OH223323   1.509   1.360   3.648
 7789TIP3    H123324   1.474   1.433   3.701
 7789TIP3    H223325   1.600   1.384   3.631
 7790TIP3   OH223326   1.120   0.284   1.136
 7790TIP3    H123327   1.187   0.220   1.161
 7790TIP3    H223328   1.161   0.336   1.068
 7791TIP3   OH223329   8.222   3.199   0.296
 7791TIP3    H123330   8.129   3.186   0.315
 7791TIP3    H223331   8.223   3.238   0.208
 7792TIP3   OH223332   6.635   7.127   2.255
 7792TIP3    H123333   6.643   7.111   2.349
 7792TIP3    H223334   6.541   7.123   2.237
 7793TIP3   OH223335   1.608   2.304   5.971
 7793TIP3    H123336   1.565   2.390   5.972
 7793TIP3    H223337   1.555   2.250   6.030
 7794TIP3   OH223338   5.022   6.045   5.415
 7794TIP3    H123339   5.104   6.094   5.419
 7794TIP3    H223340   4.957   6.109   5.387
 7795TIP3   OH223341   6.783   1.314   1.603
 7795TIP3    H123342   6.698   1.352   1.624
 7795TIP3    H223343   6.780   1.226   1.641
 7796TIP3   OH223344   8.269   1.502   0.458
 7796TIP3    H123345   8.282   1.577   0.516
 7796TIP3    H223346   8.193   1.457   0.495
 7797TIP3   OH223347   5.790   2.433   1.829
 7797TIP3    H123348   5.794   2.358   1.769
 7797TIP3    H223349   5.877   2.471   1.826
 7798TIP3   OH223350   4.757   0.762   6.393
 7798TIP3    H123351   4.749   0.675   6.433
 7798TIP3    H223352   4.773   0.745   6.300
 7799TIP3   OH223353   0.737   6.316   1.967
 7799TIP3    H123354   0.644   6.299   1.952
 7799TIP3    H223355   0.782   6.270   1.896
 7800TIP3   OH223356   2.879   4.330   0.231
 7800TIP3    H123357   2.891   4.422   0.207
 7800TIP3    H223358   2.792   4.308   0.198
 7801TIP3   OH223359   8.174   7.395   3.201
 7801TIP3    H123360   8.232   7.382   3.277
 7801TIP3    H223361   8.135   7.309   3.186
 7802TIP3   OH223362   1.376   7.456   4.105
 7802TIP3    H123363   1.291   7.460   4.150
 7802TIP3    H223364   1.361   7.398   4.030
 7803TIP3   OH223365   5.650   3.593   1.001
 7803TIP3    H123366   5.666   3.570   1.092
 7803TIP3    H223367   5.562   3.631   1.000
 7804TIP3   OH223368   1.902   5.118   6.358
 7804TIP3    H123369   1.893   5.095   6.266
 7804TIP3    H223370   1.817   5.155   6.383
 7805TIP3   OH223371   8.028   1.634   4.499
 7805TIP3    H123372   7.974   1.670   4.570
 7805TIP3    H223373   8.003   1.685   4.422
 7806TIP3   OH223374   3.931   1.573   2.807
 7806TIP3    H123375   3.954   1.561   2.715
 7806TIP3    H223376   4.012   1.604   2.847
 7807TIP3   OH223377   0.677   4.989   6.392
 7807TIP3    H123378   0.663   5.066   6.446
 7807TIP3    H223379   0.623   4.921   6.432
 7808TIP3   OH223380   2.640   7.610   2.996
 7808TIP3    H123381   2.686   7.596   2.914
 7808TIP3    H223382   2.702   7.582   3.064
 7809TIP3   OH223383   2.542   0.479   2.813
 7809TIP3    H123384   2.557   0.544   2.745
 7809TIP3    H223385   2.627   0.439   2.828
 7810TIP3   OH223386   6.389   2.079   5.513
 7810TIP3    H123387   6.325   2.090   5.583
 7810TIP3    H223388   6.448   2.011   5.544
 7811TIP3   OH223389   6.279   3.605   3.274
 7811TIP3    H123390   6.225   3.653   3.210
 7811TIP3    H223391   6.284   3.516   3.238
 7812TIP3   OH223392   4.082   2.463   1.996
 7812TIP3    H123393   4.072   2.370   1.974
 7812TIP3    H223394   4.005   2.482   2.050
 7813TIP3   OH223395   0.376   5.958   6.416
 7813TIP3    H123396   0.310   5.984   6.353
 7813TIP3    H223397   0.459   5.970   6.370
 7814TIP3   OH223398   4.686   1.299   6.566
 7814TIP3    H123399   4.634   1.221   6.544
 7814TIP3    H223400   4.682   1.305   6.661
 7815TIP3   OH223401   6.837   4.068   2.465
 7815TIP3    H123402   6.849   3.989   2.413
 7815TIP3    H223403   6.793   4.039   2.545
 7816TIP3   OH223404   4.530   1.551   1.410
 7816TIP3    H123405   4.502   1.459   1.412
 7816TIP3    H223406   4.595   1.555   1.340
 7817TIP3   OH223407   7.975   6.876   2.282
 7817TIP3    H123408   7.969   6.832   2.198
 7817TIP3    H223409   7.968   6.969   2.261
 7818TIP3   OH223410   8.163   3.132   6.138
 7818TIP3    H123411   8.132   3.085   6.060
 7818TIP3    H223412   8.172   3.064   6.204
 7819TIP3   OH223413   2.252   5.654   3.565
 7819TIP3    H123414   2.286   5.636   3.653
 7819TIP3    H223415   2.278   5.744   3.546
 7820TIP3   OH223416   1.926   0.467   3.898
 7820TIP3    H123417   1.844   0.476   3.851
 7820TIP3    H223418   1.988   0.523   3.851
 7821TIP3   OH223419   1.290   7.330   3.208
 7821TIP3    H123420   1.265   7.238   3.209
 7821TIP3    H223421   1.370   7.334   3.259
 7822TIP3   OH223422   1.948   6.700   0.709
 7822TIP3    H123423   1.988   6.620   0.675
 7822TIP3    H223424   1.858   6.697   0.676
 7823TIP3   OH223425   4.308   1.302   5.070
 7823TIP3    H123426   4.240   1.367   5.050
 7823TIP3    H223427   4.294   1.232   5.007
 7824TIP3   OH223428   8.190   0.712   4.904
 7824TIP3    H123429   8.203   0.624   4.870
 7824TIP3    H223430   8.229   0.710   4.992
 7825TIP3   OH223431   3.583   4.253   2.434
 7825TIP3    H123432   3.504   4.201   2.413
 7825TIP3    H223433   3.549   4.336   2.467
 7826TIP3   OH223434   7.993   7.217   3.930
 7826TIP3    H123435   8.038   7.138   3.901
 7826TIP3    H223436   7.929   7.186   3.993
 7827TIP3   OH223437   4.108   0.956   6.342
 7827TIP3    H123438   4.103   0.870   6.300
 7827TIP3    H223439   4.082   0.941   6.433
 7828TIP3   OH223440   3.728   3.204   2.982
 7828TIP3    H123441   3.813   3.249   2.982
 7828TIP3    H223442   3.739   3.133   3.045
 7829TIP3   OH223443   2.920   0.829   2.397
 7829TIP3    H123444   2.920   0.918   2.360
 7829TIP3    H223445   2.865   0.836   2.475
 7830TIP3   OH223446   2.884   6.513   1.309
 7830TIP3    H123447   2.812   6.459   1.277
 7830TIP3    H223448   2.843   6.570   1.375
 7831TIP3   OH223449   4.275   3.313   0.612
 7831TIP3    H123450   4.295   3.230   0.570
 7831TIP3    H223451   4.251   3.371   0.539
 7832TIP3   OH223452   4.449   2.334   0.167
 7832TIP3    H123453   4.463   2.239   0.165
 7832TIP3    H223454   4.491   2.366   0.087
 7833TIP3   OH223455   4.909   3.329   5.551
 7833TIP3    H123456   4.979   3.379   5.508
 7833TIP3    H223457   4.952   3.250   5.582
 7834TIP3   OH223458   7.754   2.685   4.070
 7834TIP3    H123459   7.705   2.742   4.130
 7834TIP3    H223460   7.787   2.745   4.003
 7835TIP3   OH223461   0.655   5.717   6.726
 7835TIP3    H123462   0.570   5.758   6.708
 7835TIP3    H223463   0.638   5.623   6.720
 7836TIP3   OH223464   8.162   3.994   5.473
 7836TIP3    H123465   8.120   3.910   5.493
 7836TIP3    H223466   8.148   4.006   5.379
 7837TIP3   OH223467   2.967   5.951   2.836
 7837TIP3    H123468   2.903   5.937   2.906
 7837TIP3    H223469   2.919   5.930   2.756
 7838TIP3   OH223470   7.740   0.778   2.801
 7838TIP3    H123471   7.691   0.725   2.864
 7838TIP3    H223472   7.804   0.825   2.854
 7839TIP3   OH223473   6.046   7.023   6.674
 7839TIP3    H123474   5.952   7.009   6.681
 7839TIP3    H223475   6.066   7.088   6.741
 7840TIP3   OH223476   7.815   4.249   0.066
 7840TIP3    H123477   7.746   4.225   0.004
 7840TIP3    H223478   7.805   4.343   0.078
 7841TIP3   OH223479   7.150   6.257   4.328
 7841TIP3    H123480   7.206   6.277   4.252
 7841TIP3    H223481   7.206   6.277   4.404
 7842TIP3   OH223482   2.773   3.910   1.121
 7842TIP3    H123483   2.748   3.852   1.049
 7842TIP3    H223484   2.764   3.998   1.084
 7843TIP3   OH223485   1.532   4.706   0.599
 7843TIP3    H123486   1.603   4.766   0.577
 7843TIP3    H223487   1.509   4.728   0.689
 7844TIP3   OH223488   6.506   3.297   4.833
 7844TIP3    H123489   6.552   3.371   4.873
 7844TIP3    H223490   6.443   3.269   4.900
 7845TIP3   OH223491   6.442   1.307   5.820
 7845TIP3    H123492   6.492   1.231   5.791
 7845TIP3    H223493   6.379   1.272   5.883
 7846TIP3   OH223494   1.623   2.817   6.058
 7846TIP3    H123495   1.532   2.841   6.039
 7846TIP3    H223496   1.663   2.899   6.087
 7847TIP3   OH223497   4.722   7.751   0.877
 7847TIP3    H123498   4.646   7.706   0.842
 7847TIP3    H223499   4.786   7.749   0.806
 7848TIP3   OH223500   2.367   3.967   2.858
 7848TIP3    H123501   2.413   4.041   2.817
 7848TIP3    H223502   2.428   3.893   2.848
 7849TIP3   OH223503   6.556   4.815   4.470
 7849TIP3    H123504   6.521   4.871   4.539
 7849TIP3    H223505   6.649   4.837   4.464
 7850TIP3   OH223506   8.145   3.223   1.757
 7850TIP3    H123507   8.178   3.305   1.793
 7850TIP3    H223508   8.223   3.180   1.722
 7851TIP3   OH223509   2.221   6.533   4.248
 7851TIP3    H123510   2.214   6.590   4.325
 7851TIP3    H223511   2.259   6.589   4.180
 7852TIP3   OH223512   2.357   6.284   6.149
 7852TIP3    H123513   2.369   6.378   6.137
 7852TIP3    H223514   2.413   6.244   6.081
 7853TIP3   OH223515   1.541   6.299   3.066
 7853TIP3    H123516   1.577   6.269   3.150
 7853TIP3    H223517   1.511   6.219   3.023
 7854TIP3   OH223518   4.199   2.528   1.761
 7854TIP3    H123519   4.203   2.623   1.747
 7854TIP3    H223520   4.151   2.519   1.843
 7855TIP3   OH223521   1.090   5.707   3.352
 7855TIP3    H123522   1.076   5.733   3.261
 7855TIP3    H223523   1.184   5.690   3.358
 7856TIP3   OH223524   5.154   4.267   2.081
 7856TIP3    H123525   5.202   4.197   2.126
 7856TIP3    H223526   5.079   4.284   2.138
 7857TIP3   OH223527   3.414   5.737   2.727
 7857TIP3    H123528   3.464   5.701   2.800
 7857TIP3    H223529   3.327   5.757   2.764
 7858TIP3   OH223530   2.300   4.922   5.941
 7858TIP3    H123531   2.355   4.889   6.012
 7858TIP3    H223532   2.333   4.877   5.863
 7859TIP3   OH223533   8.053   3.822   4.249
 7859TIP3    H123534   8.103   3.814   4.329
 7859TIP3    H223535   8.063   3.737   4.205
 7860TIP3   OH223536   6.600   4.735   1.468
 7860TIP3    H123537   6.610   4.739   1.563
 7860TIP3    H223538   6.688   4.714   1.435
 7861TIP3   OH223539   5.222   3.939   5.224
 7861TIP3    H123540   5.197   3.990   5.147
 7861TIP3    H223541   5.303   3.894   5.197
 7862TIP3   OH223542   2.061   3.154   1.198
 7862TIP3    H123543   2.119   3.078   1.192
 7862TIP3    H223544   2.040   3.176   1.107
 7863TIP3   OH223545   7.046   2.760   5.451
 7863TIP3    H123546   7.021   2.735   5.362
 7863TIP3    H223547   7.140   2.743   5.455
 7864TIP3   OH223548   4.935   6.807   1.200
 7864TIP3    H123549   5.017   6.854   1.218
 7864TIP3    H223550   4.897   6.852   1.125
 7865TIP3   OH223551   7.659   6.375   6.689
 7865TIP3    H123552   7.737   6.417   6.652
 7865TIP3    H223553   7.586   6.426   6.653
 7866TIP3   OH223554   1.695   7.083   5.253
 7866TIP3    H123555   1.775   7.057   5.207
 7866TIP3    H223556   1.630   7.019   5.226
 7867TIP3   OH223557   0.981   0.920   0.879
 7867TIP3    H123558   0.954   1.012   0.869
 7867TIP3    H223559   0.949   0.877   0.800
 7868TIP3   OH223560   7.316   7.296   2.876
 7868TIP3    H123561   7.328   7.273   2.784
 7868TIP3    H223562   7.361   7.381   2.884
 7869TIP3   OH223563   4.352   4.350   3.921
 7869TIP3    H123564   4.401   4.359   3.839
 7869TIP3    H223565   4.278   4.293   3.899
 7870TIP3   OH223566   3.386   5.806   1.283
 7870TIP3    H123567   3.337   5.866   1.227
 7870TIP3    H223568   3.466   5.854   1.306
 7871TIP3   OH223569   7.133   0.557   4.612
 7871TIP3    H123570   7.114   0.472   4.652
 7871TIP3    H223571   7.052   0.580   4.565
 7872TIP3   OH223572   4.728   2.323   3.164
 7872TIP3    H123573   4.811   2.324   3.118
 7872TIP3    H223574   4.741   2.261   3.236
 7873TIP3   OH223575   1.994   5.799   1.953
 7873TIP3    H123576   1.924   5.838   2.006
 7873TIP3    H223577   2.075   5.835   1.990
 7874TIP3   OH223578   0.627   2.955   1.020
 7874TIP3    H123579   0.599   3.031   0.968
 7874TIP3    H223580   0.564   2.951   1.092
 7875TIP3   OH223581   4.625   6.821   0.096
 7875TIP3    H123582   4.542   6.868   0.098
 7875TIP3    H223583   4.673   6.854   0.171
 7876TIP3   OH223584   4.768   4.223   6.156
 7876TIP3    H123585   4.748   4.238   6.248
 7876TIP3    H223586   4.778   4.128   6.149
 7877TIP3   OH223587   4.458   7.650   4.256
 7877TIP3    H123588   4.532   7.607   4.299
 7877TIP3    H223589   4.498   7.721   4.205
 7878TIP3   OH223590   1.419   5.898   3.312
 7878TIP3    H123591   1.388   5.808   3.319
 7878TIP3    H223592   1.465   5.914   3.394
 7879TIP3   OH223593   6.092   5.580   3.840
 7879TIP3    H123594   6.097   5.488   3.816
 7879TIP3    H223595   6.034   5.619   3.774
 7880TIP3   OH223596   6.282   6.244   4.326
 7880TIP3    H123597   6.319   6.164   4.365
 7880TIP3    H223598   6.188   6.236   4.340
 7881TIP3   OH223599   7.592   7.685   0.269
 7881TIP3    H123600   7.508   7.670   0.225
 7881TIP3    H223601   7.638   7.746   0.212
 7882TIP3   OH223602   6.066   0.206   1.496
 7882TIP3    H123603   6.063   0.298   1.522
 7882TIP3    H223604   6.129   0.166   1.556
 7883TIP3   OH223605   6.420   1.383   5.141
 7883TIP3    H123606   6.353   1.432   5.190
 7883TIP3    H223607   6.370   1.314   5.097
 7884TIP3   OH223608   8.119   3.045   3.109
 7884TIP3    H123609   8.174   3.097   3.168
 7884TIP3    H223610   8.181   3.007   3.046
 7885TIP3   OH223611   5.550   0.595  -0.055
 7885TIP3    H123612   5.545   0.681  -0.014
 7885TIP3    H223613   5.493   0.540  -0.001
 7886TIP3   OH223614   5.445   1.238   1.032
 7886TIP3    H123615   5.422   1.221   1.123
 7886TIP3    H223616   5.373   1.201   0.982
 7887TIP3   OH223617   6.969   7.594   6.442
 7887TIP3    H123618   6.998   7.654   6.511
 7887TIP3    H223619   6.995   7.507   6.473
 7888TIP3   OH223620   0.685   5.203   2.955
 7888TIP3    H123621   0.630   5.127   2.972
 7888TIP3    H223622   0.768   5.166   2.924
 7889TIP3   OH223623   4.011   0.843   6.607
 7889TIP3    H123624   3.999   0.752   6.635
 7889TIP3    H223625   3.968   0.895   6.674
 7890TIP3   OH223626   3.931   1.531   0.831
 7890TIP3    H123627   3.936   1.498   0.921
 7890TIP3    H223628   3.840   1.557   0.820
 7891TIP3   OH223629   2.795   3.860   5.704
 7891TIP3    H123630   2.853   3.890   5.634
 7891TIP3    H223631   2.842   3.789   5.746
 7892TIP3   OH223632   5.199   1.693   2.501
 7892TIP3    H123633   5.273   1.737   2.458
 7892TIP3    H223634   5.240   1.640   2.570
 7893TIP3   OH223635   6.565   3.414   2.332
 7893TIP3    H123636   6.646   3.416   2.281
 7893TIP3    H223637   6.583   3.468   2.408
 7894TIP3   OH223638   5.986   2.398   0.632
 7894TIP3    H123639   6.025   2.311   0.622
 7894TIP3    H223640   6.019   2.448   0.557
 7895TIP3   OH223641   1.850   0.399   5.503
 7895TIP3    H123642   1.786   0.470   5.510
 7895TIP3    H223643   1.932   0.443   5.481
 7896TIP3   OH223644   6.632   4.492   3.732
 7896TIP3    H123645   6.682   4.518   3.810
 7896TIP3    H223646   6.603   4.403   3.751
 7897TIP3   OH223647   5.069   0.612   3.467
 7897TIP3    H123648   4.992   0.576   3.510
 7897TIP3    H223649   5.036   0.650   3.386
 7898TIP3   OH223650   7.066   5.863   1.367
 7898TIP3    H123651   7.106   5.882   1.282
 7898TIP3    H223652   7.019   5.943   1.389
 7899TIP3   OH223653   3.788   1.819   1.185
 7899TIP3    H123654   3.722   1.888   1.194
 7899TIP3    H223655   3.738   1.741   1.163
 7900TIP3   OH223656   7.536   2.916   0.964
 7900TIP3    H123657   7.556   3.009   0.964
 7900TIP3    H223658   7.594   2.879   1.031
 7901TIP3   OH223659   4.880   7.324   6.361
 7901TIP3    H123660   4.898   7.234   6.336
 7901TIP3    H223661   4.816   7.317   6.432
 7902TIP3   OH223662   4.097   2.944   0.707
 7902TIP3    H123663   4.115   3.015   0.769
 7902TIP3    H223664   4.022   2.975   0.656
 7903TIP3   OH223665   7.301   4.888   5.221
 7903TIP3    H123666   7.292   4.970   5.269
 7903TIP3    H223667   7.390   4.890   5.186
 7904TIP3   OH223668   3.241   3.314   1.989
 7904TIP3    H123669   3.292   3.323   1.909
 7904TIP3    H223670   3.168   3.374   1.978
 7905TIP3   OH223671   6.089   7.135   6.139
 7905TIP3    H123672   6.023   7.149   6.206
 7905TIP3    H223673   6.065   7.196   6.069
 7906TIP3   OH223674   3.984   5.355   0.830
 7906TIP3    H123675   4.075   5.324   0.825
 7906TIP3    H223676   3.936   5.295   0.774
 7907TIP3   OH223677   7.252   1.850   1.718
 7907TIP3    H123678   7.196   1.819   1.789
 7907TIP3    H223679   7.287   1.933   1.748
 7908TIP3   OH223680   5.025   3.405   1.686
 7908TIP3    H123681   5.008   3.362   1.602
 7908TIP3    H223682   5.053   3.334   1.744
 7909TIP3   OH223683   6.994   3.804   2.793
 7909TIP3    H123684   7.075   3.838   2.834
 7909TIP3    H223685   7.008   3.816   2.699
 7910TIP3   OH223686   2.956   6.598   0.889
 7910TIP3    H123687   3.018   6.526   0.897
 7910TIP3    H223688   2.988   6.651   0.816
 7911TIP3   OH223689   6.477   0.451   5.947
 7911TIP3    H123690   6.486   0.545   5.961
 7911TIP3    H223691   6.546   0.411   6.000
 7912TIP3   OH223692   3.468   4.173   1.549
 7912TIP3    H123693   3.374   4.158   1.536
 7912TIP3    H223694   3.490   4.121   1.626
 7913TIP3   OH223695   4.481   7.303   4.816
 7913TIP3    H123696   4.552   7.246   4.786
 7913TIP3    H223697   4.502   7.322   4.907
 7914TIP3   OH223698   7.565   5.842   5.971
 7914TIP3    H123699   7.548   5.753   6.003
 7914TIP3    H223700   7.570   5.895   6.050
 7915TIP3   OH223701   0.282   6.581   5.141
 7915TIP3    H123702   0.321   6.498   5.170
 7915TIP3    H223703   0.232   6.612   5.216
 7916TIP3   OH223704   4.818   7.696   3.646
 7916TIP3    H123705   4.792   7.764   3.709
 7916TIP3    H223706   4.910   7.679   3.667
 7917TIP3   OH223707   7.080   1.120   5.932
 7917TIP3    H123708   7.134   1.187   5.890
 7917TIP3    H223709   7.060   1.058   5.861
 7918TIP3   OH223710   5.639   6.001   6.203
 7918TIP3    H123711   5.645   5.916   6.247
 7918TIP3    H223712   5.705   5.996   6.133
 7919TIP3   OH223713   7.887   5.359   2.395
 7919TIP3    H123714   7.855   5.378   2.484
 7919TIP3    H223715   7.872   5.265   2.385
 7920TIP3   OH223716   6.260   5.099   0.582
 7920TIP3    H123717   6.292   5.134   0.665
 7920TIP3    H223718   6.297   5.157   0.516
 7921TIP3   OH223719   2.762   0.457   0.342
 7921TIP3    H123720   2.748   0.551   0.331
 7921TIP3    H223721   2.709   0.434   0.419
 7922TIP3   OH223722   5.709   3.067   0.852
 7922TIP3    H123723   5.739   3.117   0.928
 7922TIP3    H223724   5.742   2.979   0.867
 7923TIP3   OH223725   6.222   7.781   3.572
 7923TIP3    H123726   6.265   7.759   3.654
 7923TIP3    H223727   6.288   7.831   3.523
 7924TIP3   OH223728   0.184   7.780   2.337
 7924TIP3    H123729   0.271   7.804   2.369
 7924TIP3    H223730   0.157   7.854   2.284
 7925TIP3   OH223731   0.931   7.230   1.237
 7925TIP3    H123732   0.872   7.154   1.229
 7925TIP3    H223733   0.993   7.220   1.165
 7926TIP3   OH223734   5.051   1.308   3.494
 7926TIP3    H123735   5.094   1.324   3.409
 7926TIP3    H223736   5.016   1.220   3.487
 7927TIP3   OH223737   0.562   6.242   6.159
 7927TIP3    H123738   0.603   6.329   6.163
 7927TIP3    H223739   0.470   6.258   6.181
 7928TIP3   OH223740   6.533   5.868   2.625
 7928TIP3    H123741   6.463   5.927   2.596
 7928TIP3    H223742   6.487   5.792   2.661
 7929TIP3   OH223743   1.646   7.438   3.686
 7929TIP3    H123744   1.583   7.505   3.659
 7929TIP3    H223745   1.643   7.441   3.782
 7930TIP3   OH223746   3.597   2.675   4.088
 7930TIP3    H123747   3.596   2.719   4.003
 7930TIP3    H223748   3.520   2.709   4.134
 7931TIP3   OH223749   5.697   0.282   3.114
 7931TIP3    H123750   5.680   0.324   3.198
 7931TIP3    H223751   5.668   0.345   3.049
 7932TIP3   OH223752   6.910   0.816   5.464
 7932TIP3    H123753   6.921   0.721   5.462
 7932TIP3    H223754   6.988   0.850   5.419
 7933TIP3   OH223755   0.710   6.570   6.538
 7933TIP3    H123756   0.762   6.510   6.592
 7933TIP3    H223757   0.755   6.654   6.547
 7934TIP3   OH223758   1.218   1.660   1.218
 7934TIP3    H123759   1.239   1.703   1.301
 7934TIP3    H223760   1.164   1.585   1.243
 7935TIP3   OH223761   2.508   1.992   5.599
 7935TIP3    H123762   2.420   2.017   5.626
 7935TIP3    H223763   2.527   2.049   5.524
 7936TIP3   OH223764   6.026   2.992   4.008
 7936TIP3    H123765   6.104   3.043   3.988
 7936TIP3    H223766   6.033   2.914   3.954
 7937TIP3   OH223767   4.821   2.995   1.601
 7937TIP3    H123768   4.831   3.059   1.672
 7937TIP3    H223769   4.906   2.993   1.557
 7938TIP3   OH223770   5.727   6.852   5.683
 7938TIP3    H123771   5.784   6.898   5.744
 7938TIP3    H223772   5.756   6.761   5.686
 7939TIP3   OH223773   1.449   3.104   0.164
 7939TIP3    H123774   1.440   3.107   0.259
 7939TIP3    H223775   1.538   3.072   0.150
 7940TIP3   OH223776   3.814   3.134   2.199
 7940TIP3    H123777   3.901   3.169   2.182
 7940TIP3    H223778   3.822   3.087   2.282
 7941TIP3   OH223779   1.094   7.654   0.809
 7941TIP3    H123780   1.003   7.633   0.829
 7941TIP3    H223781   1.103   7.747   0.832
 7942TIP3   OH223782   5.094   4.656   5.997
 7942TIP3    H123783   5.005   4.634   6.022
 7942TIP3    H223784   5.125   4.580   5.948
 7943TIP3   OH223785   0.484   5.046   1.495
 7943TIP3    H123786   0.389   5.042   1.510
 7943TIP3    H223787   0.520   4.978   1.553
 7944TIP3   OH223788   1.307   0.406   0.981
 7944TIP3    H123789   1.340   0.495   0.991
 7944TIP3    H223790   1.373   0.351   1.023
 7945TIP3   OH223791   0.901   2.184   0.563
 7945TIP3    H123792   0.872   2.275   0.559
 7945TIP3    H223793   0.996   2.189   0.547
 7946TIP3   OH223794   3.481   2.064   2.617
 7946TIP3    H123795   3.508   2.127   2.550
 7946TIP3    H223796   3.481   2.113   2.698
 7947TIP3   OH223797   5.326   1.835   4.384
 7947TIP3    H123798   5.401   1.882   4.421
 7947TIP3    H223799   5.360   1.794   4.305
 7948TIP3   OH223800   7.525   3.050   2.531
 7948TIP3    H123801   7.517   3.042   2.626
 7948TIP3    H223802   7.449   3.101   2.504
 7949TIP3   OH223803   7.642   2.377   3.684
 7949TIP3    H123804   7.561   2.327   3.693
 7949TIP3    H223805   7.663   2.405   3.773
 7950TIP3   OH223806   6.786   2.915   3.969
 7950TIP3    H123807   6.785   2.919   3.874
 7950TIP3    H223808   6.798   3.006   3.997
 7951TIP3   OH223809   2.484   2.613   2.312
 7951TIP3    H123810   2.427   2.655   2.249
 7951TIP3    H223811   2.498   2.525   2.277
 7952TIP3   OH223812   8.037   6.776   5.304
 7952TIP3    H123813   7.956   6.796   5.257
 7952TIP3    H223814   8.008   6.747   5.390
 7953TIP3   OH223815   1.553   4.077   3.154
 7953TIP3    H123816   1.509   4.059   3.237
 7953TIP3    H223817   1.554   4.173   3.149
 7954TIP3   OH223818   4.338   4.826   6.777
 7954TIP3    H123819   4.354   4.918   6.798
 7954TIP3    H223820   4.287   4.828   6.697
 7955TIP3   OH223821   3.944   0.942   2.524
 7955TIP3    H123822   4.032   0.959   2.558
 7955TIP3    H223823   3.957   0.919   2.432
 7956TIP3   OH223824   6.506   1.313   1.007
 7956TIP3    H123825   6.525   1.359   0.926
 7956TIP3    H223826   6.442   1.368   1.052
 7957TIP3   OH223827   5.189   4.198   1.435
 7957TIP3    H123828   5.187   4.103   1.421
 7957TIP3    H223829   5.209   4.207   1.528
 7958TIP3   OH223830   2.827   4.204   1.235
 7958TIP3    H123831   2.793   4.158   1.312
 7958TIP3    H223832   2.759   4.194   1.169
 7959TIP3   OH223833   6.553   1.011   2.596
 7959TIP3    H123834   6.470   0.978   2.632
 7959TIP3    H223835   6.527   1.081   2.536
 7960TIP3   OH223836   7.531   4.444   1.929
 7960TIP3    H123837   7.626   4.457   1.938
 7960TIP3    H223838   7.498   4.439   2.018
 7961TIP3   OH223839   1.974   6.795   1.633
 7961TIP3    H123840   1.920   6.815   1.557
 7961TIP3    H223841   2.016   6.712   1.611
 7962TIP3   OH223842   7.943   7.600   1.644
 7962TIP3    H123843   7.920   7.518   1.686
 7962TIP3    H223844   7.898   7.598   1.559
 7963TIP3   OH223845   7.790   1.638   6.194
 7963TIP3    H123846   7.766   1.549   6.220
 7963TIP3    H223847   7.832   1.629   6.109
 7964TIP3   OH223848   5.407   4.882   5.466
 7964TIP3    H123849   5.422   4.798   5.510
 7964TIP3    H223850   5.486   4.895   5.412
 7965TIP3   OH223851   5.509   6.917   2.094
 7965TIP3    H123852   5.539   7.006   2.113
 7965TIP3    H223853   5.416   6.918   2.118
 7966TIP3   OH223854   3.684   6.130   3.508
 7966TIP3    H123855   3.776   6.153   3.519
 7966TIP3    H223856   3.645   6.207   3.465
 7967TIP3   OH223857   7.537   4.662   5.250
 7967TIP3    H123858   7.559   4.614   5.170
 7967TIP3    H223859   7.619   4.668   5.298
 7968TIP3   OH223860   0.493   4.982   1.889
 7968TIP3    H123861   0.535   4.902   1.922
 7968TIP3    H223862   0.402   4.957   1.875
 7969TIP3   OH223863   3.622   6.032   0.329
 7969TIP3    H123864   3.580   5.996   0.252
 7969TIP3    H223865   3.650   6.120   0.302
 7970TIP3   OH223866   2.641   0.856   5.790
 7970TIP3    H123867   2.669   0.824   5.875
 7970TIP3    H223868   2.556   0.814   5.775
 7971TIP3   OH223869   5.543   3.725   1.667
 7971TIP3    H123870   5.621   3.680   1.633
 7971TIP3    H223871   5.553   3.815   1.639
 7972TIP3   OH223872   7.739   0.759   0.357
 7972TIP3    H123873   7.710   0.847   0.335
 7972TIP3    H223874   7.795   0.733   0.284
 7973TIP3   OH223875   1.816   3.970   2.269
 7973TIP3    H123876   1.732   3.941   2.234
 7973TIP3    H223877   1.821   4.063   2.247
 7974TIP3   OH223878   0.698   1.471   3.946
 7974TIP3    H123879   0.765   1.403   3.943
 7974TIP3    H223880   0.651   1.455   4.028
 7975TIP3   OH223881   0.658   3.789   0.065
 7975TIP3    H123882   0.595   3.732   0.110
 7975TIP3    H223883   0.642   3.876   0.101
 7976TIP3   OH223884   1.114   6.045   2.950
 7976TIP3    H123885   1.169   6.075   2.878
 7976TIP3    H223886   1.122   5.950   2.950
 7977TIP3   OH223887   0.101   6.759   3.673
 7977TIP3    H123888   0.134   6.709   3.747
 7977TIP3    H223889   0.137   6.847   3.686
 7978TIP3   OH223890   1.492   0.588   6.444
 7978TIP3    H123891   1.424   0.530   6.478
 7978TIP3    H223892   1.491   0.663   6.504
 7979TIP3   OH223893   0.393   2.260   3.215
 7979TIP3    H123894   0.356   2.302   3.292
 7979TIP3    H223895   0.485   2.246   3.237
 7980TIP3   OH223896   7.785   3.000   2.153
 7980TIP3    H123897   7.714   2.957   2.201
 7980TIP3    H223898   7.817   3.067   2.214
 7981TIP3   OH223899   0.688   6.518   3.375
 7981TIP3    H123900   0.715   6.427   3.386
 7981TIP3    H223901   0.753   6.555   3.314
 7982TIP3   OH223902   4.607   6.645   0.796
 7982TIP3    H123903   4.598   6.658   0.890
 7982TIP3    H223904   4.607   6.733   0.759
 7983TIP3   OH223905   8.239   6.533   1.911
 7983TIP3    H123906   8.206   6.555   1.824
 7983TIP3    H223907   8.214   6.442   1.924
 7984TIP3   OH223908   6.430   2.009   0.878
 7984TIP3    H123909   6.335   2.012   0.890
 7984TIP3    H223910   6.463   2.081   0.932
 7985TIP3   OH223911   0.938   6.116   2.020
 7985TIP3    H123912   0.893   6.053   2.076
 7985TIP3    H223913   0.894   6.199   2.037
 7986TIP3   OH223914   0.188   0.611   4.814
 7986TIP3    H123915   0.131   0.546   4.853
 7986TIP3    H223916   0.202   0.580   4.724
 7987TIP3   OH223917   2.419   5.016   2.903
 7987TIP3    H123918   2.442   4.967   2.824
 7987TIP3    H223919   2.337   5.060   2.882
 7988TIP3   OH223920   4.146   0.669   0.132
 7988TIP3    H123921   4.216   0.609   0.158
 7988TIP3    H223922   4.106   0.697   0.214
 7989TIP3   OH223923   0.687   6.676   0.959
 7989TIP3    H123924   0.735   6.605   0.917
 7989TIP3    H223925   0.624   6.704   0.893
 7990TIP3   OH223926   6.725   0.473   4.735
 7990TIP3    H123927   6.666   0.456   4.809
 7990TIP3    H223928   6.671   0.457   4.657
 7991TIP3   OH223929   1.102   1.287   5.140
 7991TIP3    H123930   1.080   1.276   5.047
 7991TIP3    H223931   1.166   1.218   5.158
 7992TIP3   OH223932   7.417   6.529   4.460
 7992TIP3    H123933   7.488   6.565   4.513
 7992TIP3    H223934   7.378   6.606   4.417
 7993TIP3   OH223935   7.951   2.543  -0.002
 7993TIP3    H123936   8.018   2.610   0.014
 7993TIP3    H223937   7.977   2.470   0.053
 7994TIP3   OH223938   0.098   6.517   0.558
 7994TIP3    H123939   0.056   6.538   0.642
 7994TIP3    H223940   0.030   6.474   0.507
 7995TIP3   OH223941   6.827   5.160   3.291
 7995TIP3    H123942   6.768   5.138   3.219
 7995TIP3    H223943   6.873   5.079   3.311
 7996TIP3   OH223944   1.561   4.296   4.880
 7996TIP3    H123945   1.642   4.254   4.851
 7996TIP3    H223946   1.587   4.386   4.901
 7997TIP3   OH223947   5.045   2.164   1.374
 7997TIP3    H123948   5.056   2.210   1.291
 7997TIP3    H223949   5.025   2.074   1.349
 7998TIP3   OH223950   7.738   7.115   5.581
 7998TIP3    H123951   7.718   7.033   5.627
 7998TIP3    H223952   7.786   7.087   5.503
 7999TIP3   OH223953   7.074   0.313   3.486
 7999TIP3    H123954   7.131   0.386   3.462
 7999TIP3    H223955   7.126   0.234   3.468
 8000TIP3   OH223956   0.386   4.043   5.606
 8000TIP3    H123957   0.433   4.122   5.579
 8000TIP3    H223958   0.432   4.014   5.685
 8001TIP3   OH223959   7.289   5.982   2.527
 8001TIP3    H123960   7.354   5.918   2.499
 8001TIP3    H223961   7.250   5.944   2.606
 8002TIP3   OH223962   3.245   2.904   6.270
 8002TIP3    H123963   3.199   2.987   6.277
 8002TIP3    H223964   3.331   2.920   6.307
 8003TIP3   OH223965   7.686   5.295   5.648
 8003TIP3    H123966   7.591   5.303   5.636
 8003TIP3    H223967   7.719   5.268   5.562
 8004TIP3   OH223968   1.317   0.571   3.984
 8004TIP3    H123969   1.259   0.526   3.922
 8004TIP3    H223970   1.393   0.513   3.991
 8005TIP3   OH223971   6.297   5.574   5.940
 8005TIP3    H123972   6.386   5.602   5.923
 8005TIP3    H223973   6.266   5.632   6.010
 8006TIP3   OH223974   2.308   7.347   6.365
 8006TIP3    H123975   2.381   7.384   6.315
 8006TIP3    H223976   2.347   7.325   6.450
 8007TIP3   OH223977   8.288   4.678   2.531
 8007TIP3    H123978   8.302   4.756   2.584
 8007TIP3    H223979   8.227   4.706   2.462
 8008TIP3   OH223980   6.620   3.428   6.166
 8008TIP3    H123981   6.708   3.464   6.160
 8008TIP3    H223982   6.588   3.426   6.075
 8009TIP3   OH223983   6.465   0.008   6.057
 8009TIP3    H123984   6.371   0.027   6.067
 8009TIP3    H223985   6.509   0.079   6.104
 8010TIP3   OH223986   4.394   4.908   6.118
 8010TIP3    H123987   4.489   4.909   6.101
 8010TIP3    H223988   4.366   4.999   6.103
 8011TIP3   OH223989   7.308   0.862   2.898
 8011TIP3    H123990   7.291   0.806   2.822
 8011TIP3    H223991   7.258   0.821   2.969
 8012TIP3   OH223992   6.654   5.103   1.179
 8012TIP3    H123993   6.685   5.192   1.168
 8012TIP3    H223994   6.647   5.092   1.274
 8013TIP3   OH223995   6.695   2.143   5.572
 8013TIP3    H123996   6.673   2.183   5.656
 8013TIP3    H223997   6.644   2.192   5.507
 8014TIP3   OH223998   3.255   0.905   2.405
 8014TIP3    H123999   3.193   0.883   2.474
 8014TIP3    H224000   3.200   0.945   2.336
 8015TIP3   OH224001   6.228   6.850   3.811
 8015TIP3    H124002   6.217   6.928   3.865
 8015TIP3    H224003   6.250   6.780   3.874
 8016TIP3   OH224004   7.785   4.172   2.682
 8016TIP3    H124005   7.722   4.171   2.753
 8016TIP3    H224006   7.849   4.239   2.707
 8017TIP3   OH224007   0.643   1.814   4.074
 8017TIP3    H124008   0.622   1.905   4.095
 8017TIP3    H224009   0.691   1.782   4.150
 8018TIP3   OH224010   4.598   5.701   2.105
 8018TIP3    H124011   4.517   5.650   2.117
 8018TIP3    H224012   4.658   5.641   2.062
 8019TIP3   OH224013   4.862   7.156   1.216
 8019TIP3    H124014   4.936   7.143   1.156
 8019TIP3    H224015   4.806   7.080   1.203
 8020TIP3   OH224016   3.388   2.256   1.349
 8020TIP3    H124017   3.359   2.185   1.292
 8020TIP3    H224018   3.410   2.327   1.289
 8021TIP3   OH224019   5.911   4.513   2.538
 8021TIP3    H124020   5.855   4.588   2.520
 8021TIP3    H224021   5.890   4.450   2.470
 8022TIP3   OH224022   5.098   4.253   1.758
 8022TIP3    H124023   5.102   4.336   1.806
 8022TIP3    H224024   5.008   4.248   1.726
 8023TIP3   OH224025   5.345   1.041   5.377
 8023TIP3    H124026   5.390   1.125   5.375
 8023TIP3    H224027   5.269   1.055   5.432
 8024TIP3   OH224028   5.604   1.255   6.671
 8024TIP3    H124029   5.510   1.242   6.656
 8024TIP3    H224030   5.638   1.168   6.687
 8025TIP3   OH224031   1.042   7.232   0.958
 8025TIP3    H124032   1.107   7.300   0.976
 8025TIP3    H224033   1.057   7.207   0.867
 8026TIP3   OH224034   2.358   6.621   4.008
 8026TIP3    H124035   2.400   6.695   3.965
 8026TIP3    H224036   2.279   6.605   3.955
 8027TIP3   OH224037   1.567   4.800   6.611
 8027TIP3    H124038   1.591   4.871   6.551
 8027TIP3    H224039   1.617   4.818   6.690
 8028TIP3   OH224040   6.491   6.411   3.172
 8028TIP3    H124041   6.542   6.329   3.177
 8028TIP3    H224042   6.556   6.478   3.152
 8029TIP3   OH224043   0.100   3.468   0.671
 8029TIP3    H124044   0.163   3.538   0.654
 8029TIP3    H224045   0.109   3.409   0.596
 8030TIP3   OH224046   6.572   6.571   2.164
 8030TIP3    H124047   6.602   6.573   2.255
 8030TIP3    H224048   6.549   6.480   2.148
 8031TIP3   OH224049   5.229   2.593   0.091
 8031TIP3    H124050   5.238   2.688   0.085
 8031TIP3    H224051   5.316   2.559   0.070
 8032TIP3   OH224052   0.260   1.794   6.529
 8032TIP3    H124053   0.223   1.860   6.587
 8032TIP3    H224054   0.296   1.727   6.588
 8033TIP3   OH224055   6.526   1.306   4.276
 8033TIP3    H124056   6.542   1.226   4.325
 8033TIP3    H224057   6.557   1.286   4.187
 8034TIP3   OH224058   1.584   7.685   3.067
 8034TIP3    H124059   1.584   7.644   3.153
 8034TIP3    H224060   1.667   7.731   3.062
 8035TIP3   OH224061   6.469   7.780   6.562
 8035TIP3    H124062   6.382   7.817   6.549
 8035TIP3    H224063   6.481   7.720   6.489
 8036TIP3   OH224064   7.794   3.409   2.252
 8036TIP3    H124065   7.780   3.503   2.267
 8036TIP3    H224066   7.727   3.385   2.187
 8037TIP3   OH224067   8.301   3.328   5.609
 8037TIP3    H124068   8.328   3.417   5.631
 8037TIP3    H224069   8.264   3.293   5.690
 8038TIP3   OH224070   2.727   1.758   0.590
 8038TIP3    H124071   2.656   1.726   0.534
 8038TIP3    H224072   2.807   1.742   0.539
 8039TIP3   OH224073   2.833   3.633   3.149
 8039TIP3    H124074   2.830   3.538   3.152
 8039TIP3    H224075   2.858   3.660   3.237
 8040TIP3   OH224076   4.211   5.672   3.669
 8040TIP3    H124077   4.226   5.766   3.672
 8040TIP3    H224078   4.167   5.657   3.586
 8041TIP3   OH224079   7.403   3.985   2.942
 8041TIP3    H124080   7.454   4.064   2.930
 8041TIP3    H224081   7.410   3.938   2.859
 8042TIP3   OH224082   0.474   6.385   0.902
 8042TIP3    H124083   0.568   6.406   0.897
 8042TIP3    H224084   0.461   6.321   0.832
 8043TIP3   OH224085   0.116   0.931   0.392
 8043TIP3    H124086   0.096   1.003   0.332
 8043TIP3    H224087   0.107   0.970   0.480
 8044TIP3   OH224088   1.840   5.532   1.342
 8044TIP3    H124089   1.839   5.478   1.421
 8044TIP3    H224090   1.772   5.598   1.358
 8045TIP3   OH224091   7.204   6.608   1.120
 8045TIP3    H124092   7.141   6.670   1.083
 8045TIP3    H224093   7.197   6.531   1.064
 8046TIP3   OH224094   5.271   6.434   5.939
 8046TIP3    H124095   5.276   6.349   5.895
 8046TIP3    H224096   5.227   6.416   6.022
 8047TIP3   OH224097   3.694   5.448   4.732
 8047TIP3    H124098   3.683   5.543   4.723
 8047TIP3    H224099   3.616   5.419   4.778
 8048TIP3   OH224100   3.106   5.601   4.975
 8048TIP3    H124101   3.082   5.636   4.889
 8048TIP3    H224102   3.050   5.524   4.986
 8049TIP3   OH224103   0.386   7.567   6.391
 8049TIP3    H124104   0.457   7.580   6.454
 8049TIP3    H224105   0.328   7.504   6.433
 8050TIP3   OH224106   0.822   6.636   4.727
 8050TIP3    H124107   0.755   6.684   4.679
 8050TIP3    H224108   0.838   6.558   4.674
 8051TIP3   OH224109   6.586   7.236   4.817
 8051TIP3    H124110   6.677   7.217   4.797
 8051TIP3    H224111   6.580   7.331   4.815
 8052TIP3   OH224112   6.501   3.563   6.365
 8052TIP3    H124113   6.427   3.582   6.308
 8052TIP3    H224114   6.567   3.525   6.307
 8053TIP3   OH224115   0.368   4.330   5.264
 8053TIP3    H124116   0.394   4.256   5.210
 8053TIP3    H224117   0.322   4.291   5.339
 8054TIP3   OH224118   0.947   6.762   6.463
 8054TIP3    H124119   0.978   6.767   6.373
 8054TIP3    H224120   1.009   6.705   6.507
 8055TIP3   OH224121   3.700   3.724   5.024
 8055TIP3    H124122   3.649   3.644   5.038
 8055TIP3    H224123   3.690   3.743   4.931
 8056TIP3   OH224124   6.860   0.018   5.445
 8056TIP3    H124125   6.813  -0.032   5.511
 8056TIP3    H224126   6.813   0.000   5.363
 8057TIP3   OH224127   5.520   0.260   5.340
 8057TIP3    H124128   5.462   0.335   5.326
 8057TIP3    H224129   5.486   0.193   5.281
 8058TIP3   OH224130   4.032   0.575   1.792
 8058TIP3    H124131   4.005   0.534   1.710
 8058TIP3    H224132   3.961   0.556   1.853
 8059TIP3   OH224133   0.644   3.272   0.306
 8059TIP3    H124134   0.735   3.299   0.320
 8059TIP3    H224135   0.608   3.263   0.394
 8060TIP3   OH224136   4.885   4.068   1.282
 8060TIP3    H124137   4.929   3.992   1.320
 8060TIP3    H224138   4.824   4.031   1.218
 8061TIP3   OH224139   2.275   4.246   2.454
 8061TIP3    H124140   2.325   4.308   2.402
 8061TIP3    H224141   2.337   4.177   2.476
 8062TIP3   OH224142   5.973   3.243   0.654
 8062TIP3    H124143   5.991   3.313   0.592
 8062TIP3    H224144   5.909   3.280   0.714
 8063TIP3   OH224145   1.539   1.127   6.385
 8063TIP3    H124146   1.606   1.185   6.349
 8063TIP3    H224147   1.517   1.068   6.314
 8064TIP3   OH224148   4.113   6.564   0.659
 8064TIP3    H124149   4.196   6.590   0.620
 8064TIP3    H224150   4.124   6.580   0.753
 8065TIP3   OH224151   3.179   1.970   6.315
 8065TIP3    H124152   3.215   2.042   6.263
 8065TIP3    H224153   3.225   1.893   6.283
 8066TIP3   OH224154   0.798   4.606   4.894
 8066TIP3    H124155   0.721   4.559   4.926
 8066TIP3    H224156   0.846   4.541   4.843
 8067TIP3   OH224157   5.312   4.256   1.012
 8067TIP3    H124158   5.375   4.184   1.005
 8067TIP3    H224159   5.230   4.213   1.039
 8068TIP3   OH224160   6.550   0.100   6.491
 8068TIP3    H124161   6.580   0.179   6.534
 8068TIP3    H224162   6.455   0.107   6.491
 8069TIP3   OH224163   1.312   0.847   4.402
 8069TIP3    H124164   1.361   0.869   4.322
 8069TIP3    H224165   1.379   0.841   4.470
 8070TIP3   OH224166   4.251   7.810   3.774
 8070TIP3    H124167   4.299   7.893   3.779
 8070TIP3    H224168   4.259   7.784   3.682
 8071TIP3   OH224169   5.972   5.395   6.331
 8071TIP3    H124170   5.932   5.422   6.249
 8071TIP3    H224171   5.978   5.300   6.325
 8072TIP3   OH224172   0.313   2.475   3.654
 8072TIP3    H124173   0.287   2.383   3.653
 8072TIP3    H224174   0.242   2.520   3.606
 8073TIP3   OH224175   7.304   3.661   0.592
 8073TIP3    H124176   7.287   3.657   0.686
 8073TIP3    H224177   7.390   3.619   0.582
 8074TIP3   OH224178   2.053   1.039   6.406
 8074TIP3    H124179   2.052   0.943   6.408
 8074TIP3    H224180   2.058   1.061   6.313
 8075TIP3   OH224181   0.824   5.344   2.172
 8075TIP3    H124182   0.729   5.359   2.174
 8075TIP3    H224183   0.836   5.260   2.217
 8076TIP3   OH224184   6.498   0.048   1.809
 8076TIP3    H124185   6.486   0.124   1.865
 8076TIP3    H224186   6.409   0.019   1.788
 8077TIP3   OH224187   5.651   5.552   4.232
 8077TIP3    H124188   5.718   5.620   4.235
 8077TIP3    H224189   5.599   5.567   4.311
 8078TIP3   OH224190   4.124   5.048   1.768
 8078TIP3    H124191   4.083   5.135   1.765
 8078TIP3    H224192   4.065   4.992   1.718
 8079TIP3   OH224193   5.808   4.884   1.171
 8079TIP3    H124194   5.836   4.974   1.158
 8079TIP3    H224195   5.869   4.832   1.118
 8080TIP3   OH224196   1.242   6.240   0.727
 8080TIP3    H124197   1.183   6.236   0.802
 8080TIP3    H224198   1.224   6.160   0.678
 8081TIP3   OH224199   5.371   3.348   1.878
 8081TIP3    H124200   5.370   3.253   1.863
 8081TIP3    H224201   5.425   3.359   1.956
 8082TIP3   OH224202   1.405   1.611   1.043
 8082TIP3    H124203   1.352   1.634   1.120
 8082TIP3    H224204   1.490   1.650   1.060
 8083TIP3   OH224205   2.363   1.185   6.381
 8083TIP3    H124206   2.292   1.246   6.401
 8083TIP3    H224207   2.352   1.164   6.288
 8084TIP3   OH224208   8.233   2.734   6.517
 8084TIP3    H124209   8.291   2.732   6.441
 8084TIP3    H224210   8.277   2.793   6.579
 8085TIP3   OH224211   6.578   6.653   4.008
 8085TIP3    H124212   6.674   6.646   4.010
 8085TIP3    H224213   6.548   6.564   4.027
 8086TIP3   OH224214   0.621   4.237   6.620
 8086TIP3    H124215   0.672   4.195   6.689
 8086TIP3    H224216   0.655   4.199   6.539
 8087TIP3   OH224217   1.139   1.133   3.909
 8087TIP3    H124218   1.139   1.128   4.004
 8087TIP3    H224219   1.230   1.114   3.885
 8088TIP3   OH224220   5.825   7.319   3.208
 8088TIP3    H124221   5.749   7.366   3.174
 8088TIP3    H224222   5.863   7.378   3.273
 8089TIP3   OH224223   8.272   6.374   5.933
 8089TIP3    H124224   8.222   6.432   5.876
 8089TIP3    H224225   8.353   6.357   5.884
 8090TIP3   OH224226   0.100   0.089   1.761
 8090TIP3    H124227   0.060   0.102   1.847
 8090TIP3    H224228   0.030   0.109   1.699
 8091TIP3   OH224229   6.975   2.367   5.444
 8091TIP3    H124230   7.007   2.327   5.524
 8091TIP3    H224231   6.949   2.293   5.389
 8092TIP3   OH224232   6.593   7.589   2.395
 8092TIP3    H124233   6.575   7.551   2.481
 8092TIP3    H224234   6.590   7.684   2.410
 8093TIP3   OH224235   3.395   2.297   0.402
 8093TIP3    H124236   3.356   2.381   0.377
 8093TIP3    H224237   3.417   2.255   0.319
 8094TIP3   OH224238   3.252   5.349   0.097
 8094TIP3    H124239   3.275   5.279   0.159
 8094TIP3    H224240   3.270   5.430   0.145
 8095TIP3   OH224241   2.054   2.058   2.350
 8095TIP3    H124242   2.141   2.097   2.356
 8095TIP3    H224243   2.068   1.965   2.365
 8096TIP3   OH224244   0.879   4.046   0.621
 8096TIP3    H124245   0.951   3.986   0.638
 8096TIP3    H224246   0.881   4.059   0.526
 8097TIP3   OH224247   3.446   5.579   1.491
 8097TIP3    H124248   3.516   5.613   1.547
 8097TIP3    H224249   3.482   5.583   1.403
 8098TIP3   OH224250   6.705   3.672   0.326
 8098TIP3    H124251   6.620   3.712   0.307
 8098TIP3    H224252   6.768   3.726   0.278
 8099TIP3   OH224253   7.561   0.478   1.440
 8099TIP3    H124254   7.593   0.549   1.385
 8099TIP3    H224255   7.468   0.499   1.454
 8100TIP3   OH224256   7.599   1.895   1.212
 8100TIP3    H124257   7.561   1.869   1.295
 8100TIP3    H224258   7.635   1.814   1.175
 8101TIP3   OH224259   6.614   3.025   0.327
 8101TIP3    H124260   6.633   3.107   0.282
 8101TIP3    H224261   6.542   3.046   0.386
 8102TIP3   OH224262   0.452   6.134   1.324
 8102TIP3    H124263   0.432   6.225   1.346
 8102TIP3    H224264   0.409   6.120   1.240
 8103TIP3   OH224265   4.083   7.001   4.672
 8103TIP3    H124266   4.091   7.071   4.607
 8103TIP3    H224267   4.053   6.925   4.622
 8104TIP3   OH224268   6.598   7.490   1.025
 8104TIP3    H124269   6.518   7.537   1.005
 8104TIP3    H224270   6.651   7.496   0.945
 8105TIP3   OH224271   4.509   1.187   2.703
 8105TIP3    H124272   4.595   1.153   2.729
 8105TIP3    H224273   4.448   1.151   2.767
 8106TIP3   OH224274   0.647   2.233   4.975
 8106TIP3    H124275   0.700   2.261   4.901
 8106TIP3    H224276   0.575   2.184   4.936
 8107TIP3   OH224277   2.739   2.267   3.866
 8107TIP3    H124278   2.762   2.360   3.861
 8107TIP3    H224279   2.648   2.266   3.896
 8108TIP3   OH224280   1.292   3.435   1.147
 8108TIP3    H124281   1.363   3.422   1.211
 8108TIP3    H224282   1.296   3.528   1.124
 8109TIP3   OH224283   7.887   0.108   1.146
 8109TIP3    H124284   7.873   0.175   1.213
 8109TIP3    H224285   7.811   0.049   1.154
 8110TIP3   OH224286   7.307   1.728   2.709
 8110TIP3    H124287   7.240   1.741   2.642
 8110TIP3    H224288   7.304   1.635   2.728
 8111TIP3   OH224289   4.396   1.762   1.875
 8111TIP3    H124290   4.426   1.780   1.786
 8111TIP3    H224291   4.458   1.697   1.909
 8112TIP3   OH224292   4.927   1.141   4.296
 8112TIP3    H124293   4.878   1.216   4.263
 8112TIP3    H224294   4.870   1.066   4.283
 8113TIP3   OH224295   3.783   1.131   2.919
 8113TIP3    H124296   3.858   1.127   2.859
 8113TIP3    H224297   3.776   1.224   2.941
 8114TIP3   OH224298   1.679   2.676   4.292
 8114TIP3    H124299   1.603   2.643   4.243
 8114TIP3    H224300   1.742   2.700   4.224
 8115TIP3   OH224301  -0.019   0.762   5.527
 8115TIP3    H124302  -0.008   0.852   5.557
 8115TIP3    H224303   0.058   0.716   5.562
 8116TIP3   OH224304   7.628   4.626   0.384
 8116TIP3    H124305   7.583   4.662   0.308
 8116TIP3    H224306   7.619   4.693   0.452
 8117TIP3   OH224307   3.047   6.969   6.478
 8117TIP3    H124308   3.030   6.876   6.459
 8117TIP3    H224309   3.141   6.973   6.491
 8118TIP3   OH224310   3.586   7.752   4.421
 8118TIP3    H124311   3.573   7.658   4.430
 8118TIP3    H224312   3.666   7.760   4.368
 8119TIP3   OH224313   7.128   1.498   5.038
 8119TIP3    H124314   7.041   1.463   5.016
 8119TIP3    H224315   7.180   1.420   5.058
 8120TIP3   OH224316   2.624   3.355   3.396
 8120TIP3    H124317   2.681   3.292   3.440
 8120TIP3    H224318   2.665   3.369   3.311
 8121TIP3   OH224319   5.898   7.693   0.364
 8121TIP3    H124320   5.847   7.747   0.423
 8121TIP3    H224321   5.883   7.603   0.394
 8122TIP3   OH224322   2.331   1.907   3.923
 8122TIP3    H124323   2.398   1.910   3.855
 8122TIP3    H224324   2.375   1.870   4.000
 8123TIP3   OH224325   6.803   0.151   5.992
 8123TIP3    H124326   6.837   0.098   6.065
 8123TIP3    H224327   6.747   0.216   6.034
 8124TIP3   OH224328   1.394   5.894   0.141
 8124TIP3    H124329   1.350   5.948   0.207
 8124TIP3    H224330   1.388   5.946   0.061
 8125TIP3   OH224331   2.479   5.847   0.456
 8125TIP3    H124332   2.420   5.786   0.413
 8125TIP3    H224333   2.567   5.814   0.435
 8126TIP3   OH224334   6.934   1.759   1.142
 8126TIP3    H124335   6.939   1.668   1.169
 8126TIP3    H224336   6.944   1.757   1.047
 8127TIP3   OH224337   1.480   7.503   6.815
 8127TIP3    H124338   1.535   7.581   6.805
 8127TIP3    H224339   1.454   7.481   6.726
 8128TIP3   OH224340   5.615   0.737   4.560
 8128TIP3    H124341   5.567   0.769   4.636
 8128TIP3    H224342   5.655   0.655   4.590
 8129TIP3   OH224343   7.132   0.344   0.776
 8129TIP3    H124344   7.079   0.328   0.698
 8129TIP3    H224345   7.069   0.347   0.848
 8130TIP3   OH224346   4.223   1.514   3.332
 8130TIP3    H124347   4.235   1.562   3.414
 8130TIP3    H224348   4.280   1.437   3.341
 8131TIP3   OH224349   1.766   1.231   1.775
 8131TIP3    H124350   1.826   1.157   1.771
 8131TIP3    H224351   1.818   1.307   1.751
 8132TIP3   OH224352   1.791   1.617   0.228
 8132TIP3    H124353   1.876   1.662   0.228
 8132TIP3    H224354   1.808   1.534   0.183
 8133TIP3   OH224355   8.166   3.995   3.323
 8133TIP3    H124356   8.177   4.088   3.302
 8133TIP3    H224357   8.158   3.992   3.418
 8134TIP3   OH224358   5.306   3.556   3.837
 8134TIP3    H124359   5.338   3.642   3.810
 8134TIP3    H224360   5.384   3.508   3.863
 8135TIP3   OH224361   5.514   4.038   5.586
 8135TIP3    H124362   5.443   4.103   5.582
 8135TIP3    H224363   5.553   4.039   5.499
 8136TIP3   OH224364   6.126   6.273   2.114
 8136TIP3    H124365   6.049   6.215   2.117
 8136TIP3    H224366   6.090   6.358   2.090
 8137TIP3   OH224367   1.470   6.057   2.886
 8137TIP3    H124368   1.538   6.048   2.819
 8137TIP3    H224369   1.446   5.967   2.907
 8138TIP3   OH224370   5.609   2.982   6.483
 8138TIP3    H124371   5.558   2.968   6.404
 8138TIP3    H224372   5.547   2.969   6.555
 8139TIP3   OH224373   4.762   3.494   2.256
 8139TIP3    H124374   4.752   3.585   2.228
 8139TIP3    H224375   4.820   3.498   2.332
 8140TIP3   OH224376   0.374   0.953   6.589
 8140TIP3    H124377   0.295   1.006   6.584
 8140TIP3    H224378   0.366   0.890   6.517
 8141TIP3   OH224379   2.157   1.864   5.250
 8141TIP3    H124380   2.163   1.769   5.244
 8141TIP3    H224381   2.117   1.880   5.335
 8142TIP3   OH224382   4.532   3.057   2.971
 8142TIP3    H124383   4.474   3.131   2.989
 8142TIP3    H224384   4.537   3.053   2.875
 8143TIP3   OH224385   7.843   7.011   2.935
 8143TIP3    H124386   7.833   6.992   3.028
 8143TIP3    H224387   7.814   7.102   2.925
 8144TIP3   OH224388   2.909   5.445   5.716
 8144TIP3    H124389   2.964   5.494   5.778
 8144TIP3    H224390   2.819   5.460   5.747
 8145TIP3   OH224391   0.888   4.305   1.006
 8145TIP3    H124392   0.858   4.216   1.023
 8145TIP3    H224393   0.815   4.361   1.034
 8146TIP3   OH224394   3.907   4.803   4.523
 8146TIP3    H124395   3.869   4.720   4.552
 8146TIP3    H224396   4.001   4.792   4.534
 8147TIP3   OH224397   0.929   4.084   2.371
 8147TIP3    H124398   0.888   3.997   2.372
 8147TIP3    H224399   0.954   4.099   2.462
 8148TIP3   OH224400   5.160   4.130   5.939
 8148TIP3    H124401   5.086   4.077   5.912
 8148TIP3    H224402   5.225   4.067   5.971
 8149TIP3   OH224403   5.280   5.493   6.126
 8149TIP3    H124404   5.241   5.578   6.141
 8149TIP3    H224405   5.227   5.432   6.178
 8150TIP3   OH224406   7.736   3.317   3.833
 8150TIP3    H124407   7.695   3.351   3.912
 8150TIP3    H224408   7.800   3.253   3.864
 8151TIP3   OH224409   7.828   2.748   6.665
 8151TIP3    H124410   7.888   2.756   6.740
 8151TIP3    H224411   7.742   2.764   6.702
 8152TIP3   OH224412   4.728   5.022   2.167
 8152TIP3    H124413   4.741   4.929   2.149
 8152TIP3    H224414   4.639   5.040   2.136
 8153TIP3   OH224415   4.202   3.774   1.809
 8153TIP3    H124416   4.211   3.681   1.789
 8153TIP3    H224417   4.214   3.779   1.904
 8154TIP3   OH224418   4.206   2.698   2.711
 8154TIP3    H124419   4.254   2.739   2.639
 8154TIP3    H224420   4.246   2.735   2.790
 8155TIP3   OH224421   4.326   6.909   0.713
 8155TIP3    H124422   4.286   6.984   0.669
 8155TIP3    H224423   4.328   6.840   0.646
 8156TIP3   OH224424   0.650   1.662   1.371
 8156TIP3    H124425   0.745   1.663   1.355
 8156TIP3    H224426   0.627   1.570   1.374
 8157TIP3   OH224427   0.622   0.994   1.440
 8157TIP3    H124428   0.553   1.054   1.412
 8157TIP3    H224429   0.576   0.920   1.479
 8158TIP3   OH224430   7.613   5.595   6.128
 8158TIP3    H124431   7.603   5.507   6.166
 8158TIP3    H224432   7.571   5.653   6.190
 8159TIP3   OH224433   5.037   7.705   2.494
 8159TIP3    H124434   4.951   7.674   2.463
 8159TIP3    H224435   5.025   7.798   2.510
 8160TIP3   OH224436   2.932   5.387   5.181
 8160TIP3    H124437   2.894   5.306   5.216
 8160TIP3    H224438   2.857   5.437   5.149
 8161TIP3   OH224439   4.878   7.813   5.660
 8161TIP3    H124440   4.790   7.846   5.640
 8161TIP3    H224441   4.890   7.741   5.598
 8162TIP3   OH224442   4.396   4.483   6.581
 8162TIP3    H124443   4.303   4.464   6.566
 8162TIP3    H224444   4.405   4.489   6.676
 8163TIP3   OH224445   7.081   5.403   1.591
 8163TIP3    H124446   7.043   5.448   1.516
 8163TIP3    H224447   7.033   5.321   1.598
 8164TIP3   OH224448   1.417   5.706   0.393
 8164TIP3    H124449   1.474   5.674   0.462
 8164TIP3    H224450   1.410   5.800   0.409
 8165TIP3   OH224451   7.223   7.296   0.340
 8165TIP3    H124452   7.243   7.265   0.428
 8165TIP3    H224453   7.139   7.340   0.349
 8166TIP3   OH224454   7.367   6.086   5.234
 8166TIP3    H124455   7.435   6.044   5.180
 8166TIP3    H224456   7.411   6.161   5.275
 8167TIP3   OH224457   6.904   6.066   1.537
 8167TIP3    H124458   6.933   6.157   1.531
 8167TIP3    H224459   6.852   6.062   1.617
 8168TIP3   OH224460   4.288   7.705   4.500
 8168TIP3    H124461   4.345   7.676   4.429
 8168TIP3    H224462   4.296   7.801   4.499
 8169TIP3   OH224463   2.164   6.226   2.512
 8169TIP3    H124464   2.227   6.266   2.452
 8169TIP3    H224465   2.217   6.169   2.568
 8170TIP3   OH224466   5.890   3.951   1.851
 8170TIP3    H124467   5.861   3.872   1.805
 8170TIP3    H224468   5.940   3.999   1.785
 8171TIP3   OH224469   6.021   4.666   3.242
 8171TIP3    H124470   6.046   4.737   3.301
 8171TIP3    H224471   5.939   4.696   3.203
 8172TIP3   OH224472   2.642   2.366   5.421
 8172TIP3    H124473   2.589   2.292   5.448
 8172TIP3    H224474   2.584   2.442   5.428
 8173TIP3   OH224475   7.483   0.390   5.970
 8173TIP3    H124476   7.525   0.313   5.931
 8173TIP3    H224477   7.543   0.418   6.038
 8174TIP3   OH224478   6.569   4.990   1.586
 8174TIP3    H124479   6.610   5.072   1.559
 8174TIP3    H224480   6.593   4.928   1.518
 8175TIP3   OH224481   2.543   2.410   3.725
 8175TIP3    H124482   2.560   2.485   3.668
 8175TIP3    H224483   2.450   2.394   3.716
 8176TIP3   OH224484   0.228   4.389   5.578
 8176TIP3    H124485   0.208   4.482   5.592
 8176TIP3    H224486   0.161   4.358   5.517
 8177TIP3   OH224487   5.863   1.020   5.390
 8177TIP3    H124488   5.890   1.104   5.353
 8177TIP3    H224489   5.806   1.043   5.463
 8178TIP3   OH224490   5.115   7.024   6.728
 8178TIP3    H124491   5.055   7.095   6.751
 8178TIP3    H224492   5.058   6.948   6.714
 8179TIP3   OH224493   6.149   1.377   4.048
 8179TIP3    H124494   6.217   1.428   4.004
 8179TIP3    H224495   6.186   1.358   4.135
 8180TIP3   OH224496   1.050   5.284   6.403
 8180TIP3    H124497   1.058   5.267   6.309
 8180TIP3    H224498   1.087   5.206   6.445
 8181TIP3   OH224499   2.857   0.950   5.044
 8181TIP3    H124500   2.868   0.910   5.130
 8181TIP3    H224501   2.927   0.913   4.991
 8182TIP3   OH224502   3.445   7.569   0.175
 8182TIP3    H124503   3.349   7.566   0.168
 8182TIP3    H224504   3.470   7.641   0.119
 8183TIP3   OH224505   0.922   4.040   4.387
 8183TIP3    H124506   0.973   4.043   4.306
 8183TIP3    H224507   0.962   3.968   4.437
 8184TIP3   OH224508   6.787   1.552   0.961
 8184TIP3    H124509   6.833   1.581   0.882
 8184TIP3    H224510   6.697   1.539   0.932
 8185TIP3   OH224511   5.326   4.188   2.948
 8185TIP3    H124512   5.304   4.205   2.857
 8185TIP3    H224513   5.392   4.253   2.970
 8186TIP3   OH224514   7.569   4.104   0.333
 8186TIP3    H124515   7.556   4.198   0.336
 8186TIP3    H224516   7.525   4.076   0.253
 8187TIP3   OH224517   6.900   5.988   1.166
 8187TIP3    H124518   6.832   5.923   1.183
 8187TIP3    H224519   6.934   5.965   1.080
 8188TIP3   OH224520   1.609   5.714   4.876
 8188TIP3    H124521   1.535   5.683   4.823
 8188TIP3    H224522   1.682   5.719   4.814
 8189TIP3   OH224523   5.605   7.029   0.120
 8189TIP3    H124524   5.555   7.044   0.200
 8189TIP3    H224525   5.603   6.935   0.108
 8190TIP3   OH224526   5.294   1.289   2.920
 8190TIP3    H124527   5.208   1.284   2.878
 8190TIP3    H224528   5.330   1.201   2.911
 8191TIP3   OH224529   6.223   0.689   3.934
 8191TIP3    H124530   6.228   0.754   4.004
 8191TIP3    H224531   6.267   0.612   3.969
 8192TIP3   OH224532   8.189   6.711   2.344
 8192TIP3    H124533   8.157   6.626   2.375
 8192TIP3    H224534   8.112   6.768   2.349
 8193TIP3   OH224535   1.141   5.632   6.486
 8193TIP3    H124536   1.163   5.724   6.474
 8193TIP3    H224537   1.046   5.632   6.500
 8194TIP3   OH224538   4.467   3.270   6.267
 8194TIP3    H124539   4.501   3.340   6.324
 8194TIP3    H224540   4.372   3.279   6.272
 8195TIP3   OH224541   6.518   1.754   5.040
 8195TIP3    H124542   6.544   1.690   4.973
 8195TIP3    H224543   6.422   1.751   5.039
 8196TIP3   OH224544   7.865   7.391   6.738
 8196TIP3    H124545   7.863   7.296   6.725
 8196TIP3    H224546   7.950   7.407   6.780
 8197TIP3   OH224547   7.632   0.572   4.479
 8197TIP3    H124548   7.607   0.651   4.431
 8197TIP3    H224549   7.571   0.569   4.553
 8198TIP3   OH224550   7.868   5.658   2.527
 8198TIP3    H124551   7.949   5.634   2.573
 8198TIP3    H224552   7.798   5.619   2.579
 8199TIP3   OH224553   7.422   3.917   6.126
 8199TIP3    H124554   7.512   3.951   6.129
 8199TIP3    H224555   7.385   3.955   6.047
 8200TIP3   OH224556   6.415   1.549   1.123
 8200TIP3    H124557   6.398   1.633   1.081
 8200TIP3    H224558   6.438   1.571   1.213
 8201TIP3   OH224559   4.557   5.541   0.861
 8201TIP3    H124560   4.508   5.464   0.834
 8201TIP3    H224561   4.587   5.522   0.949
 8202TIP3   OH224562   6.551   6.447   2.677
 8202TIP3    H124563   6.604   6.422   2.753
 8202TIP3    H224564   6.547   6.367   2.623
 8203TIP3   OH224565   2.384   1.159   2.947
 8203TIP3    H124566   2.371   1.068   2.924
 8203TIP3    H224567   2.425   1.198   2.871
 8204TIP3   OH224568   7.455   4.779   4.693
 8204TIP3    H124569   7.434   4.803   4.784
 8204TIP3    H224570   7.542   4.817   4.678
 8205TIP3   OH224571   3.869   4.217   6.089
 8205TIP3    H124572   3.836   4.297   6.130
 8205TIP3    H224573   3.956   4.204   6.128
 8206TIP3   OH224574   5.144   6.128   3.014
 8206TIP3    H124575   5.079   6.198   3.023
 8206TIP3    H224576   5.218   6.156   3.067
 8207TIP3   OH224577   0.577   5.503   4.536
 8207TIP3    H124578   0.611   5.468   4.618
 8207TIP3    H224579   0.610   5.593   4.533
 8208TIP3   OH224580   4.906   5.308   3.654
 8208TIP3    H124581   4.909   5.226   3.605
 8208TIP3    H224582   4.831   5.355   3.617
 8209TIP3   OH224583   1.801   4.611   4.266
 8209TIP3    H124584   1.874   4.640   4.213
 8209TIP3    H224585   1.750   4.690   4.282
 8210TIP3   OH224586   2.956   1.883   6.452
 8210TIP3    H124587   2.997   1.843   6.530
 8210TIP3    H224588   3.026   1.935   6.412
 8211TIP3   OH224589   4.149   5.014   5.943
 8211TIP3    H124590   4.138   4.954   6.017
 8211TIP3    H224591   4.232   5.059   5.961
 8212TIP3   OH224592   2.433   4.849   0.119
 8212TIP3    H124593   2.391   4.768   0.149
 8212TIP3    H224594   2.374   4.918   0.146
 8213TIP3   OH224595   5.536   0.736   5.391
 8213TIP3    H124596   5.514   0.793   5.465
 8213TIP3    H224597   5.468   0.668   5.392
 8214TIP3   OH224598   6.420   5.510   2.231
 8214TIP3    H124599   6.403   5.485   2.140
 8214TIP3    H224600   6.351   5.466   2.281
 8215TIP3   OH224601   0.743   5.464   1.560
 8215TIP3    H124602   0.663   5.500   1.523
 8215TIP3    H224603   0.725   5.457   1.654
 8216TIP3   OH224604   4.639   7.738   0.463
 8216TIP3    H124605   4.583   7.796   0.411
 8216TIP3    H224606   4.679   7.679   0.398
 8217TIP3   OH224607   0.548   3.333   4.638
 8217TIP3    H124608   0.560   3.410   4.695
 8217TIP3    H224609   0.637   3.301   4.623
 8218TIP3   OH224610   7.989   5.013   3.716
 8218TIP3    H124611   7.969   4.932   3.669
 8218TIP3    H224612   8.046   4.985   3.788
 8219TIP3   OH224613   5.892   4.614   6.621
 8219TIP3    H124614   5.814   4.580   6.664
 8219TIP3    H224615   5.960   4.613   6.689
 8220TIP3   OH224616   3.440   5.092   2.554
 8220TIP3    H124617   3.518   5.127   2.597
 8220TIP3    H224618   3.469   5.069   2.466
 8221TIP3   OH224619   3.255   4.347   3.824
 8221TIP3    H124620   3.301   4.339   3.908
 8221TIP3    H224621   3.204   4.266   3.817
 8222TIP3   OH224622   4.538   5.581   5.737
 8222TIP3    H124623   4.496   5.649   5.790
 8222TIP3    H224624   4.525   5.500   5.787
 8223TIP3   OH224625   2.928   0.014   4.601
 8223TIP3    H124626   2.930  -0.081   4.604
 8223TIP3    H224627   2.877   0.035   4.523
 8224TIP3   OH224628   0.529   6.610   0.133
 8224TIP3    H124629   0.600   6.674   0.136
 8224TIP3    H224630   0.524   6.576   0.222
 8225TIP3   OH224631   2.553   5.595   4.003
 8225TIP3    H124632   2.628   5.651   4.023
 8225TIP3    H224633   2.484   5.626   4.062
 8226TIP3   OH224634   6.366   6.727   4.900
 8226TIP3    H124635   6.387   6.759   4.987
 8226TIP3    H224636   6.439   6.670   4.877
 8227TIP3   OH224637   7.189   5.081   4.588
 8227TIP3    H124638   7.227   4.995   4.605
 8227TIP3    H224639   7.168   5.080   4.494
 8228TIP3   OH224640   0.512   6.899   4.352
 8228TIP3    H124641   0.427   6.944   4.345
 8228TIP3    H224642   0.489   6.806   4.356
 8229TIP3   OH224643   1.751   0.606   2.311
 8229TIP3    H124644   1.703   0.657   2.246
 8229TIP3    H224645   1.843   0.628   2.296
 8230TIP3   OH224646   7.333   4.392   0.717
 8230TIP3    H124647   7.324   4.389   0.812
 8230TIP3    H224648   7.368   4.479   0.698
 8231TIP3   OH224649   7.534   5.393   2.165
 8231TIP3    H124650   7.441   5.405   2.145
 8231TIP3    H224651   7.541   5.414   2.258
 8232TIP3   OH224652   3.926   0.263   1.282
 8232TIP3    H124653   3.842   0.265   1.237
 8232TIP3    H224654   3.953   0.355   1.285
 8233TIP3   OH224655   3.811   2.605   1.406
 8233TIP3    H124656   3.772   2.570   1.486
 8233TIP3    H224657   3.885   2.547   1.387
 8234TIP3   OH224658   1.882   6.708   0.389
 8234TIP3    H124659   1.909   6.652   0.462
 8234TIP3    H224660   1.944   6.687   0.319
 8235TIP3   OH224661   6.760   1.412   5.760
 8235TIP3    H124662   6.717   1.439   5.679
 8235TIP3    H224663   6.853   1.405   5.737
 8236TIP3   OH224664   7.382   1.076   5.761
 8236TIP3    H124665   7.342   0.990   5.747
 8236TIP3    H224666   7.434   1.066   5.840
 8237TIP3   OH224667   7.133   3.105   1.586
 8237TIP3    H124668   7.161   3.197   1.583
 8237TIP3    H224669   7.081   3.094   1.506
 8238TIP3   OH224670   6.319   6.816   2.290
 8238TIP3    H124671   6.275   6.855   2.365
 8238TIP3    H224672   6.256   6.753   2.254
 8239TIP3   OH224673   2.305   7.525   5.091
 8239TIP3    H124674   2.225   7.533   5.142
 8239TIP3    H224675   2.285   7.460   5.025
 8240TIP3   OH224676   5.878   5.758   1.646
 8240TIP3    H124677   5.904   5.849   1.663
 8240TIP3    H224678   5.960   5.710   1.640
 8241TIP3   OH224679   7.725   4.538   0.637
 8241TIP3    H124680   7.679   4.557   0.555
 8241TIP3    H224681   7.761   4.450   0.624
 8242TIP3   OH224682   1.864   4.805   2.031
 8242TIP3    H124683   1.857   4.830   2.123
 8242TIP3    H224684   1.942   4.749   2.027
 8243TIP3   OH224685   5.048   6.495   2.870
 8243TIP3    H124686   5.143   6.500   2.879
 8243TIP3    H224687   5.017   6.584   2.888
 8244TIP3   OH224688   0.797   6.971   2.668
 8244TIP3    H124689   0.836   6.986   2.753
 8244TIP3    H224690   0.707   6.944   2.687
 8245TIP3   OH224691   0.801   0.918   3.900
 8245TIP3    H124692   0.859   0.866   3.956
 8245TIP3    H224693   0.800   0.871   3.816
 8246TIP3   OH224694   3.643   7.091   6.013
 8246TIP3    H124695   3.624   7.025   5.947
 8246TIP3    H224696   3.732   7.119   5.996
 8247TIP3   OH224697   2.985   3.777   1.921
 8247TIP3    H124698   2.899   3.758   1.884
 8247TIP3    H224699   3.007   3.699   1.972
 8248TIP3   OH224700   4.916   6.260   3.957
 8248TIP3    H124701   4.888   6.342   3.916
 8248TIP3    H224702   4.983   6.226   3.899
 8249TIP3   OH224703   4.439   7.006   5.562
 8249TIP3    H124704   4.455   7.084   5.508
 8249TIP3    H224705   4.347   7.013   5.588
 8250TIP3   OH224706   1.625   0.287   2.890
 8250TIP3    H124707   1.654   0.308   2.979
 8250TIP3    H224708   1.580   0.203   2.899
 8251TIP3   OH224709   4.771   2.273   4.797
 8251TIP3    H124710   4.782   2.368   4.798
 8251TIP3    H224711   4.831   2.242   4.730
 8252TIP3   OH224712   0.693   0.053   5.845
 8252TIP3    H124713   0.718   0.137   5.806
 8252TIP3    H224714   0.766  -0.006   5.825
 8253TIP3   OH224715   5.411   5.876   0.074
 8253TIP3    H124716   5.442   5.950   0.022
 8253TIP3    H224717   5.318   5.869   0.052
 8254TIP3   OH224718   7.566   4.699   6.594
 8254TIP3    H124719   7.519   4.730   6.516
 8254TIP3    H224720   7.585   4.607   6.575
 8255TIP3   OH224721   6.362   1.594   2.842
 8255TIP3    H124722   6.295   1.541   2.886
 8255TIP3    H224723   6.397   1.537   2.774
 8256TIP3   OH224724   8.161   4.211   6.035
 8256TIP3    H124725   8.173   4.270   6.109
 8256TIP3    H224726   8.078   4.239   5.995
 8257TIP3   OH224727   4.030   5.117   1.246
 8257TIP3    H124728   4.004   5.115   1.154
 8257TIP3    H224729   3.964   5.063   1.290
 8258TIP3   OH224730   2.132   1.457   4.519
 8258TIP3    H124731   2.190   1.533   4.517
 8258TIP3    H224732   2.142   1.417   4.433
 8259TIP3   OH224733   3.375   3.249   5.519
 8259TIP3    H124734   3.330   3.263   5.601
 8259TIP3    H224735   3.375   3.154   5.507
 8260TIP3   OH224736   5.740   5.206   0.015
 8260TIP3    H124737   5.712   5.116   0.034
 8260TIP3    H224738   5.784   5.235   0.094
 8261TIP3   OH224739   1.718   4.311   3.531
 8261TIP3    H124740   1.712   4.223   3.494
 8261TIP3    H224741   1.812   4.323   3.547
 8262TIP3   OH224742   8.284   3.056   3.519
 8262TIP3    H124743   8.262   2.971   3.479
 8262TIP3    H224744   8.299   3.114   3.445
 8263TIP3   OH224745   5.932   0.917   4.570
 8263TIP3    H124746   5.988   0.874   4.634
 8263TIP3    H224747   5.922   1.006   4.602
 8264TIP3   OH224748   7.675   0.323   4.150
 8264TIP3    H124749   7.675   0.404   4.200
 8264TIP3    H224750   7.768   0.302   4.139
 8265TIP3   OH224751   0.820   7.757   2.934
 8265TIP3    H124752   0.887   7.718   2.878
 8265TIP3    H224753   0.868   7.807   2.999
 8266TIP3   OH224754   7.477   1.820   4.864
 8266TIP3    H124755   7.550   1.792   4.920
 8266TIP3    H224756   7.404   1.763   4.889
 8267TIP3   OH224757   5.685   2.254   0.867
 8267TIP3    H124758   5.646   2.312   0.802
 8267TIP3    H224759   5.640   2.275   0.948
 8268TIP3   OH224760   6.194   0.031   2.765
 8268TIP3    H124761   6.228   0.094   2.828
 8268TIP3    H224762   6.265   0.018   2.702
 8269TIP3   OH224763   7.908   4.540   5.704
 8269TIP3    H124764   7.947   4.600   5.641
 8269TIP3    H224765   7.881   4.596   5.777
 8270TIP3   OH224766   6.884   6.257   4.534
 8270TIP3    H124767   6.903   6.220   4.620
 8270TIP3    H224768   6.932   6.201   4.473
 8271TIP3   OH224769   1.534   6.511   0.924
 8271TIP3    H124770   1.522   6.436   0.865
 8271TIP3    H224771   1.473   6.495   0.996
 8272TIP3   OH224772   6.221   1.205   0.239
 8272TIP3    H124773   6.140   1.154   0.237
 8272TIP3    H224774   6.198   1.282   0.291
 8273TIP3   OH224775   5.494   6.129   5.866
 8273TIP3    H124776   5.515   6.215   5.902
 8273TIP3    H224777   5.564   6.111   5.804
 8274TIP3   OH224778   7.389   6.696   4.029
 8274TIP3    H124779   7.468   6.740   4.061
 8274TIP3    H224780   7.383   6.617   4.083
 8275TIP3   OH224781   1.536   2.412   5.179
 8275TIP3    H124782   1.480   2.406   5.257
 8275TIP3    H224783   1.481   2.379   5.108
 8276TIP3   OH224784   5.760   3.468   1.870
 8276TIP3    H124785   5.763   3.563   1.860
 8276TIP3    H224786   5.754   3.434   1.781
 8277TIP3   OH224787   4.056   3.815   4.520
 8277TIP3    H124788   4.148   3.809   4.545
 8277TIP3    H224789   4.028   3.724   4.511
 8278TIP3   OH224790   1.841   5.689   2.931
 8278TIP3    H124791   1.845   5.739   3.013
 8278TIP3    H224792   1.841   5.756   2.862
 8279TIP3   OH224793   3.685   6.650   1.932
 8279TIP3    H124794   3.652   6.710   1.866
 8279TIP3    H224795   3.767   6.617   1.896
 8280TIP3   OH224796   2.127   4.874   3.944
 8280TIP3    H124797   2.037   4.903   3.960
 8280TIP3    H224798   2.141   4.890   3.851
 8281TIP3   OH224799   0.975   1.261   3.049
 8281TIP3    H124800   1.057   1.276   3.096
 8281TIP3    H224801   0.939   1.348   3.035
 8282TIP3   OH224802   4.154   4.245   6.209
 8282TIP3    H124803   4.224   4.193   6.169
 8282TIP3    H224804   4.200   4.316   6.254
 8283TIP3   OH224805   0.047   1.144   3.346
 8283TIP3    H124806   0.094   1.163   3.427
 8283TIP3    H224807   0.034   1.050   3.346
 8284TIP3   OH224808   1.497   3.380   1.305
 8284TIP3    H124809   1.558   3.417   1.368
 8284TIP3    H224810   1.499   3.286   1.322
 8285TIP3   OH224811   7.233   2.398   0.809
 8285TIP3    H124812   7.311   2.450   0.826
 8285TIP3    H224813   7.224   2.341   0.885
 8286TIP3   OH224814   0.381   1.882   4.350
 8286TIP3    H124815   0.370   1.800   4.302
 8286TIP3    H224816   0.449   1.864   4.415
 8287TIP3   OH224817   5.029   4.415   0.972
 8287TIP3    H124818   4.944   4.390   1.010
 8287TIP3    H224819   5.072   4.331   0.953
 8288TIP3   OH224820   7.610   5.988   5.114
 8288TIP3    H124821   7.683   6.005   5.054
 8288TIP3    H224822   7.641   5.918   5.171
 8289TIP3   OH224823   1.337   2.820   2.722
 8289TIP3    H124824   1.430   2.833   2.706
 8289TIP3    H224825   1.313   2.744   2.667
 8290TIP3   OH224826   1.624   5.282   4.444
 8290TIP3    H124827   1.599   5.374   4.435
 8290TIP3    H224828   1.717   5.280   4.421
 8291TIP3   OH224829   5.547   5.709   5.958
 8291TIP3    H124830   5.462   5.753   5.948
 8291TIP3    H224831   5.530   5.618   5.934
 8292TIP3   OH224832   8.195   3.655   2.279
 8292TIP3    H124833   8.222   3.707   2.204
 8292TIP3    H224834   8.166   3.572   2.241
 8293TIP3   OH224835   8.133   7.508   4.591
 8293TIP3    H124836   8.135   7.574   4.660
 8293TIP3    H224837   8.218   7.464   4.597
 8294TIP3   OH224838   6.903   7.313   5.870
 8294TIP3    H124839   6.899   7.403   5.900
 8294TIP3    H224840   6.843   7.310   5.795
 8295TIP3   OH224841   1.295   3.073   1.359
 8295TIP3    H124842   1.282   2.980   1.380
 8295TIP3    H224843   1.364   3.101   1.418
 8296TIP3   OH224844   2.167   0.446   3.010
 8296TIP3    H124845   2.240   0.385   3.002
 8296TIP3    H224846   2.130   0.428   3.096
 8297TIP3   OH224847   5.781   4.923   3.110
 8297TIP3    H124848   5.694   4.889   3.127
 8297TIP3    H224849   5.793   4.912   3.015
 8298TIP3   OH224850   4.643   0.782   5.726
 8298TIP3    H124851   4.706   0.754   5.660
 8298TIP3    H224852   4.659   0.724   5.800
 8299TIP3   OH224853   6.656   4.192   0.592
 8299TIP3    H124854   6.667   4.284   0.614
 8299TIP3    H224855   6.566   4.172   0.619
 8300TIP3   OH224856   3.151   3.419   0.369
 8300TIP3    H124857   3.102   3.385   0.294
 8300TIP3    H224858   3.113   3.505   0.385
 8301TIP3   OH224859   8.119   6.945   0.802
 8301TIP3    H124860   8.167   6.908   0.728
 8301TIP3    H224861   8.168   7.024   0.825
 8302TIP3   OH224862   5.298   5.042   4.166
 8302TIP3    H124863   5.249   5.037   4.249
 8302TIP3    H224864   5.235   5.016   4.099
 8303TIP3   OH224865   3.929   0.149   3.405
 8303TIP3    H124866   3.981   0.227   3.422
 8303TIP3    H224867   3.937   0.135   3.310
 8304TIP3   OH224868   4.855   6.345   0.974
 8304TIP3    H124869   4.834   6.382   0.888
 8304TIP3    H224870   4.950   6.354   0.981
 8305TIP3   OH224871   1.780   7.795   6.404
 8305TIP3    H124872   1.789   7.780   6.310
 8305TIP3    H224873   1.820   7.718   6.445
 8306TIP3   OH224874   7.428   5.495   3.466
 8306TIP3    H124875   7.479   5.458   3.393
 8306TIP3    H224876   7.483   5.479   3.543
 8307TIP3   OH224877   5.842   0.956   5.015
 8307TIP3    H124878   5.789   0.942   5.094
 8307TIP3    H224879   5.781   0.947   4.943
 8308TIP3   OH224880   6.259   1.291   6.034
 8308TIP3    H124881   6.240   1.383   6.049
 8308TIP3    H224882   6.303   1.262   6.114
 8309TIP3   OH224883   0.759   3.630   6.317
 8309TIP3    H124884   0.725   3.585   6.240
 8309TIP3    H224885   0.849   3.652   6.295
 8310TIP3   OH224886   4.462   5.249   1.913
 8310TIP3    H124887   4.449   5.204   1.997
 8310TIP3    H224888   4.554   5.231   1.891
 8311TIP3   OH224889   0.058   7.114   4.150
 8311TIP3    H124890   0.017   7.179   4.094
 8311TIP3    H224891   0.034   7.140   4.239
 8312TIP3   OH224892   2.351   5.253   3.824
 8312TIP3    H124893   2.356   5.184   3.758
 8312TIP3    H224894   2.434   5.247   3.872
 8313TIP3   OH224895   3.094   1.382   4.306
 8313TIP3    H124896   3.075   1.476   4.302
 8313TIP3    H224897   3.061   1.354   4.392
 8314TIP3   OH224898   1.166   7.027   4.376
 8314TIP3    H124899   1.134   7.073   4.299
 8314TIP3    H224900   1.089   7.021   4.434
 8315TIP3   OH224901   6.058   5.361   0.681
 8315TIP3    H124902   6.143   5.355   0.637
 8315TIP3    H224903   6.058   5.448   0.721
 8316TIP3   OH224904   0.012   1.472   3.485
 8316TIP3    H124905   0.103   1.464   3.454
 8316TIP3    H224906  -0.035   1.401   3.440
 8317TIP3   OH224907   7.171   5.081   2.734
 8317TIP3    H124908   7.161   5.176   2.728
 8317TIP3    H224909   7.087   5.046   2.702
 8318TIP3   OH224910   5.354   7.194   5.246
 8318TIP3    H124911   5.421   7.261   5.261
 8318TIP3    H224912   5.379   7.122   5.304
 8319TIP3   OH224913   2.544   0.160   5.734
 8319TIP3    H124914   2.555   0.099   5.661
 8319TIP3    H224915   2.613   0.225   5.721
 8320TIP3   OH224916   1.953   5.512   0.070
 8320TIP3    H124917   1.907   5.441   0.113
 8320TIP3    H224918   1.955   5.487  -0.023
 8321TIP3   OH224919   6.846   6.775   3.192
 8321TIP3    H124920   6.881   6.722   3.264
 8321TIP3    H224921   6.906   6.849   3.185
 8322TIP3   OH224922   1.303   5.548   1.870
 8322TIP3    H124923   1.318   5.591   1.955
 8322TIP3    H224924   1.302   5.620   1.807
 8323TIP3   OH224925   2.518   2.546   1.914
 8323TIP3    H124926   2.527   2.580   1.825
 8323TIP3    H224927   2.597   2.494   1.928
 8324TIP3   OH224928   5.059   0.720   5.872
 8324TIP3    H124929   5.134   0.696   5.926
 8324TIP3    H224930   5.061   0.815   5.870
 8325TIP3   OH224931   3.459   0.108   6.679
 8325TIP3    H124932   3.419   0.149   6.756
 8325TIP3    H224933   3.545   0.149   6.673
 8326TIP3   OH224934   6.048   0.083   0.284
 8326TIP3    H124935   6.136   0.067   0.318
 8326TIP3    H224936   6.004  -0.001   0.292
 8327TIP3   OH224937   7.503   7.741   0.605
 8327TIP3    H124938   7.489   7.664   0.550
 8327TIP3    H224939   7.598   7.757   0.598
 8328TIP3   OH224940   7.804   1.744   5.887
 8328TIP3    H124941   7.833   1.654   5.898
 8328TIP3    H224942   7.862   1.795   5.943
 8329TIP3   OH224943   2.640   4.610   4.015
 8329TIP3    H124944   2.693   4.615   3.935
 8329TIP3    H224945   2.700   4.639   4.084
 8330TIP3   OH224946   5.635   6.384   3.148
 8330TIP3    H124947   5.698   6.386   3.219
 8330TIP3    H224948   5.647   6.299   3.106
 8331TIP3   OH224949   6.864   6.139   2.635
 8331TIP3    H124950   6.882   6.049   2.663
 8331TIP3    H224951   6.914   6.193   2.696
 8332TIP3   OH224952   8.136   0.973   4.817
 8332TIP3    H124953   8.151   0.882   4.844
 8332TIP3    H224954   8.115   0.967   4.724
 8333TIP3   OH224955   0.125   4.213   6.645
 8333TIP3    H124956   0.077   4.247   6.720
 8333TIP3    H224957   0.209   4.260   6.647
 8334TIP3   OH224958   7.876   1.202   3.759
 8334TIP3    H124959   7.925   1.284   3.758
 8334TIP3    H224960   7.864   1.183   3.852
 8335TIP3   OH224961   8.058   4.429   0.431
 8335TIP3    H124962   8.122   4.372   0.475
 8335TIP3    H224963   7.974   4.388   0.450
 8336TIP3   OH224964   5.963   0.583   3.331
 8336TIP3    H124965   6.042   0.533   3.310
 8336TIP3    H224966   5.992   0.674   3.332
 8337TIP3   OH224967   7.113   7.148   1.322
 8337TIP3    H124968   7.049   7.079   1.300
 8337TIP3    H224969   7.196   7.115   1.287
 8338TIP3   OH224970   0.488   3.412   6.007
 8338TIP3    H124971   0.431   3.336   5.999
 8338TIP3    H224972   0.508   3.437   5.917
 8339TIP3   OH224973   7.452   1.020   1.476
 8339TIP3    H124974   7.479   1.033   1.385
 8339TIP3    H224975   7.362   0.989   1.470
 8340TIP3   OH224976   3.267   6.384   1.165
 8340TIP3    H124977   3.224   6.389   1.079
 8340TIP3    H224978   3.360   6.395   1.146
 8341TIP3   OH224979   1.397   2.494   2.800
 8341TIP3    H124980   1.368   2.407   2.826
 8341TIP3    H224981   1.490   2.497   2.825
 8342TIP3   OH224982   4.791   7.462   5.198
 8342TIP3    H124983   4.850   7.507   5.139
 8342TIP3    H224984   4.780   7.375   5.160
 8343TIP3   OH224985   0.669   0.048   1.242
 8343TIP3    H124986   0.753   0.085   1.213
 8343TIP3    H224987   0.634   0.004   1.165
 8344TIP3   OH224988   1.357   4.688   1.608
 8344TIP3    H124989   1.372   4.724   1.520
 8344TIP3    H224990   1.343   4.595   1.594
 8345TIP3   OH224991   7.390   7.500   6.238
 8345TIP3    H124992   7.383   7.448   6.318
 8345TIP3    H224993   7.299   7.512   6.210
 8346TIP3   OH224994   3.383   1.127   2.567
 8346TIP3    H124995   3.465   1.155   2.608
 8346TIP3    H224996   3.346   1.064   2.628
 8347TIP3   OH224997   0.393   6.075   1.051
 8347TIP3    H124998   0.340   6.132   0.994
 8347TIP3    H224999   0.381   5.987   1.014
 8348TIP3   OH225000   3.484   2.000   5.040
 8348TIP3    H125001   3.501   2.094   5.033
 8348TIP3    H225002   3.494   1.981   5.134
 8349TIP3   OH225003   5.037   4.625   2.751
 8349TIP3    H125004   4.960   4.593   2.799
 8349TIP3    H225005   5.006   4.633   2.661
 8350TIP3   OH225006   6.832   6.426   0.896
 8350TIP3    H125007   6.926   6.419   0.881
 8350TIP3    H225008   6.813   6.358   0.961
 8351TIP3   OH225009   3.438   1.105   5.341
 8351TIP3    H125010   3.483   1.062   5.414
 8351TIP3    H225011   3.450   1.046   5.267
 8352TIP3   OH225012   4.379   3.431   6.643
 8352TIP3    H125013   4.438   3.411   6.716
 8352TIP3    H225014   4.435   3.428   6.565
 8353TIP3   OH225015   3.247   2.950   2.566
 8353TIP3    H125016   3.273   2.864   2.534
 8353TIP3    H225017   3.276   2.951   2.658
 8354TIP3   OH225018   1.640   2.813   3.681
 8354TIP3    H125019   1.600   2.835   3.597
 8354TIP3    H225020   1.733   2.833   3.669
 8355TIP3   OH225021   6.180   7.591   5.411
 8355TIP3    H125022   6.210   7.671   5.454
 8355TIP3    H225023   6.086   7.601   5.402
 8356TIP3   OH225024   3.856   5.418   3.951
 8356TIP3    H125025   3.859   5.369   4.033
 8356TIP3    H225026   3.806   5.362   3.892
 8357TIP3   OH225027   8.010   6.658   4.393
 8357TIP3    H125028   7.955   6.674   4.316
 8357TIP3    H225029   7.977   6.719   4.459
 8358TIP3   OH225030   7.866   5.681   0.172
 8358TIP3    H125031   7.817   5.741   0.229
 8358TIP3    H225032   7.809   5.605   0.163
 8359TIP3   OH225033   4.143   6.614   2.017
 8359TIP3    H125034   4.136   6.603   2.111
 8359TIP3    H225035   4.203   6.544   1.989
 8360TIP3   OH225036   5.665   4.324   0.701
 8360TIP3    H125037   5.616   4.318   0.783
 8360TIP3    H225038   5.694   4.415   0.697
 8361TIP3   OH225039   5.429   2.838   3.810
 8361TIP3    H125040   5.521   2.833   3.784
 8361TIP3    H225041   5.419   2.768   3.874
 8362TIP3   OH225042   0.624   7.467   0.712
 8362TIP3    H125043   0.661   7.438   0.795
 8362TIP3    H225044   0.642   7.395   0.651
 8363TIP3   OH225045   0.043   0.476   5.625
 8363TIP3    H125046   0.057   0.392   5.583
 8363TIP3    H225047  -0.045   0.503   5.599
 8364TIP3   OH225048   6.569   6.814   4.520
 8364TIP3    H125049   6.528   6.868   4.587
 8364TIP3    H225050   6.537   6.725   4.537
 8365TIP3   OH225051   0.994   4.796   5.582
 8365TIP3    H125052   0.956   4.863   5.639
 8365TIP3    H225053   1.087   4.817   5.579
 8366TIP3   OH225054   5.607   2.542   1.476
 8366TIP3    H125055   5.563   2.527   1.560
 8366TIP3    H225056   5.634   2.455   1.447
 8367TIP3   OH225057   0.030   4.422   6.274
 8367TIP3    H125058  -0.053   4.466   6.259
 8367TIP3    H225059   0.068   4.466   6.350
 8368TIP3   OH225060   2.434   7.571   6.055
 8368TIP3    H125061   2.496   7.575   6.128
 8368TIP3    H225062   2.443   7.655   6.011
 8369TIP3   OH225063   1.325   2.233   2.860
 8369TIP3    H125064   1.236   2.248   2.892
 8369TIP3    H225065   1.314   2.191   2.775
 8370TIP3   OH225066   1.801   1.664   3.196
 8370TIP3    H125067   1.723   1.609   3.184
 8370TIP3    H225068   1.778   1.721   3.270
 8371TIP3   OH225069   4.197   3.886   5.771
 8371TIP3    H125070   4.219   3.966   5.818
 8371TIP3    H225071   4.104   3.871   5.792
 8372TIP3   OH225072   2.844   4.912   6.126
 8372TIP3    H125073   2.813   4.828   6.093
 8372TIP3    H225074   2.794   4.977   6.077
 8373TIP3   OH225075   0.266   2.971   5.905
 8373TIP3    H125076   0.181   3.016   5.900
 8373TIP3    H225077   0.311   3.012   5.978
 8374TIP3   OH225078   4.100   0.180   1.750
 8374TIP3    H125079   4.040   0.153   1.679
 8374TIP3    H225080   4.177   0.124   1.739
 8375TIP3   OH225081   7.406   4.797   0.938
 8375TIP3    H125082   7.492   4.760   0.917
 8375TIP3    H225083   7.346   4.722   0.937
 8376TIP3   OH225084   1.603   2.473   1.340
 8376TIP3    H125085   1.696   2.494   1.343
 8376TIP3    H225086   1.598   2.386   1.301
 8377TIP3   OH225087   1.127   2.616   1.864
 8377TIP3    H125088   1.188   2.563   1.915
 8377TIP3    H225089   1.085   2.554   1.804
 8378TIP3   OH225090   0.242   5.360   2.130
 8378TIP3    H125091   0.191   5.352   2.210
 8378TIP3    H225092   0.260   5.454   2.122
 8379TIP3   OH225093   6.655   2.787   4.416
 8379TIP3    H125094   6.608   2.792   4.333
 8379TIP3    H225095   6.587   2.800   4.483
 8380TIP3   OH225096   4.919   4.014   5.672
 8380TIP3    H125097   4.864   4.087   5.702
 8380TIP3    H225098   4.857   3.943   5.655
 8381TIP3   OH225099   4.102   5.023   5.420
 8381TIP3    H125100   4.103   4.998   5.513
 8381TIP3    H225101   4.056   4.951   5.377
 8382TIP3   OH225102   5.683   6.254  -0.012
 8382TIP3    H125103   5.706   6.346  -0.007
 8382TIP3    H225104   5.680   6.225   0.080
 8383TIP3   OH225105   3.185   0.168   1.327
 8383TIP3    H125106   3.226   0.082   1.322
 8383TIP3    H225107   3.139   0.167   1.411
 8384TIP3   OH225108   7.113   5.635   3.372
 8384TIP3    H125109   7.116   5.718   3.420
 8384TIP3    H225110   7.114   5.568   3.440
 8385TIP3   OH225111   8.133   0.763   4.193
 8385TIP3    H125112   8.144   0.707   4.115
 8385TIP3    H225113   8.212   0.817   4.194
 8386TIP3   OH225114   4.319   0.194   3.925
 8386TIP3    H125115   4.406   0.231   3.913
 8386TIP3    H225116   4.328   0.132   3.997
 8387TIP3   OH225117   4.045   2.839   5.282
 8387TIP3    H125118   4.055   2.917   5.337
 8387TIP3    H225119   4.116   2.781   5.310
 8388TIP3   OH225120   0.641   7.767   4.362
 8388TIP3    H125121   0.563   7.789   4.312
 8388TIP3    H225122   0.607   7.735   4.446
 8389TIP3   OH225123   5.374   5.173   2.494
 8389TIP3    H125124   5.300   5.176   2.554
 8389TIP3    H225125   5.368   5.087   2.452
 8390TIP3   OH225126   5.707   4.692   1.408
 8390TIP3    H125127   5.748   4.745   1.339
 8390TIP3    H225128   5.640   4.749   1.445
 8391TIP3   OH225129   6.973   4.551   2.408
 8391TIP3    H125130   6.973   4.471   2.462
 8391TIP3    H225131   6.885   4.554   2.370
 8392TIP3   OH225132   6.544   7.034   6.674
 8392TIP3    H125133   6.501   7.109   6.716
 8392TIP3    H225134   6.587   6.988   6.746
 8393TIP3   OH225135   2.566   1.355   6.087
 8393TIP3    H125136   2.583   1.343   6.181
 8393TIP3    H225137   2.611   1.437   6.065
 8394TIP3   OH225138   2.936   7.766   5.585
 8394TIP3    H125139   2.863   7.773   5.523
 8394TIP3    H225140   2.909   7.696   5.645
 8395TIP3   OH225141   6.351   2.950   2.595
 8395TIP3    H125142   6.396   3.024   2.554
 8395TIP3    H225143   6.407   2.926   2.669
 8396TIP3   OH225144   3.603   5.474   2.563
 8396TIP3    H125145   3.553   5.535   2.508
 8396TIP3    H225146   3.654   5.531   2.621
 8397TIP3   OH225147   4.728   3.117   6.297
 8397TIP3    H125148   4.700   3.041   6.348
 8397TIP3    H225149   4.667   3.186   6.322
 8398TIP3   OH225150   4.552   7.269   2.534
 8398TIP3    H125151   4.590   7.182   2.518
 8398TIP3    H225152   4.623   7.320   2.573
 8399TIP3   OH225153   7.356   5.304   5.131
 8399TIP3    H125154   7.401   5.233   5.178
 8399TIP3    H225155   7.372   5.382   5.184
 8400TIP3   OH225156   5.660   6.597   4.605
 8400TIP3    H125157   5.722   6.661   4.641
 8400TIP3    H225158   5.626   6.639   4.526
 8401TIP3   OH225159   6.987   5.339   4.117
 8401TIP3    H125160   6.958   5.430   4.111
 8401TIP3    H225161   6.939   5.293   4.049
 8402TIP3   OH225162   3.350   2.832   2.809
 8402TIP3    H125163   3.427   2.776   2.801
 8402TIP3    H225164   3.315   2.813   2.896
 8403TIP3   OH225165   3.992   1.603   1.845
 8403TIP3    H125166   4.057   1.618   1.914
 8403TIP3    H225167   4.043   1.570   1.771
 8404TIP3   OH225168   4.153   1.836   6.311
 8404TIP3    H125169   4.224   1.796   6.261
 8404TIP3    H225170   4.113   1.764   6.359
 8405TIP3   OH225171   5.227   2.302   5.863
 8405TIP3    H125172   5.214   2.327   5.771
 8405TIP3    H225173   5.322   2.290   5.871
 8406TIP3   OH225174   0.329   7.236   3.750
 8406TIP3    H125175   0.322   7.191   3.834
 8406TIP3    H225176   0.257   7.299   3.751
 8407TIP3   OH225177   0.003   5.830   5.052
 8407TIP3    H125178   0.061   5.827   4.976
 8407TIP3    H225179   0.057   5.866   5.122
 8408TIP3   OH225180   7.399   2.080   4.778
 8408TIP3    H125181   7.426   1.991   4.799
 8408TIP3    H225182   7.376   2.077   4.685
 8409TIP3   OH225183   4.611   2.388   2.136
 8409TIP3    H125184   4.550   2.361   2.204
 8409TIP3    H225185   4.625   2.482   2.151
 8410TIP3   OH225186   7.673   6.676   1.039
 8410TIP3    H125187   7.702   6.638   1.122
 8410TIP3    H225188   7.597   6.729   1.062
 8411TIP3   OH225189   0.997   3.842   3.942
 8411TIP3    H125190   1.053   3.891   3.883
 8411TIP3    H225191   0.924   3.901   3.961
 8412TIP3   OH225192   7.865   3.133   0.974
 8412TIP3    H125193   7.900   3.079   1.045
 8412TIP3    H225194   7.854   3.073   0.901
 8413TIP3   OH225195   7.755   5.111   1.264
 8413TIP3    H125196   7.700   5.077   1.334
 8413TIP3    H225197   7.738   5.053   1.190
 8414TIP3   OH225198   6.364   0.378   6.252
 8414TIP3    H125199   6.298   0.399   6.185
 8414TIP3    H225200   6.313   0.337   6.322
 8415TIP3   OH225201   4.044   4.732   4.782
 8415TIP3    H125202   3.971   4.793   4.793
 8415TIP3    H225203   4.112   4.785   4.740
 8416TIP3   OH225204   7.857   5.537   3.145
 8416TIP3    H125205   7.941   5.497   3.168
 8416TIP3    H225206   7.851   5.613   3.203
 8417TIP3   OH225207   5.870   4.776   2.339
 8417TIP3    H125208   5.923   4.843   2.297
 8417TIP3    H225209   5.854   4.711   2.271
 8418TIP3   OH225210   8.059   3.594   6.774
 8418TIP3    H125211   8.061   3.674   6.826
 8418TIP3    H225212   7.980   3.601   6.721
 8419TIP3   OH225213   3.151   4.993   0.180
 8419TIP3    H125214   3.242   5.018   0.165
 8419TIP3    H225215   3.099   5.058   0.132
 8420TIP3   OH225216   2.031   1.405   0.586
 8420TIP3    H125217   2.111   1.358   0.612
 8420TIP3    H225218   1.984   1.419   0.668
 8421TIP3   OH225219   3.417   0.037   2.280
 8421TIP3    H125220   3.352   0.047   2.349
 8421TIP3    H225221   3.501   0.037   2.326
 8422TIP3   OH225222   7.163   4.085   3.879
 8422TIP3    H125223   7.215   4.124   3.809
 8422TIP3    H225224   7.076   4.124   3.869
 8423TIP3   OH225225   5.361   5.551   1.314
 8423TIP3    H125226   5.271   5.569   1.286
 8423TIP3    H225227   5.415   5.582   1.241
 8424TIP3   OH225228   3.038   1.235   4.559
 8424TIP3    H125229   2.945   1.219   4.546
 8424TIP3    H225230   3.059   1.188   4.639
 8425TIP3   OH225231   1.873   6.161   0.457
 8425TIP3    H125232   1.857   6.074   0.493
 8425TIP3    H225233   1.796   6.179   0.403
 8426TIP3   OH225234   7.918   4.749   4.742
 8426TIP3    H125235   7.941   4.664   4.780
 8426TIP3    H225236   7.934   4.739   4.648
 8427TIP3   OH225237   4.554   4.187   1.659
 8427TIP3    H125238   4.541   4.274   1.622
 8427TIP3    H225239   4.478   4.137   1.631
 8428TIP3   OH225240   5.601   5.270   6.595
 8428TIP3    H125241   5.542   5.343   6.576
 8428TIP3    H225242   5.599   5.262   6.691
 8429TIP3   OH225243   4.842   5.742   0.192
 8429TIP3    H125244   4.806   5.704   0.272
 8429TIP3    H225245   4.789   5.704   0.122
 8430TIP3   OH225246   7.779   4.226   3.040
 8430TIP3    H125247   7.849   4.161   3.040
 8430TIP3    H225248   7.821   4.307   3.070
 8431TIP3   OH225249   7.492   7.154   6.536
 8431TIP3    H125250   7.414   7.209   6.527
 8431TIP3    H225251   7.558   7.212   6.573
 8432TIP3   OH225252   2.314   4.026   1.411
 8432TIP3    H125253   2.320   4.092   1.480
 8432TIP3    H225254   2.382   4.050   1.348
 8433TIP3   OH225255   2.627   5.352   3.890
 8433TIP3    H125256   2.620   5.435   3.937
 8433TIP3    H225257   2.599   5.372   3.801
 8434TIP3   OH225258   3.795   0.710   5.117
 8434TIP3    H125259   3.835   0.710   5.030
 8434TIP3    H225260   3.862   0.748   5.174
 8435TIP3   OH225261   7.912   3.181   0.556
 8435TIP3    H125262   7.911   3.230   0.473
 8435TIP3    H225263   7.839   3.119   0.549
 8436TIP3   OH225264   6.357   1.566   4.050
 8436TIP3    H125265   6.423   1.633   4.036
 8436TIP3    H225266   6.402   1.498   4.100
 8437TIP3   OH225267   6.071   3.998   2.783
 8437TIP3    H125268   6.060   3.923   2.724
 8437TIP3    H225269   6.145   3.976   2.838
 8438TIP3   OH225270   5.363   1.521   5.304
 8438TIP3    H125271   5.359   1.558   5.392
 8438TIP3    H225272   5.284   1.553   5.260
 8439TIP3   OH225273   1.993   3.599   2.601
 8439TIP3    H125274   2.046   3.543   2.544
 8439TIP3    H225275   2.023   3.578   2.689
 8440TIP3   OH225276   4.055   2.691   0.834
 8440TIP3    H125277   4.144   2.660   0.853
 8440TIP3    H225278   4.068   2.778   0.796
 8441TIP3   OH225279   0.481   1.823   2.294
 8441TIP3    H125280   0.464   1.729   2.302
 8441TIP3    H225281   0.550   1.841   2.358
 8442TIP3   OH225282   0.981   7.164   3.300
 8442TIP3    H125283   0.956   7.167   3.207
 8442TIP3    H225284   1.075   7.147   3.298
 8443TIP3   OH225285   5.510   0.810   0.144
 8443TIP3    H125286   5.577   0.807   0.213
 8443TIP3    H225287   5.430   0.838   0.189
 8444TIP3   OH225288   2.320   0.407   2.539
 8444TIP3    H125289   2.389   0.369   2.483
 8444TIP3    H225290   2.336   0.370   2.625
 8445TIP3   OH225291   3.366   5.996   6.058
 8445TIP3    H125292   3.274   5.982   6.079
 8445TIP3    H225293   3.371   5.990   5.963
 8446TIP3   OH225294   5.479   5.790   5.367
 8446TIP3    H125295   5.502   5.864   5.423
 8446TIP3    H225296   5.387   5.802   5.347
 8447TIP3   OH225297   2.397   1.676   3.562
 8447TIP3    H125298   2.452   1.703   3.636
 8447TIP3    H225299   2.458   1.665   3.489
 8448TIP3   OH225300   4.452   6.143   0.552
 8448TIP3    H125301   4.377   6.194   0.582
 8448TIP3    H225302   4.447   6.061   0.601
 8449TIP3   OH225303   7.608   2.065   4.510
 8449TIP3    H125304   7.575   1.977   4.494
 8449TIP3    H225305   7.577   2.116   4.435
 8450TIP3   OH225306   4.811   6.533   4.502
 8450TIP3    H125307   4.799   6.618   4.460
 8450TIP3    H225308   4.787   6.469   4.435
 8451TIP3   OH225309   2.192   4.736   1.224
 8451TIP3    H125310   2.274   4.774   1.194
 8451TIP3    H225311   2.210   4.642   1.229
 8452TIP3   OH225312   7.559   2.432   4.581
 8452TIP3    H125313   7.636   2.375   4.590
 8452TIP3    H225314   7.558   2.456   4.489
 8453TIP3   OH225315   0.820   4.892   4.958
 8453TIP3    H125316   0.773   4.811   4.937
 8453TIP3    H225317   0.766   4.934   5.025
 8454TIP3   OH225318   4.311   4.498   4.156
 8454TIP3    H125319   4.329   4.453   4.239
 8454TIP3    H225320   4.323   4.430   4.089
 8455TIP3   OH225321   2.473   3.616   0.130
 8455TIP3    H125322   2.419   3.539   0.142
 8455TIP3    H225323   2.527   3.596   0.053
 8456TIP3   OH225324   7.498   1.734   1.770
 8456TIP3    H125325   7.408   1.768   1.772
 8456TIP3    H225326   7.493   1.656   1.716
 8457TIP3   OH225327   7.268   0.804   5.713
 8457TIP3    H125328   7.258   0.809   5.618
 8457TIP3    H225329   7.293   0.712   5.729
 8458TIP3   OH225330   0.552   5.372   6.240
 8458TIP3    H125331   0.509   5.338   6.162
 8458TIP3    H225332   0.638   5.329   6.241
 8459TIP3   OH225333   4.807   2.368   1.285
 8459TIP3    H125334   4.840   2.386   1.372
 8459TIP3    H225335   4.865   2.415   1.226
 8460TIP3   OH225336   4.640   7.129   1.764
 8460TIP3    H125337   4.617   7.052   1.711
 8460TIP3    H225338   4.646   7.097   1.853
 8461TIP3   OH225339   2.164   7.437   6.665
 8461TIP3    H125340   2.139   7.497   6.735
 8461TIP3    H225341   2.095   7.371   6.664
 8462TIP3   OH225342   2.363   2.905   1.787
 8462TIP3    H125343   2.359   2.961   1.865
 8462TIP3    H225344   2.345   2.964   1.714
 8463TIP3   OH225345   2.211   5.901   2.121
 8463TIP3    H125346   2.291   5.948   2.097
 8463TIP3    H225347   2.234   5.808   2.112
 8464TIP3   OH225348   4.618   6.813   5.409
 8464TIP3    H125349   4.550   6.850   5.466
 8464TIP3    H225350   4.696   6.809   5.464
 8465TIP3   OH225351   4.180   6.405   6.529
 8465TIP3    H125352   4.112   6.467   6.557
 8465TIP3    H225353   4.132   6.332   6.490
 8466TIP3   OH225354   7.694   0.153   6.341
 8466TIP3    H125355   7.689   0.075   6.285
 8466TIP3    H225356   7.688   0.118   6.430
 8467TIP3   OH225357   2.721   1.521   4.298
 8467TIP3    H125358   2.796   1.548   4.245
 8467TIP3    H225359   2.659   1.485   4.235
 8468TIP3   OH225360   3.632   7.452   1.058
 8468TIP3    H125361   3.625   7.507   1.136
 8468TIP3    H225362   3.621   7.363   1.092
 8469TIP3   OH225363   5.354   6.490   5.656
 8469TIP3    H125364   5.373   6.396   5.654
 8469TIP3    H225365   5.365   6.515   5.747
 8470TIP3   OH225366   4.424   1.773   4.118
 8470TIP3    H125367   4.342   1.772   4.069
 8470TIP3    H225368   4.426   1.859   4.160
 8471TIP3   OH225369   1.345   1.948   0.630
 8471TIP3    H125370   1.405   1.909   0.566
 8471TIP3    H225371   1.258   1.922   0.601
 8472TIP3   OH225372   2.215   4.372   0.327
 8472TIP3    H125373   2.200   4.310   0.399
 8472TIP3    H225374   2.235   4.316   0.252
 8473TIP3   OH225375   7.523   3.438   0.608
 8473TIP3    H125376   7.599   3.492   0.586
 8473TIP3    H225377   7.481   3.419   0.524
 8474TIP3   OH225378   3.303   2.843   4.960
 8474TIP3    H125379   3.349   2.769   4.999
 8474TIP3    H225380   3.232   2.803   4.909
 8475TIP3   OH225381   3.043   5.330   2.352
 8475TIP3    H125382   2.989   5.407   2.334
 8475TIP3    H225383   3.051   5.287   2.267
 8476TIP3   OH225384   7.260   2.163   2.318
 8476TIP3    H125385   7.182   2.215   2.297
 8476TIP3    H225386   7.320   2.180   2.246
 8477TIP3   OH225387   5.807   6.290   1.969
 8477TIP3    H125388   5.778   6.199   1.969
 8477TIP3    H225389   5.733   6.338   1.931
 8478TIP3   OH225390   4.041   6.897   2.397
 8478TIP3    H125391   4.074   6.838   2.330
 8478TIP3    H225392   4.109   6.897   2.465
 8479TIP3   OH225393   6.851   3.234   4.998
 8479TIP3    H125394   6.783   3.296   5.024
 8479TIP3    H225395   6.863   3.248   4.905
 8480TIP3   OH225396   0.865   3.074   1.336
 8480TIP3    H125397   0.913   3.033   1.408
 8480TIP3    H225398   0.910   3.157   1.322
 8481TIP3   OH225399   4.330   4.095   0.425
 8481TIP3    H125400   4.242   4.124   0.451
 8481TIP3    H225401   4.351   4.024   0.486
 8482TIP3   OH225402   2.224   6.768   4.477
 8482TIP3    H125403   2.143   6.802   4.439
 8482TIP3    H225404   2.210   6.772   4.572
 8483TIP3   OH225405   0.026   7.063   5.360
 8483TIP3    H125406   0.077   6.986   5.383
 8483TIP3    H225407  -0.055   7.055   5.411
 8484TIP3   OH225408   0.576   1.980   3.401
 8484TIP3    H125409   0.617   2.063   3.379
 8484TIP3    H225410   0.502   1.972   3.341
 8485TIP3   OH225411   3.537   0.517   4.446
 8485TIP3    H125412   3.464   0.472   4.404
 8485TIP3    H225413   3.535   0.606   4.409
 8486TIP3   OH225414   7.941   3.707   5.380
 8486TIP3    H125415   8.021   3.682   5.333
 8486TIP3    H225416   7.882   3.633   5.367
 8487TIP3   OH225417   6.108   0.594   3.708
 8487TIP3    H125418   6.124   0.633   3.794
 8487TIP3    H225419   6.016   0.613   3.689
 8488TIP3   OH225420   6.797   2.624   2.991
 8488TIP3    H125421   6.845   2.549   2.954
 8488TIP3    H225422   6.823   2.698   2.937
 8489TIP3   OH225423   0.507   5.848   2.954
 8489TIP3    H125424   0.595   5.831   2.921
 8489TIP3    H225425   0.506   5.942   2.972
 8490TIP3   OH225426   8.166   6.479   1.657
 8490TIP3    H125427   8.175   6.400   1.604
 8490TIP3    H225428   8.241   6.534   1.631
 8491TIP3   OH225429   1.564   6.646   5.515
 8491TIP3    H125430   1.648   6.692   5.519
 8491TIP3    H225431   1.513   6.696   5.451
 8492TIP3   OH225432   8.250   6.447   3.410
 8492TIP3    H125433   8.295   6.403   3.337
 8492TIP3    H225434   8.256   6.540   3.389
 8493TIP3   OH225435   5.497   7.040   2.628
 8493TIP3    H125436   5.591   7.034   2.643
 8493TIP3    H225437   5.488   7.109   2.561
 8494TIP3   OH225438   0.434   5.567   3.908
 8494TIP3    H125439   0.502   5.618   3.864
 8494TIP3    H225440   0.361   5.565   3.845
 8495TIP3   OH225441   4.739   7.426   2.644
 8495TIP3    H125442   4.767   7.477   2.568
 8495TIP3    H225443   4.725   7.492   2.712
 8496TIP3   OH225444   6.898   5.694   2.853
 8496TIP3    H125445   6.966   5.629   2.872
 8496TIP3    H225446   6.855   5.710   2.937
 8497TIP3   OH225447   7.760   5.916   2.561
 8497TIP3    H125448   7.680   5.881   2.599
 8497TIP3    H225449   7.808   5.839   2.530
 8498TIP3   OH225450   7.097   6.392   5.105
 8498TIP3    H125451   7.014   6.424   5.070
 8498TIP3    H225452   7.106   6.304   5.068
 8499TIP3   OH225453   4.535   5.872   2.907
 8499TIP3    H125454   4.546   5.853   2.814
 8499TIP3    H225455   4.584   5.953   2.921
 8500TIP3   OH225456   7.542   4.821   3.240
 8500TIP3    H125457   7.537   4.916   3.236
 8500TIP3    H225458   7.455   4.791   3.213
 8501TIP3   OH225459   1.179   0.122   0.161
 8501TIP3    H125460   1.205   0.190   0.099
 8501TIP3    H225461   1.211   0.153   0.245
 8502TIP3   OH225462   2.520   5.949   2.061
 8502TIP3    H125463   2.538   5.872   2.116
 8502TIP3    H225464   2.577   6.017   2.095
 8503TIP3   OH225465   0.603   0.797   1.108
 8503TIP3    H125466   0.621   0.891   1.115
 8503TIP3    H225467   0.655   0.758   1.178
 8504TIP3   OH225468   2.551   6.143   6.355
 8504TIP3    H125469   2.620   6.174   6.295
 8504TIP3    H225470   2.476   6.199   6.336
 8505TIP3   OH225471   7.957   5.133   6.130
 8505TIP3    H125472   7.888   5.088   6.179
 8505TIP3    H225473   7.913   5.209   6.092
 8506TIP3   OH225474   6.733   1.049   1.743
 8506TIP3    H125475   6.648   1.053   1.699
 8506TIP3    H225476   6.787   0.994   1.687
 8507TIP3   OH225477   2.582   0.728   3.272
 8507TIP3    H125478   2.656   0.778   3.306
 8507TIP3    H225479   2.577   0.651   3.329
 8508TIP3   OH225480   5.530   2.952   5.987
 8508TIP3    H125481   5.504   2.872   6.033
 8508TIP3    H225482   5.464   3.016   6.011
 8509TIP3   OH225483   5.015   6.780   2.215
 8509TIP3    H125484   4.950   6.710   2.217
 8509TIP3    H225485   4.983   6.844   2.279
 8510TIP3   OH225486   6.553   3.898   6.450
 8510TIP3    H125487   6.544   3.847   6.370
 8510TIP3    H225488   6.504   3.978   6.433
 8511TIP3   OH225489   0.220   5.159   1.517
 8511TIP3    H125490   0.237   5.224   1.585
 8511TIP3    H225491   0.125   5.159   1.507
 8512TIP3   OH225492   0.372   1.963   5.880
 8512TIP3    H125493   0.392   2.052   5.851
 8512TIP3    H225494   0.401   1.961   5.971
 8513TIP3   OH225495   2.322   6.726   1.811
 8513TIP3    H125496   2.264   6.706   1.885
 8513TIP3    H225497   2.321   6.821   1.804
 8514TIP3   OH225498   4.969   2.491   1.105
 8514TIP3    H125499   4.893   2.549   1.109
 8514TIP3    H225500   5.002   2.502   1.016
 8515TIP3   OH225501   0.896   2.572   1.143
 8515TIP3    H125502   0.909   2.508   1.213
 8515TIP3    H225503   0.967   2.635   1.155
 8516TIP3   OH225504   4.218   1.550   1.249
 8516TIP3    H125505   4.300   1.567   1.294
 8516TIP3    H225506   4.242   1.544   1.156
 8517TIP3   OH225507   6.299   0.428   2.529
 8517TIP3    H125508   6.229   0.370   2.556
 8517TIP3    H225509   6.279   0.512   2.570
 8518TIP3   OH225510   7.133   0.094   6.272
 8518TIP3    H125511   7.151   0.183   6.241
 8518TIP3    H225512   7.080   0.055   6.202
 8519TIP3   OH225513   4.898   0.714   3.274
 8519TIP3    H125514   4.900   0.807   3.297
 8519TIP3    H225515   4.952   0.708   3.195
 8520TIP3   OH225516   0.818   0.184   2.197
 8520TIP3    H125517   0.858   0.122   2.258
 8520TIP3    H225518   0.888   0.208   2.137
 8521TIP3   OH225519   7.351   4.051   0.160
 8521TIP3    H125520   7.330   3.982   0.098
 8521TIP3    H225521   7.324   4.132   0.116
 8522TIP3   OH225522   2.502   6.501   1.923
 8522TIP3    H125523   2.575   6.542   1.969
 8522TIP3    H225524   2.443   6.573   1.901
 8523TIP3   OH225525   3.488   4.506   0.842
 8523TIP3    H125526   3.419   4.567   0.869
 8523TIP3    H225527   3.569   4.556   0.850
 8524TIP3   OH225528   2.883   0.138   2.144
 8524TIP3    H125529   2.927   0.212   2.102
 8524TIP3    H225530   2.860   0.080   2.071
 8525TIP3   OH225531   3.990   4.015   5.920
 8525TIP3    H125532   3.976   4.001   6.013
 8525TIP3    H225533   3.902   4.016   5.882
 8526TIP3   OH225534   6.569   4.254   2.036
 8526TIP3    H125535   6.567   4.163   2.007
 8526TIP3    H225536   6.634   4.296   1.980
 8527TIP3   OH225537   6.263   4.817   2.689
 8527TIP3    H125538   6.340   4.760   2.698
 8527TIP3    H225539   6.215   4.805   2.771
 8528TIP3   OH225540   1.699   7.081   0.462
 8528TIP3    H125541   1.615   7.087   0.507
 8528TIP3    H225542   1.761   7.057   0.531
 8529TIP3   OH225543   1.858   4.760   4.741
 8529TIP3    H125544   1.778   4.737   4.788
 8529TIP3    H225545   1.918   4.791   4.808
 8530TIP3   OH225546   6.245   0.880   1.109
 8530TIP3    H125547   6.155   0.861   1.135
 8530TIP3    H225548   6.275   0.800   1.066
 8531TIP3   OH225549   3.248   7.442   2.708
 8531TIP3    H125550   3.204   7.459   2.626
 8531TIP3    H225551   3.257   7.346   2.712
 8532TIP3   OH225552   7.012   5.802   2.491
 8532TIP3    H125553   7.024   5.848   2.408
 8532TIP3    H225554   6.918   5.787   2.496
 8533TIP3   OH225555   4.758   7.315   5.689
 8533TIP3    H125556   4.751   7.223   5.714
 8533TIP3    H225557   4.847   7.340   5.715
 8534TIP3   OH225558   4.875   2.182   4.227
 8534TIP3    H125559   4.892   2.094   4.260
 8534TIP3    H225560   4.852   2.169   4.135
 8535TIP3   OH225561   2.756   5.749   4.178
 8535TIP3    H125562   2.794   5.669   4.216
 8535TIP3    H225563   2.816   5.772   4.107
 8536TIP3   OH225564   5.076   6.081   4.630
 8536TIP3    H125565   5.014   6.021   4.670
 8536TIP3    H225566   5.024   6.129   4.565
 8537TIP3   OH225567   6.831   2.818   4.657
 8537TIP3    H125568   6.807   2.903   4.695
 8537TIP3    H225569   6.823   2.756   4.729
 8538TIP3   OH225570   2.529   5.926   6.126
 8538TIP3    H125571   2.536   6.011   6.170
 8538TIP3    H225572   2.540   5.946   6.033
 8539TIP3   OH225573   2.486   3.621   1.441
 8539TIP3    H125574   2.528   3.544   1.480
 8539TIP3    H225575   2.412   3.639   1.498
 8540TIP3   OH225576   2.910   7.246   0.797
 8540TIP3    H125577   2.869   7.220   0.879
 8540TIP3    H225578   2.926   7.340   0.806
 8541TIP3   OH225579   0.829   2.197   0.867
 8541TIP3    H125580   0.865   2.117   0.827
 8541TIP3    H225581   0.892   2.265   0.843
 8542TIP3   OH225582   6.278   5.670   1.233
 8542TIP3    H125583   6.256   5.763   1.226
 8542TIP3    H225584   6.361   5.661   1.187
 8543TIP3   OH225585   2.570   1.672   0.321
 8543TIP3    H125586   2.523   1.710   0.396
 8543TIP3    H225587   2.506   1.672   0.250
 8544TIP3   OH225588   0.407   2.019   5.365
 8544TIP3    H125589   0.487   2.060   5.334
 8544TIP3    H225590   0.387   1.953   5.298
 8545TIP3   OH225591   3.490   3.581   3.841
 8545TIP3    H125592   3.454   3.564   3.928
 8545TIP3    H225593   3.585   3.574   3.851
 8546TIP3   OH225594   0.960   4.679   3.324
 8546TIP3    H125595   1.014   4.755   3.346
 8546TIP3    H225596   1.013   4.603   3.351
 8547TIP3   OH225597   3.785   4.559   4.642
 8547TIP3    H125598   3.789   4.538   4.735
 8547TIP3    H225599   3.692   4.564   4.623
 8548TIP3   OH225600   0.173   4.411   2.422
 8548TIP3    H125601   0.225   4.486   2.394
 8548TIP3    H225602   0.093   4.450   2.458
 8549TIP3   OH225603   2.235   1.771   2.933
 8549TIP3    H125604   2.208   1.813   2.852
 8549TIP3    H225605   2.155   1.734   2.968
 8550TIP3   OH225606   5.966   3.288   3.819
 8550TIP3    H125607   6.052   3.248   3.830
 8550TIP3    H225608   5.982   3.382   3.824
 8551TIP3   OH225609   4.031   3.418   3.613
 8551TIP3    H125610   4.115   3.456   3.589
 8551TIP3    H225611   3.965   3.478   3.578
 8552TIP3   OH225612   4.034   3.676   3.099
 8552TIP3    H125613   3.991   3.696   3.182
 8552TIP3    H225614   4.066   3.587   3.109
 8553TIP3   OH225615   1.634   1.003   0.433
 8553TIP3    H125616   1.708   1.034   0.381
 8553TIP3    H225617   1.605   0.923   0.389
 8554TIP3   OH225618   1.597   6.881   5.846
 8554TIP3    H125619   1.532   6.815   5.871
 8554TIP3    H225620   1.676   6.830   5.828
 8555TIP3   OH225621   1.102   0.758   1.725
 8555TIP3    H125622   1.138   0.787   1.641
 8555TIP3    H225623   1.053   0.679   1.705
 8556TIP3   OH225624   0.957   4.922   4.051
 8556TIP3    H125625   0.980   5.006   4.091
 8556TIP3    H225626   0.879   4.893   4.098
 8557TIP3   OH225627   2.791   6.988   3.885
 8557TIP3    H125628   2.874   6.942   3.893
 8557TIP3    H225629   2.765   6.977   3.793
 8558TIP3   OH225630   0.948   0.753   1.082
 8558TIP3    H125631   0.881   0.696   1.044
 8558TIP3    H225632   0.964   0.819   1.014
 8559TIP3   OH225633   6.836   6.526   2.377
 8559TIP3    H125634   6.923   6.495   2.352
 8559TIP3    H225635   6.840   6.621   2.367
 8560TIP3   OH225636   2.653   4.693   1.580
 8560TIP3    H125637   2.587   4.724   1.642
 8560TIP3    H225638   2.698   4.773   1.551
 8561TIP3   OH225639   5.169   4.421   0.351
 8561TIP3    H125640   5.263   4.405   0.336
 8561TIP3    H225641   5.163   4.440   0.444
 8562TIP3   OH225642   7.349   3.822   5.007
 8562TIP3    H125643   7.361   3.732   4.979
 8562TIP3    H225644   7.427   3.868   4.976
 8563TIP3   OH225645   4.371   1.661   2.524
 8563TIP3    H125646   4.403   1.606   2.596
 8563TIP3    H225647   4.379   1.750   2.557
 8564TIP3   OH225648   1.917   0.220   1.538
 8564TIP3    H125649   1.892   0.263   1.620
 8564TIP3    H225650   1.879   0.275   1.469
 8565TIP3   OH225651   1.716   4.866   2.888
 8565TIP3    H125652   1.641   4.909   2.845
 8565TIP3    H225653   1.710   4.775   2.860
 8566TIP3   OH225654   4.031   0.408   5.330
 8566TIP3    H125655   4.051   0.436   5.240
 8566TIP3    H225656   3.936   0.414   5.336
 8567TIP3   OH225657   5.341   2.589   2.840
 8567TIP3    H125658   5.411   2.533   2.804
 8567TIP3    H225659   5.308   2.540   2.915
 8568TIP3   OH225660   7.855   6.983   6.022
 8568TIP3    H125661   7.928   6.972   6.083
 8568TIP3    H225662   7.885   7.050   5.961
 8569TIP3   OH225663   1.042   7.262   4.068
 8569TIP3    H125664   0.959   7.251   4.114
 8569TIP3    H225665   1.018   7.264   3.975
 8570TIP3   OH225666   0.059   4.005   1.158
 8570TIP3    H125667   0.094   4.076   1.212
 8570TIP3    H225668   0.136   3.956   1.128
 8571TIP3   OH225669   7.455   4.466   3.044
 8571TIP3    H125670   7.408   4.481   2.962
 8571TIP3    H225671   7.388   4.432   3.104
 8572TIP3   OH225672   6.267   5.099   1.400
 8572TIP3    H125673   6.178   5.099   1.366
 8572TIP3    H225674   6.271   5.023   1.457
 8573TIP3   OH225675   4.090   7.259   2.906
 8573TIP3    H125676   4.115   7.271   2.814
 8573TIP3    H225677   4.000   7.226   2.902
 8574TIP3   OH225678   0.119   3.179   4.042
 8574TIP3    H125679   0.036   3.175   4.091
 8574TIP3    H225680   0.098   3.141   3.957
 8575TIP3   OH225681   3.977   2.184   5.620
 8575TIP3    H125682   3.883   2.181   5.606
 8575TIP3    H225683   4.015   2.175   5.533
 8576TIP3   OH225684   2.015   4.438   3.689
 8576TIP3    H125685   2.071   4.438   3.766
 8576TIP3    H225686   1.951   4.508   3.705
 8577TIP3   OH225687   4.683   0.786   1.597
 8577TIP3    H125688   4.719   0.813   1.682
 8577TIP3    H225689   4.698   0.861   1.540
 8578TIP3   OH225690   2.730   2.982   3.803
 8578TIP3    H125691   2.712   3.030   3.884
 8578TIP3    H225692   2.754   2.894   3.833
 8579TIP3   OH225693   4.015   2.878   4.633
 8579TIP3    H125694   4.047   2.885   4.723
 8579TIP3    H225695   4.094   2.886   4.579
 8580TIP3   OH225696   8.158   7.381   5.061
 8580TIP3    H125697   8.246   7.407   5.035
 8580TIP3    H225698   8.137   7.307   5.004
 8581TIP3   OH225699   7.397   5.231   2.426
 8581TIP3    H125700   7.321   5.277   2.391
 8581TIP3    H225701   7.430   5.180   2.351
 8582TIP3   OH225702   0.349   5.887   2.466
 8582TIP3    H125703   0.339   5.857   2.557
 8582TIP3    H225704   0.425   5.945   2.468
 8583TIP3   OH225705   0.701   3.600   2.455
 8583TIP3    H125706   0.630   3.610   2.518
 8583TIP3    H225707   0.745   3.519   2.480
 8584TIP3   OH225708   0.621   5.142   5.328
 8584TIP3    H125709   0.691   5.104   5.381
 8584TIP3    H225710   0.546   5.147   5.386
 8585TIP3   OH225711   7.856   2.865   5.760
 8585TIP3    H125712   7.880   2.951   5.796
 8585TIP3    H225713   7.893   2.802   5.822
 8586TIP3   OH225714   5.752   3.150   2.724
 8586TIP3    H125715   5.763   3.234   2.680
 8586TIP3    H225716   5.677   3.109   2.680
 8587TIP3   OH225717   2.197   3.054   0.473
 8587TIP3    H125718   2.216   2.976   0.526
 8587TIP3    H225719   2.111   3.037   0.435
 8588TIP3   OH225720   3.422   0.441   6.564
 8588TIP3    H125721   3.400   0.463   6.474
 8588TIP3    H225722   3.517   0.453   6.569
 8589TIP3   OH225723   0.609   4.237   2.337
 8589TIP3    H125724   0.581   4.279   2.256
 8589TIP3    H225725   0.621   4.145   2.314
 8590TIP3   OH225726   0.073   0.666   3.198
 8590TIP3    H125727   0.012   0.720   3.249
 8590TIP3    H225728   0.023   0.642   3.120
 8591TIP3   OH225729   5.583   7.582   3.490
 8591TIP3    H125730   5.626   7.664   3.514
 8591TIP3    H225731   5.498   7.586   3.534
 8592TIP3   OH225732   5.424   3.349   5.173
 8592TIP3    H125733   5.384   3.291   5.238
 8592TIP3    H225734   5.467   3.291   5.111
 8593TIP3   OH225735   6.607   0.651   5.500
 8593TIP3    H125736   6.679   0.675   5.558
 8593TIP3    H225737   6.561   0.582   5.546
 8594TIP3   OH225738   4.445   1.274   1.471
 8594TIP3    H125739   4.412   1.280   1.561
 8594TIP3    H225740   4.434   1.182   1.448
 8595TIP3   OH225741   7.093   6.564   3.215
 8595TIP3    H125742   7.056   6.618   3.284
 8595TIP3    H225743   7.059   6.601   3.134
 8596TIP3   OH225744   0.827   2.568   2.535
 8596TIP3    H125745   0.911   2.533   2.562
 8596TIP3    H225746   0.808   2.638   2.597
 8597TIP3   OH225747   6.900   6.255   2.120
 8597TIP3    H125748   6.966   6.283   2.182
 8597TIP3    H225749   6.868   6.336   2.080
 8598TIP3   OH225750   1.899   7.456   0.017
 8598TIP3    H125751   1.878   7.540   0.057
 8598TIP3    H225752   1.995   7.451   0.021
 8599TIP3   OH225753   3.200   3.544   1.419
 8599TIP3    H125754   3.199   3.592   1.502
 8599TIP3    H225755   3.266   3.588   1.366
 8600TIP3   OH225756   5.452   2.306   0.679
 8600TIP3    H125757   5.527   2.324   0.622
 8600TIP3    H225758   5.378   2.298   0.619
 8601TIP3   OH225759   4.503   1.599   0.397
 8601TIP3    H125760   4.479   1.545   0.473
 8601TIP3    H225761   4.468   1.686   0.418
 8602TIP3   OH225762   8.167   0.829   2.869
 8602TIP3    H125763   8.255   0.827   2.906
 8602TIP3    H225764   8.177   0.798   2.779
 8603TIP3   OH225765   3.888   2.025   4.509
 8603TIP3    H125766   3.838   2.076   4.444
 8603TIP3    H225767   3.917   2.090   4.573
 8604TIP3   OH225768   6.714   5.876   6.681
 8604TIP3    H125769   6.719   5.847   6.590
 8604TIP3    H225770   6.734   5.969   6.678
 8605TIP3   OH225771   1.371   4.230   3.540
 8605TIP3    H125772   1.285   4.211   3.577
 8605TIP3    H225773   1.433   4.205   3.608
 8606TIP3   OH225774   1.231   1.653   5.755
 8606TIP3    H125775   1.217   1.725   5.694
 8606TIP3    H225776   1.326   1.650   5.767
 8607TIP3   OH225777   3.014   3.756   2.657
 8607TIP3    H125778   3.065   3.679   2.635
 8607TIP3    H225779   3.027   3.816   2.583
 8608TIP3   OH225780   8.247   1.492   5.573
 8608TIP3    H125781   8.152   1.496   5.563
 8608TIP3    H225782   8.260   1.468   5.664
 8609TIP3   OH225783   7.499   7.136   4.735
 8609TIP3    H125784   7.506   7.174   4.822
 8609TIP3    H225785   7.428   7.184   4.693
 8610TIP3   OH225786   6.071   2.943   5.454
 8610TIP3    H125787   6.075   2.849   5.436
 8610TIP3    H225788   6.048   2.949   5.546
 8611TIP3   OH225789   5.511   1.597   4.777
 8611TIP3    H125790   5.487   1.579   4.868
 8611TIP3    H225791   5.490   1.516   4.730
 8612TIP3   OH225792   7.666   2.801   1.994
 8612TIP3    H125793   7.685   2.887   2.032
 8612TIP3    H225794   7.642   2.820   1.903
 8613TIP3   OH225795   5.924   1.357   3.065
 8613TIP3    H125796   5.974   1.359   3.147
 8613TIP3    H225797   5.894   1.266   3.058
 8614TIP3   OH225798   6.962   3.427   4.109
 8614TIP3    H125799   7.021   3.466   4.044
 8614TIP3    H225800   6.987   3.468   4.192
 8615TIP3   OH225801   4.335   0.360   2.090
 8615TIP3    H125802   4.248   0.327   2.113
 8615TIP3    H225803   4.323   0.455   2.082
 8616TIP3   OH225804   0.221   7.590   4.600
 8616TIP3    H125805   0.195   7.580   4.508
 8616TIP3    H225806   0.167   7.527   4.647
 8617TIP3   OH225807   4.715   1.334   3.498
 8617TIP3    H125808   4.748   1.252   3.534
 8617TIP3    H225809   4.693   1.387   3.575
 8618TIP3   OH225810   3.780   5.072   0.376
 8618TIP3    H125811   3.731   4.990   0.372
 8618TIP3    H225812   3.840   5.068   0.302
 8619TIP3   OH225813   2.064   2.083   4.349
 8619TIP3    H125814   2.031   2.173   4.345
 8619TIP3    H225815   2.006   2.034   4.291
 8620TIP3   OH225816   2.946   5.877   1.181
 8620TIP3    H125817   3.002   5.811   1.222
 8620TIP3    H225818   2.873   5.827   1.144
 8621TIP3   OH225819   4.217   6.031   0.932
 8621TIP3    H125820   4.223   5.993   0.845
 8621TIP3    H225821   4.178   5.962   0.986
 8622TIP3   OH225822   0.782   0.898   3.381
 8622TIP3    H125823   0.776   0.803   3.372
 8622TIP3    H225824   0.807   0.928   3.294
 8623TIP3   OH225825   6.611   5.258   5.146
 8623TIP3    H125826   6.553   5.291   5.215
 8623TIP3    H225827   6.573   5.291   5.065
 8624TIP3   OH225828   1.348   4.010   2.687
 8624TIP3    H125829   1.361   3.995   2.593
 8624TIP3    H225830   1.436   4.020   2.723
 8625TIP3   OH225831   6.090   5.190   5.064
 8625TIP3    H125832   6.069   5.176   5.157
 8625TIP3    H225833   6.007   5.175   5.019
 8626TIP3   OH225834   1.559   6.949   2.714
 8626TIP3    H125835   1.643   6.975   2.678
 8626TIP3    H225836   1.531   7.024   2.767
 8627TIP3   OH225837   3.011   5.714   1.648
 8627TIP3    H125838   2.949   5.752   1.585
 8627TIP3    H225839   3.093   5.706   1.598
 8628TIP3   OH225840   3.663   7.713   5.412
 8628TIP3    H125841   3.663   7.721   5.507
 8628TIP3    H225842   3.689   7.799   5.380
 8629TIP3   OH225843   0.774   4.778   2.711
 8629TIP3    H125844   0.838   4.793   2.779
 8629TIP3    H225845   0.704   4.729   2.754
 8630TIP3   OH225846   3.225   5.401   2.721
 8630TIP3    H125847   3.190   5.466   2.660
 8630TIP3    H225848   3.204   5.316   2.680
 8631TIP3   OH225849   0.070   1.044   5.277
 8631TIP3    H125850   0.152   1.002   5.303
 8631TIP3    H225851   0.007   0.973   5.270
 8632TIP3   OH225852   5.281   0.425   6.462
 8632TIP3    H125853   5.354   0.372   6.431
 8632TIP3    H225854   5.209   0.405   6.402
 8633TIP3   OH225855   0.501   0.029   4.133
 8633TIP3    H125856   0.500   0.104   4.193
 8633TIP3    H225857   0.526   0.068   4.048
 8634TIP3   OH225858   3.814   2.325   1.823
 8634TIP3    H125859   3.831   2.232   1.808
 8634TIP3    H225860   3.777   2.329   1.911
 8635TIP3   OH225861   1.439   6.255   3.468
 8635TIP3    H125862   1.367   6.224   3.412
 8635TIP3    H225863   1.518   6.243   3.414
 8636TIP3   OH225864   0.769   1.932   4.391
 8636TIP3    H125865   0.693   1.914   4.447
 8636TIP3    H225866   0.806   1.846   4.373
 8637TIP3   OH225867   6.129   5.749   2.247
 8637TIP3    H125868   6.217   5.786   2.237
 8637TIP3    H225869   6.144   5.655   2.260
 8638TIP3   OH225870   6.586   3.435   0.715
 8638TIP3    H125871   6.547   3.396   0.637
 8638TIP3    H225872   6.669   3.471   0.685
 8639TIP3   OH225873   3.457   4.664   1.276
 8639TIP3    H125874   3.452   4.576   1.239
 8639TIP3    H225875   3.373   4.704   1.254
 8640TIP3   OH225876   1.086   2.754   1.216
 8640TIP3    H125877   1.045   2.815   1.154
 8640TIP3    H225878   1.164   2.722   1.171
 8641TIP3   OH225879   0.261   1.988   2.855
 8641TIP3    H125880   0.227   2.044   2.924
 8641TIP3    H225881   0.187   1.934   2.828
 8642TIP3   OH225882   6.937   1.491   0.191
 8642TIP3    H125883   6.902   1.538   0.115
 8642TIP3    H225884   7.031   1.484   0.174
 8643TIP3   OH225885   7.939   7.332   4.445
 8643TIP3    H125886   7.851   7.320   4.479
 8643TIP3    H225887   7.981   7.392   4.508
 8644TIP3   OH225888   1.626   6.459   1.660
 8644TIP3    H125889   1.716   6.428   1.663
 8644TIP3    H225890   1.628   6.532   1.598
 8645TIP3   OH225891   7.822   2.081   5.466
 8645TIP3    H125892   7.763   2.120   5.530
 8645TIP3    H225893   7.860   2.006   5.511
 8646TIP3   OH225894   8.031   2.659   4.433
 8646TIP3    H125895   7.967   2.721   4.397
 8646TIP3    H225896   7.977   2.590   4.473
 8647TIP3   OH225897   1.405   4.628   6.758
 8647TIP3    H125898   1.357   4.679   6.823
 8647TIP3    H225899   1.465   4.690   6.716
 8648TIP3   OH225900   2.751   1.761   4.482
 8648TIP3    H125901   2.711   1.777   4.568
 8648TIP3    H225902   2.677   1.737   4.426
 8649TIP3   OH225903   4.066   4.252   4.070
 8649TIP3    H125904   4.021   4.333   4.045
 8649TIP3    H225905   3.996   4.192   4.095
 8650TIP3   OH225906   3.754   1.806   6.585
 8650TIP3    H125907   3.700   1.729   6.571
 8650TIP3    H225908   3.774   1.806   6.679
 8651TIP3   OH225909   2.753   6.636   1.045
 8651TIP3    H125910   2.818   6.614   0.978
 8651TIP3    H225911   2.731   6.551   1.085
 8652TIP3   OH225912   2.389   6.750   3.195
 8652TIP3    H125913   2.433   6.824   3.153
 8652TIP3    H225914   2.307   6.740   3.147
 8653TIP3   OH225915   6.899   0.270   5.035
 8653TIP3    H125916   6.888   0.263   5.129
 8653TIP3    H225917   6.809   0.270   5.001
 8654TIP3   OH225918   7.627   2.890   2.341
 8654TIP3    H125919   7.608   2.958   2.406
 8654TIP3    H225920   7.680   2.826   2.388
 8655TIP3   OH225921   3.677   7.247   0.154
 8655TIP3    H125922   3.607   7.219   0.214
 8655TIP3    H225923   3.746   7.182   0.166
 8656TIP3   OH225924   1.974   1.040   1.791
 8656TIP3    H125925   1.990   0.950   1.818
 8656TIP3    H225926   2.047   1.089   1.827
 8657TIP3   OH225927   8.287   4.868   1.337
 8657TIP3    H125928   8.207   4.845   1.290
 8657TIP3    H225929   8.333   4.785   1.349
 8658TIP3   OH225930   6.608   3.209   5.607
 8658TIP3    H125931   6.589   3.150   5.680
 8658TIP3    H225932   6.592   3.156   5.529
 8659TIP3   OH225933   3.678   4.226   2.172
 8659TIP3    H125934   3.683   4.231   2.267
 8659TIP3    H225935   3.715   4.140   2.151
 8660TIP3   OH225936   5.443   7.831   3.210
 8660TIP3    H125937   5.486   7.809   3.128
 8660TIP3    H225938   5.368   7.772   3.214
 8661TIP3   OH225939   7.077   5.532   1.873
 8661TIP3    H125940   7.072   5.473   1.798
 8661TIP3    H225941   7.007   5.501   1.932
 8662TIP3   OH225942   6.487   0.272   0.013
 8662TIP3    H125943   6.392   0.275   0.026
 8662TIP3    H225944   6.518   0.359   0.038
 8663TIP3   OH225945   3.246   6.308   5.063
 8663TIP3    H125946   3.307   6.234   5.071
 8663TIP3    H225947   3.159   6.267   5.066
 8664TIP3   OH225948   4.534   2.449   4.043
 8664TIP3    H125949   4.549   2.360   4.076
 8664TIP3    H225950   4.446   2.471   4.072
 8665TIP3   OH225951   7.344   0.500   6.633
 8665TIP3    H125952   7.376   0.445   6.562
 8665TIP3    H225953   7.321   0.583   6.590
 8666TIP3   OH225954   6.680   4.585   5.348
 8666TIP3    H125955   6.664   4.546   5.262
 8666TIP3    H225956   6.661   4.515   5.410
 8667TIP3   OH225957   5.606   2.932   1.162
 8667TIP3    H125958   5.692   2.891   1.174
 8667TIP3    H225959   5.626   3.025   1.153
 8668TIP3   OH225960   2.988   0.042   1.514
 8668TIP3    H125961   2.936   0.086   1.582
 8668TIP3    H225962   2.988  -0.050   1.541
 8669TIP3   OH225963   6.292   0.648   2.675
 8669TIP3    H125964   6.366   0.676   2.621
 8669TIP3    H225965   6.303   0.695   2.757
 8670TIP3   OH225966   1.151   2.681   0.525
 8670TIP3    H125967   1.091   2.728   0.583
 8670TIP3    H225968   1.104   2.601   0.501
 8671TIP3   OH225969   3.083   7.505   5.333
 8671TIP3    H125970   3.143   7.509   5.259
 8671TIP3    H225971   3.010   7.561   5.306
 8672TIP3   OH225972   4.588   3.883   4.679
 8672TIP3    H125973   4.630   3.966   4.658
 8672TIP3    H225974   4.651   3.816   4.652
 8673TIP3   OH225975   6.031   4.168   6.708
 8673TIP3    H125976   6.076   4.251   6.721
 8673TIP3    H225977   5.985   4.178   6.625
 8674TIP3   OH225978   1.401   1.795   0.084
 8674TIP3    H125979   1.457   1.756   0.151
 8674TIP3    H225980   1.403   1.733   0.011
 8675TIP3   OH225981   3.750   0.805   0.839
 8675TIP3    H125982   3.767   0.888   0.794
 8675TIP3    H225983   3.775   0.738   0.775
 8676TIP3   OH225984   1.158   6.025   0.281
 8676TIP3    H125985   1.099   6.032   0.207
 8676TIP3    H225986   1.102   5.999   0.354
 8677TIP3   OH225987   2.386   3.455   3.886
 8677TIP3    H125988   2.338   3.537   3.881
 8677TIP3    H225989   2.468   3.473   3.840
 8678TIP3   OH225990   4.892   3.565   0.477
 8678TIP3    H125991   4.866   3.473   0.478
 8678TIP3    H225992   4.863   3.597   0.391
 8679TIP3   OH225993   0.937   4.402   4.054
 8679TIP3    H125994   1.006   4.416   4.119
 8679TIP3    H225995   0.905   4.313   4.072
 8680TIP3   OH225996   3.390   2.406   5.292
 8680TIP3    H125997   3.344   2.367   5.217
 8680TIP3    H225998   3.451   2.338   5.321
 8681TIP3   OH225999   1.123   7.055   4.874
 8681TIP3    H126000   1.042   7.069   4.923
 8681TIP3    H226001   1.191   7.095   4.927
 8682TIP3   OH226002   0.269   2.694   2.722
 8682TIP3    H126003   0.352   2.667   2.682
 8682TIP3    H226004   0.236   2.614   2.764
 8683TIP3   OH226005   0.954   4.526   1.866
 8683TIP3    H126006   0.938   4.465   1.794
 8683TIP3    H226007   0.923   4.610   1.832
 8684TIP3   OH226008   0.993   2.606   3.841
 8684TIP3    H126009   1.068   2.612   3.781
 8684TIP3    H226010   1.032   2.602   3.928
 8685TIP3   OH226011   3.527   6.940   5.823
 8685TIP3    H126012   3.473   6.927   5.745
 8685TIP3    H226013   3.520   6.857   5.871
 8686TIP3   OH226014   7.268   5.263   6.699
 8686TIP3    H126015   7.180   5.291   6.674
 8686TIP3    H226016   7.277   5.177   6.659
 8687TIP3   OH226017   1.093   6.399   1.054
 8687TIP3    H126018   1.108   6.305   1.042
 8687TIP3    H226019   1.128   6.418   1.141
 8688TIP3   OH226020   5.349   5.018   1.060
 8688TIP3    H126021   5.374   5.034   1.151
 8688TIP3    H226022   5.369   5.100   1.015
 8689TIP3   OH226023   2.354   2.247   0.694
 8689TIP3    H126024   2.405   2.295   0.759
 8689TIP3    H226025   2.415   2.229   0.623
 8690TIP3   OH226026   7.387   0.356   1.894
 8690TIP3    H126027   7.424   0.302   1.964
 8690TIP3    H226028   7.370   0.295   1.823
 8691TIP3   OH226029   5.108   0.747   2.256
 8691TIP3    H126030   5.035   0.770   2.313
 8691TIP3    H226031   5.165   0.692   2.311
 8692TIP3   OH226032   4.102   0.993   1.490
 8692TIP3    H126033   4.007   0.989   1.474
 8692TIP3    H226034   4.127   1.082   1.464
 8693TIP3   OH226035   6.102   5.931   5.215
 8693TIP3    H126036   6.068   5.971   5.295
 8693TIP3    H226037   6.043   5.961   5.146
 8694TIP3   OH226038   3.240   5.984   1.130
 8694TIP3    H126039   3.244   6.022   1.043
 8694TIP3    H226040   3.161   6.021   1.169
 8695TIP3   OH226041   6.256   1.319   4.301
 8695TIP3    H126042   6.234   1.360   4.385
 8695TIP3    H226043   6.344   1.350   4.281
 8696TIP3   OH226044   0.586   0.460   0.262
 8696TIP3    H126045   0.592   0.523   0.190
 8696TIP3    H226046   0.494   0.462   0.288
 8697TIP3   OH226047   1.766   4.768   1.328
 8697TIP3    H126048   1.800   4.799   1.244
 8697TIP3    H226049   1.841   4.772   1.388
 8698TIP3   OH226050   2.090   4.207   1.754
 8698TIP3    H126051   2.144   4.280   1.784
 8698TIP3    H226052   2.048   4.174   1.833
 8699TIP3   OH226053   1.144   1.400   1.387
 8699TIP3    H126054   1.230   1.440   1.372
 8699TIP3    H226055   1.163   1.320   1.436
 8700TIP3   OH226056   3.244   7.517   5.134
 8700TIP3    H126057   3.328   7.521   5.179
 8700TIP3    H226058   3.246   7.591   5.073
 8701TIP3   OH226059   4.056   2.446   6.357
 8701TIP3    H126060   4.128   2.399   6.315
 8701TIP3    H226061   4.099   2.516   6.407
 8702TIP3   OH226062   3.468   6.807   3.576
 8702TIP3    H126063   3.395   6.782   3.520
 8702TIP3    H226064   3.432   6.807   3.664
 8703TIP3   OH226065   3.252   2.539   4.101
 8703TIP3    H126066   3.213   2.519   4.016
 8703TIP3    H226067   3.331   2.484   4.105
 8704TIP3   OH226068   0.687   3.351   4.041
 8704TIP3    H126069   0.718   3.262   4.024
 8704TIP3    H226070   0.737   3.406   3.982
 8705TIP3   OH226071   6.520   6.207   5.019
 8705TIP3    H126072   6.457   6.156   5.070
 8705TIP3    H226073   6.470   6.239   4.945
 8706TIP3   OH226074   3.831   2.346   5.282
 8706TIP3    H126075   3.910   2.300   5.310
 8706TIP3    H226076   3.841   2.356   5.187
 8707TIP3   OH226077   5.503   6.072   1.769
 8707TIP3    H126078   5.481   6.105   1.857
 8707TIP3    H226079   5.504   5.977   1.779
 8708TIP3   OH226080   2.633   5.674   6.266
 8708TIP3    H126081   2.629   5.722   6.349
 8708TIP3    H226082   2.592   5.733   6.202
 8709TIP3   OH226083   6.850   3.555   2.756
 8709TIP3    H126084   6.889   3.642   2.765
 8709TIP3    H226085   6.856   3.517   2.844
 8710TIP3   OH226086   3.091   6.560   3.952
 8710TIP3    H126087   3.014   6.598   3.995
 8710TIP3    H226088   3.101   6.474   3.993
 8711TIP3   OH226089   3.266   2.742   1.544
 8711TIP3    H126090   3.354   2.748   1.580
 8711TIP3    H226091   3.242   2.650   1.552
 8712TIP3   OH226092   7.285   0.471   3.915
 8712TIP3    H126093   7.304   0.516   3.833
 8712TIP3    H226094   7.309   0.533   3.983
 8713TIP3   OH226095   1.720   0.274   5.052
 8713TIP3    H126096   1.673   0.200   5.015
 8713TIP3    H226097   1.739   0.248   5.142
 8714TIP3   OH226098   1.493   6.857   6.144
 8714TIP3    H126099   1.515   6.853   6.238
 8714TIP3    H226100   1.549   6.926   6.110
 8715TIP3   OH226101   5.762   4.934   1.971
 8715TIP3    H126102   5.812   4.880   1.909
 8715TIP3    H226103   5.815   5.013   1.982
 8716TIP3   OH226104   1.405   1.307   5.906
 8716TIP3    H126105   1.474   1.242   5.917
 8716TIP3    H226106   1.324   1.260   5.925
 8717TIP3   OH226107   1.627   3.744   2.508
 8717TIP3    H126108   1.651   3.836   2.516
 8717TIP3    H226109   1.589   3.722   2.594
 8718TIP3   OH226110   5.054   2.052   0.324
 8718TIP3    H126111   4.982   2.017   0.377
 8718TIP3    H226112   5.063   1.990   0.252
 8719TIP3   OH226113   4.967   3.633   2.943
 8719TIP3    H126114   5.014   3.630   3.026
 8719TIP3    H226115   5.003   3.560   2.892
 8720TIP3   OH226116   2.335   1.008   0.364
 8720TIP3    H126117   2.314   1.032   0.274
 8720TIP3    H226118   2.260   1.038   0.415
 8721TIP3   OH226119   6.849   3.377   6.759
 8721TIP3    H126120   6.914   3.443   6.783
 8721TIP3    H226121   6.778   3.427   6.720
 8722TIP3   OH226122   2.083   1.472   1.655
 8722TIP3    H126123   2.014   1.511   1.708
 8722TIP3    H226124   2.146   1.437   1.719
 8723TIP3   OH226125   5.437   4.386   0.394
 8723TIP3    H126126   5.499   4.355   0.328
 8723TIP3    H226127   5.429   4.313   0.455
 8724TIP3   OH226128   7.060   4.639   6.175
 8724TIP3    H126129   7.039   4.663   6.265
 8724TIP3    H226130   7.104   4.554   6.182
 8725TIP3   OH226131   0.212   2.837   3.116
 8725TIP3    H126132   0.296   2.802   3.088
 8725TIP3    H226133   0.155   2.760   3.122
 8726TIP3   OH226134   5.628   5.993   2.402
 8726TIP3    H126135   5.564   6.018   2.469
 8726TIP3    H226136   5.711   5.992   2.449
 8727TIP3   OH226137   5.314   1.837   1.361
 8727TIP3    H126138   5.225   1.872   1.366
 8727TIP3    H226139   5.335   1.836   1.268
 8728TIP3   OH226140   6.105   1.668   4.360
 8728TIP3    H126141   6.151   1.708   4.286
 8728TIP3    H226142   6.015   1.659   4.329
 8729TIP3   OH226143   2.805   0.459   3.201
 8729TIP3    H126144   2.733   0.485   3.259
 8729TIP3    H226145   2.767   0.395   3.142
 8730TIP3   OH226146   6.598   6.791   0.212
 8730TIP3    H126147   6.678   6.842   0.220
 8730TIP3    H226148   6.590   6.773   0.118
 8731TIP3   OH226149   6.561   3.804   5.416
 8731TIP3    H126150   6.534   3.776   5.504
 8731TIP3    H226151   6.651   3.772   5.408
 8732TIP3   OH226152   5.358   5.446   4.977
 8732TIP3    H126153   5.275   5.419   5.016
 8732TIP3    H226154   5.422   5.436   5.048
 8733TIP3   OH226155   2.105   7.598   0.291
 8733TIP3    H126156   2.094   7.534   0.221
 8733TIP3    H226157   2.025   7.589   0.344
 8734TIP3   OH226158   7.806   7.465   3.809
 8734TIP3    H126159   7.748   7.396   3.778
 8734TIP3    H226160   7.810   7.452   3.903
 8735TIP3   OH226161   2.551   1.997   3.435
 8735TIP3    H126162   2.578   1.912   3.401
 8735TIP3    H226163   2.631   2.035   3.473
 8736TIP3   OH226164   0.393   0.361   6.206
 8736TIP3    H126165   0.441   0.433   6.164
 8736TIP3    H226166   0.436   0.282   6.175
 8737TIP3   OH226167   7.502   1.344   1.249
 8737TIP3    H126168   7.578   1.286   1.245
 8737TIP3    H226169   7.447   1.316   1.175
 8738TIP3   OH226170   7.480   3.555   2.901
 8738TIP3    H126171   7.576   3.559   2.905
 8738TIP3    H226172   7.453   3.542   2.992
 8739TIP3   OH226173   5.030   6.827   3.470
 8739TIP3    H126174   4.959   6.867   3.520
 8739TIP3    H226175   5.021   6.733   3.486
 8740TIP3   OH226176   3.108   1.014   3.433
 8740TIP3    H126177   3.171   0.944   3.449
 8740TIP3    H226178   3.047   0.978   3.368
 8741TIP3   OH226179   3.467   2.659   2.563
 8741TIP3    H126180   3.489   2.616   2.646
 8741TIP3    H226181   3.391   2.611   2.531
 8742TIP3   OH226182   6.328   3.728   5.251
 8742TIP3    H126183   6.407   3.719   5.304
 8742TIP3    H226184   6.343   3.806   5.197
 8743TIP3   OH226185   0.430   3.660   0.945
 8743TIP3    H126186   0.420   3.589   1.008
 8743TIP3    H226187   0.525   3.671   0.936
 8744TIP3   OH226188   6.284   0.481   6.680
 8744TIP3    H126189   6.204   0.433   6.699
 8744TIP3    H226190   6.353   0.415   6.683
 8745TIP3   OH226191   0.181   1.067   2.542
 8745TIP3    H126192   0.132   1.126   2.601
 8745TIP3    H226193   0.114   1.030   2.485
 8746TIP3   OH226194   0.023   1.280   2.234
 8746TIP3    H126195  -0.048   1.327   2.190
 8746TIP3    H226196   0.019   1.309   2.325
 8747TIP3   OH226197   4.771   6.903   4.879
 8747TIP3    H126198   4.734   6.880   4.964
 8747TIP3    H226199   4.756   6.826   4.824
 8748TIP3   OH226200   5.427   5.691   6.345
 8748TIP3    H126201   5.494   5.694   6.277
 8748TIP3    H226202   5.361   5.753   6.316
 8749TIP3   OH226203   7.778   0.820   3.987
 8749TIP3    H126204   7.848   0.755   3.982
 8749TIP3    H226205   7.818   0.896   4.030
 8750TIP3   OH226206   1.514   0.345   0.721
 8750TIP3    H126207   1.548   0.320   0.635
 8750TIP3    H226208   1.420   0.350   0.709
 8751TIP3   OH226209   6.016   6.207   4.336
 8751TIP3    H126210   5.921   6.224   4.339
 8751TIP3    H226211   6.022   6.111   4.331
 8752TIP3   OH226212   6.871   3.352   4.728
 8752TIP3    H126213   6.816   3.429   4.740
 8752TIP3    H226214   6.957   3.387   4.704
 8753TIP3   OH226215   1.739   4.315   3.045
 8753TIP3    H126216   1.813   4.259   3.023
 8753TIP3    H226217   1.773   4.375   3.111
 8754TIP3   OH226218   4.555   0.449   2.774
 8754TIP3    H126219   4.465   0.469   2.751
 8754TIP3    H226220   4.590   0.402   2.699
 8755TIP3   OH226221   6.691   1.511   1.912
 8755TIP3    H126222   6.738   1.589   1.940
 8755TIP3    H226223   6.674   1.463   1.993
 8756TIP3   OH226224   5.261   0.629   4.487
 8756TIP3    H126225   5.245   0.586   4.403
 8756TIP3    H226226   5.274   0.556   4.549
 8757TIP3   OH226227   4.975   5.182   1.846
 8757TIP3    H126228   5.037   5.192   1.918
 8757TIP3    H226229   5.001   5.249   1.783
 8758TIP3   OH226230   1.404   4.695   0.873
 8758TIP3    H126231   1.315   4.712   0.905
 8758TIP3    H226232   1.461   4.725   0.944
 8759TIP3   OH226233   6.824   2.278   6.783
 8759TIP3    H126234   6.882   2.221   6.731
 8759TIP3    H226235   6.738   2.238   6.775
 8760TIP3   OH226236   2.627   4.496   3.370
 8760TIP3    H126237   2.713   4.514   3.408
 8760TIP3    H226238   2.581   4.580   3.375
 8761TIP3   OH226239   7.634   6.889   5.641
 8761TIP3    H126240   7.612   6.889   5.734
 8761TIP3    H226241   7.555   6.855   5.599
 8762TIP3   OH226242   7.349   3.366   0.415
 8762TIP3    H126243   7.279   3.317   0.459
 8762TIP3    H226244   7.302   3.423   0.354
 8763TIP3   OH226245   2.493   0.095   0.123
 8763TIP3    H126246   2.511   0.042   0.201
 8763TIP3    H226247   2.498   0.185   0.154
 8764TIP3   OH226248   3.187   7.346   0.341
 8764TIP3    H126249   3.095   7.330   0.321
 8764TIP3    H226250   3.186   7.384   0.429
 8765TIP3   OH226251   2.200   4.473   3.479
 8765TIP3    H126252   2.199   4.561   3.440
 8765TIP3    H226253   2.126   4.473   3.540
 8766TIP3   OH226254   6.997   5.125   1.671
 8766TIP3    H126255   6.927   5.067   1.699
 8766TIP3    H226256   7.075   5.093   1.717
 8767TIP3   OH226257   0.887   6.073   3.120
 8767TIP3    H126258   0.835   6.141   3.078
 8767TIP3    H226259   0.964   6.063   3.063
 8768TIP3   OH226260   4.758   3.682   4.575
 8768TIP3    H126261   4.815   3.663   4.500
 8768TIP3    H226262   4.670   3.662   4.543
 8769TIP3   OH226263   7.952   2.941   4.186
 8769TIP3    H126264   7.886   2.965   4.121
 8769TIP3    H226265   8.014   2.887   4.138
 8770TIP3   OH226266   6.970   1.574   6.474
 8770TIP3    H126267   7.002   1.527   6.397
 8770TIP3    H226268   7.002   1.664   6.461
 8771TIP3   OH226269   4.304   0.777   0.947
 8771TIP3    H126270   4.391   0.752   0.979
 8771TIP3    H226271   4.282   0.855   0.998
 8772TIP3   OH226272   4.838   2.639   5.578
 8772TIP3    H126273   4.895   2.658   5.652
 8772TIP3    H226274   4.889   2.663   5.501
 8773TIP3   OH226275   0.366   5.146   2.357
 8773TIP3    H126276   0.392   5.139   2.265
 8773TIP3    H226277   0.304   5.219   2.358
 8774TIP3   OH226278   3.018   6.633   1.657
 8774TIP3    H126279   3.090   6.660   1.600
 8774TIP3    H226280   2.939   6.657   1.608
 8775TIP3   OH226281   5.776   6.023   2.079
 8775TIP3    H126282   5.683   6.011   2.097
 8775TIP3    H226283   5.820   5.985   2.155
 8776TIP3   OH226284   3.291   0.022   3.989
 8776TIP3    H126285   3.244  -0.040   3.932
 8776TIP3    H226286   3.223   0.063   4.041
 8777TIP3   OH226287   4.170   4.302   3.514
 8777TIP3    H126288   4.248   4.306   3.458
 8777TIP3    H226289   4.196   4.245   3.587
 8778TIP3   OH226290   7.625   0.470   6.192
 8778TIP3    H126291   7.647   0.561   6.214
 8778TIP3    H226292   7.636   0.422   6.274
 8779TIP3   OH226293   5.477   4.300   2.053
 8779TIP3    H126294   5.511   4.303   2.142
 8779TIP3    H226295   5.383   4.317   2.062
 8780TIP3   OH226296   0.070   0.131   0.235
 8780TIP3    H126297  -0.014   0.137   0.280
 8780TIP3    H226298   0.076   0.211   0.183
 8781TIP3   OH226299   3.740   0.998   0.665
 8781TIP3    H126300   3.691   0.923   0.632
 8781TIP3    H226301   3.789   1.031   0.590
 8782TIP3   OH226302   7.696   6.453   3.782
 8782TIP3    H126303   7.772   6.407   3.748
 8782TIP3    H226304   7.671   6.513   3.711
 8783TIP3   OH226305   1.102   0.867   3.564
 8783TIP3    H126306   1.175   0.918   3.530
 8783TIP3    H226307   1.137   0.823   3.641
 8784TIP3   OH226308   3.891   5.076   6.095
 8784TIP3    H126309   3.962   5.049   6.036
 8784TIP3    H226310   3.811   5.045   6.052
 8785TIP3   OH226311   7.499   0.505   0.261
 8785TIP3    H126312   7.464   0.499   0.172
 8785TIP3    H226313   7.594   0.501   0.249
 8786TIP3   OH226314   0.285   3.718   3.108
 8786TIP3    H126315   0.231   3.718   3.187
 8786TIP3    H226316   0.265   3.634   3.066
 8787TIP3   OH226317   1.279   7.765   6.666
 8787TIP3    H126318   1.363   7.726   6.642
 8787TIP3    H226319   1.248   7.807   6.585
 8788TIP3   OH226320   7.610   7.387   6.722
 8788TIP3    H126321   7.701   7.414   6.737
 8788TIP3    H226322   7.597   7.314   6.782
 8789TIP3   OH226323   6.456   7.518   5.612
 8789TIP3    H126324   6.508   7.583   5.566
 8789TIP3    H226325   6.377   7.508   5.559
 8790TIP3   OH226326   7.539   3.601   1.907
 8790TIP3    H126327   7.581   3.686   1.898
 8790TIP3    H226328   7.583   3.546   1.842
 8791TIP3   OH226329   7.688   3.847   5.431
 8791TIP3    H126330   7.639   3.774   5.393
 8791TIP3    H226331   7.771   3.848   5.383
 8792TIP3   OH226332   5.134   0.214   3.989
 8792TIP3    H126333   5.099   0.215   4.078
 8792TIP3    H226334   5.067   0.168   3.937
 8793TIP3   OH226335   7.593   7.501   4.219
 8793TIP3    H126336   7.570   7.550   4.298
 8793TIP3    H226337   7.630   7.567   4.161
 8794TIP3   OH226338   8.112   0.866   6.418
 8794TIP3    H126339   8.123   0.920   6.496
 8794TIP3    H226340   8.065   0.789   6.449
 8795TIP3   OH226341   0.946   1.191   4.926
 8795TIP3    H126342   0.850   1.191   4.925
 8795TIP3    H226343   0.970   1.103   4.953
 8796TIP3   OH226344   2.926   7.300   3.187
 8796TIP3    H126345   2.912   7.301   3.092
 8796TIP3    H226346   2.926   7.393   3.212
 8797TIP3   OH226347   3.121   1.184   4.116
 8797TIP3    H126348   3.089   1.242   4.185
 8797TIP3    H226349   3.216   1.185   4.127
 8798TIP3   OH226350   0.613   5.891   6.262
 8798TIP3    H126351   0.686   5.930   6.310
 8798TIP3    H226352   0.645   5.806   6.233
 8799TIP3   OH226353   8.146   7.643   2.917
 8799TIP3    H126354   8.228   7.634   2.966
 8799TIP3    H226355   8.160   7.719   2.860
 8800TIP3   OH226356   0.582   0.922   2.491
 8800TIP3    H126357   0.625   0.850   2.444
 8800TIP3    H226358   0.572   0.890   2.580
 8801TIP3   OH226359   7.721   1.441   5.225
 8801TIP3    H126360   7.645   1.434   5.283
 8801TIP3    H226361   7.715   1.529   5.188
 8802TIP3   OH226362   7.172   5.981   0.135
 8802TIP3    H126363   7.092   5.947   0.175
 8802TIP3    H226364   7.157   5.972   0.041
 8803TIP3   OH226365   7.524   2.225   0.174
 8803TIP3    H126366   7.538   2.241   0.081
 8803TIP3    H226367   7.444   2.273   0.195
 8804TIP3   OH226368   0.415   4.752   6.168
 8804TIP3    H126369   0.409   4.785   6.258
 8804TIP3    H226370   0.336   4.699   6.157
 8805TIP3   OH226371   2.761   2.848   6.597
 8805TIP3    H126372   2.740   2.879   6.685
 8805TIP3    H226373   2.760   2.927   6.543
 8806TIP3   OH226374   7.969   2.027   2.362
 8806TIP3    H126375   7.919   2.016   2.281
 8806TIP3    H226376   7.905   2.014   2.432
 8807TIP3   OH226377   3.054   6.589   3.008
 8807TIP3    H126378   3.032   6.672   3.052
 8807TIP3    H226379   3.032   6.604   2.916
 8808TIP3   OH226380   1.918   7.713   1.913
 8808TIP3    H126381   1.874   7.760   1.843
 8808TIP3    H226382   1.919   7.775   1.987
 8809TIP3   OH226383   3.060   5.019   3.874
 8809TIP3    H126384   3.122   5.089   3.852
 8809TIP3    H226385   2.973   5.059   3.860
 8810TIP3   OH226386   2.935   7.489   4.973
 8810TIP3    H126387   2.878   7.412   4.968
 8810TIP3    H226388   2.925   7.520   5.063
 8811TIP3   OH226389   2.296   6.852   1.418
 8811TIP3    H126390   2.226   6.884   1.362
 8811TIP3    H226391   2.283   6.896   1.502
 8812TIP3   OH226392   6.465   6.077   5.906
 8812TIP3    H126393   6.559   6.062   5.916
 8812TIP3    H226394   6.449   6.160   5.951
 8813TIP3   OH226395   6.650   0.777   3.408
 8813TIP3    H126396   6.561   0.810   3.412
 8813TIP3    H226397   6.697   0.825   3.476
 8814TIP3   OH226398   7.751   2.631   3.028
 8814TIP3    H126399   7.736   2.672   3.113
 8814TIP3    H226400   7.821   2.683   2.989
 8815TIP3   OH226401   7.859   0.221   6.016
 8815TIP3    H126402   7.803   0.145   6.000
 8815TIP3    H226403   7.863   0.267   5.932
 8816TIP3   OH226404   4.351   3.917   2.226
 8816TIP3    H126405   4.296   3.848   2.189
 8816TIP3    H226406   4.409   3.871   2.287
 8817TIP3   OH226407   2.831   1.210   0.729
 8817TIP3    H126408   2.783   1.281   0.772
 8817TIP3    H226409   2.797   1.209   0.639
 8818TIP3   OH226410   2.012   5.505   5.348
 8818TIP3    H126411   1.986   5.414   5.361
 8818TIP3    H226412   2.106   5.502   5.331
 8819TIP3   OH226413   3.815   2.523   0.292
 8819TIP3    H126414   3.909   2.520   0.308
 8819TIP3    H226415   3.775   2.506   0.378
 8820TIP3   OH226416   7.098   6.376   0.766
 8820TIP3    H126417   7.138   6.396   0.850
 8820TIP3    H226418   7.166   6.330   0.717
 8821TIP3   OH226419   2.863   6.586   4.374
 8821TIP3    H126420   2.926   6.611   4.442
 8821TIP3    H226421   2.894   6.502   4.341
 8822TIP3   OH226422   1.210   1.819   5.529
 8822TIP3    H126423   1.179   1.740   5.485
 8822TIP3    H226424   1.155   1.889   5.492
 8823TIP3   OH226425   1.510   2.215   0.108
 8823TIP3    H126426   1.575   2.154   0.073
 8823TIP3    H226427   1.473   2.170   0.184
 8824TIP3   OH226428   4.819   4.115   2.860
 8824TIP3    H126429   4.734   4.071   2.858
 8824TIP3    H226430   4.882   4.047   2.835
 8825TIP3   OH226431   5.060   5.475   4.087
 8825TIP3    H126432   5.020   5.529   4.156
 8825TIP3    H226433   4.986   5.448   4.034
 8826TIP3   OH226434   3.864   2.715   3.522
 8826TIP3    H126435   3.829   2.749   3.605
 8826TIP3    H226436   3.792   2.724   3.460
 8827TIP3   OH226437  -0.001   6.526   1.276
 8827TIP3    H126438   0.078   6.504   1.227
 8827TIP3    H226439  -0.017   6.448   1.330
 8828TIP3   OH226440   4.547   7.634   3.592
 8828TIP3    H126441   4.506   7.560   3.635
 8828TIP3    H226442   4.641   7.622   3.607
 8829TIP3   OH226443   7.944   7.186   1.447
 8829TIP3    H126444   7.896   7.113   1.485
 8829TIP3    H226445   7.956   7.161   1.355
 8830TIP3   OH226446   4.583   3.288   2.271
 8830TIP3    H126447   4.635   3.365   2.251
 8830TIP3    H226448   4.527   3.314   2.344
 8831TIP3   OH226449   6.550   4.469   5.146
 8831TIP3    H126450   6.601   4.483   5.066
 8831TIP3    H226451   6.472   4.421   5.117
 8832TIP3   OH226452   0.631   5.222   4.904
 8832TIP3    H126453   0.626   5.134   4.940
 8832TIP3    H226454   0.566   5.272   4.953
 8833TIP3   OH226455   7.116   3.818   4.103
 8833TIP3    H126456   7.131   3.911   4.084
 8833TIP3    H226457   7.057   3.818   4.178
 8834TIP3   OH226458   3.490   6.050   4.355
 8834TIP3    H126459   3.514   5.997   4.279
 8834TIP3    H226460   3.398   6.028   4.372
 8835TIP3   OH226461   3.829   3.002   4.987
 8835TIP3    H126462   3.916   2.982   4.954
 8835TIP3    H226463   3.814   2.939   5.057
 8836TIP3   OH226464   5.028   6.903   0.049
 8836TIP3    H126465   5.113   6.922   0.089
 8836TIP3    H226466   5.049   6.845  -0.025
 8837TIP3   OH226467   2.258   6.130   6.474
 8837TIP3    H126468   2.287   6.057   6.420
 8837TIP3    H226469   2.163   6.135   6.458
 8838TIP3   OH226470   7.517   5.624   4.376
 8838TIP3    H126471   7.515   5.566   4.300
 8838TIP3    H226472   7.582   5.690   4.354
 8839TIP3   OH226473   2.944   2.645   3.398
 8839TIP3    H126474   2.890   2.605   3.466
 8839TIP3    H226475   2.995   2.712   3.443
 8840TIP3   OH226476   0.818   0.220   5.668
 8840TIP3    H126477   0.788   0.308   5.687
 8840TIP3    H226478   0.912   0.229   5.654
 8841TIP3   OH226479   4.877   0.375   4.643
 8841TIP3    H126480   4.823   0.315   4.591
 8841TIP3    H226481   4.955   0.390   4.589
 8842TIP3   OH226482   5.684   6.513   1.603
 8842TIP3    H126483   5.651   6.467   1.525
 8842TIP3    H226484   5.731   6.589   1.567
 8843TIP3   OH226485   0.096   5.852   0.614
 8843TIP3    H126486   0.172   5.883   0.565
 8843TIP3    H226487   0.122   5.766   0.647
 8844TIP3   OH226488   6.373   5.342   4.419
 8844TIP3    H126489   6.375   5.297   4.335
 8844TIP3    H226490   6.296   5.307   4.464
 8845TIP3   OH226491   5.090   3.458   1.954
 8845TIP3    H126492   5.138   3.443   1.873
 8845TIP3    H226493   5.133   3.400   2.018
 8846TIP3   OH226494   5.543   3.891   6.522
 8846TIP3    H126495   5.575   3.978   6.547
 8846TIP3    H226496   5.592   3.870   6.443
 8847TIP3   OH226497   1.050   5.354   5.286
 8847TIP3    H126498   1.140   5.322   5.290
 8847TIP3    H226499   1.008   5.315   5.363
 8848TIP3   OH226500   2.240   2.288   3.785
 8848TIP3    H126501   2.173   2.306   3.719
 8848TIP3    H226502   2.277   2.204   3.759
 8849TIP3   OH226503   6.205   7.483   0.425
 8849TIP3    H126504   6.209   7.572   0.460
 8849TIP3    H226505   6.120   7.450   0.453
 8850TIP3   OH226506   2.635   4.169   1.952
 8850TIP3    H126507   2.572   4.177   2.023
 8850TIP3    H226508   2.623   4.080   1.919
 8851TIP3   OH226509   4.323   1.011   2.840
 8851TIP3    H126510   4.319   0.965   2.924
 8851TIP3    H226511   4.297   0.946   2.775
 8852TIP3   OH226512   6.126   3.049   0.033
 8852TIP3    H126513   6.052   3.051   0.093
 8852TIP3    H226514   6.168   2.965   0.048
 8853TIP3   OH226515   6.536   0.878   4.919
 8853TIP3    H126516   6.535   0.970   4.891
 8853TIP3    H226517   6.625   0.849   4.901
 8854TIP3   OH226518   5.352   5.460   3.311
 8854TIP3    H126519   5.301   5.393   3.265
 8854TIP3    H226520   5.291   5.497   3.375
 8855TIP3   OH226521   8.174   4.561   3.602
 8855TIP3    H126522   8.248   4.558   3.663
 8855TIP3    H226523   8.097   4.570   3.658
 8856TIP3   OH226524   2.943   2.212   5.207
 8856TIP3    H126525   2.849   2.193   5.199
 8856TIP3    H226526   2.983   2.163   5.135
 8857TIP3   OH226527   0.883   0.383   6.683
 8857TIP3    H126528   0.851   0.473   6.684
 8857TIP3    H226529   0.808   0.329   6.708
 8858TIP3   OH226530   7.935   0.188   2.522
 8858TIP3    H126531   7.911   0.240   2.599
 8858TIP3    H226532   7.857   0.136   2.504
 8859TIP3   OH226533   0.364   6.914   3.183
 8859TIP3    H126534   0.389   7.007   3.181
 8859TIP3    H226535   0.444   6.866   3.166
 8860TIP3   OH226536   0.179   6.760   2.280
 8860TIP3    H126537   0.193   6.706   2.202
 8860TIP3    H226538   0.107   6.717   2.327
 8861TIP3   OH226539   1.507   1.110   5.214
 8861TIP3    H126540   1.462   1.183   5.255
 8861TIP3    H226541   1.443   1.072   5.154
 8862TIP3   OH226542   0.669   5.413   1.833
 8862TIP3    H126543   0.733   5.418   1.905
 8862TIP3    H226544   0.657   5.319   1.818
 8863TIP3   OH226545   2.468   6.241   1.035
 8863TIP3    H126546   2.481   6.191   0.954
 8863TIP3    H226547   2.409   6.312   1.009
 8864TIP3   OH226548   4.337   3.581   2.823
 8864TIP3    H126549   4.406   3.603   2.762
 8864TIP3    H226550   4.371   3.508   2.874
 8865TIP3   OH226551   2.979   4.241   5.748
 8865TIP3    H126552   3.018   4.164   5.791
 8865TIP3    H226553   3.023   4.246   5.664
 8866TIP3   OH226554   6.536   1.403   1.701
 8866TIP3    H126555   6.559   1.465   1.770
 8866TIP3    H226556   6.466   1.350   1.739
 8867TIP3   OH226557   4.069   0.180   2.258
 8867TIP3    H126558   4.034   0.250   2.203
 8867TIP3    H226559   4.096   0.112   2.197
 8868TIP3   OH226560   3.874   1.886   3.293
 8868TIP3    H126561   3.815   1.912   3.221
 8868TIP3    H226562   3.918   1.968   3.318
 8869TIP3   OH226563   2.903   2.199   4.446
 8869TIP3    H126564   2.991   2.212   4.411
 8869TIP3    H226565   2.881   2.108   4.424
 8870TIP3   OH226566   8.281   3.945   3.044
 8870TIP3    H126567   8.284   3.850   3.035
 8870TIP3    H226568   8.215   3.961   3.112
 8871TIP3   OH226569   7.437   2.406   3.112
 8871TIP3    H126570   7.511   2.410   3.172
 8871TIP3    H226571   7.430   2.314   3.088
 8872TIP3   OH226572   0.946   7.578   6.091
 8872TIP3    H126573   1.026   7.612   6.130
 8872TIP3    H226574   0.909   7.520   6.158
 8873TIP3   OH226575   7.101   2.404   4.081
 8873TIP3    H126576   7.123   2.468   4.013
 8873TIP3    H226577   7.015   2.432   4.113
 8874TIP3   OH226578   3.825   7.193   0.417
 8874TIP3    H126579   3.838   7.286   0.434
 8874TIP3    H226580   3.897   7.150   0.463
 8875TIP3   OH226581   4.262   2.661   5.260
 8875TIP3    H126582   4.348   2.619   5.259
 8875TIP3    H226583   4.200   2.589   5.267
 8876TIP3   OH226584   0.144   7.196   3.106
 8876TIP3    H126585   0.107   7.266   3.052
 8876TIP3    H226586   0.085   7.121   3.093
 8877TIP3   OH226587   1.522   4.802   4.251
 8877TIP3    H126588   1.510   4.863   4.325
 8877TIP3    H226589   1.551   4.858   4.179
 8878TIP3   OH226590   8.089   3.037   5.611
 8878TIP3    H126591   8.113   2.950   5.580
 8878TIP3    H226592   8.165   3.091   5.590
 8879TIP3   OH226593   0.332   0.388   6.459
 8879TIP3    H126594   0.339   0.380   6.364
 8879TIP3    H226595   0.421   0.373   6.491
 8880TIP3   OH226596   0.199   1.895   3.998
 8880TIP3    H126597   0.186   1.874   3.905
 8880TIP3    H226598   0.269   1.961   3.997
 8881TIP3   OH226599   1.112   1.113   2.611
 8881TIP3    H126600   1.041   1.148   2.665
 8881TIP3    H226601   1.186   1.171   2.628
 8882TIP3   OH226602   7.863   1.396   0.010
 8882TIP3    H126603   7.894   1.464   0.069
 8882TIP3    H226604   7.870   1.434  -0.077
 8883TIP3   OH226605   6.638   6.934   0.606
 8883TIP3    H126606   6.595   6.861   0.562
 8883TIP3    H226607   6.726   6.902   0.626
 8884TIP3   OH226608   5.069   0.650   3.970
 8884TIP3    H126609   5.049   0.677   3.881
 8884TIP3    H226610   4.985   0.657   4.016
 8885TIP3   OH226611   1.748   6.211   5.469
 8885TIP3    H126612   1.784   6.173   5.389
 8885TIP3    H226613   1.776   6.302   5.467
 8886TIP3   OH226614   3.340   5.210   1.476
 8886TIP3    H126615   3.429   5.188   1.448
 8886TIP3    H226616   3.352   5.283   1.537
 8887TIP3   OH226617   7.072   7.645   4.094
 8887TIP3    H126618   7.153   7.658   4.044
 8887TIP3    H226619   7.020   7.723   4.077
 8888TIP3   OH226620   7.237   0.493   3.397
 8888TIP3    H126621   7.225   0.588   3.400
 8888TIP3    H226622   7.325   0.479   3.430
 8889TIP3   OH226623   0.047   2.705   4.820
 8889TIP3    H126624  -0.018   2.635   4.813
 8889TIP3    H226625   0.131   2.659   4.824
 8890TIP3   OH226626   1.692   3.464   6.802
 8890TIP3    H126627   1.739   3.530   6.854
 8890TIP3    H226628   1.699   3.496   6.712
 8891TIP3   OH226629   2.652   2.987   3.351
 8891TIP3    H126630   2.621   2.948   3.433
 8891TIP3    H226631   2.696   3.068   3.378
 8892TIP3   OH226632   5.766   7.807   4.554
 8892TIP3    H126633   5.741   7.839   4.641
 8892TIP3    H226634   5.862   7.816   4.552
 8893TIP3   OH226635   2.603   6.518   4.928
 8893TIP3    H126636   2.688   6.544   4.893
 8893TIP3    H226637   2.561   6.470   4.857
 8894TIP3   OH226638   1.345   5.105   2.449
 8894TIP3    H126639   1.353   5.056   2.531
 8894TIP3    H226640   1.330   5.037   2.383
 8895TIP3   OH226641   3.008   3.678   5.832
 8895TIP3    H126642   3.059   3.597   5.839
 8895TIP3    H226643   3.027   3.726   5.913
 8896TIP3   OH226644   2.525   4.154   6.345
 8896TIP3    H126645   2.595   4.096   6.314
 8896TIP3    H226646   2.445   4.103   6.333
 8897TIP3   OH226647   3.215   5.239   3.700
 8897TIP3    H126648   3.302   5.200   3.690
 8897TIP3    H226649   3.176   5.234   3.613
 8898TIP3   OH226650   2.604   7.783   5.783
 8898TIP3    H126651   2.612   7.822   5.870
 8898TIP3    H226652   2.648   7.698   5.791
 8899TIP3   OH226653   1.129   3.890   4.963
 8899TIP3    H126654   1.097   3.977   4.985
 8899TIP3    H226655   1.221   3.891   4.987
 8900TIP3   OH226656   3.238   5.349   0.642
 8900TIP3    H126657   3.156   5.301   0.655
 8900TIP3    H226658   3.221   5.408   0.569
 8901TIP3   OH226659   6.941   4.236   1.513
 8901TIP3    H126660   7.018   4.191   1.481
 8901TIP3    H226661   6.875   4.167   1.522
 8902TIP3   OH226662   6.459   7.406   1.719
 8902TIP3    H126663   6.474   7.490   1.675
 8902TIP3    H226664   6.365   7.405   1.736
 8903TIP3   OH226665   6.177   5.992   6.212
 8903TIP3    H126666   6.150   6.015   6.300
 8903TIP3    H226667   6.220   6.070   6.178
 8904TIP3   OH226668   3.864   0.472   6.717
 8904TIP3    H126669   3.938   0.436   6.667
 8904TIP3    H226670   3.893   0.469   6.808
 8905TIP3   OH226671   4.628   6.679   0.401
 8905TIP3    H126672   4.684   6.607   0.429
 8905TIP3    H226673   4.628   6.674   0.305
 8906TIP3   OH226674   4.802   4.994   3.171
 8906TIP3    H126675   4.750   5.040   3.236
 8906TIP3    H226676   4.832   4.915   3.216
 8907TIP3   OH226677   3.829   6.060   5.248
 8907TIP3    H126678   3.851   6.151   5.229
 8907TIP3    H226679   3.871   6.010   5.177
 8908TIP3   OH226680   1.622   0.294   0.484
 8908TIP3    H126681   1.686   0.239   0.528
 8908TIP3    H226682   1.621   0.263   0.394
 8909TIP3   OH226683   6.631   4.745   6.118
 8909TIP3    H126684   6.544   4.730   6.081
 8909TIP3    H226685   6.629   4.698   6.202
 8910TIP3   OH226686   2.477   3.055   2.902
 8910TIP3    H126687   2.506   3.067   2.811
 8910TIP3    H226688   2.477   3.142   2.940
 8911TIP3   OH226689   0.714   7.473   2.514
 8911TIP3    H126690   0.790   7.417   2.534
 8911TIP3    H226691   0.752   7.549   2.468
 8912TIP3   OH226692   3.349   7.367   3.428
 8912TIP3    H126693   3.370   7.276   3.407
 8912TIP3    H226694   3.323   7.406   3.345
 8913TIP3   OH226695   5.325   0.883   1.615
 8913TIP3    H126696   5.323   0.960   1.558
 8913TIP3    H226697   5.298   0.916   1.701
 8914TIP3   OH226698   3.302   6.442   6.419
 8914TIP3    H126699   3.284   6.528   6.382
 8914TIP3    H226700   3.215   6.404   6.434
 8915TIP3   OH226701   0.252   1.140   0.242
 8915TIP3    H126702   0.233   1.233   0.255
 8915TIP3    H226703   0.330   1.124   0.296
 8916TIP3   OH226704   2.890   4.701   1.157
 8916TIP3    H126705   2.862   4.684   1.247
 8916TIP3    H226706   2.985   4.713   1.164
 8917TIP3   OH226707   6.701   0.410   1.229
 8917TIP3    H126708   6.720   0.321   1.257
 8917TIP3    H226709   6.778   0.461   1.255
 8918TIP3   OH226710   6.272   2.351   3.004
 8918TIP3    H126711   6.364   2.369   2.985
 8918TIP3    H226712   6.263   2.366   3.098
 8919TIP3   OH226713   2.718   3.400   3.806
 8919TIP3    H126714   2.660   3.428   3.736
 8919TIP3    H226715   2.744   3.481   3.850
 8920TIP3   OH226716   1.180   1.796   1.464
 8920TIP3    H126717   1.234   1.810   1.541
 8920TIP3    H226718   1.100   1.845   1.481
 8921TIP3   OH226719   2.990   4.659   2.655
 8921TIP3    H126720   3.023   4.744   2.685
 8921TIP3    H226721   2.899   4.676   2.630
 8922TIP3   OH226722   7.830   6.899   4.501
 8922TIP3    H126723   7.785   6.973   4.461
 8922TIP3    H226724   7.765   6.829   4.501
 8923TIP3   OH226725   0.106   5.392   1.224
 8923TIP3    H126726   0.067   5.313   1.262
 8923TIP3    H226727   0.185   5.408   1.276
 8924TIP3   OH226728   8.080   5.560   0.593
 8924TIP3    H126729   8.108   5.495   0.658
 8924TIP3    H226730   8.101   5.519   0.509
 8925TIP3   OH226731   1.193   3.757   1.825
 8925TIP3    H126732   1.106   3.765   1.784
 8925TIP3    H226733   1.195   3.668   1.859
 8926TIP3   OH226734   3.827   2.124   5.077
 8926TIP3    H126735   3.862   2.167   5.155
 8926TIP3    H226736   3.904   2.094   5.030
 8927TIP3   OH226737   1.390   0.505   3.058
 8927TIP3    H126738   1.414   0.416   3.083
 8927TIP3    H226739   1.299   0.513   3.087
 8928TIP3   OH226740   6.005   3.272   6.199
 8928TIP3    H126741   5.995   3.293   6.292
 8928TIP3    H226742   5.995   3.177   6.194
 8929TIP3   OH226743   2.503   3.395   4.704
 8929TIP3    H126744   2.480   3.481   4.741
 8929TIP3    H226745   2.575   3.414   4.644
 8930TIP3   OH226746   7.658   0.531   4.978
 8930TIP3    H126747   7.624   0.443   4.994
 8930TIP3    H226748   7.585   0.578   4.938
 8931TIP3   OH226749   1.981   5.587   6.567
 8931TIP3    H126750   1.948   5.507   6.608
 8931TIP3    H226751   1.959   5.577   6.474
 8932TIP3   OH226752   4.522   5.406   1.612
 8932TIP3    H126753   4.565   5.329   1.650
 8932TIP3    H226754   4.586   5.476   1.622
 8933TIP3   OH226755   3.005   3.809   4.541
 8933TIP3    H126756   3.008   3.742   4.473
 8933TIP3    H226757   2.994   3.760   4.623
 8934TIP3   OH226758   0.615   0.511   2.561
 8934TIP3    H126759   0.537   0.479   2.516
 8934TIP3    H226760   0.582   0.579   2.620
 8935TIP3   OH226761   8.109   5.856   3.350
 8935TIP3    H126762   8.047   5.865   3.423
 8935TIP3    H226763   8.172   5.790   3.380
 8936TIP3   OH226764   6.577   3.753   4.946
 8936TIP3    H126765   6.595   3.826   4.887
 8936TIP3    H226766   6.643   3.761   5.015
 8937TIP3   OH226767   7.058   5.633   0.819
 8937TIP3    H126768   7.073   5.599   0.907
 8937TIP3    H226769   7.140   5.620   0.773
 8938TIP3   OH226770   5.008   3.836   6.608
 8938TIP3    H126771   5.066   3.912   6.604
 8938TIP3    H226772   4.993   3.822   6.701
 8939TIP3   OH226773   0.268   1.417   3.896
 8939TIP3    H126774   0.312   1.502   3.889
 8939TIP3    H226775   0.193   1.434   3.952
 8940TIP3   OH226776   2.933   0.639   2.194
 8940TIP3    H126777   2.906   0.714   2.247
 8940TIP3    H226778   2.897   0.655   2.107
 8941TIP3   OH226779   6.045   2.657   6.383
 8941TIP3    H126780   5.959   2.672   6.422
 8941TIP3    H226781   6.078   2.578   6.427
 8942TIP3   OH226782   3.918   6.348   5.220
 8942TIP3    H126783   3.869   6.422   5.183
 8942TIP3    H226784   3.925   6.369   5.313
 8943TIP3   OH226785   1.778   3.695   5.939
 8943TIP3    H126786   1.733   3.646   6.007
 8943TIP3    H226787   1.861   3.649   5.927
 8944TIP3   OH226788   2.563   7.301   1.034
 8944TIP3    H126789   2.471   7.279   1.020
 8944TIP3    H226790   2.561   7.378   1.091
 8945TIP3   OH226791   7.609   3.623   5.246
 8945TIP3    H126792   7.597   3.535   5.282
 8945TIP3    H226793   7.521   3.660   5.244
 8946TIP3   OH226794   5.403   4.052   4.565
 8946TIP3    H126795   5.371   4.110   4.496
 8946TIP3    H226796   5.465   3.994   4.521
 8947TIP3   OH226797   6.806   6.516   5.625
 8947TIP3    H126798   6.840   6.457   5.557
 8947TIP3    H226799   6.870   6.587   5.628
 8948TIP3   OH226800   5.190   1.659   4.603
 8948TIP3    H126801   5.230   1.738   4.567
 8948TIP3    H226802   5.237   1.587   4.561
 8949TIP3   OH226803   4.087   3.629   5.572
 8949TIP3    H126804   4.160   3.590   5.619
 8949TIP3    H226805   4.041   3.555   5.533
 8950TIP3   OH226806   7.629   0.745   3.758
 8950TIP3    H126807   7.678   0.749   3.840
 8950TIP3    H226808   7.695   0.756   3.690
 8951TIP3   OH226809   5.232   6.986   0.200
 8951TIP3    H126810   5.274   6.915   0.152
 8951TIP3    H226811   5.252   6.968   0.292
 8952TIP3   OH226812   7.192   5.179   5.653
 8952TIP3    H126813   7.145   5.129   5.587
 8952TIP3    H226814   7.162   5.143   5.736
 8953TIP3   OH226815   3.054   3.704   1.026
 8953TIP3    H126816   2.986   3.649   1.065
 8953TIP3    H226817   3.007   3.757   0.961
 8954TIP3   OH226818   4.873   1.278   0.293
 8954TIP3    H126819   4.830   1.359   0.264
 8954TIP3    H226820   4.824   1.252   0.371
 8955TIP3   OH226821   3.927   2.386   5.031
 8955TIP3    H126822   3.906   2.388   4.937
 8955TIP3    H226823   4.020   2.406   5.035
 8956TIP3   OH226824   6.367   2.336   2.344
 8956TIP3    H126825   6.365   2.335   2.440
 8956TIP3    H226826   6.362   2.243   2.320
 8957TIP3   OH226827   6.959   5.615   1.437
 8957TIP3    H126828   6.916   5.629   1.521
 8957TIP3    H226829   7.022   5.687   1.430
 8958TIP3   OH226830   3.682   5.176   0.855
 8958TIP3    H126831   3.692   5.147   0.764
 8958TIP3    H226832   3.701   5.269   0.854
 8959TIP3   OH226833   8.242   3.215   4.574
 8959TIP3    H126834   8.250   3.179   4.663
 8959TIP3    H226835   8.307   3.167   4.523
 8960TIP3   OH226836   5.758   6.794   2.665
 8960TIP3    H126837   5.740   6.806   2.758
 8960TIP3    H226838   5.775   6.882   2.632
 8961TIP3   OH226839   0.564   0.199   2.904
 8961TIP3    H126840   0.490   0.190   2.844
 8961TIP3    H226841   0.594   0.289   2.892
 8962TIP3   OH226842   2.773   7.440   4.425
 8962TIP3    H126843   2.721   7.400   4.494
 8962TIP3    H226844   2.837   7.494   4.472
 8963TIP3   OH226845   4.408   3.489   1.848
 8963TIP3    H126846   4.472   3.493   1.777
 8963TIP3    H226847   4.457   3.455   1.923
 8964TIP3   OH226848   0.685   1.555   6.211
 8964TIP3    H126849   0.743   1.531   6.139
 8964TIP3    H226850   0.650   1.641   6.186
 8965TIP3   OH226851   1.349   0.639   0.630
 8965TIP3    H126852   1.293   0.565   0.654
 8965TIP3    H226853   1.291   0.700   0.585
 8966TIP3   OH226854   4.535   2.796   3.053
 8966TIP3    H126855   4.540   2.886   3.023
 8966TIP3    H226856   4.521   2.802   3.148
 8967TIP3   OH226857   3.131   5.904   2.571
 8967TIP3    H126858   3.173   5.940   2.650
 8967TIP3    H226859   3.092   5.980   2.528
 8968TIP3   OH226860   4.423   5.391   3.103
 8968TIP3    H126861   4.462   5.446   3.035
 8968TIP3    H226862   4.384   5.318   3.055
 8969TIP3   OH226863   4.516   4.645   6.180
 8969TIP3    H126864   4.562   4.637   6.265
 8969TIP3    H226865   4.475   4.731   6.184
 8970TIP3   OH226866   5.311   1.030   5.895
 8970TIP3    H126867   5.381   1.096   5.890
 8970TIP3    H226868   5.355   0.948   5.874
 8971TIP3   OH226869   7.255   1.424   2.075
 8971TIP3    H126870   7.230   1.355   2.013
 8971TIP3    H226871   7.199   1.498   2.052
 8972TIP3   OH226872   2.076   2.262   0.226
 8972TIP3    H126873   2.028   2.339   0.196
 8972TIP3    H226874   2.132   2.296   0.297
 8973TIP3   OH226875   6.590   2.963   4.971
 8973TIP3    H126876   6.581   2.984   4.878
 8973TIP3    H226877   6.683   2.946   4.984
 8974TIP3   OH226878   4.304   2.011   6.671
 8974TIP3    H126879   4.322   1.942   6.607
 8974TIP3    H226880   4.304   2.092   6.620
 8975TIP3   OH226881   0.022   7.136   2.750
 8975TIP3    H126882   0.088   7.204   2.737
 8975TIP3    H226883  -0.058   7.172   2.711
 8976TIP3   OH226884   3.076   0.653   1.372
 8976TIP3    H126885   3.075   0.641   1.277
 8976TIP3    H226886   3.040   0.571   1.406
 8977TIP3   OH226887   2.113   1.154   0.431
 8977TIP3    H126888   2.043   1.115   0.378
 8977TIP3    H226889   2.120   1.244   0.397
 8978TIP3   OH226890   5.702   4.249   3.306
 8978TIP3    H126891   5.658   4.229   3.223
 8978TIP3    H226892   5.690   4.343   3.318
 8979TIP3   OH226893   5.175   2.677   6.167
 8979TIP3    H126894   5.223   2.615   6.222
 8979TIP3    H226895   5.131   2.735   6.229
 8980TIP3   OH226896   4.946   1.173   3.089
 8980TIP3    H126897   4.886   1.217   3.150
 8980TIP3    H226898   4.964   1.239   3.022
 8981TIP3   OH226899   5.671   2.679   2.817
 8981TIP3    H126900   5.624   2.598   2.795
 8981TIP3    H226901   5.763   2.653   2.817
 8982TIP3   OH226902   3.945   5.210   4.155
 8982TIP3    H126903   3.907   5.155   4.223
 8982TIP3    H226904   4.033   5.175   4.141
 8983TIP3   OH226905   6.555   2.578   2.363
 8983TIP3    H126906   6.628   2.518   2.378
 8983TIP3    H226907   6.489   2.526   2.318
 8984TIP3   OH226908   7.382   1.790   3.690
 8984TIP3    H126909   7.323   1.861   3.716
 8984TIP3    H226910   7.464   1.834   3.669
 8985TIP3   OH226911   6.945   4.041   6.415
 8985TIP3    H126912   7.029   4.003   6.389
 8985TIP3    H226913   6.916   3.987   6.489
 8986TIP3   OH226914   5.514   6.184   4.867
 8986TIP3    H126915   5.507   6.246   4.940
 8986TIP3    H226916   5.423   6.174   4.837
 8987TIP3   OH226917   0.766   4.966   2.511
 8987TIP3    H126918   0.688   5.006   2.548
 8987TIP3    H226919   0.783   4.889   2.565
 8988TIP3   OH226920   3.603   5.150   6.469
 8988TIP3    H126921   3.627   5.228   6.419
 8988TIP3    H226922   3.648   5.162   6.553
 8989TIP3   OH226923   0.840   5.097   3.823
 8989TIP3    H126924   0.837   5.054   3.908
 8989TIP3    H226925   0.806   5.032   3.762
 8990TIP3   OH226926   3.114   2.416   3.183
 8990TIP3    H126927   3.178   2.439   3.251
 8990TIP3    H226928   3.038   2.384   3.232
 8991TIP3   OH226929   6.164   4.574   5.191
 8991TIP3    H126930   6.243   4.615   5.225
 8991TIP3    H226931   6.095   4.639   5.203
 8992TIP3   OH226932   4.693   4.330   4.045
 8992TIP3    H126933   4.614   4.341   3.992
 8992TIP3    H226934   4.704   4.235   4.052
 8993TIP3   OH226935   5.126   7.215   4.771
 8993TIP3    H126936   5.080   7.178   4.696
 8993TIP3    H226937   5.081   7.178   4.847
 8994TIP3   OH226938   6.624   6.710   2.825
 8994TIP3    H126939   6.561   6.760   2.876
 8994TIP3    H226940   6.573   6.667   2.757
 8995TIP3   OH226941   7.348   4.233   2.326
 8995TIP3    H126942   7.358   4.228   2.230
 8995TIP3    H226943   7.254   4.230   2.340
 8996TIP3   OH226944   6.274   4.971   6.657
 8996TIP3    H126945   6.234   4.992   6.572
 8996TIP3    H226946   6.341   4.905   6.637
 8997TIP3   OH226947   7.866   6.525   5.155
 8997TIP3    H126948   7.948   6.545   5.111
 8997TIP3    H226949   7.858   6.430   5.151
 8998TIP3   OH226950   4.806   1.525   1.840
 8998TIP3    H126951   4.836   1.616   1.839
 8998TIP3    H226952   4.744   1.520   1.768
 8999TIP3   OH226953   3.499   0.792   2.976
 8999TIP3    H126954   3.574   0.738   2.949
 8999TIP3    H226955   3.536   0.857   3.036
 9000TIP3   OH226956   3.605   1.917   3.125
 9000TIP3    H126957   3.674   1.872   3.077
 9000TIP3    H226958   3.524   1.875   3.097
 9001TIP3   OH226959   3.359   5.530   2.123
 9001TIP3    H126960   3.330   5.447   2.159
 9001TIP3    H226961   3.453   5.532   2.139
 9002TIP3   OH226962   2.902   6.060   4.560
 9002TIP3    H126963   2.910   5.966   4.576
 9002TIP3    H226964   2.874   6.066   4.469
 9003TIP3   OH226965   6.816   0.195   1.391
 9003TIP3    H126966   6.800   0.102   1.377
 9003TIP3    H226967   6.769   0.215   1.472
 9004TIP3   OH226968   5.224   3.047   5.002
 9004TIP3    H126969   5.131   3.070   4.993
 9004TIP3    H226970   5.270   3.123   4.967
 9005TIP3   OH226971   1.591   6.573   4.935
 9005TIP3    H126972   1.517   6.512   4.931
 9005TIP3    H226973   1.663   6.527   4.893
 9006TIP3   OH226974   7.401   3.363   0.817
 9006TIP3    H126975   7.329   3.425   0.813
 9006TIP3    H226976   7.454   3.383   0.740
 9007TIP3   OH226977   8.140   1.324   3.324
 9007TIP3    H126978   8.063   1.337   3.380
 9007TIP3    H226979   8.162   1.231   3.335
 9008TIP3   OH226980   3.021   3.111   6.630
 9008TIP3    H126981   2.984   3.068   6.553
 9008TIP3    H226982   2.946   3.127   6.687
 9009TIP3   OH226983   7.775   1.357   6.275
 9009TIP3    H126984   7.692   1.353   6.322
 9009TIP3    H226985   7.840   1.377   6.342
 9010TIP3   OH226986   3.256   0.508   4.029
 9010TIP3    H126987   3.334   0.490   3.977
 9010TIP3    H226988   3.184   0.512   3.966
 9011TIP3   OH226989   7.856   6.010   1.461
 9011TIP3    H126990   7.799   6.042   1.531
 9011TIP3    H226991   7.828   5.920   1.447
 9012TIP3   OH226992   5.946   7.588   6.157
 9012TIP3    H126993   5.880   7.621   6.095
 9012TIP3    H226994   5.900   7.588   6.241
 9013TIP3   OH226995   3.074   4.515   1.460
 9013TIP3    H126996   3.167   4.500   1.477
 9013TIP3    H226997   3.057   4.471   1.376
 9014TIP3   OH226998   5.225   4.133   5.411
 9014TIP3    H126999   5.227   4.099   5.500
 9014TIP3    H227000   5.199   4.058   5.357
 9015TIP3   OH227001   4.025   2.985   4.298
 9015TIP3    H127002   4.087   2.928   4.344
 9015TIP3    H227003   4.055   3.073   4.317
 9016TIP3   OH227004   2.220   4.794   1.793
 9016TIP3    H127005   2.175   4.768   1.712
 9016TIP3    H227006   2.165   4.759   1.863
 9017TIP3   OH227007   7.220   5.686   0.076
 9017TIP3    H127008   7.272   5.765   0.087
 9017TIP3    H227009   7.226   5.666  -0.018
 9018TIP3   OH227010   7.464   6.430   1.596
 9018TIP3    H127011   7.434   6.403   1.509
 9018TIP3    H227012   7.469   6.349   1.646
 9019TIP3   OH227013   5.536   3.056   2.570
 9019TIP3    H127014   5.609   3.039   2.510
 9019TIP3    H227015   5.517   2.971   2.609
 9020TIP3   OH227016   7.885   3.679   0.251
 9020TIP3    H127017   7.799   3.684   0.209
 9020TIP3    H227018   7.945   3.658   0.179
 9021TIP3   OH227019   6.905   2.568   4.183
 9021TIP3    H127020   6.925   2.655   4.149
 9021TIP3    H227021   6.811   2.567   4.196
 9022TIP3   OH227022   4.091   6.590   5.736
 9022TIP3    H127023   4.119   6.610   5.647
 9022TIP3    H227024   3.998   6.571   5.729
 9023TIP3   OH227025   7.081   5.872   0.404
 9023TIP3    H127026   7.129   5.951   0.429
 9023TIP3    H227027   7.144   5.801   0.417
 9024TIP3   OH227028   2.851   2.988   5.286
 9024TIP3    H127029   2.826   2.942   5.205
 9024TIP3    H227030   2.946   2.985   5.287
 9025TIP3   OH227031   0.379   0.288   3.345
 9025TIP3    H127032   0.307   0.341   3.311
 9025TIP3    H227033   0.392   0.319   3.435
 9026TIP3   OH227034   6.355   1.104   2.885
 9026TIP3    H127035   6.268   1.066   2.872
 9026TIP3    H227036   6.398   1.046   2.948
 9027TIP3   OH227037   7.333   4.705   3.531
 9027TIP3    H127038   7.392   4.646   3.483
 9027TIP3    H227039   7.262   4.648   3.562
 9028TIP3   OH227040   5.407   2.561   3.559
 9028TIP3    H127041   5.460   2.640   3.562
 9028TIP3    H227042   5.319   2.592   3.538
 9029TIP3   OH227043   4.786   5.467   3.038
 9029TIP3    H127044   4.846   5.541   3.051
 9029TIP3    H227045   4.700   5.508   3.030
 9030TIP3   OH227046   3.111   0.310   0.223
 9030TIP3    H127047   3.023   0.347   0.226
 9030TIP3    H227048   3.169   0.385   0.213
 9031TIP3   OH227049   0.220   4.503   3.398
 9031TIP3    H127050   0.193   4.426   3.449
 9031TIP3    H227051   0.261   4.561   3.463
 9032TIP3   OH227052  -0.006   1.755   6.445
 9032TIP3    H127053   0.024   1.665   6.458
 9032TIP3    H227054   0.062   1.809   6.486
 9033TIP3   OH227055   2.406   1.736   0.104
 9033TIP3    H127056   2.438   1.676   0.036
 9033TIP3    H227057   2.320   1.764   0.072
 9034TIP3   OH227058   3.229   0.208   6.197
 9034TIP3    H127059   3.217   0.287   6.250
 9034TIP3    H227060   3.255   0.140   6.259
 9035TIP3   OH227061   5.529   6.533   0.182
 9035TIP3    H127062   5.583   6.585   0.242
 9035TIP3    H227063   5.592   6.482   0.131
 9036TIP3   OH227064   0.488   4.054   1.368
 9036TIP3    H127065   0.490   3.970   1.322
 9036TIP3    H227066   0.490   4.030   1.461
 9037TIP3   OH227067   5.398   5.291   1.396
 9037TIP3    H127068   5.487   5.277   1.427
 9037TIP3    H227069   5.401   5.377   1.353
 9038TIP3   OH227070   7.416   2.425   1.932
 9038TIP3    H127071   7.426   2.341   1.976
 9038TIP3    H227072   7.480   2.482   1.973
 9039TIP3   OH227073   6.364   6.175   0.492
 9039TIP3    H127074   6.433   6.168   0.426
 9039TIP3    H227075   6.374   6.264   0.527
 9040TIP3   OH227076   1.217   5.081   5.074
 9040TIP3    H127077   1.259   5.077   5.160
 9040TIP3    H227078   1.216   5.174   5.052
 9041TIP3   OH227079   1.004   3.323   4.312
 9041TIP3    H127080   1.021   3.415   4.335
 9041TIP3    H227081   1.060   3.307   4.237
 9042TIP3   OH227082   3.630   3.259   1.997
 9042TIP3    H127083   3.614   3.345   2.035
 9042TIP3    H227084   3.672   3.209   2.066
 9043TIP3   OH227085   3.649   2.023   4.739
 9043TIP3    H127086   3.635   1.985   4.826
 9043TIP3    H227087   3.672   2.114   4.756
 9044TIP3   OH227088   4.634   6.786   2.980
 9044TIP3    H127089   4.593   6.701   2.994
 9044TIP3    H227090   4.629   6.830   3.065
 9045TIP3   OH227091   1.854   3.718   0.389
 9045TIP3    H127092   1.846   3.646   0.327
 9045TIP3    H227093   1.929   3.769   0.358
 9046TIP3   OH227094   2.325   7.729   4.207
 9046TIP3    H127095   2.238   7.713   4.172
 9046TIP3    H227096   2.356   7.642   4.234
 9047TIP3   OH227097   5.956   2.351   3.716
 9047TIP3    H127098   5.881   2.406   3.738
 9047TIP3    H227099   5.917   2.275   3.672
 9048TIP3   OH227100   0.708   6.485   6.133
 9048TIP3    H127101   0.781   6.424   6.131
 9048TIP3    H227102   0.743   6.566   6.097
 9049TIP3   OH227103   0.569   3.732   6.052
 9049TIP3    H127104   0.592   3.675   5.979
 9049TIP3    H227105   0.519   3.676   6.112
 9050TIP3   OH227106   3.652   1.156   6.320
 9050TIP3    H127107   3.604   1.101   6.258
 9050TIP3    H227108   3.591   1.172   6.392
 9051TIP3   OH227109   1.359   5.969   0.463
 9051TIP3    H127110   1.285   5.961   0.524
 9051TIP3    H227111   1.322   6.011   0.385
 9052TIP3   OH227112   7.491   0.037   3.819
 9052TIP3    H127113   7.466   0.128   3.802
 9052TIP3    H227114   7.510   0.035   3.913
 9053TIP3   OH227115   4.375   3.085   0.435
 9053TIP3    H127116   4.388   3.005   0.486
 9053TIP3    H227117   4.313   3.060   0.367
 9054TIP3   OH227118   6.403   0.084   1.372
 9054TIP3    H127119   6.458   0.080   1.450
 9054TIP3    H227120   6.316   0.060   1.401
 9055TIP3   OH227121   2.142   3.373   3.615
 9055TIP3    H127122   2.175   3.361   3.526
 9055TIP3    H227123   2.162   3.464   3.636
 9056TIP3   OH227124   1.323   4.187   4.794
 9056TIP3    H127125   1.365   4.172   4.710
 9056TIP3    H227126   1.396   4.199   4.855
 9057TIP3   OH227127   0.920   4.443   0.167
 9057TIP3    H127128   0.879   4.445   0.081
 9057TIP3    H227129   0.924   4.535   0.193
 9058TIP3   OH227130   0.387   4.668   2.079
 9058TIP3    H127131   0.462   4.688   2.022
 9058TIP3    H227132   0.421   4.604   2.141
 9059TIP3   OH227133   5.856   7.321   6.707
 9059TIP3    H127134   5.941   7.297   6.670
 9059TIP3    H227135   5.801   7.341   6.631
 9060TIP3   OH227136   6.940   2.426   3.364
 9060TIP3    H127137   6.996   2.501   3.345
 9060TIP3    H227138   7.000   2.360   3.399
 9061TIP3   OH227139   8.152   5.330   0.424
 9061TIP3    H127140   8.227   5.325   0.365
 9061TIP3    H227141   8.185   5.296   0.508
 9062TIP3   OH227142   7.672   3.257   4.891
 9062TIP3    H127143   7.737   3.186   4.894
 9062TIP3    H227144   7.645   3.269   4.982
 9063TIP3   OH227145   4.536   2.930   0.802
 9063TIP3    H127146   4.517   2.954   0.712
 9063TIP3    H227147   4.623   2.890   0.798
 9064TIP3   OH227148   3.562   3.377   1.207
 9064TIP3    H127149   3.539   3.444   1.272
 9064TIP3    H227150   3.537   3.415   1.123
 9065TIP3   OH227151   2.199   4.264   4.442
 9065TIP3    H127152   2.214   4.282   4.349
 9065TIP3    H227153   2.245   4.182   4.458
 9066TIP3   OH227154   5.235   3.213   5.345
 9066TIP3    H127155   5.196   3.127   5.329
 9066TIP3    H227156   5.222   3.228   5.439
 9067TIP3   OH227157   3.804   4.070   4.122
 9067TIP3    H127158   3.749   4.148   4.118
 9067TIP3    H227159   3.765   4.010   4.057
 9068TIP3   OH227160   5.955   3.780   3.803
 9068TIP3    H127161   6.013   3.852   3.827
 9068TIP3    H227162   5.904   3.814   3.729
 9069TIP3   OH227163   0.905   2.072   3.161
 9069TIP3    H127164   0.914   1.977   3.173
 9069TIP3    H227165   0.819   2.082   3.120
 9070TIP3   OH227166   6.031   3.549   6.171
 9070TIP3    H127167   6.020   3.458   6.199
 9070TIP3    H227168   6.110   3.578   6.216
 9071TIP3   OH227169   6.537   0.255   3.635
 9071TIP3    H127170   6.573   0.318   3.573
 9071TIP3    H227171   6.603   0.186   3.640
 9072TIP3   OH227172   5.572   3.895   2.611
 9072TIP3    H127173   5.596   3.965   2.672
 9072TIP3    H227174   5.530   3.829   2.666
 9073TIP3   OH227175   4.748   2.096   1.375
 9073TIP3    H127176   4.787   2.167   1.324
 9073TIP3    H227177   4.709   2.139   1.450
 9074TIP3   OH227178   2.877   0.156   2.608
 9074TIP3    H127179   2.908   0.202   2.530
 9074TIP3    H227180   2.822   0.086   2.574
 9075TIP3   OH227181   3.902   1.132   3.932
 9075TIP3    H127182   3.866   1.044   3.921
 9075TIP3    H227183   3.847   1.172   4.000
 9076TIP3   OH227184   1.824   6.580   2.775
 9076TIP3    H127185   1.876   6.553   2.700
 9076TIP3    H227186   1.738   6.540   2.760
 9077TIP3   OH227187   1.925   4.346   0.338
 9077TIP3    H127188   1.891   4.414   0.396
 9077TIP3    H227189   2.017   4.370   0.324
 9078TIP3   OH227190   4.606   5.055   1.524
 9078TIP3    H127191   4.638   5.050   1.434
 9078TIP3    H227192   4.513   5.074   1.516
 9079TIP3   OH227193   1.859   3.638   5.658
 9079TIP3    H127194   1.799   3.677   5.722
 9079TIP3    H227195   1.916   3.710   5.631
 9080TIP3   OH227196   6.112   5.809   4.666
 9080TIP3    H127197   6.116   5.794   4.760
 9080TIP3    H227198   6.188   5.764   4.630
 9081TIP3   OH227199   2.021   1.039   3.762
 9081TIP3    H127200   1.992   0.972   3.699
 9081TIP3    H227201   2.066   1.104   3.708
 9082TIP3   OH227202   2.706   2.062   3.670
 9082TIP3    H127203   2.707   2.133   3.734
 9082TIP3    H227204   2.797   2.054   3.641
 9083TIP3   OH227205   0.115   7.012   1.947
 9083TIP3    H127206   0.047   6.974   2.003
 9083TIP3    H227207   0.193   7.014   2.001
 9084TIP3   OH227208   0.049   6.340   3.161
 9084TIP3    H127209   0.118   6.397   3.125
 9084TIP3    H227210   0.029   6.279   3.089
 9085TIP3   OH227211   3.753   7.776   4.670
 9085TIP3    H127212   3.785   7.802   4.584
 9085TIP3    H227213   3.673   7.826   4.683
 9086TIP3   OH227214   0.663   6.661   5.245
 9086TIP3    H127215   0.700   6.675   5.158
 9086TIP3    H227216   0.695   6.735   5.296
 9087TIP3   OH227217   8.219   7.035   5.829
 9087TIP3    H127218   8.147   7.094   5.851
 9087TIP3    H227219   8.285   7.052   5.897
 9088TIP3   OH227220   4.988   5.192   5.827
 9088TIP3    H127221   4.969   5.176   5.919
 9088TIP3    H227222   4.903   5.204   5.786
 9089TIP3   OH227223   7.751   2.837   0.482
 9089TIP3    H127224   7.737   2.818   0.575
 9089TIP3    H227225   7.845   2.857   0.476
 9090TIP3   OH227226   5.352   3.539   4.402
 9090TIP3    H127227   5.259   3.513   4.401
 9090TIP3    H227228   5.391   3.485   4.471
 9091TIP3   OH227229   7.469   2.888   0.045
 9091TIP3    H127230   7.484   2.857   0.134
 9091TIP3    H227231   7.407   2.961   0.055
 9092TIP3   OH227232   0.396   4.627   6.474
 9092TIP3    H127233   0.389   4.719   6.448
 9092TIP3    H227234   0.482   4.620   6.514
 9093TIP3   OH227235   4.488   0.671   6.495
 9093TIP3    H127236   4.542   0.731   6.444
 9093TIP3    H227237   4.543   0.594   6.508
 9094TIP3   OH227238   0.703   3.998   2.205
 9094TIP3    H127239   0.708   3.907   2.234
 9094TIP3    H227240   0.780   4.011   2.150
 9095TIP3   OH227241   5.038   2.868   6.330
 9095TIP3    H127242   5.067   2.957   6.352
 9095TIP3    H227243   4.963   2.880   6.273
 9096TIP3   OH227244   3.126   1.973   0.434
 9096TIP3    H127245   3.133   2.050   0.377
 9096TIP3    H227246   3.217   1.950   0.453
 9097TIP3   OH227247   7.178   4.393   2.729
 9097TIP3    H127248   7.120   4.409   2.803
 9097TIP3    H227249   7.119   4.379   2.655
 9098TIP3   OH227250   1.139   7.478   4.236
 9098TIP3    H127251   1.104   7.404   4.187
 9098TIP3    H227252   1.062   7.532   4.257
 9099TIP3   OH227253   3.925   2.687   0.549
 9099TIP3    H127254   4.011   2.672   0.588
 9099TIP3    H227255   3.940   2.754   0.482
 9100TIP3   OH227256   1.831   0.594   4.595
 9100TIP3    H127257   1.781   0.585   4.676
 9100TIP3    H227258   1.811   0.515   4.545
 9101TIP3   OH227259   3.669   7.652   3.075
 9101TIP3    H127260   3.704   7.677   3.160
 9101TIP3    H227261   3.739   7.673   3.013
 9102TIP3   OH227262   8.226   3.546   4.513
 9102TIP3    H127263   8.173   3.624   4.529
 9102TIP3    H227264   8.193   3.481   4.575
 9103TIP3   OH227265   4.171   5.182   0.275
 9103TIP3    H127266   4.213   5.159   0.192
 9103TIP3    H227267   4.229   5.147   0.342
 9104TIP3   OH227268   6.909   3.560   1.956
 9104TIP3    H127269   6.855   3.515   1.892
 9104TIP3    H227270   6.865   3.547   2.039
 9105TIP3   OH227271   7.502   7.156   1.329
 9105TIP3    H127272   7.570   7.137   1.264
 9105TIP3    H227273   7.444   7.219   1.285
 9106TIP3   OH227274   4.082   5.206   4.423
 9106TIP3    H127275   4.029   5.286   4.424
 9106TIP3    H227276   4.020   5.137   4.395
 9107TIP3   OH227277   5.437   3.222   3.795
 9107TIP3    H127278   5.348   3.188   3.802
 9107TIP3    H227279   5.484   3.159   3.741
 9108TIP3   OH227280   2.033   4.314   6.751
 9108TIP3    H127281   2.088   4.311   6.673
 9108TIP3    H227282   2.000   4.225   6.760
 9109TIP3   OH227283   4.456   3.033   6.399
 9109TIP3    H127284   4.403   2.962   6.363
 9109TIP3    H227285   4.476   3.089   6.324
 9110TIP3   OH227286   7.123   1.919   2.232
 9110TIP3    H127287   7.109   1.869   2.312
 9110TIP3    H227288   7.164   2.001   2.262
 9111TIP3   OH227289   1.909   1.932   1.213
 9111TIP3    H127290   1.946   1.983   1.285
 9111TIP3    H227291   1.882   1.998   1.148
 9112TIP3   OH227292   3.189   3.621   0.101
 9112TIP3    H127293   3.192   3.565   0.024
 9112TIP3    H227294   3.281   3.639   0.122
 9113TIP3   OH227295   7.079   4.089   3.307
 9113TIP3    H127296   7.055   4.045   3.226
 9113TIP3    H227297   7.171   4.112   3.297
 9114TIP3   OH227298   7.906   0.412   0.308
 9114TIP3    H127299   7.896   0.495   0.262
 9114TIP3    H227300   7.857   0.423   0.389
 9115TIP3   OH227301   2.288   3.580   1.075
 9115TIP3    H127302   2.371   3.555   1.036
 9115TIP3    H227303   2.298   3.673   1.097
 9116TIP3   OH227304   5.630   5.931   5.729
 9116TIP3    H127305   5.645   5.860   5.792
 9116TIP3    H227306   5.716   5.946   5.689
 9117TIP3   OH227307   4.899   1.588   5.968
 9117TIP3    H127308   4.806   1.569   5.981
 9117TIP3    H227309   4.932   1.513   5.918
 9118TIP3   OH227310   2.934   6.358   3.166
 9118TIP3    H127311   2.845   6.370   3.134
 9118TIP3    H227312   2.984   6.430   3.127
 9119TIP3   OH227313   8.271   5.166   1.797
 9119TIP3    H127314   8.336   5.160   1.867
 9119TIP3    H227315   8.310   5.120   1.723
 9120TIP3   OH227316   0.513   5.149   6.568
 9120TIP3    H127317   0.426   5.177   6.540
 9120TIP3    H227318   0.514   5.161   6.663
 9121TIP3   OH227319   5.329   2.160   2.189
 9121TIP3    H127320   5.349   2.247   2.154
 9121TIP3    H227321   5.243   2.169   2.230
 9122TIP3   OH227322   1.195   4.155   6.596
 9122TIP3    H127323   1.196   4.155   6.692
 9122TIP3    H227324   1.172   4.245   6.572
 9123TIP3   OH227325   5.795   1.475   4.791
 9123TIP3    H127326   5.705   1.442   4.791
 9123TIP3    H227327   5.832   1.443   4.709
 9124TIP3   OH227328   3.431   6.115   2.377
 9124TIP3    H127329   3.386   6.038   2.344
 9124TIP3    H227330   3.523   6.088   2.384
 9125TIP3   OH227331   4.471   5.055   3.106
 9125TIP3    H127332   4.472   4.971   3.060
 9125TIP3    H227333   4.517   5.038   3.188
 9126TIP3   OH227334   4.905   4.999   3.514
 9126TIP3    H127335   4.881   4.907   3.506
 9126TIP3    H227336   4.823   5.046   3.505
 9127TIP3   OH227337   2.789   1.040   2.964
 9127TIP3    H127338   2.708   0.990   2.971
 9127TIP3    H227339   2.844   1.006   3.035
 9128TIP3   OH227340   8.233   4.935   4.205
 9128TIP3    H127341   8.305   4.917   4.267
 9128TIP3    H227342   8.219   4.851   4.160
 9129TIP3   OH227343   2.331   3.220   3.736
 9129TIP3    H127344   2.277   3.271   3.676
 9129TIP3    H227345   2.366   3.285   3.797
 9130TIP3   OH227346   2.307   3.985   6.292
 9130TIP3    H127347   2.225   4.029   6.269
 9130TIP3    H227348   2.282   3.893   6.304
 9131TIP3   OH227349   7.998   2.429   6.309
 9131TIP3    H127350   8.015   2.466   6.395
 9131TIP3    H227351   8.022   2.499   6.248
 9132TIP3   OH227352   5.182   5.026   3.421
 9132TIP3    H127353   5.189   5.032   3.325
 9132TIP3    H227354   5.088   5.028   3.438
 9133TIP3   OH227355   7.625   5.377   3.309
 9133TIP3    H127356   7.697   5.375   3.372
 9133TIP3    H227357   7.624   5.289   3.271
 9134TIP3   OH227358   3.186   2.655   6.027
 9134TIP3    H127359   3.101   2.617   6.049
 9134TIP3    H227360   3.214   2.609   5.948
 9135TIP3   OH227361   0.193   0.043   4.294
 9135TIP3    H127362   0.197   0.138   4.305
 9135TIP3    H227363   0.225   0.008   4.377
 9136TIP3   OH227364   1.624   1.390   3.245
 9136TIP3    H127365   1.563   1.316   3.240
 9136TIP3    H227366   1.708   1.354   3.214
 9137TIP3   OH227367   7.617   5.879   2.175
 9137TIP3    H127368   7.556   5.910   2.108
 9137TIP3    H227369   7.562   5.850   2.247
 9138TIP3   OH227370   3.510   1.659   2.090
 9138TIP3    H127371   3.599   1.683   2.116
 9138TIP3    H227372   3.457   1.679   2.167
 9139TIP3   OH227373   4.021   7.576   4.463
 9139TIP3    H127374   4.114   7.589   4.479
 9139TIP3    H227375   4.005   7.616   4.378
 9140TIP3   OH227376   3.412   1.829   4.830
 9140TIP3    H127377   3.406   1.889   4.905
 9140TIP3    H227378   3.440   1.885   4.757
 9141TIP3   OH227379   7.320   7.325   2.427
 9141TIP3    H127380   7.329   7.323   2.332
 9141TIP3    H227381   7.230   7.354   2.442
 9142TIP3   OH227382   0.724   6.918   5.038
 9142TIP3    H127383   0.816   6.918   5.065
 9142TIP3    H227384   0.727   6.940   4.945
 9143TIP3   OH227385   7.147   4.785   5.446
 9143TIP3    H127386   7.204   4.823   5.513
 9143TIP3    H227387   7.193   4.802   5.364
 9144TIP3   OH227388   2.959   1.573   2.660
 9144TIP3    H127389   2.870   1.579   2.626
 9144TIP3    H227390   3.009   1.530   2.590
 9145TIP3   OH227391   0.426   6.064   5.290
 9145TIP3    H127392   0.496   6.012   5.250
 9145TIP3    H227393   0.470   6.139   5.329
 9146TIP3   OH227394   8.271   4.393   2.829
 9146TIP3    H127395   8.288   4.376   2.922
 9146TIP3    H227396   8.355   4.423   2.795
 9147TIP3   OH227397   7.396   5.817   6.619
 9147TIP3    H127398   7.417   5.724   6.623
 9147TIP3    H227399   7.447   5.856   6.691
 9148TIP3   OH227400   4.480   3.000   3.629
 9148TIP3    H127401   4.544   3.068   3.611
 9148TIP3    H227402   4.429   3.032   3.703
 9149TIP3   OH227403   0.296   0.281   4.352
 9149TIP3    H127404   0.387   0.286   4.322
 9149TIP3    H227405   0.266   0.372   4.352
 9150TIP3   OH227406   3.490   0.169   4.582
 9150TIP3    H127407   3.398   0.155   4.559
 9150TIP3    H227408   3.487   0.216   4.666
 9151TIP3   OH227409   4.998   1.722   0.808
 9151TIP3    H127410   5.071   1.677   0.851
 9151TIP3    H227411   4.976   1.666   0.733
 9152TIP3   OH227412   5.978   6.347   1.739
 9152TIP3    H127413   5.897   6.398   1.734
 9152TIP3    H227414   5.965   6.289   1.815
 9153TIP3   OH227415   3.899   1.246   2.672
 9153TIP3    H127416   3.831   1.313   2.679
 9153TIP3    H227417   3.876   1.196   2.595
 9154TIP3   OH227418   3.453   3.656   2.777
 9154TIP3    H127419   3.458   3.573   2.823
 9154TIP3    H227420   3.535   3.701   2.798
 9155TIP3   OH227421   8.009   0.555   3.352
 9155TIP3    H127422   7.973   0.488   3.410
 9155TIP3    H227423   8.080   0.595   3.403
 9156TIP3   OH227424   1.157   5.704   2.546
 9156TIP3    H127425   1.185   5.781   2.496
 9156TIP3    H227426   1.221   5.637   2.525
 9157TIP3   OH227427   6.098   4.039   3.508
 9157TIP3    H127428   6.048   4.064   3.431
 9157TIP3    H227429   6.108   3.944   3.501
 9158TIP3   OH227430   2.145   1.573   3.591
 9158TIP3    H127431   2.221   1.625   3.564
 9158TIP3    H227432   2.169   1.483   3.568
 9159TIP3   OH227433   7.556   3.607   2.528
 9159TIP3    H127434   7.546   3.515   2.552
 9159TIP3    H227435   7.648   3.627   2.548
 9160TIP3   OH227436   0.095   2.465   4.087
 9160TIP3    H127437   0.019   2.481   4.143
 9160TIP3    H227438   0.136   2.551   4.078
 9161TIP3   OH227439   5.855   7.479   5.897
 9161TIP3    H127440   5.940   7.510   5.867
 9161TIP3    H227441   5.874   7.400   5.947
 9162TIP3   OH227442   7.807   3.674   2.624
 9162TIP3    H127443   7.809   3.770   2.628
 9162TIP3    H227444   7.892   3.650   2.588
 9163TIP3   OH227445   1.207   3.694   1.139
 9163TIP3    H127446   1.112   3.703   1.128
 9163TIP3    H227447   1.241   3.782   1.127
 9164TIP3   OH227448   5.509   2.038   0.790
 9164TIP3    H127449   5.586   1.997   0.830
 9164TIP3    H227450   5.525   2.132   0.798
 9165TIP3   OH227451   1.593   5.810   2.065
 9165TIP3    H127452   1.624   5.724   2.091
 9165TIP3    H227453   1.659   5.871   2.098
 9166TIP3   OH227454   7.076   2.218   4.645
 9166TIP3    H127455   7.117   2.288   4.593
 9166TIP3    H227456   7.092   2.138   4.595
 9167TIP3   OH227457   0.407   3.597   6.213
 9167TIP3    H127458   0.413   3.521   6.156
 9167TIP3    H227459   0.314   3.618   6.217
 9168TIP3   OH227460   8.005   3.771   0.761
 9168TIP3    H127461   8.003   3.745   0.668
 9168TIP3    H227462   8.060   3.705   0.803
 9169TIP3   OH227463   7.594   6.866   2.998
 9169TIP3    H127464   7.599   6.883   2.903
 9169TIP3    H227465   7.675   6.818   3.018
 9170TIP3   OH227466   7.622   5.600   1.773
 9170TIP3    H127467   7.594   5.611   1.682
 9170TIP3    H227468   7.554   5.643   1.825
 9171TIP3   OH227469   6.603   4.420   5.985
 9171TIP3    H127470   6.607   4.469   6.068
 9171TIP3    H227471   6.662   4.468   5.927
 9172TIP3   OH227472   1.802   6.182   4.076
 9172TIP3    H127473   1.779   6.274   4.058
 9172TIP3    H227474   1.864   6.159   4.007
 9173TIP3   OH227475   1.492   0.738   0.357
 9173TIP3    H127476   1.581   0.715   0.330
 9173TIP3    H227477   1.441   0.658   0.344
 9174TIP3   OH227478   6.012   6.283   6.547
 9174TIP3    H127479   5.973   6.197   6.564
 9174TIP3    H227480   6.105   6.271   6.568
 9175TIP3   OH227481   7.045   1.438   6.259
 9175TIP3    H127482   7.005   1.364   6.213
 9175TIP3    H227483   7.077   1.496   6.189
 9176TIP3   OH227484   7.818   3.406   3.566
 9176TIP3    H127485   7.794   3.498   3.560
 9176TIP3    H227486   7.777   3.376   3.647
 9177TIP3   OH227487   1.107   6.120   0.979
 9177TIP3    H127488   1.159   6.124   1.059
 9177TIP3    H227489   1.030   6.069   1.002
 9178TIP3   OH227490   1.353   7.474   2.098
 9178TIP3    H127491   1.393   7.500   2.180
 9178TIP3    H227492   1.401   7.395   2.072
 9179TIP3   OH227493   3.039   1.134   3.096
 9179TIP3    H127494   2.982   1.080   3.150
 9179TIP3    H227495   3.106   1.073   3.064
 9180TIP3   OH227496   4.060   6.044   5.805
 9180TIP3    H127497   4.144   6.039   5.850
 9180TIP3    H227498   4.082   6.060   5.714
 9181TIP3   OH227499   1.917   0.183   0.031
 9181TIP3    H127500   1.838   0.212  -0.016
 9181TIP3    H227501   1.886   0.165   0.120
 9182TIP3   OH227502   4.928   7.092   4.986
 9182TIP3    H127503   5.010   7.053   5.015
 9182TIP3    H227504   4.894   7.031   4.920
 9183TIP3   OH227505   2.199   0.640   2.595
 9183TIP3    H127506   2.256   0.715   2.611
 9183TIP3    H227507   2.251   0.581   2.541
 9184TIP3   OH227508   6.429   0.606   6.475
 9184TIP3    H127509   6.362   0.587   6.540
 9184TIP3    H227510   6.427   0.702   6.467
 9185TIP3   OH227511   2.505   5.542   5.528
 9185TIP3    H127512   2.535   5.496   5.607
 9185TIP3    H227513   2.575   5.602   5.507
 9186TIP3   OH227514   2.461   6.337   3.955
 9186TIP3    H127515   2.483   6.404   4.019
 9186TIP3    H227516   2.378   6.366   3.917
 9187TIP3   OH227517   1.541   0.501   1.512
 9187TIP3    H127518   1.623   0.536   1.477
 9187TIP3    H227519   1.553   0.406   1.510
 9188TIP3   OH227520   0.686   6.252   6.706
 9188TIP3    H127521   0.678   6.236   6.612
 9188TIP3    H227522   0.773   6.289   6.717
 9189TIP3   OH227523   1.992   1.040   4.277
 9189TIP3    H127524   1.897   1.039   4.282
 9189TIP3    H227525   2.012   1.054   4.185
 9190TIP3   OH227526   2.829   2.670   2.309
 9190TIP3    H127527   2.738   2.640   2.302
 9190TIP3    H227528   2.881   2.595   2.282
 9191TIP3   OH227529   7.403   1.499   3.103
 9191TIP3    H127530   7.453   1.580   3.095
 9191TIP3    H227531   7.312   1.526   3.090
 9192TIP3   OH227532   1.377   1.164   0.264
 9192TIP3    H127533   1.324   1.194   0.337
 9192TIP3    H227534   1.344   1.076   0.245
 9193TIP3   OH227535   4.074   6.790   3.066
 9193TIP3    H127536   4.166   6.771   3.050
 9193TIP3    H227537   4.069   6.807   3.160
 9194TIP3   OH227538   5.026   6.547   3.550
 9194TIP3    H127539   5.032   6.472   3.609
 9194TIP3    H227540   5.050   6.512   3.464
 9195TIP3   OH227541   1.680   0.216   4.099
 9195TIP3    H127542   1.756   0.170   4.135
 9195TIP3    H227543   1.627   0.237   4.176
 9196TIP3   OH227544   0.605   5.714   3.776
 9196TIP3    H127545   0.691   5.755   3.771
 9196TIP3    H227546   0.593   5.672   3.691
 9197TIP3   OH227547   7.536   1.482   0.278
 9197TIP3    H127548   7.632   1.480   0.284
 9197TIP3    H227549   7.517   1.562   0.230
 9198TIP3   OH227550   5.064   5.894   0.642
 9198TIP3    H127551   5.082   5.806   0.608
 9198TIP3    H227552   5.143   5.944   0.620
 9199TIP3   OH227553   4.795   4.434   4.458
 9199TIP3    H127554   4.709   4.393   4.468
 9199TIP3    H227555   4.857   4.362   4.469
 9200TIP3   OH227556   2.893   3.726   2.255
 9200TIP3    H127557   2.829   3.669   2.213
 9200TIP3    H227558   2.935   3.670   2.321
 9201TIP3   OH227559   6.832   1.883   4.771
 9201TIP3    H127560   6.806   1.972   4.794
 9201TIP3    H227561   6.817   1.832   4.850
 9202TIP3   OH227562   7.093   7.492   0.990
 9202TIP3    H127563   7.114   7.460   1.078
 9202TIP3    H227564   7.133   7.428   0.931
 9203TIP3   OH227565   4.536   0.501   3.035
 9203TIP3    H127566   4.566   0.591   3.050
 9203TIP3    H227567   4.548   0.488   2.941
 9204TIP3   OH227568   0.141   4.843   4.540
 9204TIP3    H127569   0.198   4.833   4.464
 9204TIP3    H227570   0.152   4.934   4.566
 9205TIP3   OH227571   7.131   2.863   3.282
 9205TIP3    H127572   7.058   2.866   3.220
 9205TIP3    H227573   7.162   2.954   3.287
 9206TIP3   OH227574   4.058   1.735   5.633
 9206TIP3    H127575   4.078   1.749   5.725
 9206TIP3    H227576   4.093   1.647   5.615
 9207TIP3   OH227577   1.309   4.093   4.357
 9207TIP3    H127578   1.235   4.144   4.390
 9207TIP3    H227579   1.268   4.014   4.321
 9208TIP3   OH227580   4.770   2.067   0.062
 9208TIP3    H127581   4.807   2.113  -0.013
 9208TIP3    H227582   4.756   2.135   0.127
 9209TIP3   OH227583   5.588   6.019   5.475
 9209TIP3    H127584   5.585   6.005   5.570
 9209TIP3    H227585   5.580   6.113   5.465
 9210TIP3   OH227586   1.237   4.141   6.136
 9210TIP3    H127587   1.253   4.047   6.143
 9210TIP3    H227588   1.199   4.152   6.049
 9211TIP3   OH227589   0.725   5.163   0.621
 9211TIP3    H127590   0.726   5.252   0.587
 9211TIP3    H227591   0.759   5.170   0.710
 9212TIP3   OH227592   6.183   7.791   1.929
 9212TIP3    H127593   6.120   7.826   1.991
 9212TIP3    H227594   6.186   7.856   1.859
 9213TIP3   OH227595   6.386   3.318   1.161
 9213TIP3    H127596   6.385   3.352   1.071
 9213TIP3    H227597   6.329   3.241   1.159
 9214TIP3   OH227598   5.642   7.148   1.167
 9214TIP3    H127599   5.611   7.208   1.100
 9214TIP3    H227600   5.696   7.202   1.225
 9215TIP3   OH227601   3.182   1.289   3.598
 9215TIP3    H127602   3.152   1.210   3.643
 9215TIP3    H227603   3.229   1.339   3.665
 9216TIP3   OH227604   4.260   5.096   3.276
 9216TIP3    H127605   4.310   5.088   3.195
 9216TIP3    H227606   4.316   5.056   3.342
 9217TIP3   OH227607   7.810   0.964   4.743
 9217TIP3    H127608   7.807   0.875   4.708
 9217TIP3    H227609   7.883   0.963   4.805
 9218TIP3   OH227610   0.606   7.258   5.984
 9218TIP3    H127611   0.575   7.308   6.059
 9218TIP3    H227612   0.609   7.321   5.912
 9219TIP3   OH227613   7.416   6.266   3.549
 9219TIP3    H127614   7.362   6.190   3.529
 9219TIP3    H227615   7.381   6.335   3.493
 9220TIP3   OH227616   3.564   1.373   6.135
 9220TIP3    H127617   3.587   1.296   6.187
 9220TIP3    H227618   3.582   1.347   6.045
 9221TIP3   OH227619   3.985   0.989   2.809
 9221TIP3    H127620   4.034   0.913   2.843
 9221TIP3    H227621   3.968   0.968   2.718
 9222TIP3   OH227622   5.634   1.739   3.576
 9222TIP3    H127623   5.554   1.715   3.623
 9222TIP3    H227624   5.605   1.755   3.486
 9223TIP3   OH227625   7.045   6.873   4.301
 9223TIP3    H127626   7.062   6.956   4.256
 9223TIP3    H227627   7.009   6.815   4.234
 9224TIP3   OH227628   3.927   4.431   5.146
 9224TIP3    H127629   3.930   4.336   5.135
 9224TIP3    H227630   4.019   4.458   5.153
 9225TIP3   OH227631   6.420   1.908   2.073
 9225TIP3    H127632   6.414   1.813   2.084
 9225TIP3    H227633   6.481   1.919   1.999
 9226TIP3   OH227634   1.460   2.502   2.141
 9226TIP3    H127635   1.407   2.573   2.105
 9226TIP3    H227636   1.531   2.490   2.078
 9227TIP3   OH227637   4.418   2.371   1.106
 9227TIP3    H127638   4.446   2.325   1.185
 9227TIP3    H227639   4.432   2.463   1.126
 9228TIP3   OH227640   0.848   2.850   3.782
 9228TIP3    H127641   0.876   2.777   3.837
 9228TIP3    H227642   0.757   2.866   3.806
 9229TIP3   OH227643   1.384   5.078   0.239
 9229TIP3    H127644   1.434   5.154   0.270
 9229TIP3    H227645   1.295   5.095   0.268
 9230TIP3   OH227646   1.409   4.565   4.209
 9230TIP3    H127647   1.317   4.578   4.183
 9230TIP3    H227648   1.441   4.653   4.229
 9231TIP3   OH227649   7.773   7.139   0.808
 9231TIP3    H127650   7.681   7.163   0.812
 9231TIP3    H227651   7.786   7.104   0.720
 9232TIP3   OH227652   3.291   1.731   6.254
 9232TIP3    H127653   3.382   1.758   6.265
 9232TIP3    H227654   3.286   1.700   6.164
 9233TIP3   OH227655   3.264   2.474   2.490
 9233TIP3    H127656   3.247   2.452   2.581
 9233TIP3    H227657   3.191   2.531   2.465
 9234TIP3   OH227658   3.575   0.711   4.925
 9234TIP3    H127659   3.641   0.699   4.856
 9234TIP3    H227660   3.627   0.721   5.005
 9235TIP3   OH227661   5.573   3.039   4.049
 9235TIP3    H127662   5.636   3.066   3.983
 9235TIP3    H227663   5.529   2.963   4.011
 9236TIP3   OH227664   2.817   6.079   3.547
 9236TIP3    H127665   2.845   6.145   3.611
 9236TIP3    H227666   2.722   6.076   3.557
 9237TIP3   OH227667   4.553   4.115   2.292
 9237TIP3    H127668   4.482   4.074   2.243
 9237TIP3    H227669   4.510   4.157   2.366
 9238TIP3   OH227670   1.755   7.109   5.806
 9238TIP3    H127671   1.701   7.038   5.770
 9238TIP3    H227672   1.783   7.159   5.729
 9239TIP3   OH227673   1.002   5.722   2.009
 9239TIP3    H127674   0.975   5.713   2.101
 9239TIP3    H227675   0.989   5.635   1.972
 9240TIP3   OH227676   3.252   0.035   0.935
 9240TIP3    H127677   3.196   0.030   0.858
 9240TIP3    H227678   3.341   0.026   0.902
 9241TIP3   OH227679   5.752   4.032   5.051
 9241TIP3    H127680   5.696   4.109   5.058
 9241TIP3    H227681   5.841   4.068   5.048
 9242TIP3   OH227682   6.221   1.601   6.092
 9242TIP3    H127683   6.210   1.622   5.999
 9242TIP3    H227684   6.314   1.584   6.102
 9243TIP3   OH227685   5.942   5.538   2.552
 9243TIP3    H127686   5.899   5.500   2.628
 9243TIP3    H227687   5.978   5.621   2.584
 9244TIP3   OH227688   4.815   0.874   4.320
 9244TIP3    H127689   4.771   0.796   4.354
 9244TIP3    H227690   4.908   0.860   4.337
 9245TIP3   OH227691   5.117   6.821   6.408
 9245TIP3    H127692   5.185   6.764   6.373
 9245TIP3    H227693   5.036   6.771   6.399
 9246TIP3   OH227694   2.337   4.541   5.777
 9246TIP3    H127695   2.397   4.474   5.745
 9246TIP3    H227696   2.279   4.494   5.837
 9247TIP3   OH227697   2.274   3.864   0.054
 9247TIP3    H127698   2.314   3.778   0.064
 9247TIP3    H227699   2.248   3.890   0.142
 9248TIP3   OH227700   3.315   1.883   3.571
 9248TIP3    H127701   3.380   1.894   3.641
 9248TIP3    H227702   3.324   1.962   3.518
 9249TIP3   OH227703   3.479   7.838   1.725
 9249TIP3    H127704   3.511   7.778   1.657
 9249TIP3    H227705   3.385   7.820   1.730
 9250TIP3   OH227706   3.483   4.766   5.995
 9250TIP3    H127707   3.405   4.821   5.989
 9250TIP3    H227708   3.450   4.681   6.026
 9251TIP3   OH227709   2.675   0.575   1.739
 9251TIP3    H127710   2.622   0.502   1.706
 9251TIP3    H227711   2.649   0.650   1.686
 9252TIP3   OH227712   7.413   4.549   1.312
 9252TIP3    H127713   7.370   4.492   1.374
 9252TIP3    H227714   7.343   4.578   1.253
 9253TIP3   OH227715   7.693   0.429   3.661
 9253TIP3    H127716   7.646   0.365   3.714
 9253TIP3    H227717   7.630   0.455   3.594
 9254TIP3   OH227718   0.293   7.463   5.382
 9254TIP3    H127719   0.297   7.544   5.332
 9254TIP3    H227720   0.329   7.485   5.467
 9255TIP3   OH227721   7.071   3.490   4.351
 9255TIP3    H127722   7.084   3.463   4.443
 9255TIP3    H227723   7.153   3.530   4.326
 9256TIP3   OH227724   5.491   7.095   0.799
 9256TIP3    H127725   5.514   7.107   0.707
 9256TIP3    H227726   5.441   7.014   0.801
 9257TIP3   OH227727   2.158   2.329   6.028
 9257TIP3    H127728   2.079   2.276   6.027
 9257TIP3    H227729   2.141   2.399   5.965
 9258TIP3   OH227730   4.076   7.259   1.512
 9258TIP3    H127731   4.012   7.265   1.442
 9258TIP3    H227732   4.029   7.219   1.585
 9259TIP3   OH227733   2.128   4.429   2.692
 9259TIP3    H127734   2.144   4.351   2.746
 9259TIP3    H227735   2.107   4.394   2.605
 9260TIP3   OH227736   2.686   0.679   5.054
 9260TIP3    H127737   2.757   0.649   5.110
 9260TIP3    H227738   2.700   0.633   4.971
 9261TIP3   OH227739   5.501   4.730   6.682
 9261TIP3    H127740   5.444   4.761   6.752
 9261TIP3    H227741   5.567   4.677   6.727
 9262TIP3   OH227742   7.491   2.692   3.624
 9262TIP3    H127743   7.465   2.692   3.532
 9262TIP3    H227744   7.444   2.618   3.663
 9263TIP3   OH227745   7.853   5.562   5.995
 9263TIP3    H127746   7.766   5.588   6.026
 9263TIP3    H227747   7.906   5.555   6.075
 9264TIP3   OH227748   3.382   3.592   5.906
 9264TIP3    H127749   3.389   3.652   5.832
 9264TIP3    H227750   3.464   3.543   5.905
 9265TIP3   OH227751   7.543   1.539   2.761
 9265TIP3    H127752   7.564   1.607   2.826
 9265TIP3    H227753   7.557   1.582   2.677
 9266TIP3   OH227754   6.090   1.590   1.453
 9266TIP3    H127755   6.040   1.553   1.525
 9266TIP3    H227756   6.169   1.536   1.448
 9267TIP3   OH227757   5.646   4.318   2.753
 9267TIP3    H127758   5.565   4.365   2.734
 9267TIP3    H227759   5.660   4.263   2.676
 9268TIP3   OH227760   2.036   0.162   3.051
 9268TIP3    H127761   2.031   0.233   2.987
 9268TIP3    H227762   2.046   0.206   3.135
 9269TIP3   OH227763   0.095   5.161   0.418
 9269TIP3    H127764   0.153   5.192   0.487
 9269TIP3    H227765   0.146   5.172   0.337
 9270TIP3   OH227766   3.658   6.579   0.662
 9270TIP3    H127767   3.719   6.620   0.723
 9270TIP3    H227768   3.608   6.651   0.625
 9271TIP3   OH227769   6.344   4.014   3.133
 9271TIP3    H127770   6.324   3.920   3.139
 9271TIP3    H227771   6.438   4.017   3.116
 9272TIP3   OH227772   5.913   6.232   5.738
 9272TIP3    H127773   5.993   6.267   5.700
 9272TIP3    H227774   5.932   6.224   5.832
 9273TIP3   OH227775   7.715   4.983   4.547
 9273TIP3    H127776   7.787   5.028   4.503
 9273TIP3    H227777   7.648   4.972   4.479
 9274TIP3   OH227778   4.581   1.114   2.432
 9274TIP3    H127779   4.552   1.144   2.518
 9274TIP3    H227780   4.526   1.161   2.370
 9275TIP3   OH227781   0.448   2.776   3.013
 9275TIP3    H127782   0.524   2.809   3.062
 9275TIP3    H227783   0.470   2.684   2.995
 9276TIP3   OH227784   6.731   7.268   3.544
 9276TIP3    H127785   6.754   7.179   3.515
 9276TIP3    H227786   6.709   7.257   3.637
 9277TIP3   OH227787   6.503   7.397   5.304
 9277TIP3    H127788   6.571   7.345   5.262
 9277TIP3    H227789   6.455   7.334   5.358
 9278TIP3   OH227790   5.457   1.722   6.144
 9278TIP3    H127791   5.552   1.708   6.137
 9278TIP3    H227792   5.435   1.776   6.068
 9279TIP3   OH227793   7.924   5.488   4.767
 9279TIP3    H127794   7.941   5.537   4.848
 9279TIP3    H227795   7.959   5.545   4.698
 9280TIP3   OH227796   1.821   1.839   1.866
 9280TIP3    H127797   1.912   1.839   1.895
 9280TIP3    H227798   1.786   1.924   1.894
 9281TIP3   OH227799   3.344   1.371   3.390
 9281TIP3    H127800   3.305   1.342   3.472
 9281TIP3    H227801   3.322   1.464   3.384
 9282TIP3   OH227802   7.770   1.577   6.618
 9282TIP3    H127803   7.840   1.593   6.555
 9282TIP3    H227804   7.738   1.489   6.596
 9283TIP3   OH227805   0.564   1.619   0.140
 9283TIP3    H127806   0.503   1.677   0.187
 9283TIP3    H227807   0.537   1.531   0.165
 9284TIP3   OH227808   5.146   4.838   5.389
 9284TIP3    H127809   5.102   4.901   5.446
 9284TIP3    H227810   5.233   4.827   5.428
 9285TIP3   OH227811   3.668   6.393   2.576
 9285TIP3    H127812   3.659   6.419   2.485
 9285TIP3    H227813   3.606   6.448   2.623
 9286TIP3   OH227814   4.399   0.113   4.987
 9286TIP3    H127815   4.383   0.145   4.898
 9286TIP3    H227816   4.454   0.181   5.026
 9287TIP3   OH227817   3.199   0.009   2.994
 9287TIP3    H127818   3.133   0.067   2.956
 9287TIP3    H227819   3.187  -0.074   2.949
 9288TIP3   OH227820   5.863   2.056   0.821
 9288TIP3    H127821   5.834   2.050   0.730
 9288TIP3    H227822   5.815   2.131   0.857
 9289TIP3   OH227823   6.977   6.521   0.518
 9289TIP3    H127824   6.903   6.460   0.522
 9289TIP3    H227825   7.035   6.493   0.588
 9290TIP3   OH227826   3.839   2.636   5.885
 9290TIP3    H127827   3.763   2.588   5.918
 9290TIP3    H227828   3.824   2.726   5.912
 9291TIP3   OH227829   4.072   4.369   1.504
 9291TIP3    H127830   4.019   4.447   1.486
 9291TIP3    H227831   4.039   4.304   1.442
 9292TIP3   OH227832   6.365   0.857   3.485
 9292TIP3    H127833   6.325   0.790   3.430
 9292TIP3    H227834   6.386   0.812   3.566
 9293TIP3   OH227835   2.697   5.760   2.494
 9293TIP3    H127836   2.731   5.686   2.442
 9293TIP3    H227837   2.623   5.724   2.542
 9294TIP3   OH227838   1.906   2.232   1.177
 9294TIP3    H127839   1.811   2.244   1.171
 9294TIP3    H227840   1.921   2.205   1.268
 9295TIP3   OH227841   6.512   7.759   1.681
 9295TIP3    H127842   6.423   7.782   1.655
 9295TIP3    H227843   6.534   7.683   1.627
 9296TIP3   OH227844   4.297   3.962   0.655
 9296TIP3    H127845   4.363   3.904   0.693
 9296TIP3    H227846   4.214   3.919   0.673
 9297TIP3   OH227847   3.268   6.266   3.726
 9297TIP3    H127848   3.190   6.304   3.686
 9297TIP3    H227849   3.300   6.204   3.660
 9298TIP3   OH227850   8.265   7.735   4.812
 9298TIP3    H127851   8.295   7.646   4.825
 9298TIP3    H227852   8.343   7.783   4.783
 9299TIP3   OH227853   1.746   2.300   2.201
 9299TIP3    H127854   1.825   2.334   2.243
 9299TIP3    H227855   1.740   2.350   2.119
 9300TIP3   OH227856   0.153   2.221   0.125
 9300TIP3    H127857   0.242   2.255   0.114
 9300TIP3    H227858   0.128   2.193   0.037
 9301TIP3   OH227859   4.199   2.874   3.360
 9301TIP3    H127860   4.156   2.817   3.296
 9301TIP3    H227861   4.132   2.937   3.385
 9302TIP3   OH227862   3.530   0.827   6.408
 9302TIP3    H127863   3.534   0.776   6.489
 9302TIP3    H227864   3.616   0.870   6.402
 9303TIP3   OH227865   4.585   1.893   1.275
 9303TIP3    H127866   4.644   1.964   1.299
 9303TIP3    H227867   4.596   1.828   1.345
 9304TIP3   OH227868   1.367   0.714   5.289
 9304TIP3    H127869   1.460   0.731   5.302
 9304TIP3    H227870   1.323   0.792   5.322
 9305TIP3   OH227871   0.243   2.203   2.282
 9305TIP3    H127872   0.267   2.273   2.343
 9305TIP3    H227873   0.288   2.125   2.316
 9306TIP3   OH227874   1.916   5.033   1.834
 9306TIP3    H127875   1.888   5.106   1.888
 9306TIP3    H227876   1.917   4.958   1.893
 9307TIP3   OH227877   6.753   1.467   6.037
 9307TIP3    H127878   6.800   1.386   6.056
 9307TIP3    H227879   6.754   1.475   5.942
 9308TIP3   OH227880   7.041   5.976   0.680
 9308TIP3    H127881   6.979   6.044   0.706
 9308TIP3    H227882   7.075   6.006   0.596
 9309TIP3   OH227883   1.862   7.171   1.734
 9309TIP3    H127884   1.895   7.253   1.697
 9309TIP3    H227885   1.768   7.171   1.712
 9310TIP3   OH227886   5.236   6.553   1.181
 9310TIP3    H127887   5.183   6.504   1.244
 9310TIP3    H227888   5.271   6.627   1.231
 9311TIP3   OH227889   3.048   2.638   2.457
 9311TIP3    H127890   2.968   2.665   2.411
 9311TIP3    H227891   3.023   2.641   2.550
 9312TIP3   OH227892   7.389   0.831   3.847
 9312TIP3    H127893   7.469   0.797   3.805
 9312TIP3    H227894   7.413   0.918   3.878
 9313TIP3   OH227895   2.104   6.528   1.592
 9313TIP3    H127896   2.056   6.468   1.649
 9313TIP3    H227897   2.161   6.471   1.541
 9314TIP3   OH227898   8.271   5.577   5.131
 9314TIP3    H127899   8.282   5.672   5.119
 9314TIP3    H227900   8.304   5.539   5.050
 9315TIP3   OH227901   7.008   5.459   0.544
 9315TIP3    H127902   6.993   5.550   0.570
 9315TIP3    H227903   7.041   5.465   0.454
 9316TIP3   OH227904   6.145   6.988   2.829
 9316TIP3    H127905   6.122   6.986   2.922
 9316TIP3    H227906   6.162   6.896   2.807
 9317TIP3   OH227907   1.385   2.119   1.411
 9317TIP3    H127908   1.335   2.174   1.472
 9317TIP3    H227909   1.367   2.029   1.440
 9318TIP3   OH227910   7.288   3.198   6.413
 9318TIP3    H127911   7.302   3.247   6.494
 9318TIP3    H227912   7.365   3.218   6.360
 9319TIP3   OH227913   1.980   4.367   6.229
 9319TIP3    H127914   2.039   4.428   6.186
 9319TIP3    H227915   1.895   4.413   6.230
 9320TIP3   OH227916   5.029   7.119   0.979
 9320TIP3    H127917   5.116   7.155   0.960
 9320TIP3    H227918   5.006   7.068   0.902
 9321TIP3   OH227919   4.156   4.440   6.474
 9321TIP3    H127920   4.123   4.529   6.471
 9321TIP3    H227921   4.079   4.385   6.458
 9322TIP3   OH227922   4.124   7.233   6.720
 9322TIP3    H127923   4.219   7.240   6.706
 9322TIP3    H227924   4.092   7.323   6.719
 9323TIP3   OH227925   3.008   4.916   5.762
 9323TIP3    H127926   2.958   4.991   5.729
 9323TIP3    H227927   2.992   4.916   5.856
 9324TIP3   OH227928   2.036   3.078   4.046
 9324TIP3    H127929   2.068   3.161   4.010
 9324TIP3    H227930   2.098   3.056   4.116
 9325TIP3   OH227931   3.635   7.584   1.308
 9325TIP3    H127932   3.676   7.514   1.359
 9325TIP3    H227933   3.606   7.647   1.373
 9326TIP3   OH227934   3.627   7.110   0.746
 9326TIP3    H127935   3.548   7.158   0.773
 9326TIP3    H227936   3.695   7.142   0.805
 9327TIP3   OH227937   4.119   7.186   3.537
 9327TIP3    H127938   4.130   7.100   3.576
 9327TIP3    H227939   4.028   7.186   3.505
 9328TIP3   OH227940   4.209   2.410   5.689
 9328TIP3    H127941   4.186   2.338   5.747
 9328TIP3    H227942   4.127   2.457   5.675
 9329TIP3   OH227943   6.960   4.882   1.880
 9329TIP3    H127944   6.990   4.839   1.800
 9329TIP3    H227945   6.889   4.827   1.912
 9330TIP3   OH227946   7.641   3.225   6.386
 9330TIP3    H127947   7.619   3.312   6.355
 9330TIP3    H227948   7.651   3.172   6.307
 9331TIP3   OH227949   5.701   3.494   5.984
 9331TIP3    H127950   5.785   3.487   5.938
 9331TIP3    H227951   5.720   3.463   6.073
 9332TIP3   OH227952   2.186   4.653   0.786
 9332TIP3    H127953   2.123   4.586   0.759
 9332TIP3    H227954   2.160   4.732   0.738
 9333TIP3   OH227955   8.224   2.472   4.880
 9333TIP3    H127956   8.221   2.527   4.958
 9333TIP3    H227957   8.276   2.396   4.906
 9334TIP3   OH227958   7.661   4.091   5.514
 9334TIP3    H127959   7.664   3.999   5.489
 9334TIP3    H227960   7.610   4.092   5.595
 9335TIP3   OH227961   1.604   3.144   4.514
 9335TIP3    H127962   1.521   3.144   4.466
 9335TIP3    H227963   1.624   3.051   4.527
 9336TIP3   OH227964   3.353   1.097   3.339
 9336TIP3    H127965   3.262   1.088   3.368
 9336TIP3    H227966   3.364   1.191   3.323
 9337TIP3   OH227967   1.801   3.285   5.719
 9337TIP3    H127968   1.743   3.209   5.708
 9337TIP3    H227969   1.800   3.303   5.812
 9338TIP3   OH227970   4.139   6.632   6.708
 9338TIP3    H127971   4.177   6.700   6.651
 9338TIP3    H227972   4.213   6.600   6.759
 9339TIP3   OH227973   4.499   1.637   6.277
 9339TIP3    H127974   4.417   1.637   6.228
 9339TIP3    H227975   4.544   1.558   6.249
 9340TIP3   OH227976   1.805   5.355   6.558
 9340TIP3    H127977   1.860   5.331   6.483
 9340TIP3    H227978   1.856   5.329   6.635
 9341TIP3   OH227979   5.748   2.691   4.652
 9341TIP3    H127980   5.751   2.597   4.669
 9341TIP3    H227981   5.839   2.719   4.649
 9342TIP3   OH227982   1.902   1.246   2.546
 9342TIP3    H127983   1.967   1.245   2.617
 9342TIP3    H227984   1.953   1.230   2.467
 9343TIP3   OH227985   4.429   6.522   3.326
 9343TIP3    H127986   4.458   6.606   3.292
 9343TIP3    H227987   4.414   6.537   3.420
 9344TIP3   OH227988   2.471   0.529   5.164
 9344TIP3    H127989   2.542   0.592   5.179
 9344TIP3    H227990   2.494   0.487   5.082
 9345TIP3   OH227991   2.698   4.938   4.958
 9345TIP3    H127992   2.787   4.959   4.985
 9345TIP3    H227993   2.648   5.018   4.974
 9346TIP3   OH227994   8.300   4.391   1.162
 9346TIP3    H127995   8.364   4.329   1.126
 9346TIP3    H227996   8.253   4.341   1.229
 9347TIP3   OH227997   3.802   3.658   0.803
 9347TIP3    H127998   3.777   3.567   0.790
 9347TIP3    H227999   3.875   3.672   0.743
 9348TIP3   OH228000   5.806   2.095   2.310
 9348TIP3    H128001   5.777   2.184   2.329
 9348TIP3    H228002   5.894   2.090   2.345
 9349TIP3   OH228003   3.840   1.210   3.559
 9349TIP3    H128004   3.805   1.133   3.514
 9349TIP3    H228005   3.925   1.182   3.593
 9350TIP3   OH228006   2.071   0.537   5.475
 9350TIP3    H128007   2.148   0.515   5.528
 9350TIP3    H228008   2.105   0.542   5.386
 9351TIP3   OH228009   7.510   5.607   3.746
 9351TIP3    H128010   7.485   5.534   3.802
 9351TIP3    H228011   7.585   5.647   3.791
 9352TIP3   OH228012   7.466   5.773   2.394
 9352TIP3    H128013   7.514   5.698   2.428
 9352TIP3    H228014   7.406   5.736   2.329
 9353TIP3   OH228015   0.812   1.274   4.178
 9353TIP3    H128016   0.774   1.302   4.261
 9353TIP3    H228017   0.741   1.228   4.133
 9354TIP3   OH228018   1.257   3.430   4.115
 9354TIP3    H128019   1.321   3.470   4.174
 9354TIP3    H228020   1.238   3.499   4.050
 9355TIP3   OH228021   2.064   1.955   4.985
 9355TIP3    H128022   2.075   1.939   5.078
 9355TIP3    H228023   2.117   1.888   4.942
 9356TIP3   OH228024   4.067   2.298   2.698
 9356TIP3    H128025   4.011   2.231   2.658
 9356TIP3    H228026   4.046   2.378   2.649
 9357TIP3   OH228027   2.347   2.425   0.933
 9357TIP3    H128028   2.286   2.368   0.979
 9357TIP3    H228029   2.434   2.395   0.961
 9358TIP3   OH228030   3.611   5.056   3.923
 9358TIP3    H128031   3.605   5.019   4.011
 9358TIP3    H228032   3.698   5.095   3.920
 9359TIP3   OH228033   8.193   6.793   5.074
 9359TIP3    H128034   8.145   6.767   5.153
 9359TIP3    H228035   8.228   6.879   5.094
 9360TIP3   OH228036   1.627   5.551   6.597
 9360TIP3    H128037   1.672   5.466   6.591
 9360TIP3    H228038   1.697   5.615   6.603
 9361TIP3   OH228039   1.792   6.473   5.362
 9361TIP3    H128040   1.881   6.449   5.336
 9361TIP3    H228041   1.802   6.554   5.411
 9362TIP3   OH228042   5.129   3.648   0.283
 9362TIP3    H128043   5.153   3.557   0.262
 9362TIP3    H228044   5.069   3.641   0.357
 9363TIP3   OH228045   7.534   0.748   2.065
 9363TIP3    H128046   7.600   0.816   2.049
 9363TIP3    H228047   7.513   0.715   1.978
 9364TIP3   OH228048   7.267   7.292   0.864
 9364TIP3    H128049   7.256   7.225   0.797
 9364TIP3    H228050   7.351   7.272   0.905
 9365TIP3   OH228051   5.577   1.429   0.856
 9365TIP3    H128052   5.582   1.347   0.906
 9365TIP3    H228053   5.483   1.451   0.856
 9366TIP3   OH228054   1.047   7.252   2.733
 9366TIP3    H128055   0.991   7.318   2.774
 9366TIP3    H228056   1.007   7.237   2.647
 9367TIP3   OH228057   3.713   4.838   4.855
 9367TIP3    H128058   3.673   4.807   4.936
 9367TIP3    H228059   3.664   4.794   4.786
 9368TIP3   OH228060   6.966   5.307   4.395
 9368TIP3    H128061   6.965   5.306   4.299
 9368TIP3    H228062   7.028   5.238   4.420
 9369TIP3   OH228063   4.608   6.462   1.913
 9369TIP3    H128064   4.624   6.416   1.831
 9369TIP3    H228065   4.676   6.429   1.972
 9370TIP3   OH228066   4.565   2.656   4.237
 9370TIP3    H128067   4.614   2.617   4.164
 9370TIP3    H228068   4.482   2.608   4.237
 9371TIP3   OH228069   4.556   0.081   3.133
 9371TIP3    H128070   4.606   0.132   3.070
 9371TIP3    H228071   4.604   0.091   3.216
 9372TIP3   OH228072   6.611   2.211   2.065
 9372TIP3    H128073   6.614   2.235   2.157
 9372TIP3    H228074   6.651   2.285   2.019
 9373TIP3   OH228075   0.127   3.027   0.699
 9373TIP3    H128076   0.104   2.964   0.767
 9373TIP3    H228077   0.043   3.060   0.667
 9374TIP3   OH228078   4.482   3.183   0.107
 9374TIP3    H128079   4.521   3.145   0.028
 9374TIP3    H228080   4.408   3.126   0.128
 9375TIP3   OH228081   7.719   3.098   0.025
 9375TIP3    H128082   7.753   3.044  -0.047
 9375TIP3    H228083   7.738   3.048   0.104
 9376TIP3   OH228084   1.745   7.435   3.283
 9376TIP3    H128085   1.817   7.450   3.221
 9376TIP3    H228086   1.728   7.521   3.322
 9377TIP3   OH228087   0.633   0.165   0.239
 9377TIP3    H128088   0.538   0.175   0.241
 9377TIP3    H228089   0.664   0.237   0.183
 9378TIP3   OH228090   0.755   1.428   3.566
 9378TIP3    H128091   0.790   1.463   3.648
 9378TIP3    H228092   0.828   1.378   3.529
 9379TIP3   OH228093   7.836   5.375   0.625
 9379TIP3    H128094   7.882   5.458   0.626
 9379TIP3    H228095   7.806   5.363   0.715
 9380TIP3   OH228096   8.048   7.792   5.482
 9380TIP3    H128097   7.958   7.799   5.451
 9380TIP3    H228098   8.097   7.757   5.408
 9381TIP3   OH228099   0.005   3.397   4.309
 9381TIP3    H128100  -0.021   3.440   4.391
 9381TIP3    H228101   0.084   3.348   4.332
 9382TIP3   OH228102   1.054   2.364   5.183
 9382TIP3    H128103   1.016   2.332   5.264
 9382TIP3    H228104   1.147   2.378   5.204
 9383TIP3   OH228105   4.551   4.030   0.251
 9383TIP3    H128106   4.495   4.085   0.305
 9383TIP3    H228107   4.527   3.941   0.276
 9384TIP3   OH228108   7.719   2.737   1.716
 9384TIP3    H128109   7.642   2.792   1.730
 9384TIP3    H228110   7.792   2.799   1.712
 9385TIP3   OH228111   5.137   7.602   4.241
 9385TIP3    H128112   5.090   7.530   4.285
 9385TIP3    H228113   5.201   7.631   4.306
 9386TIP3   OH228114   6.695   3.751   1.852
 9386TIP3    H128115   6.784   3.737   1.885
 9386TIP3    H228116   6.700   3.729   1.759
 9387TIP3   OH228117   8.086   1.165   4.023
 9387TIP3    H128118   8.015   1.224   3.997
 9387TIP3    H228119   8.046   1.104   4.085
 9388TIP3   OH228120   5.797   1.133   3.285
 9388TIP3    H128121   5.705   1.138   3.312
 9388TIP3    H228122   5.839   1.078   3.351
 9389TIP3   OH228123   7.229   7.213   0.087
 9389TIP3    H128124   7.235   7.271   0.163
 9389TIP3    H228125   7.151   7.160   0.103
 9390TIP3   OH228126   7.459   1.514   4.937
 9390TIP3    H128127   7.420   1.473   5.015
 9390TIP3    H228128   7.385   1.554   4.892
 9391TIP3   OH228129   5.413   6.414   6.663
 9391TIP3    H128130   5.388   6.348   6.727
 9391TIP3    H228131   5.452   6.365   6.590
 9392TIP3   OH228132   3.768   0.473   3.316
 9392TIP3    H128133   3.694   0.472   3.376
 9392TIP3    H228134   3.845   0.469   3.373
 9393TIP3   OH228135   5.995   3.617   2.726
 9393TIP3    H128136   6.018   3.624   2.819
 9393TIP3    H228137   5.900   3.606   2.727
 9394TIP3   OH228138   7.599   6.638   5.824
 9394TIP3    H128139   7.512   6.600   5.835
 9394TIP3    H228140   7.630   6.654   5.913
 9395TIP3   OH228141   4.916   0.438   0.637
 9395TIP3    H128142   4.993   0.481   0.600
 9395TIP3    H228143   4.845   0.500   0.625
 9396TIP3   OH228144   1.295   3.879   3.764
 9396TIP3    H128145   1.273   3.961   3.719
 9396TIP3    H228146   1.303   3.905   3.856
 9397TIP3   OH228147   7.290   4.100   4.157
 9397TIP3    H128148   7.250   4.103   4.071
 9397TIP3    H228149   7.384   4.112   4.140
 9398TIP3   OH228150   2.669   6.400   1.173
 9398TIP3    H128151   2.605   6.355   1.118
 9398TIP3    H228152   2.629   6.402   1.260
 9399TIP3   OH228153   6.928   5.206   5.118
 9399TIP3    H128154   6.955   5.115   5.127
 9399TIP3    H228155   6.859   5.218   5.184
 9400TIP3   OH228156   4.531   3.999   5.286
 9400TIP3    H128157   4.596   3.930   5.280
 9400TIP3    H228158   4.533   4.041   5.200
 9401TIP3   OH228159   4.356   4.688   1.701
 9401TIP3    H128160   4.308   4.654   1.777
 9401TIP3    H228161   4.393   4.771   1.732
 9402TIP3   OH228162   0.216   6.967   4.949
 9402TIP3    H128163   0.283   7.016   4.996
 9402TIP3    H228164   0.135   6.985   4.997
 9403TIP3   OH228165   5.522   5.890   2.921
 9403TIP3    H128166   5.470   5.816   2.889
 9403TIP3    H228167   5.608   5.879   2.880
 9404TIP3   OH228168   5.951   7.770   5.219
 9404TIP3    H128169   5.987   7.823   5.290
 9404TIP3    H228170   5.954   7.680   5.252
 9405TIP3   OH228171   1.069   3.225   0.488
 9405TIP3    H128172   1.104   3.301   0.441
 9405TIP3    H228173   0.997   3.193   0.433
 9406TIP3   OH228174   4.529   3.908   2.001
 9406TIP3    H128175   4.479   3.944   1.927
 9406TIP3    H228176   4.471   3.919   2.076
 9407TIP3   OH228177   4.982   7.279   3.939
 9407TIP3    H128178   5.045   7.274   3.867
 9407TIP3    H228179   4.969   7.188   3.966
 9408TIP3   OH228180   7.890   0.341   3.469
 9408TIP3    H128181   7.936   0.291   3.536
 9408TIP3    H228182   7.821   0.387   3.516
 9409TIP3   OH228183   7.281   2.259   4.960
 9409TIP3    H128184   7.257   2.328   4.898
 9409TIP3    H228185   7.338   2.201   4.911
 9410TIP3   OH228186   4.445   4.687   0.816
 9410TIP3    H128187   4.512   4.631   0.855
 9410TIP3    H228188   4.388   4.626   0.768
 9411TIP3   OH228189   4.590   2.788   1.596
 9411TIP3    H128190   4.609   2.769   1.504
 9411TIP3    H228191   4.647   2.861   1.617
 9412TIP3   OH228192   1.564   4.399   2.006
 9412TIP3    H128193   1.637   4.425   1.950
 9412TIP3    H228194   1.490   4.451   1.973
 9413TIP3   OH228195   4.638   4.459   0.909
 9413TIP3    H128196   4.606   4.410   0.985
 9413TIP3    H228197   4.612   4.406   0.834
 9414TIP3   OH228198   1.405   4.762   5.759
 9414TIP3    H128199   1.387   4.670   5.740
 9414TIP3    H228200   1.493   4.776   5.725
 9415TIP3   OH228201   1.189   0.048   6.230
 9415TIP3    H128202   1.188   0.120   6.293
 9415TIP3    H228203   1.096   0.025   6.220
 9416TIP3   OH228204   7.083   1.780   3.871
 9416TIP3    H128205   7.057   1.815   3.786
 9416TIP3    H228206   7.045   1.693   3.874
 9417TIP3   OH228207   6.019   7.204   4.446
 9417TIP3    H128208   5.935   7.241   4.418
 9417TIP3    H228209   6.002   7.168   4.533
 9418TIP3   OH228210   2.869   7.166   6.155
 9418TIP3    H128211   2.791   7.150   6.101
 9418TIP3    H228212   2.933   7.202   6.093
 9419TIP3   OH228213   2.049   5.904   5.356
 9419TIP3    H128214   2.038   5.833   5.419
 9419TIP3    H228215   2.110   5.964   5.399
 9420TIP3   OH228216   5.398   3.435   5.960
 9420TIP3    H128217   5.463   3.390   5.905
 9420TIP3    H228218   5.449   3.491   6.018
 9421TIP3   OH228219   7.652   6.103   0.860
 9421TIP3    H128220   7.657   6.103   0.764
 9421TIP3    H228221   7.715   6.037   0.887
 9422TIP3   OH228222   2.077   5.171   1.175
 9422TIP3    H128223   2.023   5.246   1.150
 9422TIP3    H228224   2.140   5.207   1.237
 9423TIP3   OH228225   2.634   3.990   3.449
 9423TIP3    H128226   2.588   4.017   3.529
 9423TIP3    H228227   2.627   4.065   3.391
 9424TIP3   OH228228   0.053   5.305   3.622
 9424TIP3    H128229   0.043   5.398   3.643
 9424TIP3    H228230   0.042   5.261   3.706
 9425TIP3   OH228231   5.932   5.664   4.208
 9425TIP3    H128232   5.883   5.732   4.162
 9425TIP3    H228233   5.971   5.708   4.283
 9426TIP3   OH228234   1.115   1.551   1.669
 9426TIP3    H128235   1.084   1.640   1.690
 9426TIP3    H228236   1.144   1.557   1.578
 9427TIP3   OH228237   8.124   2.248   4.715
 9427TIP3    H128238   8.156   2.338   4.721
 9427TIP3    H228239   8.199   2.199   4.680
 9428TIP3   OH228240   4.056   3.445   2.534
 9428TIP3    H128241   3.976   3.398   2.558
 9428TIP3    H228242   4.115   3.377   2.503
 9429TIP3   OH228243   2.855   0.285   6.773
 9429TIP3    H128244   2.870   0.323   6.860
 9429TIP3    H228245   2.884   0.353   6.712
 9430TIP3   OH228246   5.633   1.289   5.106
 9430TIP3    H128247   5.565   1.281   5.040
 9430TIP3    H228248   5.657   1.199   5.127
 9431TIP3   OH228249   7.691   3.998   6.076
 9431TIP3    H128250   7.675   4.087   6.042
 9431TIP3    H228251   7.769   3.969   6.028
 9432TIP3   OH228252   0.432   0.383   3.595
 9432TIP3    H128253   0.504   0.438   3.625
 9432TIP3    H228254   0.446   0.299   3.639
 9433TIP3   OH228255   5.944   2.857   3.093
 9433TIP3    H128256   5.971   2.870   3.003
 9433TIP3    H228257   5.965   2.765   3.111
 9434TIP3   OH228258   1.476   4.941   4.859
 9434TIP3    H128259   1.469   4.996   4.937
 9434TIP3    H228260   1.392   4.896   4.853
 9435TIP3   OH228261   4.647   3.738   3.858
 9435TIP3    H128262   4.615   3.759   3.770
 9435TIP3    H228263   4.577   3.767   3.917
 9436TIP3   OH228264   1.850   7.548   6.537
 9436TIP3    H128265   1.800   7.593   6.605
 9436TIP3    H228266   1.811   7.461   6.531
 9437TIP3   OH228267   4.557   0.394   5.849
 9437TIP3    H128268   4.649   0.390   5.876
 9437TIP3    H228269   4.519   0.464   5.904
 9438TIP3   OH228270   1.992   2.230   6.753
 9438TIP3    H128271   1.952   2.292   6.693
 9438TIP3    H228272   1.967   2.144   6.720
 9439TIP3   OH228273   2.479   6.194   2.230
 9439TIP3    H128274   2.561   6.237   2.205
 9439TIP3    H228275   2.414   6.264   2.230
 9440TIP3   OH228276   6.923   0.905   6.182
 9440TIP3    H128277   6.993   0.886   6.120
 9440TIP3    H228278   6.949   0.860   6.262
 9441TIP3   OH228279   1.977   3.762   2.966
 9441TIP3    H128280   2.013   3.685   3.011
 9441TIP3    H228281   2.032   3.834   2.997
 9442TIP3   OH228282   4.088   4.913   3.352
 9442TIP3    H128283   4.137   4.989   3.321
 9442TIP3    H228284   3.999   4.928   3.322
 9443TIP3   OH228285   1.187   6.494   6.277
 9443TIP3    H128286   1.157   6.585   6.267
 9443TIP3    H228287   1.252   6.483   6.207
 9444TIP3   OH228288   1.822   3.258   1.947
 9444TIP3    H128289   1.735   3.294   1.930
 9444TIP3    H228290   1.873   3.282   1.871
 9445TIP3   OH228291   6.823   3.424   2.189
 9445TIP3    H128292   6.833   3.347   2.133
 9445TIP3    H228293   6.906   3.429   2.237
 9446TIP3   OH228294   2.320   3.084   1.607
 9446TIP3    H128295   2.409   3.098   1.576
 9446TIP3    H228296   2.265   3.111   1.534
 9447TIP3   OH228297   4.796   4.612   0.643
 9447TIP3    H128298   4.723   4.665   0.675
 9447TIP3    H228299   4.840   4.668   0.579
 9448TIP3   OH228300   4.827   3.573   5.655
 9448TIP3    H128301   4.917   3.590   5.628
 9448TIP3    H228302   4.808   3.484   5.624
 9449TIP3   OH228303   6.660   6.837   6.118
 9449TIP3    H128304   6.571   6.810   6.142
 9449TIP3    H228305   6.717   6.770   6.157
 9450TIP3   OH228306   4.448   5.509   4.377
 9450TIP3    H128307   4.451   5.586   4.433
 9450TIP3    H228308   4.377   5.455   4.414
 9451TIP3   OH228309   0.292   5.673   4.117
 9451TIP3    H128310   0.367   5.699   4.170
 9451TIP3    H228311   0.330   5.636   4.038
 9452TIP3   OH228312   1.562   6.036   4.679
 9452TIP3    H128313   1.484   6.087   4.701
 9452TIP3    H228314   1.529   5.955   4.642
 9453TIP3   OH228315   7.658   7.683   2.464
 9453TIP3    H128316   7.592   7.615   2.483
 9453TIP3    H228317   7.711   7.645   2.394
 9454TIP3   OH228318   4.823   2.842   4.902
 9454TIP3    H128319   4.774   2.841   4.820
 9454TIP3    H228320   4.880   2.765   4.897
 9455TIP3   OH228321   5.169   7.631   2.769
 9455TIP3    H128322   5.168   7.554   2.713
 9455TIP3    H228323   5.165   7.705   2.708
 9456TIP3   OH228324   3.171   1.928   0.936
 9456TIP3    H128325   3.239   1.903   0.872
 9456TIP3    H228326   3.149   2.019   0.914
 9457TIP3   OH228327   5.914   2.535   5.006
 9457TIP3    H128328   5.826   2.546   5.041
 9457TIP3    H228329   5.969   2.516   5.082
 9458TIP3   OH228330   0.317   7.320   0.721
 9458TIP3    H128331   0.396   7.370   0.699
 9458TIP3    H228332   0.283   7.290   0.637
 9459TIP3   OH228333   1.356   1.239   2.669
 9459TIP3    H128334   1.405   1.171   2.715
 9459TIP3    H228335   1.422   1.303   2.643
 9460TIP3   OH228336   4.805   1.809   1.015
 9460TIP3    H128337   4.829   1.902   1.020
 9460TIP3    H228338   4.880   1.768   0.971
 9461TIP3   OH228339   2.759   3.928   4.138
 9461TIP3    H128340   2.732   3.983   4.211
 9461TIP3    H228341   2.855   3.930   4.140
 9462TIP3   OH228342   0.496   5.500   2.537
 9462TIP3    H128343   0.411   5.540   2.515
 9462TIP3    H228344   0.560   5.560   2.499
 9463TIP3   OH228345   6.951   2.586   3.645
 9463TIP3    H128346   6.937   2.492   3.648
 9463TIP3    H228347   6.990   2.602   3.559
 9464TIP3   OH228348   6.220   0.975   0.451
 9464TIP3    H128349   6.280   1.045   0.426
 9464TIP3    H228350   6.271   0.920   0.511
 9465TIP3   OH228351   4.086   3.041   3.068
 9465TIP3    H128352   4.022   3.037   2.996
 9465TIP3    H228353   4.094   2.950   3.098
 9466TIP3   OH228354   4.269   7.063   1.172
 9466TIP3    H128355   4.324   7.061   1.093
 9466TIP3    H228356   4.209   6.989   1.162
 9467TIP3   OH228357   5.756   5.151   5.214
 9467TIP3    H128358   5.805   5.091   5.271
 9467TIP3    H228359   5.673   5.165   5.259
 9468TIP3   OH228360   3.980   7.547   5.403
 9468TIP3    H128361   3.907   7.588   5.449
 9468TIP3    H228362   4.054   7.554   5.463
 9469TIP3   OH228363   1.009   3.989   6.038
 9469TIP3    H128364   0.949   4.044   5.987
 9469TIP3    H228365   1.074   3.959   5.974
 9470TIP3   OH228366   0.753   2.735   6.136
 9470TIP3    H128367   0.843   2.765   6.124
 9470TIP3    H228368   0.761   2.644   6.165
 9471TIP3   OH228369   7.450   7.564   3.807
 9471TIP3    H128370   7.402   7.602   3.880
 9471TIP3    H228371   7.390   7.499   3.770
 9472TIP3   OH228372   7.575   1.340   6.627
 9472TIP3    H128373   7.561   1.304   6.540
 9472TIP3    H228374   7.503   1.402   6.639
 9473TIP3   OH228375   7.993   3.807   3.857
 9473TIP3    H128376   7.937   3.863   3.912
 9473TIP3    H228377   8.082   3.835   3.878
 9474TIP3   OH228378   1.367   3.937   1.937
 9474TIP3    H128379   1.324   4.022   1.938
 9474TIP3    H228380   1.322   3.887   1.869
 9475TIP3   OH228381   3.374   6.409   3.476
 9475TIP3    H128382   3.298   6.365   3.439
 9475TIP3    H228383   3.448   6.375   3.426
 9476TIP3   OH228384   4.613   3.159   5.152
 9476TIP3    H128385   4.569   3.127   5.231
 9476TIP3    H228386   4.580   3.102   5.082
 9477TIP3   OH228387   6.009   6.754   2.327
 9477TIP3    H128388   5.993   6.790   2.414
 9477TIP3    H228389   5.983   6.662   2.334
 9478TIP3   OH228390   0.521   0.584   3.859
 9478TIP3    H128391   0.601   0.534   3.874
 9478TIP3    H228392   0.541   0.640   3.783
 9479TIP3   OH228393   6.913   2.964   5.577
 9479TIP3    H128394   6.963   2.907   5.518
 9479TIP3    H228395   6.880   2.905   5.645
 9480TIP3   OH228396   6.221   3.123   3.842
 9480TIP3    H128397   6.287   3.188   3.817
 9480TIP3    H228398   6.267   3.039   3.834
 9481TIP3   OH228399   5.709   0.836   1.338
 9481TIP3    H128400   5.639   0.791   1.291
 9481TIP3    H228401   5.675   0.924   1.355
 9482TIP3   OH228402   7.689   7.485   5.790
 9482TIP3    H128403   7.778   7.495   5.822
 9482TIP3    H228404   7.634   7.516   5.862
 9483TIP3   OH228405   6.816   0.439   2.625
 9483TIP3    H128406   6.898   0.423   2.577
 9483TIP3    H228407   6.845   0.468   2.712
 9484TIP3   OH228408   4.784   1.150   2.252
 9484TIP3    H128409   4.717   1.152   2.320
 9484TIP3    H228410   4.867   1.140   2.300
 9485TIP3   OH228411   3.303   3.188   0.406
 9485TIP3    H128412   3.262   3.275   0.404
 9485TIP3    H228413   3.357   3.189   0.484
 9486TIP3   OH228414   0.671   5.783   3.493
 9486TIP3    H128415   0.711   5.833   3.564
 9486TIP3    H228416   0.723   5.806   3.416
 9487TIP3   OH228417   2.196   1.624   0.714
 9487TIP3    H128418   2.119   1.576   0.745
 9487TIP3    H228419   2.267   1.560   0.714
 9488TIP3   OH228420   4.836   1.370   4.655
 9488TIP3    H128421   4.825   1.461   4.681
 9488TIP3    H228422   4.931   1.357   4.651
 9489TIP3   OH228423   7.223   7.414   5.410
 9489TIP3    H128424   7.312   7.383   5.428
 9489TIP3    H228425   7.180   7.340   5.367
 9490TIP3   OH228426   4.895   5.900   4.847
 9490TIP3    H128427   4.809   5.926   4.880
 9490TIP3    H228428   4.878   5.875   4.756
 9491TIP3   OH228429   7.590   5.049   5.174
 9491TIP3    H128430   7.630   4.963   5.187
 9491TIP3    H228431   7.657   5.099   5.127
 9492TIP3   OH228432   6.379   6.788   0.847
 9492TIP3    H128433   6.440   6.840   0.899
 9492TIP3    H228434   6.293   6.825   0.866
 9493TIP3   OH228435   1.980   6.935   0.220
 9493TIP3    H128436   1.938   6.886   0.291
 9493TIP3    H228437   2.033   7.001   0.264
 9494TIP3   OH228438   2.752   3.236   5.814
 9494TIP3    H128439   2.826   3.177   5.822
 9494TIP3    H228440   2.742   3.249   5.720
 9495TIP3   OH228441   1.391   1.909   2.002
 9495TIP3    H128442   1.346   1.843   2.055
 9495TIP3    H228443   1.449   1.953   2.063
 9496TIP3   OH228444   4.419   2.334   2.322
 9496TIP3    H128445   4.422   2.337   2.417
 9496TIP3    H228446   4.363   2.408   2.298
 9497TIP3   OH228447   6.798   6.514   5.033
 9497TIP3    H128448   6.808   6.447   5.101
 9497TIP3    H228449   6.726   6.569   5.063
 9498TIP3   OH228450   0.320   1.617   6.348
 9498TIP3    H128451   0.406   1.592   6.382
 9498TIP3    H228452   0.282   1.670   6.418
 9499TIP3   OH228453   4.654   3.173   4.810
 9499TIP3    H128454   4.606   3.108   4.862
 9499TIP3    H228455   4.707   3.121   4.749
 9500TIP3   OH228456   2.973   0.194   0.582
 9500TIP3    H128457   3.051   0.233   0.543
 9500TIP3    H228458   3.005   0.116   0.627
 9501TIP3   OH228459   2.990   5.262   0.558
 9501TIP3    H128460   2.899   5.271   0.587
 9501TIP3    H228461   2.984   5.224   0.471
 9502TIP3   OH228462   3.529   3.828   5.854
 9502TIP3    H128463   3.473   3.862   5.783
 9502TIP3    H228464   3.473   3.830   5.931
 9503TIP3   OH228465   7.177   4.004   1.128
 9503TIP3    H128466   7.213   4.089   1.103
 9503TIP3    H228467   7.134   4.020   1.211
 9504TIP3   OH228468   5.792   2.711   2.184
 9504TIP3    H128469   5.854   2.709   2.257
 9504TIP3    H228470   5.709   2.686   2.222
 9505TIP3   OH228471   2.214   4.020   2.237
 9505TIP3    H128472   2.296   4.018   2.188
 9505TIP3    H228473   2.241   4.017   2.329
 9506TIP3   OH228474   3.223   7.870   0.814
 9506TIP3    H128475   3.194   7.800   0.873
 9506TIP3    H228476   3.263   7.824   0.740
 9507TIP3   OH228477   7.285   3.148   5.536
 9507TIP3    H128478   7.283   3.092   5.458
 9507TIP3    H228479   7.208   3.204   5.527
 9508TIP3   OH228480   6.714   3.335   5.331
 9508TIP3    H128481   6.710   3.251   5.286
 9508TIP3    H228482   6.623   3.353   5.356
 9509TIP3   OH228483   4.287   3.562   0.012
 9509TIP3    H128484   4.260   3.652   0.030
 9509TIP3    H228485   4.366   3.571  -0.041
 9510TIP3   OH228486   4.173   3.607   0.404
 9510TIP3    H128487   4.216   3.544   0.346
 9510TIP3    H228488   4.168   3.688   0.354
 9511TIP3   OH228489   4.249   5.660   1.284
 9511TIP3    H128490   4.243   5.646   1.379
 9511TIP3    H228491   4.158   5.667   1.256
 9512TIP3   OH228492   5.661   0.100   4.125
 9512TIP3    H128493   5.568   0.123   4.119
 9512TIP3    H228494   5.673   0.074   4.217
 9513TIP3   OH228495   6.849   7.634   5.724
 9513TIP3    H128496   6.901   7.594   5.793
 9513TIP3    H228497   6.861   7.577   5.648
 9514TIP3   OH228498   0.903   1.014   6.798
 9514TIP3    H128499   0.865   1.003   6.711
 9514TIP3    H228500   0.922   1.107   6.805
 9515TIP3   OH228501   6.744   0.167   4.690
 9515TIP3    H128502   6.706   0.127   4.612
 9515TIP3    H228503   6.838   0.153   4.682
 9516TIP3   OH228504   2.542   7.671   3.580
 9516TIP3    H128505   2.563   7.679   3.487
 9516TIP3    H228506   2.615   7.621   3.616
 9517TIP3   OH228507   0.940   3.439   5.729
 9517TIP3    H128508   0.875   3.506   5.751
 9517TIP3    H228509   0.943   3.440   5.633
 9518TIP3   OH228510   7.413   0.798   3.403
 9518TIP3    H128511   7.393   0.891   3.416
 9518TIP3    H228512   7.328   0.757   3.390
 9519TIP3   OH228513   2.182   3.347   0.515
 9519TIP3    H128514   2.267   3.389   0.522
 9519TIP3    H228515   2.201   3.253   0.517
 9520TIP3   OH228516   2.064   0.331   3.268
 9520TIP3    H128517   2.062   0.415   3.312
 9520TIP3    H228518   2.141   0.286   3.304
 9521TIP3   OH228519   2.361   4.145   0.687
 9521TIP3    H128520   2.333   4.173   0.774
 9521TIP3    H228521   2.455   4.164   0.685
 9522TIP3   OH228522   0.809   3.187   6.280
 9522TIP3    H128523   0.828   3.148   6.365
 9522TIP3    H228524   0.883   3.160   6.225
 9523TIP3   OH228525   2.695   5.075   2.804
 9523TIP3    H128526   2.669   5.048   2.892
 9523TIP3    H228527   2.767   5.137   2.818
 9524TIP3   OH228528   0.924   4.631   1.323
 9524TIP3    H128529   0.993   4.686   1.286
 9524TIP3    H228530   0.932   4.645   1.418
 9525TIP3   OH228531   3.404   2.969   0.684
 9525TIP3    H128532   3.466   2.912   0.639
 9525TIP3    H228533   3.437   3.058   0.667
 9526TIP3   OH228534   5.525   5.243   5.362
 9526TIP3    H128535   5.473   5.321   5.379
 9526TIP3    H228536   5.536   5.202   5.448
 9527TIP3   OH228537   3.800   5.831   2.411
 9527TIP3    H128538   3.892   5.857   2.417
 9527TIP3    H228539   3.761   5.897   2.353
 9528TIP3   OH228540   6.615   2.479   4.570
 9528TIP3    H128541   6.564   2.494   4.649
 9528TIP3    H228542   6.696   2.529   4.584
 9529TIP3   OH228543   5.088   3.907   6.260
 9529TIP3    H128544   5.145   3.885   6.335
 9529TIP3    H228545   5.129   3.863   6.185
 9530TIP3   OH228546   1.534   6.427   5.698
 9530TIP3    H128547   1.505   6.485   5.628
 9530TIP3    H228548   1.569   6.485   5.765
 9531TIP3   OH228549   0.210   1.955   5.526
 9531TIP3    H128550   0.146   2.021   5.500
 9531TIP3    H228551   0.293   1.987   5.490
 9532TIP3   OH228552   5.456   0.733   0.570
 9532TIP3    H128553   5.429   0.653   0.615
 9532TIP3    H228554   5.374   0.772   0.540
 9533TIP3   OH228555   4.286   4.226   2.339
 9533TIP3    H128556   4.301   4.203   2.247
 9533TIP3    H228557   4.217   4.167   2.368
 9534TIP3   OH228558   5.803   4.589   5.262
 9534TIP3    H128559   5.821   4.495   5.250
 9534TIP3    H228560   5.725   4.605   5.208
 9535TIP3   OH228561   7.269   3.660   5.821
 9535TIP3    H128562   7.288   3.622   5.736
 9535TIP3    H228563   7.174   3.672   5.821
 9536TIP3   OH228564   6.724   0.812   5.152
 9536TIP3    H128565   6.797   0.757   5.181
 9536TIP3    H228566   6.671   0.754   5.097
 9537TIP3   OH228567   7.199   3.139   5.831
 9537TIP3    H128568   7.131   3.206   5.825
 9537TIP3    H228569   7.160   3.070   5.884
 9538TIP3   OH228570   2.397   4.837   6.188
 9538TIP3    H128571   2.401   4.900   6.260
 9538TIP3    H228572   2.406   4.752   6.231
 9539TIP3   OH228573   0.382   5.076   2.733
 9539TIP3    H128574   0.299   5.036   2.761
 9539TIP3    H228575   0.437   5.075   2.811
 9540TIP3   OH228576   5.595   0.843   5.666
 9540TIP3    H128577   5.664   0.861   5.730
 9540TIP3    H228578   5.578   0.928   5.625
 9541TIP3   OH228579   7.068   4.172   0.321
 9541TIP3    H128580   7.066   4.215   0.406
 9541TIP3    H228581   7.130   4.100   0.331
 9542TIP3   OH228582   6.531   6.517   5.530
 9542TIP3    H128583   6.498   6.603   5.503
 9542TIP3    H228584   6.606   6.536   5.585
 9543TIP3   OH228585   5.000   0.978   4.875
 9543TIP3    H128586   4.994   0.952   4.967
 9543TIP3    H228587   5.002   1.074   4.877
 9544TIP3   OH228588   3.759   7.311   2.918
 9544TIP3    H128589   3.805   7.355   2.847
 9544TIP3    H228590   3.689   7.372   2.943
 9545TIP3   OH228591   7.782   2.999   6.215
 9545TIP3    H128592   7.837   2.995   6.293
 9545TIP3    H228593   7.755   2.909   6.199
 9546TIP3   OH228594   4.987   3.983   0.017
 9546TIP3    H128595   5.072   3.996   0.058
 9546TIP3    H228596   4.964   3.893   0.036
 9547TIP3   OH228597   0.917   2.126   6.487
 9547TIP3    H128598   0.838   2.141   6.434
 9547TIP3    H228599   0.989   2.157   6.432
 9548TIP3   OH228600   3.458   2.944   4.753
 9548TIP3    H128601   3.461   2.853   4.723
 9548TIP3    H228602   3.388   2.945   4.818
 9549TIP3   OH228603   6.944   4.680   5.066
 9549TIP3    H128604   7.008   4.660   4.998
 9549TIP3    H228605   6.965   4.619   5.137
 9550TIP3   OH228606   0.036   1.929   4.369
 9550TIP3    H128607  -0.028   1.860   4.385
 9550TIP3    H228608   0.073   1.908   4.284
 9551TIP3   OH228609   3.279   5.768   0.873
 9551TIP3    H128610   3.185   5.760   0.883
 9551TIP3    H228611   3.315   5.700   0.929
 9552TIP3   OH228612   6.731   0.740   4.776
 9552TIP3    H128613   6.716   0.782   4.692
 9552TIP3    H228614   6.758   0.651   4.755
 9553TIP3   OH228615   4.239   2.748   1.361
 9553TIP3    H128616   4.227   2.740   1.266
 9553TIP3    H228617   4.287   2.668   1.385
 9554TIP3   OH228618   2.093   2.287   4.036
 9554TIP3    H128619   2.087   2.202   3.994
 9554TIP3    H228620   2.061   2.349   3.971
 9555TIP3   OH228621   6.072   1.451   1.736
 9555TIP3    H128622   6.151   1.399   1.727
 9555TIP3    H228623   6.084   1.498   1.819
 9556TIP3   OH228624   6.933   0.524   5.893
 9556TIP3    H128625   6.854   0.540   5.945
 9556TIP3    H228626   6.988   0.600   5.910
 9557TIP3   OH228627   8.113   5.196   4.232
 9557TIP3    H128628   8.119   5.100   4.235
 9557TIP3    H228629   8.188   5.226   4.283
 9558TIP3   OH228630   0.803   6.029   3.964
 9558TIP3    H128631   0.895   6.055   3.973
 9558TIP3    H228632   0.804   5.935   3.980
 9559TIP3   OH228633   6.843   4.365   1.287
 9559TIP3    H128634   6.886   4.444   1.255
 9559TIP3    H228635   6.896   4.338   1.362
 9560TIP3   OH228636   1.519   5.422   2.159
 9560TIP3    H128637   1.510   5.442   2.066
 9560TIP3    H228638   1.497   5.329   2.166
 9561TIP3   OH228639   5.877   4.475   0.148
 9561TIP3    H128640   5.953   4.434   0.189
 9561TIP3    H228641   5.915   4.538   0.086
 9562TIP3   OH228642   6.751   6.076   3.831
 9562TIP3    H128643   6.741   5.999   3.775
 9562TIP3    H228644   6.678   6.134   3.807
 9563TIP3   OH228645   5.726   5.603   1.963
 9563TIP3    H128646   5.631   5.603   1.961
 9563TIP3    H228647   5.750   5.695   1.974
 9564TIP3   OH228648   3.406   7.843   2.227
 9564TIP3    H128649   3.394   7.749   2.213
 9564TIP3    H228650   3.412   7.852   2.322
 9565TIP3   OH228651   4.320   4.467   2.494
 9565TIP3    H128652   4.315   4.380   2.455
 9565TIP3    H228653   4.302   4.527   2.421
 9566TIP3   OH228654   3.907   5.576   2.280
 9566TIP3    H128655   3.875   5.654   2.325
 9566TIP3    H228656   3.902   5.598   2.187
 9567TIP3   OH228657   7.011   4.370   1.762
 9567TIP3    H128658   7.026   4.446   1.706
 9567TIP3    H228659   6.984   4.301   1.701
 9568TIP3   OH228660   1.127   0.237   4.802
 9568TIP3    H128661   1.150   0.145   4.817
 9568TIP3    H228662   1.129   0.276   4.889
 9569TIP3   OH228663   0.038   0.562   4.057
 9569TIP3    H128664   0.104   0.577   4.124
 9569TIP3    H228665   0.082   0.582   3.975
 9570TIP3   OH228666   6.792   6.556   3.820
 9570TIP3    H128667   6.830   6.482   3.868
 9570TIP3    H228668   6.703   6.528   3.800
 9571TIP3   OH228669   1.372   6.279   0.248
 9571TIP3    H128670   1.311   6.341   0.287
 9571TIP3    H228671   1.333   6.256   0.163
 9572TIP3   OH228672   4.661   7.368   2.259
 9572TIP3    H128673   4.599   7.367   2.331
 9572TIP3    H228674   4.654   7.281   2.220
 9573TIP3   OH228675   5.183   7.443   5.964
 9573TIP3    H128676   5.191   7.348   5.967
 9573TIP3    H228677   5.172   7.469   6.055
 9574TIP3   OH228678   7.626   0.528   2.188
 9574TIP3    H128679   7.670   0.604   2.149
 9574TIP3    H228680   7.535   0.537   2.162
 9575TIP3   OH228681   2.649   7.348   0.215
 9575TIP3    H128682   2.632   7.265   0.169
 9575TIP3    H228683   2.592   7.412   0.171
 9576TIP3   OH228684   3.248   0.325   5.492
 9576TIP3    H128685   3.244   0.393   5.426
 9576TIP3    H228686   3.339   0.294   5.489
 9577TIP3   OH228687   6.587   3.963   0.940
 9577TIP3    H128688   6.675   3.961   0.902
 9577TIP3    H228689   6.563   3.871   0.951
 9578TIP3   OH228690   2.269   5.827   5.631
 9578TIP3    H128691   2.190   5.809   5.580
 9578TIP3    H228692   2.249   5.793   5.718
 9579TIP3   OH228693   5.884   2.658   1.466
 9579TIP3    H128694   5.799   2.614   1.458
 9579TIP3    H228695   5.863   2.751   1.475
 9580TIP3   OH228696   5.802   2.368   0.139
 9580TIP3    H128697   5.773   2.430   0.073
 9580TIP3    H228698   5.866   2.313   0.094
 9581TIP3   OH228699   4.621   1.026   3.470
 9581TIP3    H128700   4.618   0.930   3.478
 9581TIP3    H228701   4.599   1.058   3.557
 9582TIP3   OH228702   3.764   6.558   3.327
 9582TIP3    H128703   3.753   6.653   3.323
 9582TIP3    H228704   3.845   6.541   3.279
 9583TIP3   OH228705   4.645   3.163   3.491
 9583TIP3    H128706   4.621   3.250   3.461
 9583TIP3    H228707   4.670   3.116   3.411
 9584TIP3   OH228708   4.516   5.268   0.799
 9584TIP3    H128709   4.553   5.217   0.727
 9584TIP3    H228710   4.562   5.236   0.877
 9585TIP3   OH228711   0.840   0.376   3.098
 9585TIP3    H128712   0.764   0.379   3.157
 9585TIP3    H228713   0.808   0.413   3.016
 9586TIP3   OH228714   0.970   0.540   0.546
 9586TIP3    H128715   1.045   0.543   0.486
 9586TIP3    H228716   0.913   0.473   0.508
 9587TIP3   OH228717   8.267   5.740   3.062
 9587TIP3    H128718   8.276   5.675   2.992
 9587TIP3    H228719   8.174   5.739   3.084
 9588TIP3   OH228720   8.164   4.318   3.497
 9588TIP3    H128721   8.195   4.262   3.568
 9588TIP3    H228722   8.184   4.407   3.526
 9589TIP3   OH228723   0.273   2.610   2.283
 9589TIP3    H128724   0.189   2.577   2.316
 9589TIP3    H228725   0.332   2.535   2.291
 9590TIP3   OH228726   4.675   2.092   6.253
 9590TIP3    H128727   4.724   2.143   6.188
 9590TIP3    H228728   4.667   2.151   6.329
 9591TIP3   OH228729   1.258   6.859   3.459
 9591TIP3    H128730   1.187   6.875   3.521
 9591TIP3    H228731   1.249   6.766   3.437
 9592TIP3   OH228732   6.399   5.254   6.408
 9592TIP3    H128733   6.466   5.185   6.404
 9592TIP3    H228734   6.413   5.306   6.329
 9593TIP3   OH228735   6.283   4.378   5.046
 9593TIP3    H128736   6.240   4.457   5.076
 9593TIP3    H228737   6.296   4.391   4.952
 9594TIP3   OH228738   5.491   7.527   4.784
 9594TIP3    H128739   5.545   7.606   4.779
 9594TIP3    H228740   5.404   7.559   4.807
 9595TIP3   OH228741   1.610   2.886   5.254
 9595TIP3    H128742   1.533   2.896   5.199
 9595TIP3    H228743   1.597   2.803   5.299
 9596TIP3   OH228744   2.222   1.739   4.880
 9596TIP3    H128745   2.270   1.657   4.896
 9596TIP3    H228746   2.232   1.756   4.787
 9597TIP3   OH228747   6.033   7.552   4.432
 9597TIP3    H128748   5.982   7.494   4.489
 9597TIP3    H228749   5.968   7.586   4.370
 9598TIP3   OH228750   0.900   7.257   5.986
 9598TIP3    H128751   0.906   7.307   6.067
 9598TIP3    H228752   0.808   7.263   5.961
 9599TIP3   OH228753   3.884   5.731   4.458
 9599TIP3    H128754   3.844   5.780   4.387
 9599TIP3    H228755   3.883   5.640   4.429
 9600TIP3   OH228756   0.933   4.034   5.122
 9600TIP3    H128757   0.883   3.988   5.189
 9600TIP3    H228758   1.002   4.079   5.170
 9601TIP3   OH228759   0.772   2.688   4.203
 9601TIP3    H128760   0.750   2.630   4.130
 9601TIP3    H228761   0.730   2.648   4.279
 9602TIP3   OH228762   4.567   6.156   2.958
 9602TIP3    H128763   4.634   6.182   2.895
 9602TIP3    H228764   4.603   6.182   3.043
 9603TIP3   OH228765   5.781   5.437   1.754
 9603TIP3    H128766   5.780   5.510   1.815
 9603TIP3    H228767   5.730   5.467   1.679
 9604TIP3   OH228768   4.482   4.920   1.788
 9604TIP3    H128769   4.403   4.972   1.772
 9604TIP3    H228770   4.548   4.985   1.814
 9605TIP3   OH228771   6.717   0.051   3.667
 9605TIP3    H128772   6.704  -0.043   3.654
 9605TIP3    H228773   6.789   0.057   3.729
 9606TIP3   OH228774   5.850   7.591   6.421
 9606TIP3    H128775   5.813   7.662   6.473
 9606TIP3    H228776   5.914   7.549   6.478
 9607TIP3   OH228777   6.118   0.441   4.493
 9607TIP3    H128778   6.185   0.376   4.475
 9607TIP3    H228779   6.035   0.393   4.491
 9608TIP3   OH228780   3.417   5.458   0.831
 9608TIP3    H128781   3.501   5.432   0.792
 9608TIP3    H228782   3.353   5.399   0.790
 9609TIP3   OH228783   6.757   7.070   5.630
 9609TIP3    H128784   6.796   7.022   5.703
 9609TIP3    H228785   6.665   7.079   5.653
 9610TIP3   OH228786   1.492   1.460   0.590
 9610TIP3    H128787   1.568   1.511   0.561
 9610TIP3    H228788   1.502   1.453   0.685
 9611TIP3   OH228789   8.092   2.850   2.397
 9611TIP3    H128790   8.046   2.926   2.433
 9611TIP3    H228791   8.184   2.869   2.412
 9612TIP3   OH228792   1.015   1.676   4.021
 9612TIP3    H128793   1.010   1.601   4.080
 9612TIP3    H228794   0.926   1.710   4.017
 9613TIP3   OH228795   6.457   0.751   2.476
 9613TIP3    H128796   6.509   0.693   2.420
 9613TIP3    H228797   6.464   0.837   2.433
 9614TIP3   OH228798   5.510   7.130   5.903
 9614TIP3    H128799   5.482   7.045   5.935
 9614TIP3    H228800   5.430   7.170   5.868
 9615TIP3   OH228801   7.011   3.232   5.577
 9615TIP3    H128802   6.948   3.162   5.590
 9615TIP3    H228803   6.998   3.290   5.652
 9616TIP3   OH228804   1.246   1.274   0.471
 9616TIP3    H128805   1.205   1.222   0.540
 9616TIP3    H228806   1.277   1.353   0.516
 9617TIP3   OH228807   5.219   6.747   4.168
 9617TIP3    H128808   5.278   6.735   4.241
 9617TIP3    H228809   5.266   6.714   4.092
 9618TIP3   OH228810   8.181   4.963   2.883
 9618TIP3    H128811   8.247   5.029   2.903
 9618TIP3    H228812   8.194   4.895   2.950
 9619TIP3   OH228813   6.102   7.372   6.627
 9619TIP3    H128814   6.106   7.413   6.540
 9619TIP3    H228815   6.185   7.326   6.635
 9620TIP3   OH228816   1.260   5.053   5.345
 9620TIP3    H128817   1.268   5.144   5.375
 9620TIP3    H228818   1.279   5.001   5.423
 9621TIP3   OH228819   7.636   1.688   0.111
 9621TIP3    H128820   7.704   1.652   0.054
 9621TIP3    H228821   7.670   1.774   0.137
 9622TIP3   OH228822   7.654   5.453   4.830
 9622TIP3    H128823   7.596   5.413   4.765
 9622TIP3    H228824   7.742   5.432   4.799
 9623TIP3   OH228825   3.097   2.385   3.891
 9623TIP3    H128826   3.164   2.317   3.885
 9623TIP3    H228827   3.041   2.357   3.963
 9624TIP3   OH228828   1.397   7.731   0.463
 9624TIP3    H128829   1.448   7.808   0.488
 9624TIP3    H228830   1.436   7.659   0.513
 9625TIP3   OH228831   7.530   5.109   3.874
 9625TIP3    H128832   7.473   5.181   3.847
 9625TIP3    H228833   7.471   5.038   3.897
 9626TIP3   OH228834   3.996   2.055   6.370
 9626TIP3    H128835   3.982   2.060   6.275
 9626TIP3    H228836   4.041   1.972   6.383
 9627TIP3   OH228837   7.111   2.902   1.765
 9627TIP3    H128838   7.125   2.957   1.688
 9627TIP3    H228839   7.187   2.919   1.821
 9628TIP3   OH228840   7.567   7.584   5.554
 9628TIP3    H128841   7.601   7.577   5.643
 9628TIP3    H228842   7.602   7.667   5.522
 9629TIP3   OH228843   5.950   1.900   1.998
 9629TIP3    H128844   5.988   1.873   1.914
 9629TIP3    H228845   6.005   1.858   2.064
 9630TIP3   OH228846   4.985   4.832   4.269
 9630TIP3    H128847   4.911   4.845   4.209
 9630TIP3    H228848   4.970   4.895   4.340
 9631TIP3   OH228849   3.974   0.087   1.495
 9631TIP3    H128850   3.934   0.136   1.423
 9631TIP3    H228851   3.996   0.002   1.457
 9632TIP3   OH228852   2.273   6.438   3.773
 9632TIP3    H128853   2.331   6.378   3.726
 9632TIP3    H228854   2.302   6.525   3.745
 9633TIP3   OH228855   3.557   5.865   5.022
 9633TIP3    H128856   3.636   5.901   4.981
 9633TIP3    H228857   3.511   5.822   4.950
 9634TIP3   OH228858   3.118   1.768   2.773
 9634TIP3    H128859   3.198   1.778   2.721
 9634TIP3    H228860   3.062   1.711   2.721
 9635TIP3   OH228861   1.934   1.903   0.271
 9635TIP3    H128862   2.022   1.875   0.295
 9635TIP3    H228863   1.947   1.957   0.193
 9636TIP3   OH228864   3.932   4.127   5.411
 9636TIP3    H128865   3.990   4.051   5.417
 9636TIP3    H228866   3.985   4.199   5.444
 9637TIP3   OH228867   6.044   7.490   0.861
 9637TIP3    H128868   6.051   7.395   0.862
 9637TIP3    H228869   6.011   7.513   0.948
 9638TIP3   OH228870   2.339   5.225   0.356
 9638TIP3    H128871   2.353   5.154   0.419
 9638TIP3    H228872   2.248   5.252   0.369
 9639TIP3   OH228873   6.669   4.300   0.184
 9639TIP3    H128874   6.712   4.369   0.235
 9639TIP3    H228875   6.716   4.220   0.207
 9640TIP3   OH228876   0.851   6.864   2.983
 9640TIP3    H128877   0.858   6.775   2.949
 9640TIP3    H228878   0.870   6.856   3.077
 9641TIP3   OH228879   2.088   3.791   1.463
 9641TIP3    H128880   2.077   3.846   1.385
 9641TIP3    H228881   2.053   3.706   1.438
 9642TIP3   OH228882   4.760   4.484   1.935
 9642TIP3    H128883   4.674   4.526   1.927
 9642TIP3    H228884   4.794   4.481   1.846
 9643TIP3   OH228885   1.308   1.065   5.038
 9643TIP3    H128886   1.234   1.011   5.010
 9643TIP3    H228887   1.330   1.117   4.961
 9644TIP3   OH228888   3.582   6.800   2.148
 9644TIP3    H128889   3.620   6.767   2.067
 9644TIP3    H228890   3.615   6.742   2.216
 9645TIP3   OH228891   6.338   3.873   2.813
 9645TIP3    H128892   6.346   3.948   2.753
 9645TIP3    H228893   6.428   3.840   2.820
 9646TIP3   OH228894   5.243   1.794   2.230
 9646TIP3    H128895   5.286   1.841   2.158
 9646TIP3    H228896   5.277   1.705   2.224
 9647TIP3   OH228897   3.018   5.890   5.808
 9647TIP3    H128898   2.946   5.900   5.745
 9647TIP3    H228899   3.069   5.970   5.798
 9648TIP3   OH228900   4.772   1.837   6.644
 9648TIP3    H128901   4.750   1.746   6.662
 9648TIP3    H228902   4.750   1.883   6.725
 9649TIP3   OH228903   6.999   1.234   5.321
 9649TIP3    H128904   7.014   1.173   5.249
 9649TIP3    H228905   6.945   1.303   5.283
 9650TIP3   OH228906   7.589   2.565   2.060
 9650TIP3    H128907   7.629   2.652   2.051
 9650TIP3    H228908   7.661   2.508   2.088
 9651TIP3   OH228909   6.235   0.541   1.930
 9651TIP3    H128910   6.277   0.499   2.005
 9651TIP3    H228911   6.160   0.587   1.967
 9652TIP3   OH228912   0.094   0.933   3.050
 9652TIP3    H128913   0.169   0.937   2.991
 9652TIP3    H228914   0.108   0.854   3.102
 9653TIP3   OH228915   4.662   7.110   4.720
 9653TIP3    H128916   4.710   7.040   4.764
 9653TIP3    H228917   4.598   7.065   4.665
 9654TIP3   OH228918   4.392   3.288   2.483
 9654TIP3    H128919   4.395   3.223   2.553
 9654TIP3    H228920   4.308   3.273   2.440
 9655TIP3   OH228921   6.589   6.569   4.800
 9655TIP3    H128922   6.631   6.595   4.718
 9655TIP3    H228923   6.659   6.524   4.849
 9656TIP3   OH228924   7.907   0.395   2.718
 9656TIP3    H128925   7.990   0.441   2.715
 9656TIP3    H228926   7.877   0.406   2.808
 9657TIP3   OH228927   3.939   5.686   3.991
 9657TIP3    H128928   3.913   5.715   3.904
 9657TIP3    H228929   3.952   5.592   3.982
 9658TIP3   OH228930   7.187   1.483   0.112
 9658TIP3    H128931   7.229   1.565   0.087
 9658TIP3    H228932   7.249   1.415   0.085
 9659TIP3   OH228933   4.893   6.142   0.691
 9659TIP3    H128934   4.861   6.174   0.607
 9659TIP3    H228935   4.946   6.065   0.669
 9660TIP3   OH228936   6.603   2.567   5.033
 9660TIP3    H128937   6.626   2.504   5.101
 9660TIP3    H228938   6.573   2.644   5.081
 9661TIP3   OH228939   3.736   1.887   4.994
 9661TIP3    H128940   3.746   1.979   5.020
 9661TIP3    H228941   3.721   1.841   5.076
 9662TIP3   OH228942   0.400   5.374   0.830
 9662TIP3    H128943   0.403   5.465   0.800
 9662TIP3    H228944   0.407   5.380   0.925
 9663TIP3   OH228945   0.344   5.705   4.537
 9663TIP3    H128946   0.249   5.715   4.539
 9663TIP3    H228947   0.361   5.647   4.463
 9664TIP3   OH228948   3.813   3.782   3.329
 9664TIP3    H128949   3.731   3.763   3.282
 9664TIP3    H228950   3.854   3.852   3.278
 9665TIP3   OH228951   2.693   2.649   1.505
 9665TIP3    H128952   2.737   2.565   1.522
 9665TIP3    H228953   2.759   2.703   1.463
 9666TIP3   OH228954   3.271   2.137   0.689
 9666TIP3    H128955   3.296   2.194   0.617
 9666TIP3    H228956   3.335   2.066   0.687
 9667TIP3   OH228957   2.498   5.765   3.769
 9667TIP3    H128958   2.463   5.690   3.819
 9667TIP3    H228959   2.568   5.727   3.717
 9668TIP3   OH228960   2.490   4.796   1.776
 9668TIP3    H128961   2.498   4.859   1.847
 9668TIP3    H228962   2.396   4.776   1.772
 9669TIP3   OH228963   4.441   4.731   1.277
 9669TIP3    H128964   4.376   4.663   1.296
 9669TIP3    H228965   4.399   4.812   1.307
 9670TIP3   OH228966   4.252   3.676   6.580
 9670TIP3    H128967   4.297   3.600   6.616
 9670TIP3    H228968   4.235   3.652   6.489
 9671TIP3   OH228969   0.878   7.146   4.941
 9671TIP3    H128970   0.902   7.222   4.994
 9671TIP3    H228971   0.837   7.183   4.863
 9672TIP3   OH228972   6.909   4.336   2.584
 9672TIP3    H128973   6.826   4.383   2.574
 9672TIP3    H228974   6.903   4.264   2.521
 9673TIP3   OH228975   3.559   1.604   6.661
 9673TIP3    H128976   3.595   1.645   6.740
 9673TIP3    H228977   3.516   1.524   6.693
 9674TIP3   OH228978   5.481   5.518   6.535
 9674TIP3    H128979   5.463   5.574   6.459
 9674TIP3    H228980   5.530   5.574   6.594
 9675TIP3   OH228981   2.191   6.868   3.466
 9675TIP3    H128982   2.179   6.960   3.491
 9675TIP3    H228983   2.283   6.862   3.442
 9676TIP3   OH228984   4.839   5.809   5.910
 9676TIP3    H128985   4.822   5.751   5.835
 9676TIP3    H228986   4.874   5.751   5.978
 9677TIP3   OH228987   0.198   0.485   1.438
 9677TIP3    H128988   0.158   0.399   1.449
 9677TIP3    H228989   0.283   0.478   1.482
 9678TIP3   OH228990   0.109   2.555   3.455
 9678TIP3    H128991   0.089   2.587   3.367
 9678TIP3    H228992   0.092   2.461   3.450
 9679TIP3   OH228993   7.716   2.412   5.491
 9679TIP3    H128994   7.768   2.430   5.570
 9679TIP3    H228995   7.639   2.468   5.500
 9680TIP3   OH228996   1.304   7.443   6.058
 9680TIP3    H128997   1.249   7.507   6.104
 9680TIP3    H228998   1.377   7.427   6.117
 9681TIP3   OH228999   6.813   6.956   4.475
 9681TIP3    H129000   6.726   6.931   4.506
 9681TIP3    H229001   6.817   6.925   4.385
 9682TIP3   OH229002   3.030   7.137   1.570
 9682TIP3    H129003   3.001   7.218   1.528
 9682TIP3    H229004   2.955   7.107   1.621
 9683TIP3   OH229005   3.719   1.732   1.558
 9683TIP3    H129006   3.735   1.670   1.630
 9683TIP3    H229007   3.790   1.715   1.496
 9684TIP3   OH229008   6.987   1.054   3.854
 9684TIP3    H129009   6.925   0.982   3.839
 9684TIP3    H229010   6.945   1.130   3.813
 9685TIP3   OH229011   1.089   2.283   6.249
 9685TIP3    H129012   1.151   2.299   6.320
 9685TIP3    H229013   1.123   2.335   6.176
 9686TIP3   OH229014   5.121   5.292   1.362
 9686TIP3    H129015   5.200   5.265   1.409
 9686TIP3    H229016   5.146   5.291   1.270
 9687TIP3   OH229017   6.464   3.351   4.214
 9687TIP3    H129018   6.386   3.401   4.189
 9687TIP3    H229019   6.526   3.417   4.244
 9688TIP3   OH229020   2.714   2.048   5.314
 9688TIP3    H129021   2.670   2.120   5.361
 9688TIP3    H229022   2.644   1.983   5.300
 9689TIP3   OH229023   1.210   0.516   4.618
 9689TIP3    H129024   1.139   0.453   4.627
 9689TIP3    H229025   1.264   0.482   4.547
 9690TIP3   OH229026   3.642   3.939   1.434
 9690TIP3    H129027   3.574   3.893   1.482
 9690TIP3    H229028   3.621   4.032   1.445
 9691TIP3   OH229029   2.907   4.395   0.711
 9691TIP3    H129030   2.950   4.374   0.628
 9691TIP3    H229031   2.863   4.479   0.696
 9692TIP3   OH229032   3.955   0.123   5.579
 9692TIP3    H129033   3.915   0.036   5.576
 9692TIP3    H229034   4.028   0.118   5.517
 9693TIP3   OH229035   4.659   4.684   1.510
 9693TIP3    H129036   4.596   4.756   1.509
 9693TIP3    H229037   4.731   4.714   1.455
 9694TIP3   OH229038   4.642   5.769   1.479
 9694TIP3    H129039   4.553   5.800   1.495
 9694TIP3    H229040   4.681   5.835   1.421
 9695TIP3   OH229041   2.511   2.292   5.135
 9695TIP3    H129042   2.435   2.258   5.088
 9695TIP3    H229043   2.503   2.256   5.224
 9696TIP3   OH229044   5.595   1.199   0.238
 9696TIP3    H129045   5.642   1.189   0.155
 9696TIP3    H229046   5.507   1.168   0.219
 9697TIP3   OH229047   5.083   4.379   3.096
 9697TIP3    H129048   5.032   4.300   3.111
 9697TIP3    H229049   5.171   4.347   3.073
 9698TIP3   OH229050   1.352   7.359   3.585
 9698TIP3    H129051   1.396   7.444   3.590
 9698TIP3    H229052   1.383   7.321   3.503
 9699TIP3   OH229053   4.210   5.807   5.362
 9699TIP3    H129054   4.133   5.808   5.305
 9699TIP3    H229055   4.175   5.791   5.450
 9700TIP3   OH229056   6.210   2.790   0.076
 9700TIP3    H129057   6.198   2.704   0.117
 9700TIP3    H229058   6.291   2.823   0.114
 9701TIP3   OH229059   0.776   5.800   1.891
 9701TIP3    H129060   0.862   5.810   1.931
 9701TIP3    H229061   0.729   5.741   1.950
 9702TIP3   OH229062   0.925   5.581   2.241
 9702TIP3    H129063   0.849   5.591   2.298
 9702TIP3    H229064   0.919   5.491   2.209
 9703TIP3   OH229065   3.891   4.293   5.811
 9703TIP3    H129066   3.962   4.288   5.747
 9703TIP3    H229067   3.929   4.257   5.892
 9704TIP3   OH229068   2.669   7.185   5.956
 9704TIP3    H129069   2.669   7.160   5.863
 9704TIP3    H229070   2.587   7.233   5.968
 9705TIP3   OH229071   1.003   0.862   5.237
 9705TIP3    H129072   1.071   0.875   5.303
 9705TIP3    H229073   0.922   0.854   5.287
 9706TIP3   OH229074   3.679   7.807   0.930
 9706TIP3    H129075   3.603   7.764   0.969
 9706TIP3    H229076   3.711   7.866   0.999
 9707TIP3   OH229077   5.394   5.303   0.104
 9707TIP3    H129078   5.300   5.288   0.106
 9707TIP3    H229079   5.425   5.279   0.192
 9708TIP3   OH229080   0.982   5.826   0.371
 9708TIP3    H129081   1.024   5.783   0.296
 9708TIP3    H229082   0.902   5.864   0.335
 9709TIP3   OH229083   6.465   6.057   3.525
 9709TIP3    H129084   6.554   6.059   3.560
 9709TIP3    H229085   6.476   6.056   3.430
 9710TIP3   OH229086   1.565   6.886   4.608
 9710TIP3    H129087   1.612   6.963   4.574
 9710TIP3    H229088   1.619   6.812   4.582
 9711TIP3   OH229089   2.561   0.504   6.282
 9711TIP3    H129090   2.631   0.491   6.218
 9711TIP3    H229091   2.596   0.467   6.364
 9712TIP3   OH229092   8.030   3.412   3.408
 9712TIP3    H129093   7.950   3.396   3.458
 9712TIP3    H229094   8.004   3.399   3.317
 9713TIP3   OH229095   1.379   7.158   6.173
 9713TIP3    H129096   1.384   7.247   6.209
 9713TIP3    H229097   1.397   7.101   6.248
 9714TIP3   OH229098   6.610   2.563   0.153
 9714TIP3    H129099   6.589   2.608   0.235
 9714TIP3    H229100   6.633   2.474   0.179
 9715TIP3   OH229101   6.264   2.622   1.490
 9715TIP3    H129102   6.198   2.585   1.549
 9715TIP3    H229103   6.251   2.717   1.495
 9716TIP3   OH229104   7.021   1.057   0.494
 9716TIP3    H129105   7.029   1.018   0.581
 9716TIP3    H229106   7.030   0.983   0.434
 9717TIP3   OH229107   7.159   0.023   0.377
 9717TIP3    H129108   7.092   0.045   0.312
 9717TIP3    H229109   7.131  -0.061   0.413
 9718TIP3   OH229110   0.782   6.285   6.409
 9718TIP3    H129111   0.693   6.251   6.416
 9718TIP3    H229112   0.780   6.367   6.458
 9719TIP3   OH229113   6.575   4.514   6.266
 9719TIP3    H129114   6.495   4.504   6.317
 9719TIP3    H229115   6.640   4.545   6.329
 9720TIP3   OH229116   7.235   0.685   2.676
 9720TIP3    H129117   7.305   0.700   2.613
 9720TIP3    H229118   7.161   0.736   2.643
 9721TIP3   OH229119   7.237   5.072   1.972
 9721TIP3    H129120   7.248   5.080   1.877
 9721TIP3    H229121   7.243   4.978   1.989
 9722TIP3   OH229122   3.451   2.917   0.279
 9722TIP3    H129123   3.427   3.006   0.306
 9722TIP3    H229124   3.372   2.882   0.238
 9723TIP3   OH229125   7.550   7.723   6.317
 9723TIP3    H129126   7.485   7.660   6.288
 9723TIP3    H229127   7.595   7.679   6.389
 9724TIP3   OH229128   1.396   3.874   5.065
 9724TIP3    H129129   1.411   3.821   4.987
 9724TIP3    H229130   1.469   3.936   5.068
 9725TIP3   OH229131   4.359   5.948   2.189
 9725TIP3    H129132   4.336   5.901   2.269
 9725TIP3    H229133   4.389   6.034   2.219
 9726TIP3   OH229134   7.415   6.213   1.762
 9726TIP3    H129135   7.352   6.146   1.791
 9726TIP3    H229136   7.479   6.218   1.833
 9727TIP3   OH229137   0.937   2.019   5.565
 9727TIP3    H129138   0.985   2.033   5.483
 9727TIP3    H229139   0.909   1.928   5.560
 9728TIP3   OH229140   4.130   6.788   2.749
 9728TIP3    H129141   4.124   6.695   2.771
 9728TIP3    H229142   4.175   6.828   2.824
 9729TIP3   OH229143   1.509   4.479   1.162
 9729TIP3    H129144   1.430   4.531   1.176
 9729TIP3    H229145   1.521   4.478   1.067
 9730TIP3   OH229146   6.517   7.503   4.876
 9730TIP3    H129147   6.435   7.459   4.899
 9730TIP3    H229148   6.489   7.587   4.839
 9731TIP3   OH229149   4.339   7.398   2.365
 9731TIP3    H129150   4.349   7.330   2.432
 9731TIP3    H229151   4.338   7.351   2.282
 9732TIP3   OH229152   1.281   2.146   2.582
 9732TIP3    H129153   1.286   2.237   2.554
 9732TIP3    H229154   1.314   2.097   2.507
 9733TIP3   OH229155   7.188   2.841   2.693
 9733TIP3    H129156   7.153   2.925   2.661
 9733TIP3    H229157   7.231   2.863   2.775
 9734TIP3   OH229158   5.869   3.599   3.497
 9734TIP3    H129159   5.800   3.535   3.515
 9734TIP3    H229160   5.870   3.607   3.401
 9735TIP3   OH229161   1.705   3.073   5.448
 9735TIP3    H129162   1.669   3.002   5.395
 9735TIP3    H229163   1.648   3.148   5.429
 9736TIP3   OH229164   2.213   3.871   4.756
 9736TIP3    H129165   2.162   3.815   4.814
 9736TIP3    H229166   2.191   3.841   4.668
 9737TIP3   OH229167   6.960   7.733   5.345
 9737TIP3    H129168   6.998   7.694   5.266
 9737TIP3    H229169   6.952   7.659   5.406
 9738TIP3   OH229170   0.981   4.240   0.359
 9738TIP3    H129171   0.917   4.284   0.414
 9738TIP3    H229172   0.982   4.291   0.277
 9739TIP3   OH229173   5.116   1.356   4.670
 9739TIP3    H129174   5.087   1.281   4.619
 9739TIP3    H229175   5.178   1.402   4.613
 9740TIP3   OH229176   7.066   6.833   4.574
 9740TIP3    H129177   7.074   6.737   4.580
 9740TIP3    H229178   7.057   6.851   4.481
 9741TIP3   OH229179   3.677   4.991   2.768
 9741TIP3    H129180   3.746   4.946   2.816
 9741TIP3    H229181   3.704   5.083   2.767
 9742TIP3   OH229182   3.711   3.122   3.916
 9742TIP3    H129183   3.633   3.176   3.908
 9742TIP3    H229184   3.774   3.161   3.855
 9743TIP3   OH229185   2.734   0.918   4.737
 9743TIP3    H129186   2.782   0.923   4.819
 9743TIP3    H229187   2.669   0.849   4.751
 9744TIP3   OH229188   0.590   6.907   0.536
 9744TIP3    H129189   0.682   6.892   0.513
 9744TIP3    H229190   0.541   6.869   0.463
 9745TIP3   OH229191   6.975   5.581   2.214
 9745TIP3    H129192   6.914   5.639   2.260
 9745TIP3    H229193   6.953   5.493   2.244
 9746TIP3   OH229194   1.468   0.474   1.993
 9746TIP3    H129195   1.426   0.529   1.927
 9746TIP3    H229196   1.396   0.449   2.052
 9747TIP3   OH229197   0.924   5.692   0.605
 9747TIP3    H129198   0.993   5.730   0.660
 9747TIP3    H229199   0.924   5.745   0.526
 9748TIP3   OH229200   6.516   2.759   3.207
 9748TIP3    H129201   6.550   2.825   3.147
 9748TIP3    H229202   6.585   2.692   3.210
 9749TIP3   OH229203   0.736   5.984   5.417
 9749TIP3    H129204   0.723   5.944   5.331
 9749TIP3    H229205   0.822   5.952   5.446
 9750TIP3   OH229206   7.684   3.647   0.602
 9750TIP3    H129207   7.648   3.713   0.661
 9750TIP3    H229208   7.774   3.676   0.586
 9751TIP3   OH229209   7.207   7.822   5.588
 9751TIP3    H129210   7.253   7.803   5.669
 9751TIP3    H229211   7.182   7.737   5.553
 9752TIP3   OH229212   2.000   2.887   2.389
 9752TIP3    H129213   1.911   2.851   2.397
 9752TIP3    H229214   1.997   2.967   2.441
 9753TIP3   OH229215   6.793   3.945   0.715
 9753TIP3    H129216   6.740   4.009   0.669
 9753TIP3    H229217   6.883   3.975   0.703
 9754TIP3   OH229218   6.852   6.908   1.641
 9754TIP3    H129219   6.776   6.882   1.589
 9754TIP3    H229220   6.866   7.000   1.619
 9755TIP3   OH229221   6.443   5.385   3.353
 9755TIP3    H129222   6.415   5.459   3.406
 9755TIP3    H229223   6.539   5.385   3.360
 9756TIP3   OH229224   2.574   7.497   5.045
 9756TIP3    H129225   2.607   7.483   5.134
 9756TIP3    H229226   2.486   7.531   5.057
 9757TIP3   OH229227   2.068   4.835   0.353
 9757TIP3    H129228   2.121   4.895   0.301
 9757TIP3    H229229   2.020   4.783   0.288
 9758TIP3   OH229230   7.948   3.789   5.640
 9758TIP3    H129231   7.941   3.744   5.555
 9758TIP3    H229232   8.021   3.746   5.684
 9759TIP3   OH229233   3.487   1.802   3.789
 9759TIP3    H129234   3.490   1.787   3.884
 9759TIP3    H229235   3.578   1.795   3.761
 9760TIP3   OH229236   4.764   5.543   1.942
 9760TIP3    H129237   4.759   5.561   1.848
 9760TIP3    H229238   4.753   5.448   1.949
 9761TIP3   OH229239   0.919   0.414   4.356
 9761TIP3    H129240   0.929   0.411   4.451
 9761TIP3    H229241   0.897   0.325   4.331
 9762TIP3   OH229242   3.508   0.517   3.824
 9762TIP3    H129243   3.438   0.464   3.785
 9762TIP3    H229244   3.558   0.455   3.877
 9763TIP3   OH229245   7.593   4.793   2.689
 9763TIP3    H129246   7.601   4.762   2.779
 9763TIP3    H229247   7.611   4.887   2.695
 9764TIP3   OH229248   7.307   5.669   0.424
 9764TIP3    H129249   7.342   5.597   0.476
 9764TIP3    H229250   7.346   5.748   0.463
 9765TIP3   OH229251   5.066   2.179   2.847
 9765TIP3    H129252   5.113   2.096   2.854
 9765TIP3    H229253   4.993   2.160   2.787
 9766TIP3   OH229254   2.852   7.121   2.547
 9766TIP3    H129255   2.764   7.157   2.557
 9766TIP3    H229256   2.872   7.080   2.631
 9767TIP3   OH229257   3.390   4.428   1.142
 9767TIP3    H129258   3.342   4.355   1.182
 9767TIP3    H229259   3.331   4.459   1.073
 9768TIP3   OH229260   3.552   2.208   6.174
 9768TIP3    H129261   3.623   2.157   6.213
 9768TIP3    H229262   3.549   2.288   6.226
 9769TIP3   OH229263   6.965   7.390   0.347
 9769TIP3    H129264   6.923   7.471   0.318
 9769TIP3    H229265   6.934   7.377   0.436
 9770TIP3   OH229266   7.199   3.420   1.719
 9770TIP3    H129267   7.264   3.408   1.651
 9770TIP3    H229268   7.116   3.429   1.671
 9771TIP3   OH229269   3.856   1.256   4.731
 9771TIP3    H129270   3.834   1.347   4.709
 9771TIP3    H229271   3.828   1.205   4.655
 9772TIP3   OH229272   1.332   5.418   3.684
 9772TIP3    H129273   1.303   5.347   3.627
 9772TIP3    H229274   1.419   5.392   3.712
 9773TIP3   OH229275   3.872   5.142   3.111
 9773TIP3    H129276   3.857   5.062   3.162
 9773TIP3    H229277   3.867   5.113   3.019
 9774TIP3   OH229278   8.269   3.529   3.959
 9774TIP3    H129279   8.180   3.514   3.927
 9774TIP3    H229280   8.324   3.473   3.904
 9775TIP3   OH229281   3.180   2.019   1.605
 9775TIP3    H129282   3.249   2.084   1.591
 9775TIP3    H229283   3.188   1.959   1.531
 9776TIP3   OH229284   3.182   7.019   5.984
 9776TIP3    H129285   3.175   7.041   5.891
 9776TIP3    H229286   3.201   7.103   6.026
 9777TIP3   OH229287   2.023   6.364   3.431
 9777TIP3    H129288   1.938   6.371   3.475
 9777TIP3    H229289   2.067   6.446   3.450
 9778TIP3   OH229290   3.104   4.930   2.902
 9778TIP3    H129291   3.092   4.970   2.989
 9778TIP3    H229292   3.030   4.870   2.893
 9779TIP3   OH229293   8.202   4.795   2.137
 9779TIP3    H129294   8.181   4.887   2.128
 9779TIP3    H229295   8.173   4.772   2.226
 9780TIP3   OH229296   1.470   4.162   4.576
 9780TIP3    H129297   1.503   4.236   4.525
 9780TIP3    H229298   1.436   4.101   4.510
 9781TIP3   OH229299   2.516   1.249   1.571
 9781TIP3    H129300   2.528   1.183   1.639
 9781TIP3    H229301   2.561   1.213   1.495
 9782TIP3   OH229302   6.553   6.411   2.393
 9782TIP3    H129303   6.560   6.317   2.411
 9782TIP3    H229304   6.628   6.450   2.439
 9783TIP3   OH229305   4.374   3.730   5.427
 9783TIP3    H129306   4.288   3.755   5.461
 9783TIP3    H229307   4.373   3.756   5.335
 9784TIP3   OH229308   2.227   0.692   1.387
 9784TIP3    H129309   2.243   0.627   1.456
 9784TIP3    H229310   2.136   0.679   1.362
 9785TIP3   OH229311   6.329   1.464   1.454
 9785TIP3    H129312   6.422   1.458   1.474
 9785TIP3    H229313   6.296   1.375   1.467
 9786TIP3   OH229314   6.861   5.157   2.524
 9786TIP3    H129315   6.898   5.111   2.600
 9786TIP3    H229316   6.872   5.096   2.451
 9787TIP3   OH229317   4.547   1.760   5.870
 9787TIP3    H129318   4.472   1.794   5.919
 9787TIP3    H229319   4.564   1.674   5.909
 9788TIP3   OH229320   1.650   2.252   0.469
 9788TIP3    H129321   1.572   2.202   0.447
 9788TIP3    H229322   1.684   2.281   0.385
 9789TIP3   OH229323   2.494   2.130   1.998
 9789TIP3    H129324   2.445   2.069   2.054
 9789TIP3    H229325   2.451   2.123   1.913
 9790TIP3   OH229326   7.154   4.213   1.958
 9790TIP3    H129327   7.131   4.270   2.032
 9790TIP3    H229328   7.101   4.245   1.886
 9791TIP3   OH229329   8.082   5.208   3.106
 9791TIP3    H129330   8.165   5.188   3.063
 9791TIP3    H229331   8.100   5.289   3.154
 9792TIP3   OH229332   1.237   4.541   4.906
 9792TIP3    H129333   1.239   4.635   4.890
 9792TIP3    H229334   1.249   4.502   4.819
 9793TIP3   OH229335   1.352   2.957   0.685
 9793TIP3    H129336   1.395   3.025   0.738
 9793TIP3    H229337   1.279   2.926   0.739
 9794TIP3   OH229338   1.189   4.067   5.543
 9794TIP3    H129339   1.274   4.053   5.585
 9794TIP3    H229340   1.182   4.162   5.534
 9795TIP3   OH229341   1.914   2.151   3.325
 9795TIP3    H129342   1.854   2.108   3.263
 9795TIP3    H229343   1.895   2.244   3.317
 9796TIP3   OH229344   0.335   6.235   5.946
 9796TIP3    H129345   0.346   6.281   6.030
 9796TIP3    H229346   0.264   6.282   5.903
 9797TIP3   OH229347   3.087   2.418   5.431
 9797TIP3    H129348   3.156   2.360   5.463
 9797TIP3    H229349   3.076   2.395   5.339
 9798TIP3   OH229350   1.476   3.316   1.622
 9798TIP3    H129351   1.528   3.238   1.642
 9798TIP3    H229352   1.542   3.382   1.598
 9799TIP3   OH229353   3.906   2.562   4.771
 9799TIP3    H129354   3.861   2.578   4.689
 9799TIP3    H229355   3.993   2.600   4.759
 9800TIP3   OH229356   6.854   0.446   6.687
 9800TIP3    H129357   6.894   0.410   6.608
 9800TIP3    H229358   6.807   0.373   6.727
 9801TIP3   OH229359   7.884   5.627   1.683
 9801TIP3    H129360   7.951   5.585   1.736
 9801TIP3    H229361   7.801   5.596   1.719
 9802TIP3   OH229362   0.339   4.303   4.454
 9802TIP3    H129363   0.314   4.271   4.541
 9802TIP3    H229364   0.383   4.386   4.471
 9803TIP3   OH229365   0.579   0.841   2.745
 9803TIP3    H129366   0.490   0.814   2.767
 9803TIP3    H229367   0.624   0.848   2.829
 9804TIP3   OH229368   8.274   5.207   6.616
 9804TIP3    H129369   8.247   5.247   6.699
 9804TIP3    H229370   8.304   5.281   6.563
 9805TIP3   OH229371   5.739   3.182   1.107
 9805TIP3    H129372   5.667   3.241   1.125
 9805TIP3    H229373   5.817   3.238   1.106
 9806TIP3   OH229374   4.596   3.755   4.237
 9806TIP3    H129375   4.555   3.688   4.292
 9806TIP3    H229376   4.689   3.752   4.261
 9807TIP3   OH229377   0.415   6.627   3.765
 9807TIP3    H129378   0.450   6.712   3.790
 9807TIP3    H229379   0.492   6.576   3.741
 9808TIP3   OH229380   1.708   0.872   6.390
 9808TIP3    H129381   1.748   0.788   6.370
 9808TIP3    H229382   1.741   0.931   6.322
 9809TIP3   OH229383   4.629   0.532   1.475
 9809TIP3    H129384   4.668   0.614   1.506
 9809TIP3    H229385   4.700   0.490   1.427
 9810TIP3   OH229386   5.571   3.248   5.828
 9810TIP3    H129387   5.558   3.179   5.892
 9810TIP3    H229388   5.666   3.266   5.831
 9811TIP3   OH229389   1.280   4.692   0.482
 9811TIP3    H129390   1.282   4.649   0.396
 9811TIP3    H229391   1.373   4.708   0.502
 9812TIP3   OH229392   1.664   6.725   0.673
 9812TIP3    H129393   1.658   6.631   0.657
 9812TIP3    H229394   1.614   6.765   0.601
 9813TIP3   OH229395   3.433   5.920   0.101
 9813TIP3    H129396   3.385   5.987   0.051
 9813TIP3    H229397   3.368   5.884   0.161
 9814TIP3   OH229398   2.690   2.720   1.183
 9814TIP3    H129399   2.677   2.637   1.138
 9814TIP3    H229400   2.622   2.777   1.147
 9815TIP3   OH229401   2.619   7.450   2.712
 9815TIP3    H129402   2.596   7.500   2.634
 9815TIP3    H229403   2.547   7.387   2.723
 9816TIP3   OH229404   7.759   7.380   1.130
 9816TIP3    H129405   7.710   7.460   1.112
 9816TIP3    H229406   7.824   7.375   1.059
 9817TIP3   OH229407   6.326   0.147   3.245
 9817TIP3    H129408   6.401   0.102   3.207
 9817TIP3    H229409   6.338   0.138   3.340
 9818TIP3   OH229410   2.303   7.728   4.897
 9818TIP3    H129411   2.301   7.664   4.968
 9818TIP3    H229412   2.215   7.765   4.896
 9819TIP3   OH229413   4.085   3.756   5.180
 9819TIP3    H129414   4.070   3.699   5.256
 9819TIP3    H229415   4.047   3.709   5.106
 9820TIP3   OH229416   0.701   7.733   0.505
 9820TIP3    H129417   0.681   7.643   0.530
 9820TIP3    H229418   0.661   7.744   0.419
 9821TIP3   OH229419   6.545   7.285   6.375
 9821TIP3    H129420   6.597   7.262   6.299
 9821TIP3    H229421   6.467   7.230   6.368
 9822TIP3   OH229422   0.426   3.287   3.741
 9822TIP3    H129423   0.513   3.248   3.731
 9822TIP3    H229424   0.395   3.298   3.651
 9823TIP3   OH229425   3.261   7.054   2.390
 9823TIP3    H129426   3.268   6.972   2.341
 9823TIP3    H229427   3.195   7.104   2.344
 9824TIP3   OH229428   3.298   3.918   5.425
 9824TIP3    H129429   3.274   3.835   5.468
 9824TIP3    H229430   3.337   3.891   5.342
 9825TIP3   OH229431   4.789   1.236   4.052
 9825TIP3    H129432   4.815   1.328   4.045
 9825TIP3    H229433   4.696   1.237   4.031
 9826TIP3   OH229434   0.162   3.468   3.049
 9826TIP3    H129435   0.210   3.385   3.047
 9826TIP3    H229436   0.106   3.465   2.971
 9827TIP3   OH229437   2.035   2.668   6.489
 9827TIP3    H129438   2.069   2.713   6.411
 9827TIP3    H229439   1.941   2.664   6.474
 9828TIP3   OH229440   0.865   5.746   6.526
 9828TIP3    H129441   0.893   5.833   6.496
 9828TIP3    H229442   0.812   5.763   6.603
 9829TIP3   OH229443   0.707   2.758   2.044
 9829TIP3    H129444   0.694   2.694   2.114
 9829TIP3    H229445   0.799   2.782   2.049
 9830TIP3   OH229446   6.595   7.789   2.186
 9830TIP3    H129447   6.543   7.712   2.208
 9830TIP3    H229448   6.562   7.817   2.101
 9831TIP3   OH229449   4.454   4.164   6.700
 9831TIP3    H129450   4.391   4.170   6.772
 9831TIP3    H229451   4.400   4.163   6.621
 9832TIP3   OH229452   4.356   0.866   3.735
 9832TIP3    H129453   4.272   0.911   3.731
 9832TIP3    H229454   4.410   0.920   3.793
 9833TIP3   OH229455   4.548   3.400   4.985
 9833TIP3    H129456   4.490   3.413   5.060
 9833TIP3    H229457   4.578   3.309   4.993
 9834TIP3   OH229458   7.303   4.719   4.166
 9834TIP3    H129459   7.297   4.705   4.261
 9834TIP3    H229460   7.320   4.632   4.130
 9835TIP3   OH229461   6.214   3.805   1.144
 9835TIP3    H129462   6.217   3.715   1.174
 9835TIP3    H229463   6.181   3.854   1.219
 9836TIP3   OH229464   5.131   3.673   2.505
 9836TIP3    H129465   5.103   3.618   2.432
 9836TIP3    H229466   5.185   3.742   2.465
 9837TIP3   OH229467   6.128   2.718   4.980
 9837TIP3    H129468   6.091   2.630   4.976
 9837TIP3    H229469   6.060   2.771   5.022
 9838TIP3   OH229470   6.200   2.594   3.293
 9838TIP3    H129471   6.149   2.544   3.356
 9838TIP3    H229472   6.291   2.576   3.315
 9839TIP3   OH229473   8.281   6.460   6.682
 9839TIP3    H129474   8.343   6.449   6.610
 9839TIP3    H229475   8.244   6.372   6.695
 9840TIP3   OH229476   6.581   3.312   3.881
 9840TIP3    H129477   6.488   3.336   3.881
 9840TIP3    H229478   6.627   3.394   3.863
 9841TIP3   OH229479   2.958   5.849   4.848
 9841TIP3    H129480   2.892   5.822   4.783
 9841TIP3    H229481   2.908   5.899   4.913
 9842TIP3   OH229482   6.397   5.816   0.823
 9842TIP3    H129483   6.441   5.760   0.759
 9842TIP3    H229484   6.359   5.887   0.771
 9843TIP3   OH229485   4.736   5.381   2.269
 9843TIP3    H129486   4.787   5.389   2.188
 9843TIP3    H229487   4.645   5.395   2.242
 9844TIP3   OH229488   4.588   0.200   6.283
 9844TIP3    H129489   4.576   0.126   6.343
 9844TIP3    H229490   4.682   0.218   6.286
 9845TIP3   OH229491   1.578   1.622   2.984
 9845TIP3    H129492   1.490   1.652   2.961
 9845TIP3    H229493   1.596   1.550   2.924
 9846TIP3   OH229494   3.757   7.465   1.704
 9846TIP3    H129495   3.834   7.465   1.761
 9846TIP3    H229496   3.688   7.504   1.758
 9847TIP3   OH229497   7.514   4.797   6.318
 9847TIP3    H129498   7.433   4.798   6.268
 9847TIP3    H229499   7.583   4.796   6.252
 9848TIP3   OH229500   1.935   6.078   5.637
 9848TIP3    H129501   2.002   6.101   5.572
 9848TIP3    H229502   1.852   6.092   5.591
 9849TIP3   OH229503   7.392   6.689   3.405
 9849TIP3    H129504   7.345   6.606   3.413
 9849TIP3    H229505   7.353   6.731   3.329
 9850TIP3   OH229506   6.517   2.016   5.088
 9850TIP3    H129507   6.521   1.922   5.075
 9850TIP3    H229508   6.491   2.051   5.003
 9851TIP3   OH229509   0.971   1.385   3.833
 9851TIP3    H129510   1.018   1.468   3.822
 9851TIP3    H229511   1.039   1.322   3.860
 9852TIP3   OH229512   1.563   0.185   6.497
 9852TIP3    H129513   1.609   0.102   6.509
 9852TIP3    H229514   1.552   0.219   6.585
 9853TIP3   OH229515   3.808   5.994   1.617
 9853TIP3    H129516   3.831   6.086   1.631
 9853TIP3    H229517   3.746   5.974   1.687
 9854TIP3   OH229518   3.821   6.619   5.792
 9854TIP3    H129519   3.873   6.550   5.833
 9854TIP3    H229520   3.734   6.580   5.781
 9855TIP3   OH229521   1.352   1.348   5.633
 9855TIP3    H129522   1.358   1.333   5.727
 9855TIP3    H229523   1.438   1.383   5.609
 9856TIP3   OH229524   3.095   1.616   0.677
 9856TIP3    H129525   3.067   1.562   0.603
 9856TIP3    H229526   3.067   1.705   0.654
 9857TIP3   OH229527   4.817   1.990   0.484
 9857TIP3    H129528   4.727   2.016   0.463
 9857TIP3    H229529   4.816   1.979   0.579
 9858TIP3   OH229530   3.821   5.854   4.192
 9858TIP3    H129531   3.737   5.892   4.170
 9858TIP3    H229532   3.841   5.795   4.120
 9859TIP3   OH229533   3.744   0.263   2.174
 9859TIP3    H129534   3.656   0.293   2.152
 9859TIP3    H229535   3.763   0.305   2.258
 9860TIP3   OH229536   5.948   0.919   1.202
 9860TIP3    H129537   5.891   0.911   1.125
 9860TIP3    H229538   5.987   1.006   1.195
 9861TIP3   OH229539   3.846   3.383   6.784
 9861TIP3    H129540   3.899   3.376   6.705
 9861TIP3    H229541   3.811   3.295   6.798
 9862TIP3   OH229542   5.997   7.247   0.490
 9862TIP3    H129543   5.960   7.331   0.519
 9862TIP3    H229544   6.060   7.224   0.558
 9863TIP3   OH229545   1.979   6.398   1.132
 9863TIP3    H129546   2.040   6.446   1.187
 9863TIP3    H229547   1.946   6.328   1.189
 9864TIP3   OH229548   2.361   5.869   4.307
 9864TIP3    H129549   2.295   5.918   4.356
 9864TIP3    H229550   2.444   5.890   4.350
 9865TIP3   OH229551   5.269   2.942   6.539
 9865TIP3    H129552   5.267   2.850   6.567
 9865TIP3    H229553   5.313   2.940   6.454
 9866TIP3   OH229554   0.086   7.786   1.922
 9866TIP3    H129555   0.066   7.819   1.834
 9866TIP3    H229556   0.114   7.696   1.908
 9867TIP3   OH229557   4.397   4.789   0.153
 9867TIP3    H129558   4.341   4.714   0.132
 9867TIP3    H229559   4.443   4.764   0.233
 9868TIP3   OH229560   5.927   5.382   1.449
 9868TIP3    H129561   5.991   5.453   1.444
 9868TIP3    H229562   5.842   5.425   1.441
 9869TIP3   OH229563   3.218   0.144   4.536
 9869TIP3    H129564   3.214   0.058   4.579
 9869TIP3    H229565   3.127   0.169   4.523
 9870TIP3   OH229566   1.444   3.095   0.450
 9870TIP3    H129567   1.535   3.113   0.472
 9870TIP3    H229568   1.414   3.034   0.518
 9871TIP3   OH229569   1.560   2.931   2.689
 9871TIP3    H129570   1.609   3.007   2.657
 9871TIP3    H229571   1.627   2.875   2.728
 9872TIP3   OH229572   5.306   6.151   2.781
 9872TIP3    H129573   5.252   6.215   2.736
 9872TIP3    H229574   5.266   6.142   2.867
 9873TIP3   OH229575   4.252   2.716   1.082
 9873TIP3    H129576   4.296   2.801   1.080
 9873TIP3    H229577   4.286   2.670   1.005
 9874TIP3   OH229578   2.176   4.187   6.535
 9874TIP3    H129579   2.223   4.127   6.477
 9874TIP3    H229580   2.237   4.203   6.607
 9875TIP3   OH229581   2.655   3.353   2.331
 9875TIP3    H129582   2.677   3.377   2.421
 9875TIP3    H229583   2.726   3.294   2.304
 9876TIP3   OH229584   8.146   4.019   2.722
 9876TIP3    H129585   8.222   4.055   2.768
 9876TIP3    H229586   8.183   3.958   2.659
 9877TIP3   OH229587   4.108   0.205   4.796
 9877TIP3    H129588   4.197   0.185   4.767
 9877TIP3    H229589   4.075   0.122   4.830
 9878TIP3   OH229590   7.663   7.435   4.502
 9878TIP3    H129591   7.692   7.479   4.583
 9878TIP3    H229592   7.596   7.494   4.467
 9879TIP3   OH229593   2.546   1.397   0.491
 9879TIP3    H129594   2.587   1.328   0.438
 9879TIP3    H229595   2.608   1.470   0.489
 9880TIP3   OH229596   5.231   5.497   6.641
 9880TIP3    H129597   5.324   5.502   6.618
 9880TIP3    H229598   5.185   5.536   6.566
 9881TIP3   OH229599   2.135   5.547   3.053
 9881TIP3    H129600   2.188   5.472   3.080
 9881TIP3    H229601   2.055   5.540   3.104
 9882TIP3   OH229602   0.399   7.078   6.280
 9882TIP3    H129603   0.467   7.035   6.228
 9882TIP3    H229604   0.332   7.010   6.292
 9883TIP3   OH229605   6.298   2.724   1.988
 9883TIP3    H129606   6.394   2.720   1.987
 9883TIP3    H229607   6.271   2.635   1.964
 9884TIP3   OH229608   7.723   6.098   5.360
 9884TIP3    H129609   7.720   6.012   5.318
 9884TIP3    H229610   7.753   6.080   5.449
 9885TIP3   OH229611   7.852   7.406   5.089
 9885TIP3    H129612   7.925   7.469   5.097
 9885TIP3    H229613   7.845   7.368   5.177
 9886TIP3   OH229614   1.393   4.883   3.873
 9886TIP3    H129615   1.439   4.918   3.950
 9886TIP3    H229616   1.387   4.789   3.890
 9887TIP3   OH229617   3.223   0.304   2.720
 9887TIP3    H129618   3.249   0.346   2.638
 9887TIP3    H229619   3.268   0.355   2.788
 9888TIP3   OH229620   0.065   0.660   2.907
 9888TIP3    H129621   0.034   0.650   2.817
 9888TIP3    H229622   0.147   0.610   2.909
 9889TIP3   OH229623   6.543   7.171   5.805
 9889TIP3    H129624   6.530   7.134   5.892
 9889TIP3    H229625   6.557   7.264   5.820
 9890TIP3   OH229626   3.565   2.594   4.816
 9890TIP3    H129627   3.622   2.538   4.764
 9890TIP3    H229628   3.608   2.601   4.901
 9891TIP3   OH229629   6.248   4.150   1.819
 9891TIP3    H129630   6.259   4.151   1.914
 9891TIP3    H229631   6.180   4.215   1.802
 9892TIP3   OH229632   7.234   1.702   4.891
 9892TIP3    H129633   7.197   1.752   4.819
 9892TIP3    H229634   7.160   1.656   4.930
 9893TIP3   OH229635   8.019   0.679   6.605
 9893TIP3    H129636   8.000   0.586   6.591
 9893TIP3    H229637   7.966   0.702   6.682
 9894TIP3   OH229638   7.923   4.422   3.216
 9894TIP3    H129639   7.951   4.489   3.154
 9894TIP3    H229640   7.839   4.453   3.249
 9895TIP3   OH229641   6.448   3.491   6.737
 9895TIP3    H129642   6.417   3.414   6.689
 9895TIP3    H229643   6.527   3.518   6.689
 9896TIP3   OH229644   7.563   5.018   5.977
 9896TIP3    H129645   7.608   4.935   5.960
 9896TIP3    H229646   7.552   5.020   6.072
 9897TIP3   OH229647   4.559   5.210   2.874
 9897TIP3    H129648   4.501   5.167   2.936
 9897TIP3    H229649   4.646   5.176   2.895
 9898TIP3   OH229650   6.182   4.490   5.463
 9898TIP3    H129651   6.162   4.488   5.370
 9898TIP3    H229652   6.141   4.571   5.495
 9899TIP3   OH229653   0.902   1.405   0.579
 9899TIP3    H129654   0.836   1.336   0.585
 9899TIP3    H229655   0.959   1.389   0.655
 9900TIP3   OH229656   1.020   6.377   2.579
 9900TIP3    H129657   1.099   6.324   2.595
 9900TIP3    H229658   0.960   6.351   2.649
 9901TIP3   OH229659   2.629   5.010   3.076
 9901TIP3    H129660   2.597   4.963   3.154
 9901TIP3    H229661   2.552   5.052   3.039
 9902TIP3   OH229662   3.349   3.237   0.145
 9902TIP3    H129663   3.277   3.206   0.201
 9902TIP3    H229664   3.405   3.286   0.205
 9903TIP3   OH229665   0.610   2.085   4.106
 9903TIP3    H129666   0.667   2.109   4.034
 9903TIP3    H229667   0.613   2.160   4.165
 9904TIP3   OH229668   1.025   4.047   3.374
 9904TIP3    H129669   0.937   4.044   3.336
 9904TIP3    H229670   1.083   4.062   3.300
 9905TIP3   OH229671   5.801   5.432   5.266
 9905TIP3    H129672   5.723   5.471   5.226
 9905TIP3    H229673   5.792   5.338   5.249
 9906TIP3   OH229674   3.818   1.282   5.231
 9906TIP3    H129675   3.888   1.348   5.227
 9906TIP3    H229676   3.836   1.225   5.156
 9907TIP3   OH229677   2.945   1.635   2.097
 9907TIP3    H129678   2.969   1.559   2.044
 9907TIP3    H229679   2.912   1.699   2.034
 9908TIP3   OH229680   1.419   0.810   1.880
 9908TIP3    H129681   1.387   0.729   1.838
 9908TIP3    H229682   1.458   0.859   1.808
 9909TIP3   OH229683   4.046   0.071   1.116
 9909TIP3    H129684   4.074   0.008   1.182
 9909TIP3    H229685   4.026   0.150   1.166
 9910TIP3   OH229686   6.584   3.077   1.821
 9910TIP3    H129687   6.641   3.040   1.889
 9910TIP3    H229688   6.518   3.009   1.805
 9911TIP3   OH229689   2.681   0.841   0.756
 9911TIP3    H129690   2.625   0.763   0.751
 9911TIP3    H229691   2.663   0.889   0.676
 9912TIP3   OH229692   1.596   0.034   1.102
 9912TIP3    H129693   1.599   0.019   1.008
 9912TIP3    H229694   1.661  -0.026   1.138
 9913TIP3   OH229695   4.430   2.488   6.775
 9913TIP3    H129696   4.448   2.575   6.810
 9913TIP3    H229697   4.470   2.487   6.688
 9914TIP3   OH229698   1.917   3.096   3.629
 9914TIP3    H129699   1.834   3.123   3.669
 9914TIP3    H229700   1.964   3.178   3.614
 9915TIP3   OH229701   7.136   1.505   5.976
 9915TIP3    H129702   7.060   1.509   5.919
 9915TIP3    H229703   7.198   1.567   5.939
 9916TIP3   OH229704   6.168   4.771   6.291
 9916TIP3    H129705   6.189   4.864   6.296
 9916TIP3    H229706   6.073   4.768   6.278
 9917TIP3   OH229707   1.798   5.321   1.503
 9917TIP3    H129708   1.748   5.276   1.571
 9917TIP3    H229709   1.780   5.272   1.423
 9918TIP3   OH229710   0.561   2.823   1.706
 9918TIP3    H129711   0.643   2.863   1.736
 9918TIP3    H229712   0.505   2.824   1.784
 9919TIP3   OH229713   0.031   6.496   0.115
 9919TIP3    H129714   0.111   6.460   0.152
 9919TIP3    H229715   0.047   6.590   0.107
 9920TIP3   OH229716   4.200   6.439   1.374
 9920TIP3    H129717   4.189   6.481   1.460
 9920TIP3    H229718   4.178   6.347   1.390
 9921TIP3   OH229719   2.750   0.513   2.003
 9921TIP3    H129720   2.736   0.419   2.013
 9921TIP3    H229721   2.711   0.534   1.918
 9922TIP3   OH229722   1.045   0.594   1.320
 9922TIP3    H129723   1.085   0.509   1.301
 9922TIP3    H229724   1.011   0.625   1.236
 9923TIP3   OH229725   2.967   5.907   1.853
 9923TIP3    H129726   3.009   5.838   1.801
 9923TIP3    H229727   2.907   5.949   1.792
 9924TIP3   OH229728   1.549   3.415   4.597
 9924TIP3    H129729   1.572   3.334   4.551
 9924TIP3    H229730   1.470   3.394   4.645
 9925TIP3   OH229731   5.080   2.467   0.872
 9925TIP3    H129732   5.139   2.504   0.806
 9925TIP3    H229733   5.103   2.375   0.876
 9926TIP3   OH229734   1.271   4.753   5.190
 9926TIP3    H129735   1.256   4.845   5.210
 9926TIP3    H229736   1.210   4.734   5.118
 9927TIP3   OH229737   1.615   5.217   6.396
 9927TIP3    H129738   1.634   5.292   6.340
 9927TIP3    H229739   1.519   5.212   6.397
 9928TIP3   OH229740   2.506   1.950   6.119
 9928TIP3    H129741   2.563   1.879   6.089
 9928TIP3    H229742   2.455   1.974   6.042
 9929TIP3   OH229743   1.369   5.155   2.123
 9929TIP3    H129744   1.407   5.076   2.086
 9929TIP3    H229745   1.276   5.134   2.133
 9930TIP3   OH229746   4.626   4.510   0.062
 9930TIP3    H129747   4.685   4.504   0.137
 9930TIP3    H229748   4.539   4.522   0.100
 9931TIP3   OH229749   4.068   2.737   3.173
 9931TIP3    H129750   3.977   2.734   3.142
 9931TIP3    H229751   4.116   2.681   3.111
 9932TIP3   OH229752   4.409   1.373   3.617
 9932TIP3    H129753   4.428   1.354   3.525
 9932TIP3    H229754   4.340   1.439   3.615
 9933TIP3   OH229755   5.731   6.156   3.441
 9933TIP3    H129756   5.790   6.230   3.430
 9933TIP3    H229757   5.765   6.088   3.383
 9934TIP3   OH229758   3.204   0.959   2.695
 9934TIP3    H129759   3.158   0.875   2.700
 9934TIP3    H229760   3.181   1.003   2.776
 9935TIP3   OH229761   2.758   4.451   2.029
 9935TIP3    H129762   2.761   4.425   1.937
 9935TIP3    H229763   2.814   4.388   2.074
 9936TIP3   OH229764   0.480   7.336   6.630
 9936TIP3    H129765   0.443   7.369   6.712
 9936TIP3    H229766   0.410   7.348   6.566
 9937TIP3   OH229767   0.071   4.862   5.726
 9937TIP3    H129768   0.076   4.940   5.783
 9937TIP3    H229769  -0.003   4.880   5.669
 9938TIP3   OH229770   0.813   2.225   4.472
 9938TIP3    H129771   0.909   2.218   4.468
 9938TIP3    H229772   0.782   2.140   4.440
 9939TIP3   OH229773   5.716   2.321   3.455
 9939TIP3    H129774   5.642   2.368   3.495
 9939TIP3    H229775   5.744   2.378   3.383
 9940TIP3   OH229776   4.144   1.868   2.369
 9940TIP3    H129777   4.095   1.950   2.363
 9940TIP3    H229778   4.078   1.800   2.357
 9941TIP3   OH229779   3.677   2.677   1.907
 9941TIP3    H129780   3.668   2.645   1.817
 9941TIP3    H229781   3.602   2.736   1.920
 9942TIP3   OH229782   4.384   0.675   5.622
 9942TIP3    H129783   4.447   0.729   5.669
 9942TIP3    H229784   4.341   0.623   5.690
 9943TIP3   OH229785   4.997   2.600   5.258
 9943TIP3    H129786   4.959   2.669   5.312
 9943TIP3    H229787   4.983   2.519   5.308
 9944TIP3   OH229788   3.324   1.425   5.845
 9944TIP3    H129789   3.315   1.392   5.755
 9944TIP3    H229790   3.240   1.404   5.886
 9945TIP3   OH229791   2.496   2.212   3.949
 9945TIP3    H129792   2.464   2.155   3.879
 9945TIP3    H229793   2.471   2.300   3.922
 9946TIP3   OH229794   4.271   1.731   3.848
 9946TIP3    H129795   4.221   1.662   3.892
 9946TIP3    H229796   4.229   1.812   3.875
 9947TIP3   OH229797   6.593   3.930   6.722
 9947TIP3    H129798   6.514   3.914   6.774
 9947TIP3    H229799   6.567   3.910   6.632
 9948TIP3   OH229800   3.001   0.557   1.113
 9948TIP3    H129801   2.972   0.602   1.034
 9948TIP3    H229802   3.076   0.505   1.085
 9949TIP3   OH229803   0.823   0.672   2.942
 9949TIP3    H129804   0.915   0.690   2.923
 9949TIP3    H229805   0.788   0.755   2.975
 9950TIP3   OH229806   7.955   0.731   5.752
 9950TIP3    H129807   8.006   0.650   5.752
 9950TIP3    H229808   7.869   0.705   5.719
 9951TIP3   OH229809   0.562   5.659   1.394
 9951TIP3    H129810   0.543   5.725   1.460
 9951TIP3    H229811   0.479   5.646   1.347
 9952TIP3   OH229812   6.898   7.820   4.837
 9952TIP3    H129813   6.887   7.884   4.907
 9952TIP3    H229814   6.835   7.751   4.857
 9953TIP3   OH229815   2.060   3.472   2.844
 9953TIP3    H129816   2.108   3.500   2.922
 9953TIP3    H229817   1.971   3.454   2.876
 9954TIP3   OH229818   5.657   5.330   6.185
 9954TIP3    H129819   5.564   5.347   6.195
 9954TIP3    H229820   5.668   5.238   6.210
 9955TIP3   OH229821   5.997   3.728   1.713
 9955TIP3    H129822   6.090   3.741   1.694
 9955TIP3    H229823   5.994   3.711   1.807
 9956TIP3   OH229824   2.033   4.318   5.645
 9956TIP3    H129825   2.061   4.395   5.596
 9956TIP3    H229826   2.052   4.244   5.587
 9957TIP3   OH229827   7.653   3.500   1.351
 9957TIP3    H129828   7.596   3.483   1.276
 9957TIP3    H229829   7.718   3.430   1.348
 9958TIP3   OH229830   4.093   5.978   4.259
 9958TIP3    H129831   4.057   6.007   4.343
 9958TIP3    H229832   4.029   5.915   4.227
 9959TIP3   OH229833   2.531   0.362   4.451
 9959TIP3    H129834   2.449   0.397   4.416
 9959TIP3    H229835   2.578   0.329   4.375
 9960TIP3   OH229836   8.302   1.440   5.304
 9960TIP3    H129837   8.284   1.474   5.392
 9960TIP3    H229838   8.328   1.518   5.254
 9961TIP3   OH229839   2.338   0.482   4.327
 9961TIP3    H129840   2.306   0.548   4.265
 9961TIP3    H229841   2.271   0.414   4.326
 9962TIP3   OH229842   3.766   7.672   1.539
 9962TIP3    H129843   3.844   7.722   1.564
 9962TIP3    H229844   3.760   7.602   1.603
 9963TIP3   OH229845   4.805   6.651   3.794
 9963TIP3    H129846   4.827   6.744   3.788
 9963TIP3    H229847   4.889   6.607   3.809
 9964TIP3   OH229848   7.035   7.118   4.494
 9964TIP3    H129849   6.954   7.067   4.499
 9964TIP3    H229850   7.096   7.061   4.448
 9965TIP3   OH229851   3.461   5.817   6.265
 9965TIP3    H129852   3.410   5.875   6.207
 9965TIP3    H229853   3.405   5.741   6.278
 9966TIP3   OH229854   5.699   5.935   0.978
 9966TIP3    H129855   5.776   5.945   0.922
 9966TIP3    H229856   5.732   5.949   1.067
 9967TIP3   OH229857   4.537   6.613   5.217
 9967TIP3    H129858   4.595   6.611   5.140
 9967TIP3    H229859   4.579   6.674   5.277
 9968TIP3   OH229860   2.871   1.939   4.340
 9968TIP3    H129861   2.829   1.916   4.257
 9968TIP3    H229862   2.830   1.882   4.404
 9969TIP3   OH229863   4.322   3.003   1.420
 9969TIP3    H129864   4.285   2.915   1.412
 9969TIP3    H229865   4.361   3.005   1.508
 9970TIP3   OH229866   5.403   7.741   0.500
 9970TIP3    H129867   5.337   7.757   0.568
 9970TIP3    H229868   5.392   7.814   0.439
 9971TIP3   OH229869   5.994   6.023   5.471
 9971TIP3    H129870   5.976   6.001   5.562
 9971TIP3    H229871   5.940   6.100   5.454
 9972TIP3   OH229872   1.177   6.202   6.299
 9972TIP3    H129873   1.207   6.169   6.383
 9972TIP3    H229874   1.217   6.289   6.292
 9973TIP3   OH229875   2.001   4.079   0.296
 9973TIP3    H129876   2.084   4.088   0.344
 9973TIP3    H229877   1.967   4.168   0.292
 9974TIP3   OH229878   6.054   2.057   5.258
 9974TIP3    H129879   6.011   2.083   5.177
 9974TIP3    H229880   6.126   2.119   5.268
 9975TIP3   OH229881   3.456   3.129   1.416
 9975TIP3    H129882   3.379   3.153   1.468
 9975TIP3    H229883   3.435   3.157   1.327
 9976TIP3   OH229884   3.394   5.816   2.061
 9976TIP3    H129885   3.366   5.728   2.084
 9976TIP3    H229886   3.341   5.839   1.985
 9977TIP3   OH229887   4.968   5.585   6.473
 9977TIP3    H129888   4.929   5.562   6.557
 9977TIP3    H229889   4.897   5.627   6.424
 9978TIP3   OH229890   0.558   5.629   5.303
 9978TIP3    H129891   0.518   5.650   5.387
 9978TIP3    H229892   0.582   5.713   5.265
 9979TIP3   OH229893   1.569   3.406   3.263
 9979TIP3    H129894   1.631   3.398   3.336
 9979TIP3    H229895   1.487   3.370   3.297
 9980TIP3   OH229896   0.118   0.994   0.697
 9980TIP3    H129897   0.073   0.910   0.699
 9980TIP3    H229898   0.048   1.059   0.686
 9981TIP3   OH229899   4.257   2.110   5.951
 9981TIP3    H129900   4.185   2.169   5.931
 9981TIP3    H229901   4.334   2.151   5.911
 9982TIP3   OH229902   6.496   7.120   4.126
 9982TIP3    H129903   6.480   7.045   4.069
 9982TIP3    H229904   6.587   7.108   4.155
 9983TIP3   OH229905   2.741   2.572   4.139
 9983TIP3    H129906   2.821   2.597   4.185
 9983TIP3    H229907   2.716   2.489   4.177
 9984TIP3   OH229908   6.125   4.320   3.756
 9984TIP3    H129909   6.182   4.266   3.701
 9984TIP3    H229910   6.048   4.266   3.771
 9985TIP3   OH229911   0.228   6.335   1.610
 9985TIP3    H129912   0.312   6.361   1.573
 9985TIP3    H229913   0.226   6.374   1.697
 9986TIP3   OH229914   0.544   6.935   2.753
 9986TIP3    H129915   0.458   6.896   2.734
 9986TIP3    H229916   0.546   6.943   2.848
 9987TIP3   OH229917   0.382   5.562   5.936
 9987TIP3    H129918   0.317   5.516   5.989
 9987TIP3    H229919   0.361   5.655   5.946
 9988TIP3   OH229920   0.087   0.856   3.592
 9988TIP3    H129921   0.158   0.920   3.605
 9988TIP3    H229922   0.016   0.889   3.647
 9989TIP3   OH229923   8.319   5.889   5.878
 9989TIP3    H129924   8.376   5.884   5.802
 9989TIP3    H229925   8.240   5.935   5.846
 9990TIP3   OH229926   2.379   4.683   2.095
 9990TIP3    H129927   2.455   4.739   2.078
 9990TIP3    H229928   2.411   4.594   2.079
 9991TIP3   OH229929   1.007   7.063   4.625
 9991TIP3    H129930   0.980   7.135   4.681
 9991TIP3    H229931   0.935   7.052   4.563
 9992TIP3   OH229932   3.632   3.925   1.070
 9992TIP3    H129933   3.570   3.877   1.124
 9992TIP3    H229934   3.600   4.015   1.071
 9993TIP3   OH229935   8.336   4.756   5.235
 9993TIP3    H129936   8.279   4.688   5.199
 9993TIP3    H229937   8.276   4.829   5.255
 9994TIP3   OH229938   7.907   1.133   0.758
 9994TIP3    H129939   7.917   1.226   0.775
 9994TIP3    H229940   7.857   1.128   0.676
 9995TIP3   OH229941   7.983   3.330   1.560
 9995TIP3    H129942   8.005   3.289   1.643
 9995TIP3    H229943   7.962   3.421   1.583
 9996TIP3   OH229944   7.610   2.490   5.053
 9996TIP3    H129945   7.528   2.527   5.087
 9996TIP3    H229946   7.624   2.534   4.969
 9997TIP3   OH229947   1.095   0.576   2.358
 9997TIP3    H129948   1.008   0.616   2.354
 9997TIP3    H229949   1.098   0.535   2.445
 9998TIP3   OH229950   2.382   7.301   2.679
 9998TIP3    H129951   2.332   7.243   2.737
 9998TIP3    H229952   2.315   7.354   2.635
 9999TIP3   OH229953   6.673   3.761   4.176
 9999TIP3    H129954   6.667   3.807   4.260
 9999TIP3    H229955   6.597   3.791   4.127
10000TIP3   OH229956   3.808   3.953   1.857
10000TIP3    H129957   3.791   4.002   1.938
10000TIP3    H229958   3.804   3.861   1.883
10001TIP3   OH229959   1.720   6.288   2.289
10001TIP3    H129960   1.795   6.232   2.309
10001TIP3    H229961   1.750   6.376   2.312
10002TIP3   OH229962   2.379   3.458   4.335
10002TIP3    H129963   2.369   3.365   4.355
10002TIP3    H229964   2.366   3.502   4.419
10003TIP3   OH229965   2.380   7.146   2.338
10003TIP3    H129966   2.350   7.087   2.407
10003TIP3    H229967   2.341   7.111   2.258
10004TIP3   OH229968   5.049   6.159   3.395
10004TIP3    H129969   5.072   6.068   3.414
10004TIP3    H229970   5.130   6.196   3.358
10005TIP3   OH229971   4.582   4.777   5.414
10005TIP3    H129972   4.672   4.773   5.444
10005TIP3    H229973   4.588   4.792   5.320
10006TIP3   OH229974   5.641   0.801   0.377
10006TIP3    H129975   5.580   0.772   0.445
10006TIP3    H229976   5.658   0.893   0.399
10007TIP3   OH229977   4.502   1.086   6.507
10007TIP3    H129978   4.455   1.023   6.562
10007TIP3    H229979   4.443   1.102   6.434
10008TIP3   OH229980   1.382   6.950   1.572
10008TIP3    H129981   1.350   7.040   1.582
10008TIP3    H229982   1.369   6.930   1.480
10009TIP3   OH229983   4.129   1.004   0.427
10009TIP3    H129984   4.037   1.022   0.410
10009TIP3    H229985   4.177   1.071   0.377
10010TIP3   OH229986   7.041   7.138   4.166
10010TIP3    H129987   7.040   7.224   4.124
10010TIP3    H229988   7.103   7.147   4.238
10011TIP3   OH229989   7.049   2.369   1.241
10011TIP3    H129990   7.040   2.336   1.330
10011TIP3    H229991   6.975   2.429   1.230
10012TIP3   OH229992   3.700   3.825   5.657
10012TIP3    H129993   3.640   3.811   5.730
10012TIP3    H229994   3.709   3.920   5.651
10013TIP3   OH229995   1.995   0.733   2.155
10013TIP3    H129996   2.090   0.732   2.151
10013TIP3    H229997   1.967   0.679   2.081
10014TIP3   OH229998   5.131   2.940   6.042
10014TIP3    H129999   5.040   2.934   6.074
10014TIP3    H230000   5.169   2.856   6.065
10015TIP3   OH230001   0.403   5.367   4.108
10015TIP3    H130002   0.404   5.439   4.046
10015TIP3    H230003   0.372   5.292   4.058
10016TIP3   OH230004   1.844   6.815   6.568
10016TIP3    H130005   1.849   6.792   6.661
10016TIP3    H230006   1.889   6.744   6.523
10017TIP3   OH230007   2.838   6.061   4.240
10017TIP3    H130008   2.909   6.084   4.181
10017TIP3    H230009   2.763   6.044   4.181
10018TIP3   OH230010   3.751   5.404   1.326
10018TIP3    H130011   3.728   5.493   1.297
10018TIP3    H230012   3.824   5.378   1.270
10019TIP3   OH230013   1.396   3.159   5.364
10019TIP3    H130014   1.394   3.115   5.279
10019TIP3    H230015   1.370   3.249   5.346
10020TIP3   OH230016   3.471   3.591   6.189
10020TIP3    H130017   3.446   3.540   6.112
10020TIP3    H230018   3.493   3.526   6.255
10021TIP3   OH230019   0.196   5.167   4.408
10021TIP3    H130020   0.277   5.205   4.376
10021TIP3    H230021   0.127   5.217   4.364
10022TIP3   OH230022   6.213   2.314   4.183
10022TIP3    H130023   6.169   2.383   4.135
10022TIP3    H230024   6.295   2.299   4.136
10023TIP3   OH230025   3.422   0.833   1.893
10023TIP3    H130026   3.473   0.755   1.918
10023TIP3    H230027   3.488   0.901   1.879
10024TIP3   OH230028   6.712   4.879   0.060
10024TIP3    H130029   6.786   4.904   0.116
10024TIP3    H230030   6.635   4.914   0.106
10025TIP3   OH230031   0.846   0.072   2.849
10025TIP3    H130032   0.781   0.140   2.864
10025TIP3    H230033   0.799   0.004   2.802
10026TIP3   OH230034   3.937   7.067   0.125
10026TIP3    H130035   3.950   7.155   0.162
10026TIP3    H230036   3.939   7.080   0.031
10027TIP3   OH230037   6.249   2.144   3.756
10027TIP3    H130038   6.294   2.060   3.745
10027TIP3    H230039   6.189   2.130   3.828
10028TIP3   OH230040   7.860   1.720   2.611
10028TIP3    H130041   7.834   1.656   2.677
10028TIP3    H230042   7.826   1.684   2.529
10029TIP3   OH230043   6.601   7.402   2.192
10029TIP3    H130044   6.627   7.325   2.242
10029TIP3    H230045   6.582   7.468   2.257
10030TIP3   OH230046   2.771   7.148   1.007
10030TIP3    H130047   2.735   7.072   1.052
10030TIP3    H230048   2.702   7.214   1.012
10031TIP3   OH230049   3.279   0.831   1.113
10031TIP3    H130050   3.303   0.744   1.084
10031TIP3    H230051   3.293   0.830   1.208
10032TIP3   OH230052   0.019   7.517   0.221
10032TIP3    H130053  -0.068   7.526   0.261
10032TIP3    H230054   0.052   7.607   0.217
10033TIP3   OH230055   0.917   0.643   4.893
10033TIP3    H130056   0.923   0.591   4.973
10033TIP3    H230057   1.007   0.651   4.862
10034TIP3   OH230058   1.521   5.344   5.585
10034TIP3    H130059   1.539   5.434   5.612
10034TIP3    H230060   1.541   5.292   5.664
10035TIP3   OH230061   1.314   4.716   4.539
10035TIP3    H130062   1.386   4.779   4.532
10035TIP3    H230063   1.325   4.675   4.624
10036TIP3   OH230064   4.035   0.440   4.888
10036TIP3    H130065   4.090   0.459   4.965
10036TIP3    H230066   4.064   0.353   4.859
10037TIP3   OH230067   5.967   7.378   4.157
10037TIP3    H130068   5.930   7.463   4.181
10037TIP3    H230069   6.060   7.397   4.142
10038TIP3   OH230070   3.798   3.107   6.514
10038TIP3    H130071   3.767   3.132   6.427
10038TIP3    H230072   3.861   3.036   6.498
10039TIP3   OH230073   5.180   2.833   4.074
10039TIP3    H130074   5.213   2.771   4.008
10039TIP3    H230075   5.178   2.917   4.028
10040TIP3   OH230076   5.520   3.408   2.272
10040TIP3    H130077   5.472   3.472   2.219
10040TIP3    H230078   5.563   3.352   2.207
10041TIP3   OH230079   5.471   2.440   4.838
10041TIP3    H130080   5.423   2.506   4.788
10041TIP3    H230081   5.471   2.474   4.928
10042TIP3   OH230082   6.764   2.007   3.270
10042TIP3    H130083   6.745   2.096   3.298
10042TIP3    H230084   6.738   2.005   3.178
10043TIP3   OH230085   0.029   3.728   0.136
10043TIP3    H130086  -0.032   3.799   0.155
10043TIP3    H230087   0.059   3.698   0.222
10044TIP3   OH230088   5.974   1.893   4.820
10044TIP3    H130089   6.010   1.886   4.731
10044TIP3    H230090   6.008   1.977   4.853
10045TIP3   OH230091   4.307   4.863   5.162
10045TIP3    H130092   4.223   4.906   5.145
10045TIP3    H230093   4.291   4.811   5.241
10046TIP3   OH230094   5.836   7.158   2.869
10046TIP3    H130095   5.903   7.119   2.925
10046TIP3    H230096   5.832   7.249   2.896
10047TIP3   OH230097   2.991   0.686   0.242
10047TIP3    H130098   3.065   0.741   0.268
10047TIP3    H230099   2.955   0.652   0.324
10048TIP3   OH230100   3.040   2.247   3.517
10048TIP3    H130101   2.963   2.238   3.461
10048TIP3    H230102   3.034   2.336   3.551
10049TIP3   OH230103   8.043   7.020   4.693
10049TIP3    H130104   7.994   6.966   4.631
10049TIP3    H230105   8.135   7.001   4.674
10050TIP3   OH230106   5.390   5.641   2.245
10050TIP3    H130107   5.377   5.560   2.293
10050TIP3    H230108   5.481   5.664   2.261
10051TIP3   OH230109   5.866   5.354   6.024
10051TIP3    H130110   5.889   5.435   5.979
10051TIP3    H230111   5.772   5.362   6.042
10052TIP3   OH230112   4.432   1.347   1.749
10052TIP3    H130113   4.470   1.344   1.837
10052TIP3    H230114   4.493   1.401   1.698
10053TIP3   OH230115   4.937   5.102   6.176
10053TIP3    H130116   4.894   5.022   6.205
10053TIP3    H230117   4.886   5.173   6.216
10054TIP3   OH230118   5.984   4.983   4.609
10054TIP3    H130119   5.906   4.944   4.570
10054TIP3    H230120   6.057   4.927   4.581
10055TIP3   OH230121   2.394   1.338   2.483
10055TIP3    H130122   2.404   1.433   2.494
10055TIP3    H230123   2.415   1.323   2.391
10056TIP3   OH230124   6.595   7.229   1.528
10056TIP3    H130125   6.593   7.308   1.583
10056TIP3    H230126   6.538   7.167   1.572
10057TIP3   OH230127   7.617   6.260   4.630
10057TIP3    H130128   7.643   6.271   4.721
10057TIP3    H230129   7.666   6.327   4.582
10058TIP3   OH230130   7.555   3.676   6.193
10058TIP3    H130131   7.490   3.734   6.153
10058TIP3    H230132   7.590   3.725   6.267
10059TIP3   OH230133   3.754   7.559   2.767
10059TIP3    H130134   3.787   7.640   2.806
10059TIP3    H230135   3.660   7.572   2.758
10060TIP3   OH230136   2.936   0.100   5.651
10060TIP3    H130137   3.029   0.109   5.675
10060TIP3    H230138   2.893   0.072   5.732
10061TIP3   OH230139   7.903   3.194   5.791
10061TIP3    H130140   7.904   3.287   5.768
10061TIP3    H230141   7.821   3.182   5.838
10062TIP3   OH230142   0.959   4.081   1.499
10062TIP3    H130143   0.958   4.084   1.403
10062TIP3    H230144   0.994   3.994   1.519
10063TIP3   OH230145   4.694   5.895   5.460
10063TIP3    H130146   4.637   5.968   5.437
10063TIP3    H230147   4.723   5.859   5.376
10064TIP3   OH230148   2.536   2.179   0.510
10064TIP3    H130149   2.609   2.137   0.555
10064TIP3    H230150   2.577   2.247   0.456
10065TIP3   OH230151   0.930   4.466   2.876
10065TIP3    H130152   0.997   4.477   2.943
10065TIP3    H230153   0.966   4.510   2.799
10066TIP3   OH230154   5.174   4.018   3.186
10066TIP3    H130155   5.239   4.075   3.147
10066TIP3    H230156   5.090   4.049   3.151
10067TIP3   OH230157   2.612   6.843   0.019
10067TIP3    H130158   2.698   6.824  -0.019
10067TIP3    H230159   2.600   6.777   0.087
10068TIP3   OH230160   2.663   0.135   5.255
10068TIP3    H130161   2.700   0.059   5.300
10068TIP3    H230162   2.737   0.195   5.245
10069TIP3   OH230163   0.787   1.066   6.540
10069TIP3    H130164   0.759   1.156   6.553
10069TIP3    H230165   0.711   1.023   6.499
10070TIP3   OH230166   6.927   1.987   1.905
10070TIP3    H130167   6.870   1.996   1.982
10070TIP3    H230168   7.013   1.966   1.942
10071TIP3   OH230169   2.914   7.419   1.496
10071TIP3    H130170   2.915   7.402   1.401
10071TIP3    H230171   2.835   7.471   1.510
10072TIP3   OH230172   1.862   6.739   1.146
10072TIP3    H130173   1.864   6.645   1.162
10072TIP3    H230174   1.934   6.755   1.085
10073TIP3   OH230175   3.121   7.849   6.375
10073TIP3    H130176   3.026   7.858   6.371
10073TIP3    H230177   3.138   7.817   6.464
10074TIP3   OH230178   2.156   1.798   2.345
10074TIP3    H130179   2.111   1.716   2.367
10074TIP3    H230180   2.228   1.803   2.407
10075TIP3   OH230181   1.091   3.254   1.244
10075TIP3    H130182   1.157   3.299   1.193
10075TIP3    H230183   1.136   3.177   1.279
10076TIP3   OH230184   7.934   3.388   0.299
10076TIP3    H130185   7.885   3.373   0.219
10076TIP3    H230186   7.902   3.471   0.333
10077TIP3   OH230187   3.589   6.270   4.862
10077TIP3    H130188   3.585   6.271   4.766
10077TIP3    H230189   3.675   6.307   4.882
10078TIP3   OH230190   1.021   5.751   3.089
10078TIP3    H130191   0.934   5.776   3.058
10078TIP3    H230192   1.056   5.695   3.020
10079TIP3   OH230193   1.642   2.506   2.902
10079TIP3    H130194   1.638   2.410   2.902
10079TIP3    H230195   1.723   2.526   2.948
10080TIP3   OH230196   2.879   5.121   5.706
10080TIP3    H130197   2.800   5.097   5.658
10080TIP3    H230198   2.872   5.216   5.718
10081TIP3   OH230199   2.443   0.380   4.878
10081TIP3    H130200   2.434   0.317   4.949
10081TIP3    H230201   2.361   0.372   4.828
10082TIP3   OH230202   4.855   4.377   1.196
10082TIP3    H130203   4.885   4.341   1.280
10082TIP3    H230204   4.763   4.353   1.191
10083TIP3   OH230205   6.780   1.162   3.668
10083TIP3    H130206   6.802   1.145   3.577
10083TIP3    H230207   6.735   1.247   3.667
10084TIP3   OH230208   8.206   2.252   5.673
10084TIP3    H130209   8.181   2.163   5.696
10084TIP3    H230210   8.193   2.257   5.578
10085TIP3   OH230211   7.223   0.171   6.635
10085TIP3    H130212   7.212   0.077   6.647
10085TIP3    H230213   7.317   0.186   6.644
10086TIP3   OH230214   1.853   7.384   6.211
10086TIP3    H130215   1.857   7.341   6.126
10086TIP3    H230216   1.878   7.474   6.193
10087TIP3   OH230217   5.721   6.851   3.888
10087TIP3    H130218   5.803   6.841   3.839
10087TIP3    H230219   5.748   6.858   3.979
10088TIP3   OH230220   0.044   0.512   5.234
10088TIP3    H130221   0.052   0.462   5.153
10088TIP3    H230222  -0.032   0.474   5.278
10089TIP3   OH230223   1.991   6.195   1.320
10089TIP3    H130224   2.056   6.265   1.319
10089TIP3    H230225   2.030   6.127   1.376
10090TIP3   OH230226   5.303   4.308   4.134
10090TIP3    H130227   5.341   4.249   4.068
10090TIP3    H230228   5.260   4.376   4.083
10091TIP3   OH230229   3.611   3.794   2.201
10091TIP3    H130230   3.549   3.737   2.156
10091TIP3    H230231   3.557   3.866   2.235
10092TIP3   OH230232   0.157   5.541   3.294
10092TIP3    H130233   0.231   5.486   3.320
10092TIP3    H230234   0.142   5.519   3.202
10093TIP3   OH230235   1.712   2.247   4.033
10093TIP3    H130236   1.729   2.177   3.969
10093TIP3    H230237   1.655   2.309   3.986
10094TIP3   OH230238   7.899   2.031   2.829
10094TIP3    H130239   7.973   2.045   2.887
10094TIP3    H230240   7.828   2.004   2.887
10095TIP3   OH230241   3.880   0.587   2.236
10095TIP3    H130242   3.843   0.551   2.155
10095TIP3    H230243   3.844   0.532   2.305
10096TIP3   OH230244   2.688   5.691   0.328
10096TIP3    H130245   2.776   5.708   0.294
10096TIP3    H230246   2.641   5.651   0.255
10097TIP3   OH230247   4.603   1.093   3.193
10097TIP3    H130248   4.610   1.035   3.269
10097TIP3    H230249   4.663   1.165   3.212
10098TIP3   OH230250   3.643   0.303   1.216
10098TIP3    H130251   3.634   0.259   1.301
10098TIP3    H230252   3.554   0.328   1.193
10099TIP3   OH230253   3.001   1.400   1.956
10099TIP3    H130254   2.957   1.317   1.940
10099TIP3    H230255   3.063   1.409   1.883
10100TIP3   OH230256   2.448   4.849   1.376
10100TIP3    H130257   2.452   4.935   1.336
10100TIP3    H230258   2.408   4.863   1.462
10101TIP3   OH230259   1.512   0.152   2.189
10101TIP3    H130260   1.462   0.223   2.229
10101TIP3    H230261   1.468   0.072   2.218
10102TIP3   OH230262   3.980   7.732   6.452
10102TIP3    H130263   3.912   7.798   6.465
10102TIP3    H230264   4.059   7.773   6.487
10103TIP3   OH230265   3.915   4.888   3.994
10103TIP3    H130266   3.984   4.945   3.960
10103TIP3    H230267   3.959   4.832   4.057
10104TIP3   OH230268   0.753   6.278   4.120
10104TIP3    H130269   0.791   6.196   4.088
10104TIP3    H230270   0.661   6.274   4.091
10105TIP3   OH230271   3.554   5.717   6.031
10105TIP3    H130272   3.478   5.717   5.972
10105TIP3    H230273   3.523   5.763   6.109
10106TIP3   OH230274   3.111   6.054   0.267
10106TIP3    H130275   3.038   6.006   0.305
10106TIP3    H230276   3.070   6.126   0.219
10107TIP3   OH230277   4.261   0.041   0.153
10107TIP3    H130278   4.222  -0.030   0.203
10107TIP3    H230279   4.301   0.098   0.219
10108TIP3   OH230280   3.086   2.880   5.857
10108TIP3    H130281   3.139   2.831   5.920
10108TIP3    H230282   3.011   2.823   5.839
10109TIP3   OH230283   8.229   0.451   3.673
10109TIP3    H130284   8.135   0.451   3.691
10109TIP3    H230285   8.268   0.411   3.751
10110TIP3   OH230286   4.295   0.181   3.153
10110TIP3    H130287   4.376   0.131   3.147
10110TIP3    H230288   4.322   0.265   3.190
10111TIP3   OH230289   4.546   5.503   2.904
10111TIP3    H130290   4.566   5.564   2.832
10111TIP3    H230291   4.560   5.416   2.866
10112TIP3   OH230292   6.390   5.017   2.398
10112TIP3    H130293   6.383   5.028   2.303
10112TIP3    H230294   6.320   5.072   2.434
10113TIP3   OH230295   7.116   0.111   5.018
10113TIP3    H130296   7.026   0.146   5.021
10113TIP3    H230297   7.107   0.028   4.972
10114TIP3   OH230298   3.245   4.184   1.231
10114TIP3    H130299   3.215   4.102   1.193
10114TIP3    H230300   3.165   4.233   1.249
10115TIP3   OH230301   5.795   5.882   4.109
10115TIP3    H130302   5.701   5.893   4.123
10115TIP3    H230303   5.821   5.960   4.060
10116TIP3   OH230304   7.791   6.230   6.242
10116TIP3    H130305   7.854   6.262   6.177
10116TIP3    H230306   7.814   6.278   6.322
10117TIP3   OH230307   4.032   2.175   5.312
10117TIP3    H130308   4.073   2.095   5.278
10117TIP3    H230309   4.106   2.232   5.333
10118TIP3   OH230310   0.795   4.281   5.325
10118TIP3    H130311   0.719   4.329   5.291
10118TIP3    H230312   0.870   4.319   5.279
10119TIP3   OH230313   3.878   6.945   2.729
10119TIP3    H130314   3.865   6.915   2.819
10119TIP3    H230315   3.958   6.901   2.700
10120TIP3   OH230316   0.036   3.010   2.968
10120TIP3    H130317   0.092   3.057   2.906
10120TIP3    H230318   0.096   2.958   3.021
10121TIP3   OH230319   1.135   1.722   4.893
10121TIP3    H130320   1.192   1.789   4.856
10121TIP3    H230321   1.182   1.691   4.971
10122TIP3   OH230322   8.172   0.493   2.026
10122TIP3    H130323   8.109   0.455   2.087
10122TIP3    H230324   8.118   0.528   1.955
10123TIP3   OH230325   3.822   6.638   3.824
10123TIP3    H130326   3.731   6.665   3.837
10123TIP3    H230327   3.817   6.563   3.765
10124TIP3   OH230328   2.802   7.415   2.145
10124TIP3    H130329   2.764   7.503   2.147
10124TIP3    H230330   2.731   7.358   2.175
10125TIP3   OH230331   6.675   4.368   1.618
10125TIP3    H130332   6.592   4.337   1.581
10125TIP3    H230333   6.736   4.297   1.603
10126TIP3   OH230334   2.900   7.352   3.785
10126TIP3    H130335   2.904   7.308   3.871
10126TIP3    H230336   2.981   7.327   3.741
10127TIP3   OH230337   3.537   4.763   5.053
10127TIP3    H130338   3.532   4.755   5.148
10127TIP3    H230339   3.489   4.687   5.020
10128TIP3   OH230340   0.564   4.048   4.517
10128TIP3    H130341   0.515   4.127   4.494
10128TIP3    H230342   0.602   4.018   4.435
10129TIP3   OH230343   6.777   0.603   0.317
10129TIP3    H130344   6.831   0.650   0.254
10129TIP3    H230345   6.699   0.579   0.267
10130TIP3   OH230346   2.446   4.459   4.102
10130TIP3    H130347   2.375   4.512   4.066
10130TIP3    H230348   2.522   4.516   4.102
10131TIP3   OH230349   8.111   5.146   5.903
10131TIP3    H130350   8.094   5.133   5.997
10131TIP3    H230351   8.081   5.065   5.862
10132TIP3   OH230352   0.572   7.816   2.667
10132TIP3    H130353   0.540   7.880   2.730
10132TIP3    H230354   0.657   7.789   2.701
10133TIP3   OH230355   2.026   5.586   5.862
10133TIP3    H130356   2.052   5.676   5.881
10133TIP3    H230357   2.065   5.534   5.933
10134TIP3   OH230358   3.449   5.975   5.790
10134TIP3    H130359   3.416   5.950   5.704
10134TIP3    H230360   3.541   5.948   5.789
10135TIP3   OH230361   6.395   1.911   3.740
10135TIP3    H130362   6.380   1.816   3.736
10135TIP3    H230363   6.428   1.933   3.653
10136TIP3   OH230364   5.486   2.526   0.202
10136TIP3    H130365   5.528   2.560   0.123
10136TIP3    H230366   5.546   2.459   0.235
10137TIP3   OH230367   5.710   3.851   6.301
10137TIP3    H130368   5.657   3.842   6.222
10137TIP3    H230369   5.800   3.841   6.269
10138TIP3   OH230370   5.642   1.889   3.190
10138TIP3    H130371   5.720   1.841   3.162
10138TIP3    H230372   5.592   1.824   3.241
10139TIP3   OH230373   3.491   3.519   1.924
10139TIP3    H130374   3.518   3.528   2.016
10139TIP3    H230375   3.408   3.567   1.919
10140TIP3   OH230376   3.613   5.274   0.288
10140TIP3    H130377   3.595   5.357   0.332
10140TIP3    H230378   3.694   5.243   0.328
10141TIP3   OH230379   5.181   0.082   0.956
10141TIP3    H130380   5.098   0.131   0.961
10141TIP3    H230381   5.153  -0.009   0.947
10142TIP3   OH230382   7.233   5.509   4.472
10142TIP3    H130383   7.328   5.516   4.471
10142TIP3    H230384   7.214   5.440   4.535
10143TIP3   OH230385   0.915   4.668   6.706
10143TIP3    H130386   0.984   4.669   6.639
10143TIP3    H230387   0.868   4.750   6.692
10144TIP3   OH230388   5.649   0.391   5.552
10144TIP3    H130389   5.637   0.330   5.625
10144TIP3    H230390   5.608   0.348   5.477
10145TIP3   OH230391   2.963   0.299   5.955
10145TIP3    H130392   2.955   0.239   6.029
10145TIP3    H230393   2.961   0.242   5.878
10146TIP3   OH230394   8.192   6.784   0.582
10146TIP3    H130395   8.118   6.725   0.570
10146TIP3    H230396   8.230   6.794   0.495
10147TIP3   OH230397   1.920   5.465   2.541
10147TIP3    H130398   1.940   5.469   2.634
10147TIP3    H230399   1.894   5.374   2.526
10148TIP3   OH230400   3.452   4.806   0.414
10148TIP3    H130401   3.393   4.761   0.354
10148TIP3    H230402   3.534   4.813   0.367
10149TIP3   OH230403   0.355   7.597   2.863
10149TIP3    H130404   0.289   7.528   2.856
10149TIP3    H230405   0.398   7.598   2.777
10150TIP3   OH230406   7.388   2.622   5.786
10150TIP3    H130407   7.335   2.636   5.864
10150TIP3    H230408   7.426   2.535   5.798
10151TIP3   OH230409   1.239   2.264   4.325
10151TIP3    H130410   1.324   2.254   4.368
10151TIP3    H230411   1.190   2.186   4.349
10152TIP3   OH230412   6.754   1.654   4.186
10152TIP3    H130413   6.777   1.628   4.096
10152TIP3    H230414   6.741   1.749   4.181
10153TIP3   OH230415   6.926   5.781   5.261
10153TIP3    H130416   6.950   5.691   5.285
10153TIP3    H230417   6.924   5.781   5.166
10154TIP3   OH230418   5.900   7.190   1.613
10154TIP3    H130419   5.994   7.203   1.614
10154TIP3    H230420   5.868   7.236   1.690
10155TIP3   OH230421   3.042   0.323   2.466
10155TIP3    H130422   3.122   0.335   2.415
10155TIP3    H230423   3.016   0.412   2.492
10156TIP3   OH230424   7.324   0.274   3.020
10156TIP3    H130425   7.279   0.348   3.061
10156TIP3    H230426   7.286   0.268   2.933
10157TIP3   OH230427   7.319   2.387   1.673
10157TIP3    H130428   7.371   2.427   1.742
10157TIP3    H230429   7.283   2.307   1.712
10158TIP3   OH230430   8.122   2.874   6.296
10158TIP3    H130431   8.141   2.833   6.381
10158TIP3    H230432   8.026   2.880   6.294
10159TIP3   OH230433   7.605   1.716   5.296
10159TIP3    H130434   7.546   1.789   5.310
10159TIP3    H230435   7.554   1.638   5.320
10160TIP3   OH230436   4.643   4.863   4.392
10160TIP3    H130437   4.705   4.879   4.322
10160TIP3    H230438   4.582   4.798   4.357
10161TIP3   OH230439   5.650   6.607   6.668
10161TIP3    H130440   5.661   6.512   6.675
10161TIP3    H230441   5.557   6.622   6.682
10162TIP3   OH230442   0.352   0.853   3.941
10162TIP3    H130443   0.285   0.786   3.942
10162TIP3    H230444   0.419   0.819   3.881
10163TIP3   OH230445   2.293   2.579   2.548
10163TIP3    H130446   2.256   2.605   2.463
10163TIP3    H230447   2.340   2.657   2.578
10164TIP3   OH230448   1.635   2.635   0.920
10164TIP3    H130449   1.580   2.557   0.917
10164TIP3    H230450   1.639   2.665   0.829
10165TIP3   OH230451   3.483   4.136   3.817
10165TIP3    H130452   3.516   4.046   3.818
10165TIP3    H230453   3.439   4.146   3.901
10166TIP3   OH230454   6.276   1.977   2.852
10166TIP3    H130455   6.331   2.051   2.826
10166TIP3    H230456   6.339   1.905   2.866
10167TIP3   OH230457   3.305   1.102   4.922
10167TIP3    H130458   3.238   1.077   4.858
10167TIP3    H230459   3.285   1.049   4.999
10168TIP3   OH230460   4.057   2.700   3.871
10168TIP3    H130461   4.011   2.618   3.890
10168TIP3    H230462   4.150   2.677   3.881
10169TIP3   OH230463   6.241   4.270   2.921
10169TIP3    H130464   6.296   4.197   2.891
10169TIP3    H230465   6.160   4.261   2.870
10170TIP3   OH230466   6.643   2.306   6.028
10170TIP3    H130467   6.573   2.266   6.081
10170TIP3    H230468   6.697   2.353   6.092
10171TIP3   OH230469   3.184   1.959   2.084
10171TIP3    H130470   3.161   1.888   2.144
10171TIP3    H230471   3.255   1.923   2.030
10172TIP3   OH230472   7.152   3.609   2.569
10172TIP3    H130473   7.182   3.592   2.658
10172TIP3    H230474   7.152   3.705   2.563
10173TIP3   OH230475   1.276   4.420   1.606
10173TIP3    H130476   1.343   4.439   1.672
10173TIP3    H230477   1.305   4.337   1.566
10174TIP3   OH230478   5.848   5.204   0.672
10174TIP3    H130479   5.932   5.248   0.657
10174TIP3    H230480   5.788   5.245   0.610
10175TIP3   OH230481   3.967   7.744   1.764
10175TIP3    H130482   3.896   7.788   1.811
10175TIP3    H230483   3.998   7.676   1.824
10176TIP3   OH230484   8.298   1.074   5.557
10176TIP3    H130485   8.297   1.149   5.498
10176TIP3    H230486   8.205   1.057   5.575
10177TIP3   OH230487   7.669   6.983   2.256
10177TIP3    H130488   7.589   6.953   2.298
10177TIP3    H230489   7.677   6.929   2.178
10178TIP3   OH230490   6.751   7.312   2.563
10178TIP3    H130491   6.700   7.233   2.542
10178TIP3    H230492   6.688   7.369   2.607
10179TIP3   OH230493   1.929   0.536   0.659
10179TIP3    H130494   1.998   0.594   0.625
10179TIP3    H230495   1.850   0.589   0.655
10180TIP3   OH230496   7.765   4.742   2.066
10180TIP3    H130497   7.799   4.779   1.985
10180TIP3    H230498   7.678   4.779   2.076
10181TIP3   OH230499   1.244   6.122   3.247
10181TIP3    H130500   1.303   6.050   3.269
10181TIP3    H230501   1.199   6.094   3.168
10182TIP3   OH230502   2.671   5.320   5.380
10182TIP3    H130503   2.605   5.259   5.347
10182TIP3    H230504   2.620   5.397   5.408
10183TIP3   OH230505   3.163   1.444   6.084
10183TIP3    H130506   3.214   1.524   6.078
10183TIP3    H230507   3.212   1.389   6.145
10184TIP3   OH230508   2.136   7.100   5.731
10184TIP3    H130509   2.211   7.098   5.673
10184TIP3    H230510   2.088   7.179   5.705
10185TIP3   OH230511   5.969   2.530   0.880
10185TIP3    H130512   6.052   2.492   0.910
10185TIP3    H230513   5.950   2.483   0.799
10186TIP3   OH230514   1.541   4.407   4.430
10186TIP3    H130515   1.631   4.383   4.407
10186TIP3    H230516   1.499   4.427   4.347
10187TIP3   OH230517   4.949   0.308   0.918
10187TIP3    H130518   4.940   0.355   0.835
10187TIP3    H230519   4.861   0.275   0.936
10188TIP3   OH230520   0.807   0.690   1.460
10188TIP3    H130521   0.806   0.786   1.460
10188TIP3    H230522   0.894   0.667   1.428
10189TIP3   OH230523   0.051   6.736   1.015
10189TIP3    H130524   0.038   6.676   0.942
10189TIP3    H230525   0.004   6.815   0.991
10190TIP3   OH230526   0.941   2.013   2.484
10190TIP3    H130527   0.852   1.976   2.486
10190TIP3    H230528   0.998   1.938   2.499
10191TIP3   OH230529   2.687   1.745   6.534
10191TIP3    H130530   2.629   1.673   6.507
10191TIP3    H230531   2.709   1.725   6.625
10192TIP3   OH230532   8.197   2.811   4.127
10192TIP3    H130533   8.276   2.846   4.167
10192TIP3    H230534   8.193   2.720   4.157
10193TIP3   OH230535   5.386   6.662   4.396
10193TIP3    H130536   5.444   6.736   4.415
10193TIP3    H230537   5.441   6.599   4.349
10194TIP3   OH230538   6.769   5.130   5.358
10194TIP3    H130539   6.748   5.060   5.420
10194TIP3    H230540   6.687   5.144   5.309
10195TIP3   OH230541   1.135   7.683   5.513
10195TIP3    H130542   1.156   7.651   5.601
10195TIP3    H230543   1.221   7.696   5.472
10196TIP3   OH230544   5.782   3.389   3.245
10196TIP3    H130545   5.806   3.302   3.213
10196TIP3    H230546   5.691   3.401   3.220
10197TIP3   OH230547   1.412   3.606   4.274
10197TIP3    H130548   1.392   3.638   4.362
10197TIP3    H230549   1.499   3.640   4.255
10198TIP3   OH230550   7.196   5.130   0.339
10198TIP3    H130551   7.267   5.082   0.296
10198TIP3    H230552   7.160   5.067   0.402
10199TIP3   OH230553   7.836   2.523   2.128
10199TIP3    H130554   7.860   2.519   2.035
10199TIP3    H230555   7.888   2.595   2.163
10200TIP3   OH230556   2.720   4.549   5.742
10200TIP3    H130557   2.693   4.545   5.650
10200TIP3    H230558   2.646   4.509   5.789
10201TIP3   OH230559   4.740   5.753   3.054
10201TIP3    H130560   4.662   5.800   3.025
10201TIP3    H230561   4.796   5.749   2.976
10202TIP3   OH230562   7.329   7.726   5.816
10202TIP3    H130563   7.416   7.708   5.851
10202TIP3    H230564   7.274   7.654   5.850
10203TIP3   OH230565   0.563   0.446   5.446
10203TIP3    H130566   0.476   0.442   5.485
10203TIP3    H230567   0.623   0.440   5.521
10204TIP3   OH230568   5.877   2.671   3.580
10204TIP3    H130569   5.853   2.706   3.494
10204TIP3    H230570   5.817   2.597   3.592
10205TIP3   OH230571   2.457   2.407   2.679
10205TIP3    H130572   2.375   2.440   2.643
10205TIP3    H230573   2.523   2.470   2.651
10206TIP3   OH230574   5.208   0.250   2.402
10206TIP3    H130575   5.144   0.319   2.386
10206TIP3    H230576   5.155   0.173   2.426
10207TIP3   OH230577   4.480   2.881   4.359
10207TIP3    H130578   4.544   2.951   4.347
10207TIP3    H230579   4.518   2.805   4.315
10208TIP3   OH230580   3.646   2.194   0.558
10208TIP3    H130581   3.600   2.264   0.511
10208TIP3    H230582   3.639   2.218   0.650
10209TIP3   OH230583   6.132   1.828   2.223
10209TIP3    H130584   6.224   1.816   2.246
10209TIP3    H230585   6.107   1.911   2.264
10210TIP3   OH230586   0.795   1.666   4.262
10210TIP3    H130587   0.809   1.647   4.354
10210TIP3    H230588   0.846   1.600   4.215
10211TIP3   OH230589   0.012   5.370   4.301
10211TIP3    H130590   0.050   5.440   4.248
10211TIP3    H230591  -0.039   5.415   4.368
10212TIP3   OH230592   1.783   2.283   4.728
10212TIP3    H130593   1.824   2.268   4.813
10212TIP3    H230594   1.823   2.364   4.697
10213TIP3   OH230595   5.093   0.695   0.316
10213TIP3    H130596   5.184   0.669   0.329
10213TIP3    H230597   5.056   0.699   0.405
10214TIP3   OH230598   2.618   5.268   6.170
10214TIP3    H130599   2.670   5.200   6.127
10214TIP3    H230600   2.527   5.241   6.155
10215TIP3   OH230601   0.543   6.086   2.464
10215TIP3    H130602   0.557   6.155   2.529
10215TIP3    H230603   0.471   6.117   2.410
10216TIP3   OH230604   2.238   7.759   2.061
10216TIP3    H130605   2.162   7.716   2.099
10216TIP3    H230606   2.313   7.716   2.102
10217TIP3   OH230607   8.083   0.053   0.057
10217TIP3    H130608   8.170   0.061   0.019
10217TIP3    H230609   8.065   0.140   0.093
10218TIP3   OH230610   1.152   7.075   0.424
10218TIP3    H130611   1.229   7.093   0.370
10218TIP3    H230612   1.081   7.124   0.382
10219TIP3   OH230613   1.096   3.441   6.740
10219TIP3    H130614   1.108   3.518   6.686
10219TIP3    H230615   1.009   3.451   6.778
10220TIP3   OH230616   5.897   2.024   6.493
10220TIP3    H130617   5.932   1.991   6.576
10220TIP3    H230618   5.910   2.119   6.497
10221TIP3   OH230619   7.327   5.262   3.390
10221TIP3    H130620   7.266   5.228   3.456
10221TIP3    H230621   7.325   5.357   3.403
10222TIP3   OH230622   1.183   0.111   3.564
10222TIP3    H130623   1.205   0.202   3.584
10222TIP3    H230624   1.248   0.060   3.613
10223TIP3   OH230625   1.634   1.354   2.552
10223TIP3    H130626   1.681   1.276   2.522
10223TIP3    H230627   1.698   1.425   2.547
10224TIP3   OH230628   5.818   3.804   0.219
10224TIP3    H130629   5.724   3.787   0.226
10224TIP3    H230630   5.827   3.859   0.141
10225TIP3   OH230631   7.424   4.374   5.775
10225TIP3    H130632   7.461   4.398   5.690
10225TIP3    H230633   7.330   4.381   5.763
10226TIP3   OH230634   3.102   2.933   5.159
10226TIP3    H130635   3.136   2.843   5.157
10226TIP3    H230636   3.115   2.965   5.070
10227TIP3   OH230637   0.966   5.884   4.588
10227TIP3    H130638   0.922   5.815   4.540
10227TIP3    H230639   0.932   5.878   4.677
10228TIP3   OH230640   3.305   1.721   5.677
10228TIP3    H130641   3.339   1.689   5.594
10228TIP3    H230642   3.380   1.758   5.722
10229TIP3   OH230643   6.786   1.126   4.428
10229TIP3    H130644   6.797   1.197   4.491
10229TIP3    H230645   6.835   1.156   4.351
10230TIP3   OH230646   2.345   4.842   6.681
10230TIP3    H130647   2.404   4.896   6.734
10230TIP3    H230648   2.258   4.875   6.701
10231TIP3   OH230649   7.200   4.625   0.943
10231TIP3    H130650   7.150   4.567   0.885
10231TIP3    H230651   7.179   4.594   1.032
10232TIP3   OH230652   7.046   6.631   6.150
10232TIP3    H130653   7.037   6.666   6.061
10232TIP3    H230654   7.139   6.641   6.170
10233TIP3   OH230655   8.047   7.145   4.933
10233TIP3    H130656   7.952   7.150   4.931
10233TIP3    H230657   8.071   7.109   4.847
10234TIP3   OH230658   1.091   4.453   4.265
10234TIP3    H130659   1.084   4.397   4.343
10234TIP3    H230660   1.093   4.542   4.300
10235TIP3   OH230661   4.221   2.838   4.443
10235TIP3    H130662   4.217   2.743   4.440
10235TIP3    H230663   4.312   2.859   4.421
10236TIP3   OH230664   0.731   7.788   1.688
10236TIP3    H130665   0.793   7.718   1.666
10236TIP3    H230666   0.648   7.760   1.649
10237TIP3   OH230667   2.697   5.519   0.566
10237TIP3    H130668   2.792   5.504   0.575
10237TIP3    H230669   2.687   5.556   0.478
10238TIP3   OH230670   3.159   2.780   5.578
10238TIP3    H130671   3.108   2.752   5.653
10238TIP3    H230672   3.102   2.764   5.503
10239TIP3   OH230673   7.320   2.310   1.232
10239TIP3    H130674   7.307   2.232   1.178
10239TIP3    H230675   7.232   2.342   1.250
10240TIP3   OH230676   7.052   6.199   6.413
10240TIP3    H130677   7.097   6.284   6.419
10240TIP3    H230678   7.119   6.135   6.435
10241TIP3   OH230679   5.625   3.795   6.055
10241TIP3    H130680   5.706   3.756   6.024
10241TIP3    H230681   5.587   3.836   5.978
10242TIP3   OH230682   6.222   4.447   1.168
10242TIP3    H130683   6.259   4.488   1.247
10242TIP3    H230684   6.286   4.466   1.099
10243TIP3   OH230685   7.027   0.317   0.328
10243TIP3    H130686   7.085   0.322   0.253
10243TIP3    H230687   7.053   0.391   0.383
10244TIP3   OH230688   1.009   3.886   5.678
10244TIP3    H130689   1.100   3.862   5.694
10244TIP3    H230690   1.015   3.971   5.633
10245TIP3   OH230691   3.101   7.127   1.835
10245TIP3    H130692   3.185   7.150   1.874
10245TIP3    H230693   3.083   7.197   1.772
10246TIP3   OH230694   4.724   6.736   2.054
10246TIP3    H130695   4.646   6.694   2.015
10246TIP3    H230696   4.745   6.682   2.129
10247TIP3   OH230697   6.726   1.124   0.942
10247TIP3    H130698   6.692   1.185   0.877
10247TIP3    H230699   6.670   1.046   0.933
10248TIP3   OH230700   7.224   5.954   2.824
10248TIP3    H130701   7.197   5.866   2.796
10248TIP3    H230702   7.288   5.938   2.894
10249TIP3   OH230703   6.230   1.945   1.261
10249TIP3    H130704   6.308   1.922   1.210
10249TIP3    H230705   6.168   1.979   1.197
10250TIP3   OH230706   5.621   0.993   2.688
10250TIP3    H130707   5.536   1.032   2.668
10250TIP3    H230708   5.661   1.054   2.749
10251TIP3   OH230709   8.142   5.274   2.012
10251TIP3    H130710   8.129   5.365   1.987
10251TIP3    H230711   8.184   5.234   1.936
10252TIP3   OH230712   3.307   7.222   1.514
10252TIP3    H130713   3.215   7.196   1.515
10252TIP3    H230714   3.341   7.196   1.599
10253TIP3   OH230715   2.705   6.943   5.686
10253TIP3    H130716   2.675   7.033   5.701
10253TIP3    H230717   2.775   6.952   5.621
10254TIP3   OH230718   4.924   6.987   0.440
10254TIP3    H130719   4.917   6.921   0.372
10254TIP3    H230720   4.834   7.011   0.460
10255TIP3   OH230721   4.188   5.872   3.960
10255TIP3    H130722   4.135   5.798   3.990
10255TIP3    H230723   4.273   5.859   4.002
10256TIP3   OH230724   1.276   6.501   6.746
10256TIP3    H130725   1.365   6.470   6.731
10256TIP3    H230726   1.257   6.478   6.837
10257TIP3   OH230727   0.264   3.738   4.289
10257TIP3    H130728   0.218   3.655   4.278
10257TIP3    H230729   0.216   3.800   4.235
10258TIP3   OH230730   6.534   4.078   4.026
10258TIP3    H130731   6.618   4.078   4.071
10258TIP3    H230732   6.536   4.000   3.970
10259TIP3   OH230733   7.016   6.229   3.405
10259TIP3    H130734   7.102   6.218   3.364
10259TIP3    H230735   7.035   6.242   3.498
10260TIP3   OH230736   5.696   4.291   0.243
10260TIP3    H130737   5.747   4.276   0.323
10260TIP3    H230738   5.749   4.351   0.191
10261TIP3   OH230739   7.443   0.727   2.498
10261TIP3    H130740   7.486   0.734   2.412
10261TIP3    H230741   7.504   0.674   2.550
10262TIP3   OH230742   2.096   7.342   2.179
10262TIP3    H130743   2.042   7.273   2.216
10262TIP3    H230744   2.045   7.375   2.105
10263TIP3   OH230745   0.438   5.267   5.957
10263TIP3    H130746   0.353   5.290   5.995
10263TIP3    H230747   0.474   5.202   6.016
10264TIP3   OH230748   1.196   1.773   3.848
10264TIP3    H130749   1.154   1.721   3.916
10264TIP3    H230750   1.123   1.819   3.805
10265TIP3   OH230751   5.347   2.257   3.154
10265TIP3    H130752   5.309   2.170   3.139
10265TIP3    H230753   5.427   2.240   3.205
10266TIP3   OH230754   4.792   5.742   4.324
10266TIP3    H130755   4.747   5.665   4.360
10266TIP3    H230756   4.881   5.712   4.308
10267TIP3   OH230757   2.077   1.196   2.994
10267TIP3    H130758   2.055   1.104   2.982
10267TIP3    H230759   2.171   1.196   3.016
10268TIP3   OH230760   1.564   7.828   1.732
10268TIP3    H130761   1.657   7.850   1.742
10268TIP3    H230762   1.554   7.809   1.639
10269TIP3   OH230763   5.004   6.265   1.256
10269TIP3    H130764   5.075   6.296   1.313
10269TIP3    H230765   4.924   6.296   1.297
10270TIP3   OH230766   7.207   5.547   3.834
10270TIP3    H130767   7.137   5.574   3.775
10270TIP3    H230768   7.259   5.627   3.848
10271TIP3   OH230769   6.415   2.930   5.384
10271TIP3    H130770   6.498   2.976   5.399
10271TIP3    H230771   6.416   2.909   5.291
10272TIP3   OH230772   2.735   1.291   6.635
10272TIP3    H130773   2.784   1.371   6.654
10272TIP3    H230774   2.698   1.264   6.719
10273TIP3   OH230775   7.218   6.391   1.786
10273TIP3    H130776   7.241   6.468   1.837
10273TIP3    H230777   7.294   6.334   1.792
10274TIP3   OH230778   7.455   2.483   5.455
10274TIP3    H130779   7.420   2.476   5.367
10274TIP3    H230780   7.379   2.505   5.510
10275TIP3   OH230781   4.675   0.214   3.365
10275TIP3    H130782   4.735   0.280   3.400
10275TIP3    H230783   4.653   0.159   3.441
10276TIP3   OH230784   3.124   6.403   0.658
10276TIP3    H130785   3.081   6.469   0.603
10276TIP3    H230786   3.217   6.414   0.641
10277TIP3   OH230787   0.755   1.025   2.236
10277TIP3    H130788   0.831   0.997   2.185
10277TIP3    H230789   0.718   0.944   2.271
10278TIP3   OH230790   4.515   1.333   0.978
10278TIP3    H130791   4.594   1.289   1.010
10278TIP3    H230792   4.534   1.350   0.886
10279TIP3   OH230793   4.030   6.352   6.241
10279TIP3    H130794   4.096   6.287   6.215
10279TIP3    H230795   3.946   6.312   6.219
10280TIP3   OH230796   2.809  -0.015   5.856
10280TIP3    H130797   2.853  -0.090   5.894
10280TIP3    H230798   2.773   0.032   5.931
10281TIP3   OH230799   0.524   2.352   2.254
10281TIP3    H130800   0.561   2.264   2.258
10281TIP3    H230801   0.443   2.346   2.304
10282TIP3   OH230802   7.895   2.314   5.318
10282TIP3    H130803   7.887   2.219   5.331
10282TIP3    H230804   7.832   2.352   5.379
10283TIP3   OH230805   5.062   5.388   2.522
10283TIP3    H130806   5.078   5.297   2.547
10283TIP3    H230807   4.979   5.409   2.562
10284TIP3   OH230808   0.239   1.609   5.591
10284TIP3    H130809   0.149   1.641   5.590
10284TIP3    H230810   0.264   1.609   5.684
10285TIP3   OH230811   1.124   4.497   2.505
10285TIP3    H130812   1.068   4.528   2.576
10285TIP3    H230813   1.091   4.410   2.484
10286TIP3   OH230814   4.398   3.479   5.212
10286TIP3    H130815   4.395   3.573   5.230
10286TIP3    H230816   4.307   3.456   5.191
10287TIP3   OH230817   5.726   4.823   4.584
10287TIP3    H130818   5.791   4.769   4.539
10287TIP3    H230819   5.661   4.844   4.517
10288TIP3   OH230820   7.377   5.124   4.207
10288TIP3    H130821   7.373   5.056   4.141
10288TIP3    H230822   7.412   5.200   4.161
10289TIP3   OH230823   2.531   0.385   1.503
10289TIP3    H130824   2.544   0.421   1.415
10289TIP3    H230825   2.591   0.311   1.508
10290TIP3   OH230826   6.842   5.548   5.105
10290TIP3    H130827   6.768   5.582   5.155
10290TIP3    H230828   6.881   5.481   5.162
10291TIP3   OH230829   2.858   3.463   4.904
10291TIP3    H130830   2.839   3.554   4.924
10291TIP3    H230831   2.913   3.465   4.826
10292TIP3   OH230832   0.399   3.126   4.903
10292TIP3    H130833   0.354   3.165   4.829
10292TIP3    H230834   0.492   3.135   4.882
10293TIP3   OH230835   0.531   4.552   1.190
10293TIP3    H130836   0.593   4.625   1.189
10293TIP3    H230837   0.464   4.578   1.254
10294TIP3   OH230838   8.098   6.550   5.003
10294TIP3    H130839   8.158   6.480   5.027
10294TIP3    H230840   8.150   6.630   5.013
10295TIP3   OH230841   0.271   1.241   4.579
10295TIP3    H130842   0.181   1.210   4.589
10295TIP3    H230843   0.275   1.274   4.489
10296TIP3   OH230844   5.971   0.406   6.459
10296TIP3    H130845   6.010   0.382   6.374
10296TIP3    H230846   5.880   0.427   6.438
10297TIP3   OH230847   4.465   7.441   1.829
10297TIP3    H130848   4.545   7.412   1.787
10297TIP3    H230849   4.494   7.500   1.899
10298TIP3   OH230850   0.364   4.068   2.803
10298TIP3    H130851   0.426   4.129   2.844
10298TIP3    H230852   0.390   3.982   2.835
10299TIP3   OH230853   3.674   4.698   1.682
10299TIP3    H130854   3.673   4.669   1.774
10299TIP3    H230855   3.703   4.621   1.633
10300TIP3   OH230856   1.327   2.211   4.043
10300TIP3    H130857   1.337   2.118   4.023
10300TIP3    H230858   1.323   2.215   4.138
10301TIP3   OH230859   0.705   3.409   4.942
10301TIP3    H130860   0.751   3.494   4.937
10301TIP3    H230861   0.660   3.411   5.026
10302TIP3   OH230862   4.701   6.766   4.421
10302TIP3    H130863   4.689   6.859   4.440
10302TIP3    H230864   4.694   6.760   4.325
10303TIP3   OH230865   3.113   7.783   2.322
10303TIP3    H130866   3.126   7.733   2.241
10303TIP3    H230867   3.188   7.841   2.327
10304TIP3   OH230868   0.805   6.300   3.275
10304TIP3    H130869   0.818   6.206   3.291
10304TIP3    H230870   0.806   6.308   3.180
10305TIP3   OH230871   3.355   2.925   5.742
10305TIP3    H130872   3.378   2.894   5.830
10305TIP3    H230873   3.279   2.873   5.717
10306TIP3   OH230874   2.149   6.848   2.594
10306TIP3    H130875   2.083   6.880   2.533
10306TIP3    H230876   2.123   6.886   2.678
10307TIP3   OH230877   3.719   2.477   2.569
10307TIP3    H130878   3.697   2.444   2.656
10307TIP3    H230879   3.813   2.497   2.574
10308TIP3   OH230880   5.608   2.498   4.439
10308TIP3    H130881   5.544   2.482   4.370
10308TIP3    H230882   5.673   2.557   4.400
10309TIP3   OH230883   4.136   7.522   5.155
10309TIP3    H130884   4.083   7.553   5.228
10309TIP3    H230885   4.143   7.427   5.169
10310TIP3   OH230886   1.729   3.817   6.268
10310TIP3    H130887   1.673   3.892   6.249
10310TIP3    H230888   1.818   3.852   6.264
10311TIP3   OH230889   3.102   0.353   4.742
10311TIP3    H130890   3.029   0.351   4.681
10311TIP3    H230891   3.104   0.264   4.779
10312TIP3   OH230892   2.825   6.008   6.671
10312TIP3    H130893   2.883   5.934   6.655
10312TIP3    H230894   2.843   6.068   6.598
10313TIP3   OH230895   1.550   5.929   5.293
10313TIP3    H130896   1.507   5.988   5.232
10313TIP3    H230897   1.543   5.843   5.252
10314TIP3   OH230898   2.331   6.965   0.047
10314TIP3    H130899   2.409   6.936  -0.001
10314TIP3    H230900   2.274   6.889   0.049
10315TIP3   OH230901   4.371   2.013   4.213
10315TIP3    H130902   4.429   2.073   4.258
10315TIP3    H230903   4.302   1.994   4.276
10316TIP3   OH230904   4.513   4.114   5.714
10316TIP3    H130905   4.538   4.138   5.625
10316TIP3    H230906   4.590   4.134   5.767
10317TIP3   OH230907   7.973   5.417   0.019
10317TIP3    H130908   7.974   5.415   0.115
10317TIP3    H230909   8.063   5.393  -0.006
10318TIP3   OH230910   3.751   6.285   1.049
10318TIP3    H130911   3.833   6.259   1.008
10318TIP3    H230912   3.683   6.254   0.988
10319TIP3   OH230913   2.446   6.578   5.794
10319TIP3    H130914   2.473   6.534   5.713
10319TIP3    H230915   2.527   6.606   5.835
10320TIP3   OH230916   4.800   5.863   1.894
10320TIP3    H130917   4.818   5.769   1.894
10320TIP3    H230918   4.833   5.893   1.809
10321TIP3   OH230919   7.280   6.667   1.554
10321TIP3    H130920   7.185   6.673   1.544
10321TIP3    H230921   7.294   6.589   1.607
10322TIP3   OH230922   1.821   1.298   5.735
10322TIP3    H130923   1.830   1.224   5.674
10322TIP3    H230924   1.904   1.344   5.728
10323TIP3   OH230925   3.277   4.477   3.572
10323TIP3    H130926   3.262   4.405   3.511
10323TIP3    H230927   3.287   4.434   3.657
10324TIP3   OH230928   7.234   3.362   3.349
10324TIP3    H130929   7.243   3.278   3.303
10324TIP3    H230930   7.252   3.341   3.441
10325TIP3   OH230931   1.131   7.658   5.123
10325TIP3    H130932   1.152   7.588   5.185
10325TIP3    H230933   1.127   7.615   5.038
10326TIP3   OH230934   4.830   5.811   4.599
10326TIP3    H130935   4.810   5.846   4.513
10326TIP3    H230936   4.752   5.761   4.624
10327TIP3   OH230937   3.852   6.900   1.741
10327TIP3    H130938   3.770   6.866   1.776
10327TIP3    H230939   3.919   6.868   1.801
10328TIP3   OH230940   6.685   1.674   4.602
10328TIP3    H130941   6.708   1.763   4.574
10328TIP3    H230942   6.618   1.646   4.539
10329TIP3   OH230943   5.776   1.735   0.344
10329TIP3    H130944   5.721   1.704   0.416
10329TIP3    H230945   5.739   1.820   0.320
10330TIP3   OH230946   0.906   7.377   5.077
10330TIP3    H130947   0.865   7.397   5.161
10330TIP3    H230948   0.880   7.449   5.020
10331TIP3   OH230949   3.251   1.136   0.251
10331TIP3    H130950   3.304   1.115   0.175
10331TIP3    H230951   3.162   1.111   0.227
10332TIP3   OH230952   4.740   1.367   4.401
10332TIP3    H130953   4.764   1.411   4.482
10332TIP3    H230954   4.645   1.380   4.394
10333TIP3   OH230955   2.557   6.962   2.169
10333TIP3    H130956   2.550   6.873   2.135
10333TIP3    H230957   2.556   7.017   2.091
10334TIP3   OH230958   4.062   4.073   2.455
10334TIP3    H130959   4.089   4.019   2.530
10334TIP3    H230960   3.974   4.103   2.478
10335TIP3   OH230961   0.955   5.013   4.465
10335TIP3    H130962   0.963   5.089   4.522
10335TIP3    H230963   1.021   5.027   4.396
10336TIP3   OH230964   3.237   0.680   3.537
10336TIP3    H130965   3.322   0.692   3.579
10336TIP3    H230966   3.224   0.586   3.535
10337TIP3   OH230967   2.550   6.402   5.635
10337TIP3    H130968   2.556   6.321   5.584
10337TIP3    H230969   2.624   6.397   5.697
10338TIP3   OH230970   0.099   0.290   6.142
10338TIP3    H130971   0.126   0.335   6.062
10338TIP3    H230972   0.180   0.250   6.176
10339TIP3   OH230973   0.339   3.450   1.894
10339TIP3    H130974   0.290   3.388   1.949
10339TIP3    H230975   0.371   3.516   1.955
10340TIP3   OH230976   5.306   6.579   2.851
10340TIP3    H130977   5.287   6.654   2.794
10340TIP3    H230978   5.394   6.598   2.886
10341TIP3   OH230979   0.091   1.293   1.812
10341TIP3    H130980   0.051   1.367   1.857
10341TIP3    H230981   0.184   1.315   1.807
10342TIP3   OH230982   7.897   2.992   5.202
10342TIP3    H130983   7.979   3.041   5.198
10342TIP3    H230984   7.864   3.005   5.291
10343TIP3   OH230985   3.595   4.254   3.389
10343TIP3    H130986   3.588   4.327   3.451
10343TIP3    H230987   3.593   4.175   3.443
10344TIP3   OH230988   4.361   2.658   6.520
10344TIP3    H130989   4.392   2.570   6.503
10344TIP3    H230990   4.315   2.684   6.440
10345TIP3   OH230991   5.849   2.405   4.243
10345TIP3    H130992   5.812   2.324   4.278
10345TIP3    H230993   5.873   2.383   4.152
10346TIP3   OH230994   1.151   3.521   0.572
10346TIP3    H130995   1.102   3.578   0.632
10346TIP3    H230996   1.213   3.476   0.629
10347TIP3   OH230997   6.634   4.090   3.120
10347TIP3    H130998   6.695   4.074   3.048
10347TIP3    H230999   6.680   4.149   3.179
10348TIP3   OH231000   2.764   5.428   6.562
10348TIP3    H131001   2.790   5.428   6.470
10348TIP3    H231002   2.805   5.507   6.599
10349TIP3   OH231003   2.633   4.277   6.560
10349TIP3    H131004   2.585   4.260   6.479
10349TIP3    H231005   2.714   4.228   6.550
10350TIP3   OH231006   2.212   0.776   6.746
10350TIP3    H131007   2.137   0.834   6.740
10350TIP3    H231008   2.196   0.708   6.680
10351TIP3   OH231009   4.813   1.665   1.271
10351TIP3    H131010   4.892   1.612   1.263
10351TIP3    H231011   4.802   1.705   1.184
10352TIP3   OH231012   5.557   6.630   1.239
10352TIP3    H131013   5.621   6.581   1.290
10352TIP3    H231014   5.516   6.564   1.182
10353TIP3   OH231015   5.821   2.772   6.491
10353TIP3    H131016   5.869   2.811   6.564
10353TIP3    H231017   5.737   2.817   6.490
10354TIP3   OH231018   4.390   2.162   1.323
10354TIP3    H131019   4.459   2.104   1.356
10354TIP3    H231020   4.343   2.190   1.402
10355TIP3   OH231021   4.477   5.823   2.651
10355TIP3    H131022   4.477   5.912   2.616
10355TIP3    H231023   4.393   5.816   2.697
10356TIP3   OH231024   0.365   0.681   2.866
10356TIP3    H131025   0.365   0.695   2.960
10356TIP3    H231026   0.320   0.757   2.829
10357TIP3   OH231027   0.047   2.610   3.160
10357TIP3    H131028   0.051   2.519   3.132
10357TIP3    H231029  -0.041   2.639   3.135
10358TIP3   OH231030   2.861   2.199   3.290
10358TIP3    H131031   2.850   2.119   3.240
10358TIP3    H231032   2.781   2.249   3.273
10359TIP3   OH231033   7.310   2.670   4.866
10359TIP3    H131034   7.342   2.582   4.844
10359TIP3    H231035   7.359   2.728   4.809
10360TIP3   OH231036   0.406   0.176   1.087
10360TIP3    H131037   0.312   0.188   1.102
10360TIP3    H231038   0.420   0.082   1.097
10361TIP3   OH231039   4.976   5.027   1.308
10361TIP3    H131040   4.888   5.059   1.290
10361TIP3    H231041   5.018   5.097   1.358
10362TIP3   OH231042   2.311   5.797   2.490
10362TIP3    H131043   2.358   5.744   2.554
10362TIP3    H231044   2.372   5.867   2.467
10363TIP3   OH231045   1.568   1.427   6.472
10363TIP3    H131046   1.512   1.353   6.452
10363TIP3    H231047   1.647   1.412   6.420
10364TIP3   OH231048   6.367   3.529   2.652
10364TIP3    H131049   6.343   3.513   2.744
10364TIP3    H231050   6.460   3.553   2.656
10365TIP3   OH231051   2.518   6.807   3.865
10365TIP3    H131052   2.464   6.872   3.909
10365TIP3    H231053   2.603   6.849   3.855
10366TIP3   OH231054   4.654   6.459   3.046
10366TIP3    H131055   4.611   6.412   3.118
10366TIP3    H231056   4.704   6.528   3.089
10367TIP3   OH231057   4.635   6.229   5.746
10367TIP3    H131058   4.548   6.190   5.734
10367TIP3    H231059   4.696   6.162   5.716
10368TIP3   OH231060   3.969   2.832   5.571
10368TIP3    H131061   3.878   2.859   5.585
10368TIP3    H231062   3.964   2.737   5.557
10369TIP3   OH231063   2.653   7.369   4.196
10369TIP3    H131064   2.713   7.372   4.270
10369TIP3    H231065   2.669   7.283   4.156
10370TIP3   OH231066   1.393   6.887   1.293
10370TIP3    H131067   1.303   6.856   1.284
10370TIP3    H231068   1.447   6.810   1.276
10371TIP3   OH231069   3.778   2.263   0.097
10371TIP3    H131070   3.833   2.209   0.154
10371TIP3    H231071   3.791   2.352   0.129
10372TIP3   OH231072   8.233   5.068   5.046
10372TIP3    H131073   8.204   5.125   4.975
10372TIP3    H231074   8.327   5.082   5.051
10373TIP3   OH231075   2.704   3.395   2.599
10373TIP3    H131076   2.618   3.359   2.622
10373TIP3    H231077   2.714   3.472   2.655
10374TIP3   OH231078   2.948   0.385   0.830
10374TIP3    H131079   2.997   0.461   0.800
10374TIP3    H231080   2.857   0.415   0.834
10375TIP3   OH231081   3.588   2.569   3.574
10375TIP3    H131082   3.668   2.543   3.620
10375TIP3    H231083   3.522   2.505   3.600
10376TIP3   OH231084   4.902   1.644   4.602
10376TIP3    H131085   4.995   1.663   4.607
10376TIP3    H231086   4.859   1.729   4.615
10377TIP3   OH231087   6.463   1.695   5.603
10377TIP3    H131088   6.408   1.624   5.635
10377TIP3    H231089   6.417   1.728   5.526
10378TIP3   OH231090   2.623   2.421   3.260
10378TIP3    H131091   2.645   2.389   3.172
10378TIP3    H231092   2.653   2.511   3.262
10379TIP3   OH231093   5.909   3.609   1.166
10379TIP3    H131094   5.953   3.643   1.244
10379TIP3    H231095   5.908   3.682   1.105
10380TIP3   OH231096   8.312   0.553   2.296
10380TIP3    H131097   8.260   0.599   2.230
10380TIP3    H231098   8.252   0.539   2.369
10381TIP3   OH231099   2.242   3.866   4.435
10381TIP3    H131100   2.307   3.922   4.478
10381TIP3    H231101   2.229   3.906   4.349
10382TIP3   OH231102   7.986   6.987   4.122
10382TIP3    H131103   8.057   6.991   4.057
10382TIP3    H231104   7.960   6.895   4.123
10383TIP3   OH231105   0.616   5.006   5.097
10383TIP3    H131106   0.521   5.000   5.089
10383TIP3    H231107   0.631   5.055   5.178
10384TIP3   OH231108   1.777   5.519   6.037
10384TIP3    H131109   1.801   5.494   5.948
10384TIP3    H231110   1.740   5.607   6.029
10385TIP3   OH231111   6.338   6.877   1.206
10385TIP3    H131112   6.331   6.782   1.206
10385TIP3    H231113   6.404   6.897   1.140
10386TIP3   OH231114   6.815   6.312   0.236
10386TIP3    H131115   6.736   6.319   0.183
10386TIP3    H231116   6.883   6.288   0.173
10387TIP3   OH231117   6.766   6.733   1.844
10387TIP3    H131118   6.735   6.792   1.913
10387TIP3    H231119   6.829   6.785   1.794
10388TIP3   OH231120   3.988   5.225   5.775
10388TIP3    H131121   3.988   5.140   5.819
10388TIP3    H231122   3.896   5.241   5.753
10389TIP3   OH231123   1.143   2.914   2.385
10389TIP3    H131124   1.067   2.879   2.339
10389TIP3    H231125   1.218   2.877   2.339
10390TIP3   OH231126   1.695   3.018   2.314
10390TIP3    H131127   1.716   2.942   2.368
10390TIP3    H231128   1.766   3.022   2.250
10391TIP3   OH231129   5.915   2.954   2.133
10391TIP3    H131130   5.878   2.866   2.146
10391TIP3    H231131   6.002   2.948   2.171
10392TIP3   OH231132   6.884   7.342   1.194
10392TIP3    H131133   6.849   7.278   1.256
10392TIP3    H231134   6.978   7.330   1.198
10393TIP3   OH231135   4.436   0.514   5.396
10393TIP3    H131136   4.432   0.591   5.452
10393TIP3    H231137   4.453   0.441   5.457
10394TIP3   OH231138   1.190   4.193   1.902
10394TIP3    H131139   1.132   4.157   1.969
10394TIP3    H231140   1.244   4.256   1.950
10395TIP3   OH231141   0.341   4.904   0.995
10395TIP3    H131142   0.314   4.952   1.073
10395TIP3    H231143   0.409   4.958   0.955
10396TIP3   OH231144   6.789   6.626   6.238
10396TIP3    H131145   6.786   6.615   6.333
10396TIP3    H231146   6.879   6.603   6.214
10397TIP3   OH231147   0.011   6.047   5.425
10397TIP3    H131148   0.068   6.001   5.364
10397TIP3    H231149   0.014   5.994   5.505
10398TIP3   OH231150   3.071   3.939   1.710
10398TIP3    H131151   3.033   4.026   1.715
10398TIP3    H231152   3.041   3.895   1.789
10399TIP3   OH231153   0.221   2.259   5.259
10399TIP3    H131154   0.175   2.183   5.222
10399TIP3    H231155   0.277   2.290   5.189
10400TIP3   OH231156   5.882   6.509   2.366
10400TIP3    H131157   5.897   6.414   2.362
10400TIP3    H231158   5.836   6.522   2.450
10401TIP3   OH231159   5.800   5.444   5.550
10401TIP3    H131160   5.791   5.423   5.457
10401TIP3    H231161   5.752   5.526   5.561
10402TIP3   OH231162   7.429   6.948   6.243
10402TIP3    H131163   7.400   7.035   6.271
10402TIP3    H231164   7.452   6.960   6.151
10403TIP3   OH231165   7.716   7.001   3.738
10403TIP3    H131166   7.809   6.978   3.743
10403TIP3    H231167   7.670   6.925   3.774
10404TIP3   OH231168   2.816   0.328   0.029
10404TIP3    H131169   2.833   0.235   0.041
10404TIP3    H231170   2.726   0.340   0.060
10405TIP3   OH231171   4.760   5.270   2.014
10405TIP3    H131172   4.745   5.193   2.068
10405TIP3    H231173   4.815   5.239   1.942
10406TIP3   OH231174   0.184   4.943   2.161
10406TIP3    H131175   0.117   4.876   2.153
10406TIP3    H231176   0.265   4.894   2.175
10407TIP3   OH231177   6.121   7.807   6.715
10407TIP3    H131178   6.192   7.866   6.739
10407TIP3    H231179   6.118   7.743   6.785
10408TIP3   OH231180   8.269   2.904   4.978
10408TIP3    H131181   8.300   2.846   4.909
10408TIP3    H231182   8.183   2.869   5.002
10409TIP3   OH231183   6.993   0.806   6.655
10409TIP3    H131184   7.005   0.751   6.578
10409TIP3    H231185   7.018   0.894   6.626
10410TIP3   OH231186   2.150   0.176   0.682
10410TIP3    H131187   2.164   0.263   0.720
10410TIP3    H231188   2.147   0.117   0.758
10411TIP3   OH231189   4.328   6.364   5.492
10411TIP3    H131190   4.353   6.273   5.505
10411TIP3    H231191   4.338   6.378   5.397
10412TIP3   OH231192   3.892   7.702   4.222
10412TIP3    H131193   3.935   7.732   4.142
10412TIP3    H231194   3.882   7.607   4.209
10413TIP3   OH231195   3.335   0.721   5.117
10413TIP3    H131196   3.377   0.672   5.047
10413TIP3    H231197   3.404   0.734   5.182
10414TIP3   OH231198   2.769   3.287   6.656
10414TIP3    H131199   2.730   3.229   6.722
10414TIP3    H231200   2.762   3.239   6.574
10415TIP3   OH231201   1.527   2.427   4.210
10415TIP3    H131202   1.493   2.369   4.278
10415TIP3    H231203   1.555   2.367   4.140
10416TIP3   OH231204   7.036   5.690   5.581
10416TIP3    H131205   7.089   5.613   5.559
10416TIP3    H231206   6.945   5.660   5.575
10417TIP3   OH231207   0.249   4.952   1.800
10417TIP3    H131208   0.183   4.884   1.817
10417TIP3    H231209   0.202   5.035   1.814
10418TIP3   OH231210   2.555   5.524   4.356
10418TIP3    H131211   2.497   5.529   4.280
10418TIP3    H231212   2.643   5.529   4.319
10419TIP3   OH231213   4.649   3.191   1.012
10419TIP3    H131214   4.653   3.111   0.960
10419TIP3    H231215   4.556   3.214   1.014
10420TIP3   OH231216   6.846   3.082   5.854
10420TIP3    H131217   6.802   3.000   5.834
10420TIP3    H231218   6.918   3.086   5.792
10421TIP3   OH231219   6.211   3.438   0.086
10421TIP3    H131220   6.130   3.488   0.088
10421TIP3    H231221   6.207   3.388   0.005
10422TIP3   OH231222   7.584   4.577   3.460
10422TIP3    H131223   7.665   4.584   3.512
10422TIP3    H231224   7.614   4.568   3.370
10423TIP3   OH231225   2.737   0.372   6.457
10423TIP3    H131226   2.764   0.286   6.491
10423TIP3    H231227   2.799   0.390   6.386
10424TIP3   OH231228   3.596   0.825   0.520
10424TIP3    H131229   3.583   0.732   0.541
10424TIP3    H231230   3.607   0.827   0.425
10425TIP3   OH231231   0.645   6.437   5.095
10425TIP3    H131232   0.610   6.493   5.164
10425TIP3    H231233   0.596   6.355   5.104
10426TIP3   OH231234   3.410   0.475   2.512
10426TIP3    H131235   3.494   0.444   2.545
10426TIP3    H231236   3.399   0.562   2.550
10427TIP3   OH231237   1.757   6.040   2.116
10427TIP3    H131238   1.823   6.095   2.074
10427TIP3    H231239   1.698   6.101   2.161
10428TIP3   OH231240   7.506   6.211   1.371
10428TIP3    H131241   7.436   6.263   1.331
10428TIP3    H231242   7.577   6.212   1.306
10429TIP3   OH231243   6.393   2.322   3.986
10429TIP3    H131244   6.470   2.293   3.936
10429TIP3    H231245   6.344   2.377   3.925
10430TIP3   OH231246   1.263   1.696   4.187
10430TIP3    H131247   1.275   1.623   4.248
10430TIP3    H231248   1.186   1.671   4.135
10431TIP3   OH231249   2.436   1.787   0.512
10431TIP3    H131250   2.377   1.753   0.579
10431TIP3    H231251   2.382   1.845   0.459
10432TIP3   OH231252   3.373   3.359   2.925
10432TIP3    H131253   3.281   3.387   2.919
10432TIP3    H231254   3.398   3.342   2.834
10433TIP3   OH231255   7.019   1.990   3.396
10433TIP3    H131256   6.927   1.995   3.371
10433TIP3    H231257   7.055   1.920   3.341
10434TIP3   OH231258   2.336   2.561   4.813
10434TIP3    H131259   2.419   2.516   4.828
10434TIP3    H231260   2.321   2.551   4.719
10435TIP3   OH231261   5.511   2.061   2.404
10435TIP3    H131262   5.446   2.080   2.335
10435TIP3    H231263   5.595   2.062   2.359
10436TIP3   OH231264   4.216   3.170   5.737
10436TIP3    H131265   4.224   3.265   5.734
10436TIP3    H231266   4.303   3.138   5.715
10437TIP3   OH231267   1.338   0.900   1.265
10437TIP3    H131268   1.272   0.891   1.335
10437TIP3    H231269   1.299   0.961   1.203
10438TIP3   OH231270   5.894   5.711   1.249
10438TIP3    H131271   5.902   5.670   1.335
10438TIP3    H231272   5.935   5.797   1.260
10439TIP3   OH231273   7.774   2.269   4.155
10439TIP3    H131274   7.795   2.263   4.061
10439TIP3    H231275   7.860   2.276   4.197
10440TIP3   OH231276   0.295   3.404   2.280
10440TIP3    H131277   0.264   3.494   2.272
10440TIP3    H231278   0.389   3.410   2.261
10441TIP3   OH231279   4.754   7.442   6.116
10441TIP3    H131280   4.762   7.423   6.209
10441TIP3    H231281   4.826   7.395   6.075
10442TIP3   OH231282   3.667   0.318   1.876
10442TIP3    H131283   3.694   0.251   1.814
10442TIP3    H231284   3.714   0.297   1.956
10443TIP3   OH231285   2.213   4.246   0.037
10443TIP3    H131286   2.186   4.168   0.085
10443TIP3    H231287   2.298   4.223  -0.002
10444TIP3   OH231288   2.152   3.887   5.688
10444TIP3    H131289   2.164   3.939   5.609
10444TIP3    H231290   2.234   3.839   5.697
10445TIP3   OH231291   5.795   6.479   0.034
10445TIP3    H131292   5.850   6.442   0.102
10445TIP3    H231293   5.807   6.573   0.041
10446TIP3   OH231294   6.363   1.740   2.474
10446TIP3    H131295   6.301   1.675   2.440
10446TIP3    H231296   6.396   1.701   2.555
10447TIP3   OH231297   1.719   1.044   2.623
10447TIP3    H131298   1.688   1.045   2.533
10447TIP3    H231299   1.789   1.109   2.625
10448TIP3   OH231300   6.952   2.030   1.005
10448TIP3    H131301   6.902   2.045   1.086
10448TIP3    H231302   6.961   1.935   1.000
10449TIP3   OH231303   0.039   1.438   4.644
10449TIP3    H131304  -0.022   1.475   4.579
10449TIP3    H231305   0.032   1.343   4.632
10450TIP3   OH231306   4.901   1.738   3.445
10450TIP3    H131307   4.821   1.717   3.493
10450TIP3    H231308   4.873   1.742   3.353
10451TIP3   OH231309   4.507   6.113   2.581
10451TIP3    H131310   4.523   6.198   2.539
10451TIP3    H231311   4.527   6.049   2.512
10452TIP3   OH231312   4.104   2.252   2.341
10452TIP3    H131313   4.119   2.333   2.389
10452TIP3    H231314   4.046   2.277   2.268
10453TIP3   OH231315   7.262   7.360   1.573
10453TIP3    H131316   7.280   7.266   1.574
10453TIP3    H231317   7.219   7.377   1.656
10454TIP3   OH231318   1.888   2.749   5.588
10454TIP3    H131319   1.939   2.813   5.539
10454TIP3    H231320   1.842   2.801   5.654
10455TIP3   OH231321   0.794   1.812   6.026
10455TIP3    H131322   0.779   1.827   6.119
10455TIP3    H231323   0.791   1.717   6.016
10456TIP3   OH231324   7.452   4.474   5.482
10456TIP3    H131325   7.415   4.402   5.432
10456TIP3    H231326   7.442   4.551   5.425
10457TIP3   OH231327   2.683   3.338   5.530
10457TIP3    H131328   2.723   3.305   5.450
10457TIP3    H231329   2.626   3.268   5.560
10458TIP3   OH231330   3.078   3.558   5.169
10458TIP3    H131331   3.002   3.575   5.225
10458TIP3    H231332   3.082   3.634   5.111
10459TIP3   OH231333   3.177   2.092   6.577
10459TIP3    H131334   3.167   2.017   6.636
10459TIP3    H231335   3.205   2.054   6.494
10460TIP3   OH231336   0.263   1.081   5.067
10460TIP3    H131337   0.182   1.074   5.118
10460TIP3    H231338   0.267   0.998   5.018
10461TIP3   OH231339   7.942   2.508   4.166
10461TIP3    H131340   7.975   2.495   4.077
10461TIP3    H231341   7.866   2.565   4.154
10462TIP3   OH231342   3.058   6.779   2.739
10462TIP3    H131343   3.150   6.790   2.764
10462TIP3    H231344   3.062   6.750   2.647
10463TIP3   OH231345   0.032   0.787   5.135
10463TIP3    H131346   0.090   0.839   5.079
10463TIP3    H231347   0.092   0.733   5.187
10464TIP3   OH231348   1.813   0.748   6.091
10464TIP3    H131349   1.837   0.664   6.131
10464TIP3    H231350   1.801   0.728   5.998
10465TIP3   OH231351   2.712   2.006   1.776
10465TIP3    H131352   2.756   2.075   1.825
10465TIP3    H231353   2.707   2.039   1.686
10466TIP3   OH231354   4.714   2.679   2.674
10466TIP3    H131355   4.758   2.600   2.640
10466TIP3    H231356   4.759   2.697   2.756
10467TIP3   OH231357   6.885   4.945   1.095
10467TIP3    H131358   6.836   5.011   1.145
10467TIP3    H231359   6.975   4.978   1.096
10468TIP3   OH231360   6.281   2.413   4.456
10468TIP3    H131361   6.212   2.387   4.395
10468TIP3    H231362   6.331   2.479   4.408
10469TIP3   OH231363   1.434   1.741   6.150
10469TIP3    H131364   1.378   1.719   6.076
10469TIP3    H231365   1.374   1.755   6.223
10470TIP3   OH231366   1.103   5.019   2.638
10470TIP3    H131367   1.062   4.978   2.562
10470TIP3    H231368   1.165   4.954   2.670
10471TIP3   OH231369   1.167   4.474   2.085
10471TIP3    H131370   1.096   4.412   2.066
10471TIP3    H231371   1.125   4.560   2.081
10472TIP3   OH231372   4.177   1.410   3.048
10472TIP3    H131373   4.121   1.336   3.026
10472TIP3    H231374   4.262   1.371   3.066
10473TIP3   OH231375   2.225   3.254   1.797
10473TIP3    H131376   2.142   3.284   1.761
10473TIP3    H231377   2.255   3.186   1.737
10474TIP3   OH231378   0.322   6.721   1.090
10474TIP3    H131379   0.337   6.680   1.005
10474TIP3    H231380   0.236   6.761   1.084
10475TIP3   OH231381   2.845   7.611   5.200
10475TIP3    H131382   2.760   7.578   5.228
10475TIP3    H231383   2.828   7.701   5.170
10476TIP3   OH231384   3.026   6.855   2.273
10476TIP3    H131385   3.032   6.883   2.182
10476TIP3    H231386   2.991   6.930   2.319
10477TIP3   OH231387   1.527   7.462   4.549
10477TIP3    H131388   1.571   7.402   4.609
10477TIP3    H231389   1.446   7.417   4.526
10478TIP3   OH231390   7.571   2.915   3.040
10478TIP3    H131391   7.664   2.932   3.055
10478TIP3    H231392   7.561   2.821   3.054
10479TIP3   OH231393   4.926   7.208   5.287
10479TIP3    H131394   4.930   7.136   5.224
10479TIP3    H231395   4.853   7.184   5.346
10480TIP3   OH231396   4.351   5.721   5.893
10480TIP3    H131397   4.390   5.665   5.961
10480TIP3    H231398   4.275   5.672   5.862
10481TIP3   OH231399   3.941   0.599   0.647
10481TIP3    H131400   3.985   0.647   0.577
10481TIP3    H231401   4.003   0.601   0.720
10482TIP3   OH231402   3.851   5.340   6.218
10482TIP3    H131403   3.870   5.259   6.266
10482TIP3    H231404   3.812   5.311   6.136
10483TIP3   OH231405   5.304   5.010   6.509
10483TIP3    H131406   5.213   4.982   6.496
10483TIP3    H231407   5.311   5.022   6.604
10484TIP3   OH231408   5.151   4.845   1.594
10484TIP3    H131409   5.161   4.926   1.543
10484TIP3    H231410   5.106   4.872   1.674
10485TIP3   OH231411   7.198   2.363   3.251
10485TIP3    H131412   7.198   2.361   3.346
10485TIP3    H231413   7.277   2.411   3.227
10486TIP3   OH231414   0.176   4.136   5.939
10486TIP3    H131415   0.240   4.077   5.899
10486TIP3    H231416   0.104   4.078   5.965
10487TIP3   OH231417   6.568   4.790   5.759
10487TIP3    H131418   6.574   4.838   5.841
10487TIP3    H231419   6.495   4.729   5.772
10488TIP3   OH231420   0.843   5.743   4.294
10488TIP3    H131421   0.852   5.740   4.198
10488TIP3    H231422   0.807   5.830   4.311
10489TIP3   OH231423   4.480   0.264   1.379
10489TIP3    H131424   4.485   0.329   1.449
10489TIP3    H231425   4.418   0.199   1.410
10490TIP3   OH231426   5.521   1.368   3.151
10490TIP3    H131427   5.480   1.282   3.152
10490TIP3    H231428   5.553   1.380   3.241
10491TIP3   OH231429   8.157   5.569   2.494
10491TIP3    H131430   8.165   5.647   2.440
10491TIP3    H231431   8.136   5.498   2.433
10492TIP3   OH231432   1.710   1.829   3.409
10492TIP3    H131433   1.717   1.776   3.488
10492TIP3    H231434   1.685   1.916   3.439
10493TIP3   OH231435   6.844   0.018   3.389
10493TIP3    H131436   6.909  -0.028   3.442
10493TIP3    H231437   6.773   0.039   3.451
10494TIP3   OH231438   2.129   3.401   5.178
10494TIP3    H131439   2.221   3.413   5.157
10494TIP3    H231440   2.091   3.489   5.176
10495TIP3   OH231441   3.720   3.138   6.786
10495TIP3    H131442   3.732   3.107   6.696
10495TIP3    H231443   3.708   3.058   6.838
10496TIP3   OH231444   1.494   0.274   1.124
10496TIP3    H131445   1.449   0.273   1.208
10496TIP3    H231446   1.544   0.193   1.122
10497TIP3   OH231447   0.822   4.628   4.375
10497TIP3    H131448   0.769   4.636   4.454
10497TIP3    H231449   0.910   4.608   4.406
10498TIP3   OH231450   7.978   6.519   2.348
10498TIP3    H131451   7.954   6.549   2.261
10498TIP3    H231452   7.944   6.587   2.407
10499TIP3   OH231453   7.124   4.057   1.428
10499TIP3    H131454   7.219   4.068   1.415
10499TIP3    H231455   7.113   3.964   1.448
10500TIP3   OH231456   4.746   1.309   5.297
10500TIP3    H131457   4.663   1.266   5.278
10500TIP3    H231458   4.737   1.397   5.260
10501TIP3   OH231459   5.102   0.310   1.392
10501TIP3    H131460   5.093   0.250   1.467
10501TIP3    H231461   5.187   0.288   1.355
10502TIP3   OH231462   7.265   1.174   1.668
10502TIP3    H131463   7.250   1.263   1.635
10502TIP3    H231464   7.238   1.117   1.597
10503TIP3   OH231465   1.722   7.298   1.031
10503TIP3    H131466   1.694   7.208   1.049
10503TIP3    H231467   1.775   7.292   0.952
10504TIP3   OH231468   4.280   5.441   1.119
10504TIP3    H131469   4.365   5.403   1.099
10504TIP3    H231470   4.297   5.534   1.135
10505TIP3   OH231471   3.258   6.681   0.537
10505TIP3    H131472   3.344   6.723   0.535
10505TIP3    H231473   3.204   6.737   0.592
10506TIP3   OH231474   6.017   2.568   3.090
10506TIP3    H131475   5.975   2.495   3.137
10506TIP3    H231476   6.088   2.596   3.148
10507TIP3   OH231477   1.605   0.497   4.016
10507TIP3    H131478   1.577   0.406   4.012
10507TIP3    H231479   1.663   0.500   4.093
10508TIP3   OH231480   6.557   1.468   0.780
10508TIP3    H131481   6.645   1.471   0.743
10508TIP3    H231482   6.516   1.550   0.752
10509TIP3   OH231483   2.384   3.976   5.200
10509TIP3    H131484   2.378   4.039   5.272
10509TIP3    H231485   2.405   3.893   5.244
10510TIP3   OH231486   5.127   3.226   3.658
10510TIP3    H131487   5.034   3.201   3.656
10510TIP3    H231488   5.173   3.146   3.634
10511TIP3   OH231489   7.019   3.008   2.544
10511TIP3    H131490   7.029   3.092   2.589
10511TIP3    H231491   7.004   3.032   2.452
10512TIP3   OH231492   5.416   1.206   2.560
10512TIP3    H131493   5.482   1.273   2.578
10512TIP3    H231494   5.442   1.170   2.475
10513TIP3   OH231495   3.357   0.489   2.875
10513TIP3    H131496   3.436   0.461   2.920
10513TIP3    H231497   3.293   0.503   2.944
10514TIP3   OH231498   7.996   2.980   4.458
10514TIP3    H131499   8.033   2.906   4.507
10514TIP3    H231500   8.033   2.971   4.370
10515TIP3   OH231501   8.173   4.889   4.544
10515TIP3    H131502   8.160   4.926   4.632
10515TIP3    H231503   8.264   4.860   4.544
10516TIP3   OH231504   3.970   2.553   5.640
10516TIP3    H131505   3.924   2.574   5.722
10516TIP3    H231506   3.902   2.518   5.583
10517TIP3   OH231507   3.358   4.487   1.516
10517TIP3    H131508   3.367   4.464   1.608
10517TIP3    H231509   3.447   4.485   1.481
10518TIP3   OH231510   7.589   7.009   6.030
10518TIP3    H131511   7.571   7.077   5.965
10518TIP3    H231512   7.683   6.995   6.025
10519TIP3   OH231513   2.790   3.632   6.349
10519TIP3    H131514   2.720   3.683   6.389
10519TIP3    H231515   2.851   3.613   6.420
10520TIP3   OH231516   0.415   1.352   0.956
10520TIP3    H131517   0.345   1.287   0.959
10520TIP3    H231518   0.407   1.391   0.869
10521TIP3   OH231519   3.637   5.326   3.041
10521TIP3    H131520   3.555   5.288   3.074
10521TIP3    H231521   3.628   5.324   2.946
10522TIP3   OH231522   2.109   7.620   6.443
10522TIP3    H131523   2.172   7.560   6.482
10522TIP3    H231524   2.024   7.594   6.480
10523TIP3   OH231525   6.858   2.710   6.356
10523TIP3    H131526   6.877   2.770   6.429
10523TIP3    H231527   6.937   2.657   6.348
10524TIP3   OH231528   7.263   1.710   5.181
10524TIP3    H131529   7.249   1.661   5.100
10524TIP3    H231530   7.296   1.795   5.153
10525TIP3   OH231531   5.414   1.291   4.907
10525TIP3    H131532   5.420   1.297   4.812
10525TIP3    H231533   5.405   1.198   4.925
10526TIP3   OH231534   3.573   2.949   3.087
10526TIP3    H131535   3.520   2.879   3.050
10526TIP3    H231536   3.525   3.030   3.067
10527TIP3   OH231537   8.118   7.182   4.309
10527TIP3    H131538   8.049   7.224   4.360
10527TIP3    H231539   8.071   7.127   4.246
10528TIP3   OH231540   0.786   2.367   3.116
10528TIP3    H131541   0.786   2.400   3.206
10528TIP3    H231542   0.877   2.346   3.098
10529TIP3   OH231543   7.629   3.514   4.507
10529TIP3    H131544   7.678   3.467   4.439
10529TIP3    H231545   7.603   3.596   4.465
10530TIP3   OH231546   6.108   0.121   4.138
10530TIP3    H131547   6.095   0.202   4.090
10530TIP3    H231548   6.022   0.080   4.139
10531TIP3   OH231549   7.039   6.518   3.620
10531TIP3    H131550   7.110   6.541   3.678
10531TIP3    H231551   7.013   6.429   3.647
10532TIP3   OH231552   8.173   2.135   1.834
10532TIP3    H131553   8.265   2.120   1.813
10532TIP3    H231554   8.175   2.172   1.922
10533TIP3   OH231555   0.016   6.914   4.576
10533TIP3    H131556   0.010   6.840   4.636
10533TIP3    H231557   0.015   6.875   4.488
10534TIP3   OH231558   0.823   7.650   4.984
10534TIP3    H131559   0.871   7.725   5.017
10534TIP3    H231560   0.741   7.650   5.033
10535TIP3   OH231561   7.835   3.697   6.610
10535TIP3    H131562   7.846   3.791   6.600
10535TIP3    H231563   7.822   3.665   6.521
10536TIP3   OH231564   6.380   6.689   0.566
10536TIP3    H131565   6.422   6.719   0.647
10536TIP3    H231566   6.347   6.770   0.525
10537TIP3   OH231567   3.220   6.934   1.412
10537TIP3    H131568   3.149   6.995   1.429
10537TIP3    H231569   3.184   6.848   1.435
10538TIP3   OH231570   2.163   7.334   0.795
10538TIP3    H131571   2.213   7.306   0.718
10538TIP3    H231572   2.191   7.274   0.865
10539TIP3   OH231573   1.575   4.092   5.176
10539TIP3    H131574   1.508   4.158   5.160
10539TIP3    H231575   1.658   4.141   5.175
10540TIP3   OH231576   7.110   7.388   5.665
10540TIP3    H131577   7.146   7.400   5.577
10540TIP3    H231578   7.102   7.293   5.675
10541TIP3   OH231579   3.084   4.427   2.297
10541TIP3    H131580   3.024   4.360   2.264
10541TIP3    H231581   3.167   4.410   2.252
10542TIP3   OH231582   3.428   2.003   5.552
10542TIP3    H131583   3.402   2.044   5.470
10542TIP3    H231584   3.426   1.909   5.534
10543TIP3   OH231585   6.778   6.338   6.099
10543TIP3    H131586   6.749   6.358   6.011
10543TIP3    H231587   6.756   6.415   6.151
10544TIP3   OH231588   6.094   5.607   1.445
10544TIP3    H131589   6.152   5.631   1.373
10544TIP3    H231590   6.130   5.652   1.521
10545TIP3   OH231591   0.680   5.724   5.859
10545TIP3    H131592   0.674   5.637   5.819
10545TIP3    H231593   0.677   5.707   5.953
10546TIP3   OH231594   3.937   1.921   0.586
10546TIP3    H131595   3.962   1.829   0.590
10546TIP3    H231596   3.894   1.938   0.670
10547TIP3   OH231597   5.579   6.790   3.524
10547TIP3    H131598   5.578   6.856   3.455
10547TIP3    H231599   5.607   6.709   3.480
10548TIP3   OH231600   2.411   7.514   3.337
10548TIP3    H131601   2.412   7.466   3.420
10548TIP3    H231602   2.327   7.559   3.336
10549TIP3   OH231603   4.819   5.057   2.901
10549TIP3    H131604   4.881   5.127   2.921
10549TIP3    H231605   4.796   5.021   2.987
10550TIP3   OH231606   0.995   1.737   4.525
10550TIP3    H131607   1.016   1.645   4.537
10550TIP3    H231608   1.073   1.784   4.554
10551TIP3   OH231609   3.643   5.089   5.990
10551TIP3    H131610   3.586   5.037   6.047
10551TIP3    H231611   3.615   5.179   6.004
10552TIP3   OH231612   3.240   4.732   4.919
10552TIP3    H131613   3.226   4.639   4.899
10552TIP3    H231614   3.210   4.742   5.009
10553TIP3   OH231615   4.161   2.275   0.066
10553TIP3    H131616   4.090   2.261   0.004
10553TIP3    H231617   4.227   2.324   0.018
10554TIP3   OH231618   1.093   5.103   2.073
10554TIP3    H131619   1.081   5.163   2.146
10554TIP3    H231620   1.024   5.125   2.011
10555TIP3   OH231621   7.685   0.127   3.272
10555TIP3    H131622   7.666   0.036   3.296
10555TIP3    H231623   7.731   0.162   3.349
10556TIP3   OH231624   7.482   7.673   4.806
10556TIP3    H131625   7.526   7.623   4.875
10556TIP3    H231626   7.408   7.713   4.851
10557TIP3   OH231627   1.605   1.819   2.246
10557TIP3    H131628   1.627   1.737   2.201
10557TIP3    H231629   1.631   1.804   2.337
10558TIP3   OH231630   5.723   3.969   1.144
10558TIP3    H131631   5.776   4.044   1.119
10558TIP3    H231632   5.759   3.895   1.094
10559TIP3   OH231633   4.217   6.589   2.299
10559TIP3    H131634   4.231   6.590   2.394
10559TIP3    H231635   4.305   6.591   2.261
10560TIP3   OH231636   2.916   2.226   4.721
10560TIP3    H131637   2.839   2.179   4.753
10560TIP3    H231638   2.918   2.209   4.627
10561TIP3   OH231639   4.330   6.560   5.846
10561TIP3    H131640   4.237   6.549   5.826
10561TIP3    H231641   4.368   6.595   5.766
10562TIP3   OH231642   1.908   1.158   5.184
10562TIP3    H131643   1.983   1.111   5.147
10562TIP3    H231644   1.915   1.246   5.146
10563TIP3   OH231645   5.045   2.276   3.825
10563TIP3    H131646   5.009   2.361   3.800
10563TIP3    H231647   4.971   2.230   3.866
10564TIP3   OH231648   7.208   2.023   3.680
10564TIP3    H131649   7.171   2.044   3.766
10564TIP3    H231650   7.169   2.087   3.621
10565TIP3   OH231651   2.629   6.376   3.471
10565TIP3    H131652   2.602   6.440   3.405
10565TIP3    H231653   2.712   6.342   3.440
10566TIP3   OH231654   0.505   1.088   5.940
10566TIP3    H131655   0.546   1.163   5.897
10566TIP3    H231656   0.573   1.051   5.995
10567TIP3   OH231657   1.620   4.666   4.848
10567TIP3    H131658   1.557   4.625   4.789
10567TIP3    H231659   1.567   4.717   4.909
10568TIP3   OH231660   4.081   0.814   4.395
10568TIP3    H131661   4.081   0.908   4.410
10568TIP3    H231662   4.172   0.787   4.409
10569TIP3   OH231663   2.051   2.963   1.936
10569TIP3    H131664   2.056   2.998   2.025
10569TIP3    H231665   2.137   2.979   1.898
10570TIP3   OH231666   4.069   2.928   2.021
10570TIP3    H131667   4.040   2.853   1.969
10570TIP3    H231668   4.056   3.003   1.963
10571TIP3   OH231669   3.062   5.588   0.981
10571TIP3    H131670   3.014   5.522   1.031
10571TIP3    H231671   3.141   5.604   1.033
10572TIP3   OH231672   7.201   6.925   2.908
10572TIP3    H131673   7.255   6.862   2.862
10572TIP3    H231674   7.263   6.988   2.946
10573TIP3   OH231675   0.185   3.043   5.380
10573TIP3    H131676   0.229   3.038   5.295
10573TIP3    H231677   0.124   3.116   5.371
10574TIP3   OH231678   5.294   3.068   0.676
10574TIP3    H131679   5.328   3.133   0.737
10574TIP3    H231680   5.370   3.015   0.652
10575TIP3   OH231681   2.659   7.441   3.217
10575TIP3    H131682   2.565   7.433   3.230
10575TIP3    H231683   2.698   7.415   3.301
10576TIP3   OH231684   1.588   3.073   1.390
10576TIP3    H131685   1.580   2.979   1.403
10576TIP3    H231686   1.644   3.103   1.462
10577TIP3   OH231687   0.220   7.525   1.884
10577TIP3    H131688   0.299   7.542   1.936
10577TIP3    H231689   0.242   7.446   1.834
10578TIP3   OH231690   0.969   6.810   5.096
10578TIP3    H131691   0.927   6.734   5.057
10578TIP3    H231692   1.060   6.804   5.069
10579TIP3   OH231693   7.663   4.561   3.189
10579TIP3    H131694   7.620   4.646   3.189
10579TIP3    H231695   7.611   4.507   3.129
10580TIP3   OH231696   2.475   1.106  -0.002
10580TIP3    H131697   2.495   1.122   0.090
10580TIP3    H231698   2.381   1.088  -0.004
10581TIP3   OH231699   6.886   7.272   0.919
10581TIP3    H131700   6.916   7.324   0.844
10581TIP3    H231701   6.914   7.322   0.996
10582TIP3   OH231702   5.055   1.060   0.479
10582TIP3    H131703   5.121   1.125   0.456
10582TIP3    H231704   4.986   1.071   0.413
10583TIP3   OH231705   6.644   6.638   3.088
10583TIP3    H131706   6.652   6.638   2.993
10583TIP3    H231707   6.728   6.673   3.119
10584TIP3   OH231708   0.426   3.030   2.412
10584TIP3    H131709   0.378   3.102   2.453
10584TIP3    H231710   0.476   2.990   2.483
10585TIP3   OH231711   2.405   0.201   5.997
10585TIP3    H131712   2.456   0.155   5.930
10585TIP3    H231713   2.454   0.187   6.078
10586TIP3   OH231714   2.978   2.662   4.239
10586TIP3    H131715   3.067   2.627   4.244
10586TIP3    H231716   2.989   2.747   4.195
10587TIP3   OH231717   5.653   4.027   0.412
10587TIP3    H131718   5.668   3.941   0.450
10587TIP3    H231719   5.737   4.050   0.372
10588TIP3   OH231720   0.901   1.270   6.221
10588TIP3    H131721   0.904   1.229   6.135
10588TIP3    H231722   0.982   1.243   6.264
10589TIP3   OH231723   2.510   4.276   4.335
10589TIP3    H131724   2.495   4.279   4.241
10589TIP3    H231725   2.595   4.319   4.347
10590TIP3   OH231726   6.597   2.742   6.344
10590TIP3    H131727   6.690   2.723   6.333
10590TIP3    H231728   6.595   2.810   6.411
10591TIP3   OH231729   5.902   7.600   4.756
10591TIP3    H131730   5.946   7.541   4.815
10591TIP3    H231731   5.865   7.668   4.812
10592TIP3   OH231732   5.116   0.327   4.792
10592TIP3    H131733   5.169   0.279   4.727
10592TIP3    H231734   5.041   0.358   4.743
10593TIP3   OH231735   8.118   3.999   5.165
10593TIP3    H131736   8.176   3.924   5.177
10593TIP3    H231737   8.030   3.962   5.167
10594TIP3   OH231738   7.423   3.817   2.709
10594TIP3    H131739   7.464   3.730   2.714
10594TIP3    H231740   7.433   3.843   2.617
10595TIP3   OH231741   0.728   6.600   3.992
10595TIP3    H131742   0.756   6.644   3.912
10595TIP3    H231743   0.739   6.507   3.973
10596TIP3   OH231744   7.821   1.762   4.638
10596TIP3    H131745   7.802   1.690   4.699
10596TIP3    H231746   7.737   1.782   4.597
10597TIP3   OH231747   6.714   5.611   3.577
10597TIP3    H131748   6.694   5.669   3.504
10597TIP3    H231749   6.709   5.523   3.540
10598TIP3   OH231750   8.036   7.131   2.500
10598TIP3    H131751   7.974   7.066   2.468
10598TIP3    H231752   8.033   7.122   2.595
10599TIP3   OH231753   6.252   4.164   2.119
10599TIP3    H131754   6.285   4.074   2.118
10599TIP3    H231755   6.157   4.155   2.126
10600TIP3   OH231756   1.307   3.577   3.149
10600TIP3    H131757   1.286   3.669   3.133
10600TIP3    H231758   1.377   3.557   3.087
10601TIP3   OH231759   2.765   1.168   3.648
10601TIP3    H131760   2.702   1.107   3.686
10601TIP3    H231761   2.721   1.203   3.571
10602TIP3   OH231762   5.182   1.794   6.699
10602TIP3    H131763   5.221   1.708   6.681
10602TIP3    H231764   5.148   1.786   6.788
10603TIP3   OH231765   2.416   2.896   2.311
10603TIP3    H131766   2.383   2.811   2.338
10603TIP3    H231767   2.340   2.954   2.317
10604TIP3   OH231768   5.573   5.618   0.382
10604TIP3    H131769   5.655   5.632   0.428
10604TIP3    H231770   5.516   5.689   0.411
10605TIP3   OH231771   1.839   4.458   2.825
10605TIP3    H131772   1.934   4.460   2.815
10605TIP3    H231773   1.823   4.389   2.888
10606TIP3   OH231774   7.117   6.001   5.173
10606TIP3    H131775   7.201   5.997   5.219
10606TIP3    H231776   7.141   5.996   5.080
10607TIP3   OH231777   4.549   3.443   5.767
10607TIP3    H131778   4.536   3.364   5.819
10607TIP3    H231779   4.592   3.504   5.827
10608TIP3   OH231780   3.117   5.627   2.577
10608TIP3    H131781   3.117   5.603   2.485
10608TIP3    H231782   3.113   5.723   2.577
10609TIP3   OH231783   6.292   4.547   3.803
10609TIP3    H131784   6.229   4.480   3.776
10609TIP3    H231785   6.369   4.497   3.830
10610TIP3   OH231786   4.188   4.720   4.501
10610TIP3    H131787   4.259   4.662   4.528
10610TIP3    H231788   4.230   4.804   4.485
10611TIP3   OH231789   3.549   2.962   1.116
10611TIP3    H131790   3.487   3.027   1.083
10611TIP3    H231791   3.626   3.013   1.143
10612TIP3   OH231792   4.668   2.531   1.689
10612TIP3    H131793   4.651   2.544   1.782
10612TIP3    H231794   4.643   2.614   1.648
10613TIP3   OH231795   4.854   3.457   0.863
10613TIP3    H131796   4.888   3.534   0.817
10613TIP3    H231797   4.774   3.488   0.905
10614TIP3   OH231798   3.012   1.575   6.387
10614TIP3    H131799   3.065   1.654   6.393
10614TIP3    H231800   2.952   1.580   6.461
10615TIP3   OH231801   5.346   0.582   0.294
10615TIP3    H131802   5.422   0.641   0.298
10615TIP3    H231803   5.369   0.510   0.352
10616TIP3   OH231804   5.922   4.160   1.094
10616TIP3    H131805   5.966   4.106   1.029
10616TIP3    H231806   5.988   4.224   1.121
10617TIP3   OH231807   4.228   4.945   2.364
10617TIP3    H131808   4.302   4.987   2.407
10617TIP3    H231809   4.181   4.900   2.435
10618TIP3   OH231810   5.380   4.877   3.852
10618TIP3    H131811   5.475   4.885   3.863
10618TIP3    H231812   5.361   4.933   3.776
10619TIP3   OH231813   7.599   0.431   5.458
10619TIP3    H131814   7.560   0.403   5.376
10619TIP3    H231815   7.526   0.435   5.520
10620TIP3   OH231816   5.123   6.514   2.297
10620TIP3    H131817   5.036   6.551   2.278
10620TIP3    H231818   5.183   6.570   2.247
10621TIP3   OH231819   6.012   2.965   3.519
10621TIP3    H131820   6.092   3.009   3.490
10621TIP3    H231821   6.041   2.879   3.550
10622TIP3   OH231822   8.061   6.035   1.087
10622TIP3    H131823   7.978   6.015   1.042
10622TIP3    H231824   8.086   5.952   1.127
10623TIP3   OH231825   2.142   4.242   0.557
10623TIP3    H131826   2.219   4.199   0.596
10623TIP3    H231827   2.069   4.184   0.577
10624TIP3   OH231828   1.716   1.681   4.299
10624TIP3    H131829   1.645   1.625   4.332
10624TIP3    H231830   1.785   1.619   4.275
10625TIP3   OH231831   2.012   5.409   4.976
10625TIP3    H131832   2.013   5.349   5.050
10625TIP3    H231833   1.937   5.382   4.924
10626TIP3   OH231834   1.323   5.105   6.347
10626TIP3    H131835   1.316   5.148   6.262
10626TIP3    H231836   1.308   5.175   6.410
10627TIP3   OH231837   7.416   1.125   4.972
10627TIP3    H131838   7.348   1.058   4.963
10627TIP3    H231839   7.445   1.142   4.882
10628TIP3   OH231840   2.292   1.033   6.148
10628TIP3    H131841   2.198   1.038   6.132
10628TIP3    H231842   2.319   0.950   6.110
10629TIP3   OH231843   0.764   5.402   4.731
10629TIP3    H131844   0.712   5.352   4.794
10629TIP3    H231845   0.794   5.479   4.779
10630TIP3   OH231846   0.711   5.972   4.376
10630TIP3    H131847   0.619   5.997   4.385
10630TIP3    H231848   0.760   6.050   4.404
10631TIP3   OH231849   6.658   2.838   2.449
10631TIP3    H131850   6.615   2.755   2.432
10631TIP3    H231851   6.746   2.827   2.413
10632TIP3   OH231852   4.376   4.816   2.976
10632TIP3    H131853   4.281   4.812   2.983
10632TIP3    H231854   4.408   4.772   3.055
10633TIP3   OH231855   2.350   5.217   3.399
10633TIP3    H131856   2.277   5.213   3.338
10633TIP3    H231857   2.384   5.306   3.389
10634TIP3   OH231858   2.436   4.300   4.754
10634TIP3    H131859   2.382   4.379   4.759
10634TIP3    H231860   2.388   4.235   4.805
10635TIP3   OH231861   1.191   5.597   4.281
10635TIP3    H131862   1.122   5.536   4.257
10635TIP3    H231863   1.245   5.549   4.344
10636TIP3   OH231864   1.803   7.548   5.223
10636TIP3    H131865   1.745   7.476   5.249
10636TIP3    H231866   1.835   7.524   5.136
10637TIP3   OH231867   2.613   4.789   0.332
10637TIP3    H131868   2.558   4.738   0.392
10637TIP3    H231869   2.562   4.794   0.251
10638TIP3   OH231870   2.188   6.581   0.339
10638TIP3    H131871   2.237   6.605   0.418
10638TIP3    H231872   2.163   6.490   0.353
10639TIP3   OH231873   6.160   6.070   2.335
10639TIP3    H131874   6.180   6.154   2.294
10639TIP3    H231875   6.188   6.005   2.271
10640TIP3   OH231876   2.333   1.762   1.112
10640TIP3    H131877   2.315   1.813   1.033
10640TIP3    H231878   2.295   1.676   1.093
10641TIP3   OH231879   3.944   5.224   3.693
10641TIP3    H131880   3.848   5.223   3.698
10641TIP3    H231881   3.964   5.301   3.640
10642TIP3   OH231882   5.948   1.120   0.227
10642TIP3    H131883   5.977   1.030   0.214
10642TIP3    H231884   5.870   1.129   0.172
10643TIP3   OH231885   1.950   3.870   0.656
10643TIP3    H131886   1.956   3.966   0.662
10643TIP3    H231887   1.863   3.854   0.622
10644TIP3   OH231888   1.268   0.079   5.190
10644TIP3    H131889   1.175   0.095   5.171
10644TIP3    H231890   1.269  -0.006   5.234
10645TIP3   OH231891   7.243   7.004   1.069
10645TIP3    H131892   7.316   6.969   1.017
10645TIP3    H231893   7.165   6.982   1.018
10646TIP3   OH231894   6.432   2.599   2.631
10646TIP3    H131895   6.387   2.515   2.628
10646TIP3    H231896   6.511   2.586   2.578
10647TIP3   OH231897   0.216   1.386   4.352
10647TIP3    H131898   0.163   1.452   4.397
10647TIP3    H231899   0.181   1.383   4.263
10648TIP3   OH231900   5.835   4.211   1.885
10648TIP3    H131901   5.931   4.218   1.886
10648TIP3    H231902   5.818   4.118   1.874
10649TIP3   OH231903   0.552   0.172   6.086
10649TIP3    H131904   0.569   0.088   6.129
10649TIP3    H231905   0.599   0.167   6.003
10650TIP3   OH231906   0.081   0.464   6.365
10650TIP3    H131907   0.150   0.439   6.427
10650TIP3    H231908   0.087   0.399   6.295
10651TIP3   OH231909   7.291   3.844   3.790
10651TIP3    H131910   7.268   3.791   3.713
10651TIP3    H231911   7.226   3.914   3.791
10652TIP3   OH231912   0.194   6.089   3.712
10652TIP3    H131913   0.180   6.024   3.643
10652TIP3    H231914   0.289   6.090   3.725
10653TIP3   OH231915   6.236   5.410   2.023
10653TIP3    H131916   6.255   5.346   1.955
10653TIP3    H231917   6.147   5.440   2.004
10654TIP3   OH231918   1.157   1.356   0.843
10654TIP3    H131919   1.130   1.445   0.820
10654TIP3    H231920   1.252   1.362   0.853
10655TIP3   OH231921   2.443   7.573   6.784
10655TIP3    H131922   2.486   7.654   6.756
10655TIP3    H231923   2.392   7.546   6.707
10656TIP3   OH231924   7.579   1.884   4.262
10656TIP3    H131925   7.583   1.789   4.270
10656TIP3    H231926   7.669   1.910   4.242
10657TIP3   OH231927   5.435   3.182   1.512
10657TIP3    H131928   5.364   3.130   1.550
10657TIP3    H231929   5.409   3.273   1.527
10658TIP3   OH231930   4.057   6.767   3.737
10658TIP3    H131931   3.962   6.781   3.733
10658TIP3    H231932   4.080   6.785   3.829
10659TIP3   OH231933   1.751   7.247   1.441
10659TIP3    H131934   1.706   7.326   1.469
10659TIP3    H231935   1.683   7.192   1.402
10660TIP3   OH231936   3.680   4.934   4.175
10660TIP3    H131937   3.751   4.969   4.230
10660TIP3    H231938   3.726   4.888   4.104
10661TIP3   OH231939   7.944   2.102   3.818
10661TIP3    H131940   7.942   2.008   3.833
10661TIP3    H231941   7.974   2.139   3.900
10662TIP3   OH231942   3.019   7.683   2.035
10662TIP3    H131943   3.005   7.589   2.019
10662TIP3    H231944   2.931   7.720   2.036
10663TIP3   OH231945   4.338   0.907   6.060
10663TIP3    H131946   4.356   0.822   6.020
10663TIP3    H231947   4.389   0.907   6.141
10664TIP3   OH231948   2.424   1.281   3.253
10664TIP3    H131949   2.495   1.267   3.190
10664TIP3    H231950   2.449   1.229   3.330
10665TIP3   OH231951   5.323   2.003   4.858
10665TIP3    H131952   5.340   1.993   4.765
10665TIP3    H231953   5.384   1.942   4.900
10666TIP3   OH231954   5.403   5.015   2.102
10666TIP3    H131955   5.384   4.981   2.189
10666TIP3    H231956   5.428   4.938   2.051
10667TIP3   OH231957   5.712   4.483   1.926
10667TIP3    H131958   5.721   4.504   1.833
10667TIP3    H231959   5.707   4.387   1.928
10668TIP3   OH231960   2.904   2.456   1.468
10668TIP3    H131961   2.976   2.462   1.404
10668TIP3    H231962   2.934   2.508   1.543
10669TIP3   OH231963   5.342   3.361   4.129
10669TIP3    H131964   5.249   3.340   4.142
10669TIP3    H231965   5.387   3.315   4.200
10670TIP3   OH231966   4.257   6.777   5.538
10670TIP3    H131967   4.320   6.710   5.562
10670TIP3    H231968   4.239   6.824   5.620
10671TIP3   OH231969   6.609   0.280   6.146
10671TIP3    H131970   6.523   0.285   6.187
10671TIP3    H231971   6.668   0.318   6.211
10672TIP3   OH231972   4.768   3.956   2.396
10672TIP3    H131973   4.691   4.013   2.389
10672TIP3    H231974   4.774   3.914   2.310
10673TIP3   OH231975   4.350   7.791   5.546
10673TIP3    H131976   4.255   7.795   5.557
10673TIP3    H231977   4.363   7.762   5.456
10674TIP3   OH231978   0.124   7.409   2.866
10674TIP3    H131979   0.114   7.481   2.929
10674TIP3    H231980   0.061   7.429   2.797
10675TIP3   OH231981   1.938   5.011   6.117
10675TIP3    H131982   2.017   4.957   6.123
10675TIP3    H231983   1.938   5.043   6.027
10676TIP3   OH231984   1.698   3.123   0.621
10676TIP3    H131985   1.626   3.079   0.667
10676TIP3    H231986   1.711   3.205   0.668
10677TIP3   OH231987   7.675   7.250   2.317
10677TIP3    H131988   7.669   7.161   2.283
10677TIP3    H231989   7.768   7.272   2.309
10678TIP3   OH231990   7.521   1.735   6.194
10678TIP3    H131991   7.511   1.776   6.108
10678TIP3    H231992   7.611   1.755   6.219
10679TIP3   OH231993   2.462   2.938   6.126
10679TIP3    H131994   2.410   2.858   6.116
10679TIP3    H231995   2.494   2.957   6.038
10680TIP3   OH231996   4.726   2.874   5.922
10680TIP3    H131997   4.649   2.831   5.884
10680TIP3    H231998   4.766   2.920   5.849
10681TIP3   OH231999   6.654   0.167   1.597
10681TIP3    H132000   6.589   0.236   1.588
10681TIP3    H232001   6.616   0.107   1.661
10682TIP3   OH232002   1.746   3.150   1.616
10682TIP3    H132003   1.754   3.085   1.685
10682TIP3    H232004   1.829   3.198   1.618
10683TIP3   OH232005   7.565   1.718   2.562
10683TIP3    H132006   7.615   1.730   2.481
10683TIP3    H232007   7.477   1.749   2.541
10684TIP3   OH232008   0.685   4.075   0.145
10684TIP3    H132009   0.663   4.104   0.234
10684TIP3    H232010   0.780   4.060   0.149
10685TIP3   OH232011   2.139   0.801   4.298
10685TIP3    H132012   2.182   0.840   4.375
10685TIP3    H232013   2.118   0.876   4.242
10686TIP3   OH232014   6.425   7.150   3.560
10686TIP3    H132015   6.404   7.066   3.520
10686TIP3    H232016   6.518   7.162   3.544
10687TIP3   OH232017   8.133   1.914   5.572
10687TIP3    H132018   8.184   1.878   5.644
10687TIP3    H232019   8.199   1.949   5.512
10688TIP3   OH232020   3.836   6.485   1.753
10688TIP3    H132021   3.770   6.437   1.703
10688TIP3    H232022   3.909   6.424   1.760
10689TIP3   OH232023   3.308   7.130   6.424
10689TIP3    H132024   3.244   7.184   6.377
10689TIP3    H232025   3.391   7.150   6.382
10690TIP3   OH232026   6.333   4.273   5.404
10690TIP3    H132027   6.283   4.237   5.331
10690TIP3    H232028   6.302   4.364   5.412
10691TIP3   OH232029   6.195   6.141   5.603
10691TIP3    H132030   6.181   6.114   5.693
10691TIP3    H232031   6.116   6.113   5.557
10692TIP3   OH232032   8.183   7.284   6.132
10692TIP3    H132033   8.245   7.347   6.170
10692TIP3    H232034   8.121   7.337   6.083
10693TIP3   OH232035   0.149   2.343   4.547
10693TIP3    H132036   0.093   2.302   4.481
10693TIP3    H232037   0.121   2.435   4.548
10694TIP3   OH232038   1.430   6.786   4.835
10694TIP3    H132039   1.456   6.829   4.753
10694TIP3    H232040   1.512   6.756   4.874
10695TIP3   OH232041   3.184   6.563   3.675
10695TIP3    H132042   3.168   6.539   3.766
10695TIP3    H232043   3.250   6.500   3.645
10696TIP3   OH232044   0.343   6.793   4.100
10696TIP3    H132045   0.431   6.828   4.084
10696TIP3    H232046   0.348   6.702   4.071
10697TIP3   OH232047   5.747   7.141   5.669
10697TIP3    H132048   5.732   7.097   5.585
10697TIP3    H232049   5.682   7.211   5.671
10698TIP3   OH232050   0.021   4.171   6.395
10698TIP3    H132051   0.032   4.255   6.350
10698TIP3    H232052   0.062   4.184   6.480
10699TIP3   OH232053   7.374   4.071   5.415
10699TIP3    H132054   7.469   4.073   5.422
10699TIP3    H232055   7.355   3.990   5.368
10700TIP3   OH232056   2.981   7.495   6.449
10700TIP3    H132057   3.021   7.566   6.398
10700TIP3    H232058   3.032   7.418   6.427
10701TIP3   OH232059   4.301   4.381   3.080
10701TIP3    H132060   4.251   4.440   3.136
10701TIP3    H232061   4.350   4.326   3.140
10702TIP3   OH232062   0.577   1.239   5.694
10702TIP3    H132063   0.643   1.305   5.669
10702TIP3    H232064   0.556   1.194   5.613
10703TIP3   OH232065   6.133   1.019   3.147
10703TIP3    H132066   6.078   0.955   3.192
10703TIP3    H232067   6.222   0.985   3.157
10704TIP3   OH232068   1.829   1.968   2.160
10704TIP3    H132069   1.752   1.944   2.211
10704TIP3    H232070   1.887   2.010   2.224
10705TIP3   OH232071   7.849   2.975   1.691
10705TIP3    H132072   7.876   3.022   1.770
10705TIP3    H232073   7.786   3.034   1.649
10706TIP3   OH232074   4.924   7.227   6.697
10706TIP3    H132075   4.973   7.308   6.702
10706TIP3    H232076   4.833   7.254   6.681
10707TIP3   OH232077   1.418   2.611   6.283
10707TIP3    H132078   1.339   2.558   6.294
10707TIP3    H232079   1.385   2.699   6.262
10708TIP3   OH232080   4.991   3.924   2.777
10708TIP3    H132081   5.050   3.865   2.824
10708TIP3    H232082   4.960   3.873   2.702
10709TIP3   OH232083   5.018   2.704   0.648
10709TIP3    H132084   5.035   2.722   0.556
10709TIP3    H232085   5.063   2.775   0.695
10710TIP3   OH232086   1.381   7.155   4.901
10710TIP3    H132087   1.473   7.137   4.916
10710TIP3    H232088   1.371   7.248   4.920
10711TIP3   OH232089   4.370   3.090   4.525
10711TIP3    H132090   4.444   3.151   4.519
10711TIP3    H232091   4.393   3.019   4.465
10712TIP3   OH232092   6.977   1.151   0.796
10712TIP3    H132093   7.027   1.070   0.787
10712TIP3    H232094   6.909   1.130   0.861
10713TIP3   OH232095   6.703   1.911   5.782
10713TIP3    H132096   6.785   1.867   5.805
10713TIP3    H232097   6.724   1.964   5.706
10714TIP3   OH232098   3.746   0.061   4.086
10714TIP3    H132099   3.676  -0.004   4.093
10714TIP3    H232100   3.826   0.012   4.104
10715TIP3   OH232101   7.350   3.400   4.123
10715TIP3    H132102   7.347   3.329   4.187
10715TIP3    H232103   7.320   3.477   4.172
10716TIP3   OH232104   4.784   0.971   0.369
10716TIP3    H132105   4.716   1.017   0.417
10716TIP3    H232106   4.848   0.946   0.436
10717TIP3   OH232107   3.999   2.607   6.141
10717TIP3    H132108   3.930   2.564   6.091
10717TIP3    H232109   4.016   2.548   6.215
10718TIP3   OH232110   0.705   5.395   3.335
10718TIP3    H132111   0.746   5.432   3.257
10718TIP3    H232112   0.622   5.359   3.304
10719TIP3   OH232113   1.396   2.807   5.083
10719TIP3    H132114   1.398   2.846   4.996
10719TIP3    H232115   1.351   2.724   5.071
10720TIP3   OH232116   8.167   5.335   2.307
10720TIP3    H132117   8.076   5.317   2.332
10720TIP3    H232118   8.165   5.343   2.212
10721TIP3   OH232119   4.246   4.057   5.308
10721TIP3    H132120   4.324   4.003   5.323
10721TIP3    H232121   4.185   4.030   5.377
10722TIP3   OH232122   7.132   1.854   0.070
10722TIP3    H132123   7.182   1.892   0.142
10722TIP3    H232124   7.175   1.886  -0.009
10723TIP3   OH232125   0.731   3.349   3.300
10723TIP3    H132126   0.773   3.299   3.370
10723TIP3    H232127   0.783   3.430   3.294
10724TIP3   OH232128   3.141   0.205   5.100
10724TIP3    H132129   3.104   0.153   5.029
10724TIP3    H232130   3.236   0.197   5.089
10725TIP3   OH232131   1.180   7.733   5.780
10725TIP3    H132132   1.201   7.745   5.873
10725TIP3    H232133   1.097   7.686   5.781
10726TIP3   OH232134   7.521   5.293   5.938
10726TIP3    H132135   7.524   5.199   5.957
10726TIP3    H232136   7.491   5.298   5.847
10727TIP3   OH232137   1.749   1.951   5.408
10727TIP3    H132138   1.654   1.962   5.416
10727TIP3    H232139   1.784   2.038   5.429
10728TIP3   OH232140   5.665   7.198   6.497
10728TIP3    H132141   5.619   7.126   6.454
10728TIP3    H232142   5.623   7.277   6.463
10729TIP3   OH232143   2.256   1.879   1.467
10729TIP3    H132144   2.226   1.942   1.532
10729TIP3    H232145   2.260   1.929   1.385
10730TIP3   OH232146   0.198   0.724   0.549
10730TIP3    H132147   0.118   0.740   0.599
10730TIP3    H232148   0.194   0.788   0.477
10731TIP3   OH232149   6.866   4.797   5.338
10731TIP3    H132150   6.840   4.707   5.319
10731TIP3    H232151   6.951   4.789   5.383
10732TIP3   OH232152   0.693   1.183   3.400
10732TIP3    H132153   0.747   1.103   3.403
10732TIP3    H232154   0.679   1.205   3.492
10733TIP3   OH232155   2.835   0.192   3.051
10733TIP3    H132156   2.809   0.192   2.959
10733TIP3    H232157   2.926   0.223   3.051
10734TIP3   OH232158   3.662   1.866   2.692
10734TIP3    H132159   3.685   1.856   2.784
10734TIP3    H232160   3.576   1.910   2.694
10735TIP3   OH232161   5.118   6.671   5.437
10735TIP3    H132162   5.099   6.759   5.404
10735TIP3    H232163   5.214   6.666   5.436
10736TIP3   OH232164   4.666   0.623   4.410
10736TIP3    H132165   4.593   0.565   4.388
10736TIP3    H232166   4.649   0.649   4.501
10737TIP3   OH232167   4.496   5.491   4.889
10737TIP3    H132168   4.573   5.515   4.941
10737TIP3    H232169   4.438   5.447   4.952
10738TIP3   OH232170   4.791   2.390   0.843
10738TIP3    H132171   4.773   2.343   0.924
10738TIP3    H232172   4.880   2.425   0.856
10739TIP3   OH232173   6.456   1.264   0.592
10739TIP3    H132174   6.547   1.239   0.578
10739TIP3    H232175   6.461   1.340   0.650
10740TIP3   OH232176   5.037   6.381   5.744
10740TIP3    H132177   5.118   6.331   5.747
10740TIP3    H232178   5.020   6.395   5.651
10741TIP3   OH232179   1.996   7.476   3.928
10741TIP3    H132180   2.053   7.456   4.002
10741TIP3    H232181   2.053   7.469   3.851
10742TIP3   OH232182   3.412   6.285   5.742
10742TIP3    H132183   3.444   6.203   5.705
10742TIP3    H232184   3.487   6.344   5.740
10743TIP3   OH232185   6.424   0.733   5.971
10743TIP3    H132186   6.337   0.770   5.953
10743TIP3    H232187   6.484   0.789   5.920
10744TIP3   OH232188   1.203   1.500   6.132
10744TIP3    H132189   1.140   1.484   6.202
10744TIP3    H232190   1.279   1.446   6.156
10745TIP3   OH232191   0.936   1.301   2.732
10745TIP3    H132192   0.941   1.383   2.781
10745TIP3    H232193   0.843   1.277   2.736
10746TIP3   OH232194   8.140   1.947   6.300
10746TIP3    H132195   8.170   1.868   6.346
10746TIP3    H232196   8.111   2.005   6.371
10747TIP3   OH232197   7.905   2.534   1.843
10747TIP3    H132198   7.988   2.533   1.795
10747TIP3    H232199   7.850   2.594   1.794
10748TIP3   OH232200   1.790   7.779   2.822
10748TIP3    H132201   1.866   7.722   2.827
10748TIP3    H232202   1.826   7.866   2.807
10749TIP3   OH232203   6.998   3.815   4.358
10749TIP3    H132204   6.909   3.810   4.393
10749TIP3    H232205   7.052   3.768   4.422
10750TIP3   OH232206   1.636   3.199   3.052
10750TIP3    H132207   1.601   3.278   3.093
10750TIP3    H232208   1.559   3.146   3.033
10751TIP3   OH232209   0.622   6.664   2.316
10751TIP3    H132210   0.651   6.675   2.226
10751TIP3    H232211   0.687   6.712   2.368
10752TIP3   OH232212   4.829   6.496   1.208
10752TIP3    H132213   4.807   6.437   1.280
10752TIP3    H232214   4.822   6.442   1.129
10753TIP3   OH232215   7.169   7.396   1.218
10753TIP3    H132216   7.259   7.417   1.193
10753TIP3    H232217   7.177   7.315   1.269
10754TIP3   OH232218   2.975   4.404   2.904
10754TIP3    H132219   2.908   4.337   2.889
10754TIP3    H232220   3.053   4.370   2.861
10755TIP3   OH232221   4.557   5.559   6.025
10755TIP3    H132222   4.626   5.497   6.004
10755TIP3    H232223   4.601   5.627   6.077
10756TIP3   OH232224   6.863   2.592   5.612
10756TIP3    H132225   6.908   2.510   5.592
10756TIP3    H232226   6.912   2.658   5.564
10757TIP3   OH232227   3.723   1.263   2.062
10757TIP3    H132228   3.677   1.287   2.143
10757TIP3    H232229   3.697   1.330   1.999
10758TIP3   OH232230   2.875   0.834   3.853
10758TIP3    H132231   2.834   0.899   3.910
10758TIP3    H232232   2.943   0.883   3.806
10759TIP3   OH232233   7.912   4.324   5.976
10759TIP3    H132234   7.868   4.303   5.894
10759TIP3    H232235   7.847   4.374   6.026
10760TIP3   OH232236   7.564   3.641   3.724
10760TIP3    H132237   7.572   3.617   3.632
10760TIP3    H232238   7.470   3.656   3.738
10761TIP3   OH232239   4.252   6.772   6.496
10761TIP3    H132240   4.221   6.716   6.425
10761TIP3    H232241   4.319   6.827   6.456
10762TIP3   OH232242   3.155   7.701   4.053
10762TIP3    H132243   3.180   7.729   3.964
10762TIP3    H232244   3.082   7.641   4.039
10763TIP3   OH232245   2.505   1.958   0.825
10763TIP3    H132246   2.498   2.008   0.744
10763TIP3    H232247   2.590   1.982   0.860
10764TIP3   OH232248   3.238   1.398   4.916
10764TIP3    H132249   3.305   1.461   4.890
10764TIP3    H232250   3.236   1.335   4.844
10765TIP3   OH232251   3.551   2.276   2.465
10765TIP3    H132252   3.609   2.342   2.504
10765TIP3    H232253   3.478   2.327   2.429
10766TIP3   OH232254   4.743   6.498   6.790
10766TIP3    H132255   4.664   6.498   6.844
10766TIP3    H232256   4.712   6.515   6.701
10767TIP3   OH232257   7.287   0.427   2.143
10767TIP3    H132258   7.203   0.392   2.173
10767TIP3    H232259   7.283   0.421   2.047
10768TIP3   OH232260   6.280   7.469   6.089
10768TIP3    H132261   6.318   7.384   6.112
10768TIP3    H232262   6.316   7.530   6.154
10769TIP3   OH232263   2.520   0.968   1.170
10769TIP3    H132264   2.435   0.933   1.142
10769TIP3    H232265   2.567   0.986   1.088
10770TIP3   OH232266   7.867   6.243   5.159
10770TIP3    H132267   7.810   6.221   5.233
10770TIP3    H232268   7.952   6.207   5.183
10771TIP3   OH232269   5.994   0.864   0.104
10771TIP3    H132270   6.086   0.837   0.097
10771TIP3    H232271   5.951   0.823   0.030
10772TIP3   OH232272   0.798   0.594   0.871
10772TIP3    H132273   0.704   0.586   0.883
10772TIP3    H232274   0.809   0.664   0.807
10773TIP3   OH232275   3.417   3.311   0.624
10773TIP3    H132276   3.411   3.407   0.617
10773TIP3    H232277   3.468   3.296   0.703
10774TIP3   OH232278   3.988   4.566   0.974
10774TIP3    H132279   4.050   4.639   0.967
10774TIP3    H232280   4.042   4.487   0.965
10775TIP3   OH232281   2.350   1.087   4.386
10775TIP3    H132282   2.366   1.007   4.437
10775TIP3    H232283   2.433   1.135   4.391
10776TIP3   OH232284   2.047   7.326   2.846
10776TIP3    H132285   2.008   7.308   2.932
10776TIP3    H232286   2.124   7.269   2.843
10777TIP3   OH232287   8.193   3.580   0.832
10777TIP3    H132288   8.181   3.490   0.863
10777TIP3    H232289   8.248   3.571   0.754
10778TIP3   OH232290   7.885   2.356   1.110
10778TIP3    H132291   7.863   2.399   1.193
10778TIP3    H232292   7.979   2.341   1.115
10779TIP3   OH232293   0.125   2.806   0.155
10779TIP3    H132294   0.130   2.852   0.239
10779TIP3    H232295   0.140   2.874   0.089
10780TIP3   OH232296   2.410   5.190   5.628
10780TIP3    H132297   2.385   5.177   5.537
10780TIP3    H232298   2.505   5.180   5.629
10781TIP3   OH232299   0.651   7.464   4.074
10781TIP3    H132300   0.556   7.464   4.087
10781TIP3    H232301   0.677   7.554   4.090
10782TIP3   OH232302   7.031   5.489   5.305
10782TIP3    H132303   7.055   5.416   5.248
10782TIP3    H232304   6.983   5.449   5.377
10783TIP3   OH232305   5.389   7.247   3.674
10783TIP3    H132306   5.395   7.157   3.705
10783TIP3    H232307   5.377   7.299   3.753
10784TIP3   OH232308   4.155   1.167   0.711
10784TIP3    H132309   4.096   1.219   0.656
10784TIP3    H232310   4.240   1.175   0.667
10785TIP3   OH232311   1.148   3.903   5.324
10785TIP3    H132312   1.185   3.948   5.248
10785TIP3    H232313   1.153   3.967   5.395
10786TIP3   OH232314   5.652   6.462   0.938
10786TIP3    H132315   5.707   6.384   0.930
10786TIP3    H232316   5.574   6.433   0.986
10787TIP3   OH232317   7.576   7.124   4.468
10787TIP3    H132318   7.578   7.219   4.458
10787TIP3    H232319   7.566   7.110   4.562
10788TIP3   OH232320   4.008   5.812   5.580
10788TIP3    H132321   3.976   5.902   5.578
10788TIP3    H232322   3.959   5.768   5.510
10789TIP3   OH232323   2.748   0.290   5.616
10789TIP3    H132324   2.815   0.223   5.628
10789TIP3    H232325   2.796   0.373   5.620
10790TIP3   OH232326   5.031   4.204   2.682
10790TIP3    H132327   4.971   4.178   2.752
10790TIP3    H232328   5.110   4.152   2.698
10791TIP3   OH232329   0.991   1.474   1.916
10791TIP3    H132330   1.006   1.548   1.857
10791TIP3    H232331   0.898   1.454   1.907
10792TIP3   OH232332   8.133   4.600   5.500
10792TIP3    H132333   8.095   4.576   5.416
10792TIP3    H232334   8.174   4.520   5.531
10793TIP3   OH232335   1.403   0.331   3.858
10793TIP3    H132336   1.334   0.267   3.875
10793TIP3    H232337   1.446   0.298   3.779
10794TIP3   OH232338   6.939   2.829   2.867
10794TIP3    H132339   7.023   2.796   2.835
10794TIP3    H232340   6.891   2.853   2.788
10795TIP3   OH232341   2.292   7.578   0.816
10795TIP3    H132342   2.282   7.617   0.729
10795TIP3    H232343   2.258   7.489   0.807
10796TIP3   OH232344   6.500   4.301   4.223
10796TIP3    H132345   6.457   4.288   4.307
10796TIP3    H232346   6.484   4.219   4.175
10797TIP3   OH232347   3.683   0.047   2.360
10797TIP3    H132348   3.758   0.026   2.415
10797TIP3    H232349   3.718   0.109   2.296
10798TIP3   OH232350   6.555   0.931   0.875
10798TIP3    H132351   6.537   0.867   0.944
10798TIP3    H232352   6.468   0.959   0.846
10799TIP3   OH232353   4.892   3.740   5.912
10799TIP3    H132354   4.878   3.692   5.831
10799TIP3    H232355   4.913   3.673   5.977
10800TIP3   OH232356   2.599   0.818   0.184
10800TIP3    H132357   2.656   0.892   0.160
10800TIP3    H232358   2.612   0.808   0.279
10801TIP3   OH232359   5.089   0.307   4.459
10801TIP3    H132360   5.176   0.279   4.431
10801TIP3    H232361   5.046   0.334   4.378
10802TIP3   OH232362   2.641   0.069   4.559
10802TIP3    H132363   2.611   0.033   4.642
10802TIP3    H232364   2.583   0.144   4.543
10803TIP3   OH232365   4.656   3.725   1.849
10803TIP3    H132366   4.579   3.713   1.794
10803TIP3    H232367   4.637   3.803   1.901
10804TIP3   OH232368   2.423   2.616   3.159
10804TIP3    H132369   2.333   2.613   3.193
10804TIP3    H232370   2.472   2.560   3.219
10805TIP3   OH232371   3.375   2.737   3.730
10805TIP3    H132372   3.434   2.754   3.804
10805TIP3    H232373   3.433   2.723   3.655
10806TIP3   OH232374   6.190   7.674   0.724
10806TIP3    H132375   6.176   7.584   0.753
10806TIP3    H232376   6.198   7.669   0.629
10807TIP3   OH232377   3.674   0.526   0.657
10807TIP3    H132378   3.680   0.453   0.596
10807TIP3    H232379   3.763   0.561   0.662
10808TIP3   OH232380   5.917   5.009   5.375
10808TIP3    H132381   5.987   5.031   5.437
10808TIP3    H232382   5.945   4.927   5.334
10809TIP3   OH232383   1.054   2.885   4.982
10809TIP3    H132384   1.047   2.854   4.892
10809TIP3    H232385   1.086   2.810   5.032
10810TIP3   OH232386   8.143   6.274   1.927
10810TIP3    H132387   8.056   6.244   1.903
10810TIP3    H232388   8.203   6.212   1.886
10811TIP3   OH232389   5.299   0.066   4.985
10811TIP3    H132390   5.272   0.126   5.054
10811TIP3    H232391   5.218   0.026   4.955
10812TIP3   OH232392   1.235   7.038   3.262
10812TIP3    H132393   1.241   6.976   3.336
10812TIP3    H232394   1.275   6.991   3.189
10813TIP3   OH232395   3.215   5.566   6.189
10813TIP3    H132396   3.269   5.559   6.268
10813TIP3    H232397   3.137   5.614   6.217
10814TIP3   OH232398   1.116   3.978   1.063
10814TIP3    H132399   1.048   3.969   1.130
10814TIP3    H232400   1.169   4.052   1.092
10815TIP3   OH232401   4.878   1.884   4.716
10815TIP3    H132402   4.897   1.812   4.776
10815TIP3    H232403   4.925   1.959   4.753
10816TIP3   OH232404   7.945   6.329   6.663
10816TIP3    H132405   7.971   6.272   6.735
10816TIP3    H232406   7.929   6.414   6.704
10817TIP3   OH232407   2.679   4.596   0.997
10817TIP3    H132408   2.624   4.607   1.074
10817TIP3    H232409   2.761   4.640   1.019
10818TIP3   OH232410   6.508   0.618   1.326
10818TIP3    H132411   6.542   0.536   1.291
10818TIP3    H232412   6.547   0.624   1.414
10819TIP3   OH232413   5.071   0.804   4.380
10819TIP3    H132414   5.117   0.755   4.448
10819TIP3    H232415   5.139   0.827   4.316
10820TIP3   OH232416   1.087   2.263   5.500
10820TIP3    H132417   1.063   2.352   5.474
10820TIP3    H232418   1.089   2.267   5.596
10821TIP3   OH232419   5.256   2.950   5.766
10821TIP3    H132420   5.272   2.869   5.718
10821TIP3    H232421   5.216   2.921   5.848
10822TIP3   OH232422   5.386   6.729   6.664
10822TIP3    H132423   5.308   6.700   6.710
10822TIP3    H232424   5.387   6.678   6.583
10823TIP3   OH232425   2.156   0.901   1.593
10823TIP3    H132426   2.170   0.809   1.616
10823TIP3    H232427   2.130   0.899   1.501
10824TIP3   OH232428   6.618   0.362   3.310
10824TIP3    H132429   6.623   0.403   3.396
10824TIP3    H232430   6.598   0.435   3.251
10825TIP3   OH232431   0.146   6.592   5.442
10825TIP3    H132432   0.068   6.550   5.477
10825TIP3    H232433   0.217   6.532   5.464
10826TIP3   OH232434   4.128   0.451   3.212
10826TIP3    H132435   4.120   0.369   3.164
10826TIP3    H232436   4.161   0.425   3.298
10827TIP3   OH232437   5.028   3.486   5.348
10827TIP3    H132438   5.009   3.575   5.377
10827TIP3    H232439   4.952   3.462   5.294
10828TIP3   OH232440   7.182   5.557   1.060
10828TIP3    H132441   7.211   5.470   1.087
10828TIP3    H232442   7.253   5.615   1.085
10829TIP3   OH232443   7.593   0.929   0.128
10829TIP3    H132444   7.645   0.992   0.077
10829TIP3    H232445   7.578   0.856   0.068
10830TIP3   OH232446   2.766   1.328   4.484
10830TIP3    H132447   2.680   1.286   4.489
10830TIP3    H232448   2.753   1.403   4.425
10831TIP3   OH232449   4.372   6.582   1.193
10831TIP3    H132450   4.374   6.670   1.230
10831TIP3    H232451   4.327   6.529   1.259
10832TIP3   OH232452   5.029   0.396   1.785
10832TIP3    H132453   5.122   0.381   1.803
10832TIP3    H232454   5.005   0.326   1.724
10833TIP3   OH232455   3.890   1.291   3.198
10833TIP3    H132456   3.836   1.213   3.209
10833TIP3    H232457   3.867   1.323   3.110
10834TIP3   OH232458   1.022   0.256   0.615
10834TIP3    H132459   0.969   0.328   0.582
10834TIP3    H232460   0.960   0.183   0.625
10835TIP3   OH232461   1.985   0.940   0.290
10835TIP3    H132462   1.965   0.862   0.343
10835TIP3    H232463   2.033   0.906   0.215
10836TIP3   OH232464   3.401   3.904   1.224
10836TIP3    H132465   3.313   3.926   1.192
10836TIP3    H232466   3.388   3.885   1.317
10837TIP3   OH232467   3.207   2.468   5.831
10837TIP3    H132468   3.225   2.402   5.763
10837TIP3    H232469   3.175   2.418   5.905
10838TIP3   OH232470   8.013   1.541   1.516
10838TIP3    H132471   8.027   1.622   1.564
10838TIP3    H232472   8.019   1.566   1.424
10839TIP3   OH232473   4.756   5.877   6.549
10839TIP3    H132474   4.828   5.910   6.496
10839TIP3    H232475   4.782   5.896   6.639
10840TIP3   OH232476   7.142   4.909   0.820
10840TIP3    H132477   7.073   4.847   0.844
10840TIP3    H232478   7.223   4.866   0.846
10841TIP3   OH232479   4.006   3.778   6.481
10841TIP3    H132480   4.089   3.769   6.528
10841TIP3    H232481   4.026   3.750   6.391
10842TIP3   OH232482   4.646   3.515   6.090
10842TIP3    H132483   4.741   3.519   6.088
10842TIP3    H232484   4.620   3.585   6.150
10843TIP3   OH232485   7.413   3.185   1.997
10843TIP3    H132486   7.419   3.184   1.902
10843TIP3    H232487   7.350   3.255   2.017
10844TIP3   OH232488   2.571   4.532   5.525
10844TIP3    H132489   2.516   4.474   5.576
10844TIP3    H232490   2.537   4.526   5.435
10845TIP3   OH232491   6.478   4.496   1.033
10845TIP3    H132492   6.514   4.441   1.102
10845TIP3    H232493   6.537   4.484   0.959
10846TIP3   OH232494   6.598   4.030   1.878
10846TIP3    H132495   6.606   3.936   1.895
10846TIP3    H232496   6.549   4.035   1.796
10847TIP3   OH232497   6.867   4.969   0.691
10847TIP3    H132498   6.899   5.005   0.773
10847TIP3    H232499   6.784   5.014   0.676
10848TIP3   OH232500   7.583   5.017   1.866
10848TIP3    H132501   7.569   4.981   1.953
10848TIP3    H232502   7.540   5.103   1.868
10849TIP3   OH232503   8.061   6.321   4.511
10849TIP3    H132504   8.042   6.296   4.601
10849TIP3    H232505   7.981   6.300   4.463
10850TIP3   OH232506   3.175   6.282   4.053
10850TIP3    H132507   3.189   6.246   4.140
10850TIP3    H232508   3.094   6.242   4.023
10851TIP3   OH232509   0.109   4.623   3.749
10851TIP3    H132510   0.092   4.687   3.818
10851TIP3    H232511   0.191   4.651   3.710
10852TIP3   OH232512   0.087   7.325   1.166
10852TIP3    H132513   0.163   7.327   1.225
10852TIP3    H232514   0.060   7.234   1.164
10853TIP3   OH232515   8.186   6.743   6.186
10853TIP3    H132516   8.160   6.833   6.164
10853TIP3    H232517   8.191   6.742   6.282
10854TIP3   OH232518   5.634   7.649   5.157
10854TIP3    H132519   5.604   7.661   5.067
10854TIP3    H232520   5.722   7.686   5.159
10855TIP3   OH232521   6.168   7.329   0.152
10855TIP3    H132522   6.073   7.343   0.153
10855TIP3    H232523   6.182   7.261   0.087
10856TIP3   OH232524   7.596   3.946   3.706
10856TIP3    H132525   7.574   3.853   3.701
10856TIP3    H232526   7.521   3.986   3.749
10857TIP3   OH232527   2.251   0.091   3.942
10857TIP3    H132528   2.248   0.178   3.902
10857TIP3    H232529   2.210   0.033   3.878
10858TIP3   OH232530   0.456   0.415   2.368
10858TIP3    H132531   0.379   0.436   2.315
10858TIP3    H232532   0.526   0.403   2.305
10859TIP3   OH232533   3.345   4.614   4.095
10859TIP3    H132534   3.283   4.544   4.113
10859TIP3    H232535   3.294   4.695   4.103
10860TIP3   OH232536   1.980   2.437   6.295
10860TIP3    H132537   1.934   2.417   6.377
10860TIP3    H232538   2.023   2.355   6.271
10861TIP3   OH232539   1.372   4.759   1.326
10861TIP3    H132540   1.320   4.839   1.325
10861TIP3    H232541   1.329   4.702   1.263
10862TIP3   OH232542   3.882   4.373   6.453
10862TIP3    H132543   3.886   4.465   6.426
10862TIP3    H232544   3.797   4.343   6.423
10863TIP3   OH232545   4.458   3.354   4.207
10863TIP3    H132546   4.384   3.360   4.268
10863TIP3    H232547   4.510   3.281   4.239
10864TIP3   OH232548   4.942   0.200   4.177
10864TIP3    H132549   4.900   0.116   4.194
10864TIP3    H232550   4.937   0.247   4.260
10865TIP3   OH232551   1.365   5.431   4.705
10865TIP3    H132552   1.448   5.391   4.728
10865TIP3    H232553   1.305   5.357   4.695
10866TIP3   OH232554   8.171   0.482   6.138
10866TIP3    H132555   8.103   0.427   6.178
10866TIP3    H232556   8.253   0.442   6.167
10867TIP3   OH232557   7.234   6.023   1.823
10867TIP3    H132558   7.186   5.946   1.793
10867TIP3    H232559   7.165   6.084   1.851
10868TIP3   OH232560   4.331   4.024   1.833
10868TIP3    H132561   4.315   4.091   1.767
10868TIP3    H232562   4.305   3.942   1.791
10869TIP3   OH232563   0.657   1.557   5.071
10869TIP3    H132564   0.596   1.568   4.998
10869TIP3    H232565   0.677   1.646   5.100
10870TIP3   OH232566   8.275   1.432   2.857
10870TIP3    H132567   8.244   1.456   2.944
10870TIP3    H232568   8.276   1.337   2.856
10871TIP3   OH232569   2.818   4.175   5.120
10871TIP3    H132570   2.791   4.262   5.089
10871TIP3    H232571   2.778   4.167   5.206
10872TIP3   OH232572   5.778   6.971   2.303
10872TIP3    H132573   5.813   6.906   2.241
10872TIP3    H232574   5.689   6.941   2.322
10873TIP3   OH232575   3.875   5.588   1.978
10873TIP3    H132576   3.912   5.527   1.914
10873TIP3    H232577   3.782   5.592   1.955
10874TIP3   OH232578   2.436   3.761   2.165
10874TIP3    H132579   2.438   3.756   2.261
10874TIP3    H232580   2.503   3.699   2.136
10875TIP3   OH232581   1.450   1.339   6.165
10875TIP3    H132582   1.539   1.354   6.197
10875TIP3    H232583   1.458   1.344   6.070
10876TIP3   OH232584   4.263   3.208   3.159
10876TIP3    H132585   4.276   3.192   3.253
10876TIP3    H232586   4.210   3.135   3.129
10877TIP3   OH232587   3.452   5.930   4.751
10877TIP3    H132588   3.368   5.934   4.796
10877TIP3    H232589   3.475   6.021   4.732
10878TIP3   OH232590   4.910   4.991   5.016
10878TIP3    H132591   4.945   5.079   5.005
10878TIP3    H232592   4.833   4.989   4.959
10879TIP3   OH232593   7.083   3.262   2.598
10879TIP3    H132594   7.139   3.317   2.653
10879TIP3    H232595   7.017   3.321   2.563
10880TIP3   OH232596   1.978   5.724   0.442
10880TIP3    H132597   1.980   5.761   0.354
10880TIP3    H232598   1.914   5.652   0.436
10881TIP3   OH232599   0.532   4.933   1.245
10881TIP3    H132600   0.541   4.921   1.340
10881TIP3    H232601   0.446   4.973   1.234
10882TIP3   OH232602   0.803   3.340   2.353
10882TIP3    H132603   0.771   3.360   2.265
10882TIP3    H232604   0.848   3.256   2.344
10883TIP3   OH232605   5.016   1.944   2.296
10883TIP3    H132606   5.087   1.881   2.289
10883TIP3    H232607   5.008   1.982   2.209
10884TIP3   OH232608   1.580   7.694   0.872
10884TIP3    H132609   1.617   7.771   0.916
10884TIP3    H232610   1.516   7.660   0.935
10885TIP3   OH232611   1.525   4.787   1.091
10885TIP3    H132612   1.498   4.786   1.183
10885TIP3    H232613   1.620   4.773   1.094
10886TIP3   OH232614   0.472   4.757   3.304
10886TIP3    H132615   0.434   4.712   3.228
10886TIP3    H232616   0.532   4.822   3.267
10887TIP3   OH232617   7.674   3.152   0.328
10887TIP3    H132618   7.600   3.124   0.383
10887TIP3    H232619   7.700   3.072   0.283
10888TIP3   OH232620   7.946   6.461   1.371
10888TIP3    H132621   8.029   6.500   1.398
10888TIP3    H232622   7.912   6.422   1.451
10889TIP3   OH232623   1.653   4.008   4.917
10889TIP3    H132624   1.624   4.036   5.004
10889TIP3    H232625   1.720   4.071   4.893
10890TIP3   OH232626   0.249   5.318   6.619
10890TIP3    H132627   0.275   5.381   6.687
10890TIP3    H232628   0.292   5.349   6.540
10891TIP3   OH232629   5.328   0.957   2.604
10891TIP3    H132630   5.395   0.934   2.539
10891TIP3    H232631   5.315   1.051   2.592
10892TIP3   OH232632   3.509   1.265   3.143
10892TIP3    H132633   3.461   1.313   3.210
10892TIP3    H232634   3.498   1.318   3.064
10893TIP3   OH232635   1.304   0.402   2.220
10893TIP3    H132636   1.269   0.360   2.299
10893TIP3    H232637   1.239   0.468   2.197
10894TIP3   OH232638   0.620   5.752   0.593
10894TIP3    H132639   0.643   5.830   0.543
10894TIP3    H232640   0.701   5.728   0.638
10895TIP3   OH232641   6.467   3.801   0.278
10895TIP3    H132642   6.382   3.827   0.243
10895TIP3    H232643   6.502   3.880   0.318
10896TIP3   OH232644   5.456   4.611   1.243
10896TIP3    H132645   5.413   4.527   1.253
10896TIP3    H232646   5.439   4.657   1.325
10897TIP3   OH232647   6.544   4.235   2.874
10897TIP3    H132648   6.628   4.278   2.859
10897TIP3    H232649   6.529   4.243   2.969
10898TIP3   OH232650   5.427   0.402   3.621
10898TIP3    H132651   5.338   0.415   3.654
10898TIP3    H232652   5.441   0.308   3.629
10899TIP3   OH232653   3.487   4.504   3.065
10899TIP3    H132654   3.447   4.490   3.151
10899TIP3    H232655   3.428   4.566   3.022
10900TIP3   OH232656   6.175   2.850   2.214
10900TIP3    H132657   6.194   2.797   2.137
10900TIP3    H232658   6.181   2.789   2.288
10901TIP3   OH232659   2.581   7.783   3.226
10901TIP3    H132660   2.592   7.877   3.207
10901TIP3    H232661   2.569   7.743   3.140
10902TIP3   OH232662   0.742   3.927   6.108
10902TIP3    H132663   0.662   3.876   6.119
10902TIP3    H232664   0.790   3.881   6.039
10903TIP3   OH232665   1.208   7.523   3.036
10903TIP3    H132666   1.231   7.447   3.090
10903TIP3    H232667   1.166   7.584   3.097
10904TIP3   OH232668   1.698   4.304   3.921
10904TIP3    H132669   1.780   4.310   3.970
10904TIP3    H232670   1.663   4.393   3.921
10905TIP3   OH232671   8.319   2.225   2.955
10905TIP3    H132672   8.328   2.261   2.867
10905TIP3    H232673   8.254   2.156   2.947
10906TIP3   OH232674   5.042   5.238   5.384
10906TIP3    H132675   5.038   5.209   5.474
10906TIP3    H232676   5.118   5.192   5.347
10907TIP3   OH232677   5.897   3.004   4.857
10907TIP3    H132678   5.933   3.088   4.885
10907TIP3    H232679   5.909   2.947   4.933
10908TIP3   OH232680   7.311   6.032   3.473
10908TIP3    H132681   7.240   5.969   3.487
10908TIP3    H232682   7.363   5.994   3.402
10909TIP3   OH232683   4.737   2.642   0.563
10909TIP3    H132684   4.730   2.599   0.478
10909TIP3    H232685   4.821   2.615   0.598
10910TIP3   OH232686   0.539   2.016   1.074
10910TIP3    H132687   0.625   2.059   1.080
10910TIP3    H232688   0.500   2.031   1.160
10911TIP3   OH232689   8.094   7.744   0.335
10911TIP3    H132690   8.068   7.656   0.361
10911TIP3    H232691   8.104   7.791   0.418
10912TIP3   OH232692   6.665   7.371   1.891
10912TIP3    H132693   6.641   7.358   1.982
10912TIP3    H232694   6.582   7.383   1.846
10913TIP3   OH232695   6.833   4.605   5.999
10913TIP3    H132696   6.782   4.677   6.036
10913TIP3    H232697   6.915   4.606   6.048
10914TIP3   OH232698   7.259   1.334   5.410
10914TIP3    H132699   7.171   1.301   5.390
10914TIP3    H232700   7.265   1.330   5.506
10915TIP3   OH232701   3.556   1.936   1.274
10915TIP3    H132702   3.588   2.009   1.327
10915TIP3    H232703   3.509   1.880   1.337
10916TIP3   OH232704   6.924   3.161   1.793
10916TIP3    H132705   6.998   3.127   1.743
10916TIP3    H232706   6.864   3.194   1.727
10917TIP3   OH232707   7.752   1.753   1.866
10917TIP3    H132708   7.798   1.837   1.859
10917TIP3    H232709   7.661   1.773   1.843
10918TIP3   OH232710   0.507   3.127   3.324
10918TIP3    H132711   0.551   3.212   3.327
10918TIP3    H232712   0.497   3.102   3.416
10919TIP3   OH232713   3.543   1.096   2.295
10919TIP3    H132714   3.455   1.079   2.328
10919TIP3    H232715   3.549   1.192   2.292
10920TIP3   OH232716   6.550   6.774   3.563
10920TIP3    H132717   6.547   6.696   3.618
10920TIP3    H232718   6.460   6.804   3.557
10921TIP3   OH232719   3.265   4.704   3.018
10921TIP3    H132720   3.286   4.792   2.986
10921TIP3    H232721   3.211   4.719   3.095
10922TIP3   OH232722   3.549   4.371   1.368
10922TIP3    H132723   3.521   4.288   1.407
10922TIP3    H232724   3.512   4.370   1.280
10923TIP3   OH232725   1.264   6.577   1.640
10923TIP3    H132726   1.181   6.621   1.660
10923TIP3    H232727   1.311   6.576   1.723
10924TIP3   OH232728   4.046   6.885   0.824
10924TIP3    H132729   4.048   6.837   0.907
10924TIP3    H232730   4.138   6.903   0.804
10925TIP3   OH232731   6.415   6.627   4.347
10925TIP3    H132732   6.332   6.593   4.381
10925TIP3    H232733   6.394   6.716   4.317
10926TIP3   OH232734   6.981   4.432   4.406
10926TIP3    H132735   6.893   4.454   4.436
10926TIP3    H232736   7.036   4.443   4.484
10927TIP3   OH232737   5.261   3.069   0.090
10927TIP3    H132738   5.338   3.018   0.064
10927TIP3    H232739   5.287   3.114   0.170
10928TIP3   OH232740   2.019   1.317   6.349
10928TIP3    H132741   2.020   1.225   6.374
10928TIP3    H232742   2.067   1.361   6.419
10929TIP3   OH232743   7.771   1.436   2.236
10929TIP3    H132744   7.864   1.420   2.218
10929TIP3    H232745   7.725   1.385   2.169
10930TIP3   OH232746   2.965   0.314   4.521
10930TIP3    H132747   2.905   0.241   4.535
10930TIP3    H232748   2.948   0.341   4.431
10931TIP3   OH232749   0.208   4.208   4.049
10931TIP3    H132750   0.294   4.201   4.091
10931TIP3    H232751   0.145   4.199   4.120
10932TIP3   OH232752   5.927   2.212   4.711
10932TIP3    H132753   5.858   2.279   4.702
10932TIP3    H232754   6.002   2.261   4.746
10933TIP3   OH232755   5.617   6.712   0.883
10933TIP3    H132756   5.625   6.737   0.975
10933TIP3    H232757   5.643   6.620   0.880
10934TIP3   OH232758   5.788   4.573   3.022
10934TIP3    H132759   5.862   4.558   2.963
10934TIP3    H232760   5.721   4.615   2.967
10935TIP3   OH232761   3.114   1.760   4.945
10935TIP3    H132762   3.140   1.793   4.859
10935TIP3    H232763   3.187   1.704   4.972
10936TIP3   OH232764   2.281   1.500   6.045
10936TIP3    H132765   2.361   1.452   6.026
10936TIP3    H232766   2.247   1.525   5.959
10937TIP3   OH232767   4.775   1.839   4.382
10937TIP3    H132768   4.810   1.795   4.305
10937TIP3    H232769   4.721   1.773   4.426
10938TIP3   OH232770   1.271   1.434   1.934
10938TIP3    H132771   1.338   1.501   1.923
10938TIP3    H232772   1.285   1.374   1.860
10939TIP3   OH232773   7.052   0.306   1.283
10939TIP3    H132774   6.989   0.253   1.331
10939TIP3    H232775   7.015   0.394   1.285
10940TIP3   OH232776   7.779   5.379   2.919
10940TIP3    H132777   7.848   5.350   2.860
10940TIP3    H232778   7.822   5.392   3.003
10941TIP3   OH232779   1.510   5.332   2.478
10941TIP3    H132780   1.463   5.408   2.446
10941TIP3    H232781   1.463   5.257   2.442
10942TIP3   OH232782   7.027   4.479   2.960
10942TIP3    H132783   6.990   4.556   2.916
10942TIP3    H232784   7.013   4.496   3.053
10943TIP3   OH232785   1.424   3.676   0.568
10943TIP3    H132786   1.375   3.663   0.650
10943TIP3    H232787   1.389   3.610   0.509
10944TIP3   OH232788   8.054   4.403   1.006
10944TIP3    H132789   8.002   4.323   0.997
10944TIP3    H232790   8.133   4.375   1.052
10945TIP3   OH232791   2.648   6.833   3.367
10945TIP3    H132792   2.619   6.856   3.278
10945TIP3    H232793   2.581   6.773   3.400
10946TIP3   OH232794   7.011   1.464   1.701
10946TIP3    H132795   7.046   1.431   1.618
10946TIP3    H232796   6.918   1.442   1.699
10947TIP3   OH232797   5.011   0.639   1.384
10947TIP3    H132798   5.093   0.616   1.427
10947TIP3    H232799   4.962   0.557   1.380
10948TIP3   OH232800   6.942   5.522   1.183
10948TIP3    H132801   7.022   5.549   1.139
10948TIP3    H232802   6.966   5.522   1.276
10949TIP3   OH232803   3.294   5.909   2.297
10949TIP3    H132804   3.314   5.880   2.208
10949TIP3    H232805   3.212   5.957   2.289
10950TIP3   OH232806   6.275   7.003   6.528
10950TIP3    H132807   6.327   6.992   6.608
10950TIP3    H232808   6.184   7.004   6.559
10951TIP3   OH232809   5.004   7.529   5.008
10951TIP3    H132810   5.041   7.455   5.057
10951TIP3    H232811   5.071   7.549   4.942
10952TIP3   OH232812   7.243   6.721   0.492
10952TIP3    H132813   7.321   6.713   0.545
10952TIP3    H232814   7.246   6.647   0.432
10953TIP3   OH232815   1.640   1.109   5.486
10953TIP3    H132816   1.605   1.062   5.410
10953TIP3    H232817   1.667   1.194   5.451
10954TIP3   OH232818   7.556   5.777   3.493
10954TIP3    H132819   7.478   5.733   3.527
10954TIP3    H232820   7.625   5.712   3.501
10955TIP3   OH232821   4.658   5.323   3.211
10955TIP3    H132822   4.571   5.347   3.180
10955TIP3    H232823   4.718   5.365   3.150
10956TIP3   OH232824   5.877   6.783   2.090
10956TIP3    H132825   5.944   6.763   2.155
10956TIP3    H232826   5.925   6.820   2.016
10957TIP3   OH232827   1.920   7.363   0.409
10957TIP3    H132828   1.844   7.325   0.365
10957TIP3    H232829   1.989   7.298   0.399
10958TIP3   OH232830   1.766   6.229   1.001
10958TIP3    H132831   1.741   6.320   1.014
10958TIP3    H232832   1.785   6.223   0.907
10959TIP3   OH232833   3.867   2.194   1.026
10959TIP3    H132834   3.944   2.227   0.980
10959TIP3    H232835   3.812   2.271   1.038
10960TIP3   OH232836   5.492   6.975   3.730
10960TIP3    H132837   5.558   6.979   3.799
10960TIP3    H232838   5.498   6.887   3.694
10961TIP3   OH232839   7.344   7.057   3.553
10961TIP3    H132840   7.397   7.090   3.481
10961TIP3    H232841   7.262   7.106   3.547
10962TIP3   OH232842   6.109   5.786   2.581
10962TIP3    H132843   6.141   5.840   2.654
10962TIP3    H232844   6.188   5.767   2.530
10963TIP3   OH232845   0.121   6.906   2.644
10963TIP3    H132846   0.101   6.990   2.685
10963TIP3    H232847   0.101   6.920   2.551
10964TIP3   OH232848   2.887   6.205   5.559
10964TIP3    H132849   2.863   6.244   5.474
10964TIP3    H232850   2.980   6.184   5.550
10965TIP3   OH232851   3.365   5.511   6.417
10965TIP3    H132852   3.343   5.455   6.492
10965TIP3    H232853   3.449   5.477   6.386
10966TIP3   OH232854   0.031   4.588   4.601
10966TIP3    H132855   0.085   4.648   4.550
10966TIP3    H232856  -0.033   4.644   4.644
10967TIP3   OH232857   0.081   2.863   1.832
10967TIP3    H132858   0.071   2.949   1.791
10967TIP3    H232859   0.111   2.805   1.762
10968TIP3   OH232860   1.184   4.215   5.832
10968TIP3    H132861   1.230   4.153   5.774
10968TIP3    H232862   1.224   4.300   5.813
10969TIP3   OH232863   6.440   3.209   0.222
10969TIP3    H132864   6.463   3.301   0.234
10969TIP3    H232865   6.382   3.209   0.146
10970TIP3   OH232866   6.466   1.808   3.002
10970TIP3    H132867   6.406   1.810   3.076
10970TIP3    H232868   6.438   1.733   2.950
10971TIP3   OH232869   8.108   0.998   6.657
10971TIP3    H132870   8.088   0.973   6.747
10971TIP3    H232871   8.066   1.083   6.646
10972TIP3   OH232872   5.382   7.320   2.526
10972TIP3    H132873   5.460   7.373   2.541
10972TIP3    H232874   5.313   7.383   2.505
10973TIP3   OH232875   1.216   1.542   5.104
10973TIP3    H132876   1.183   1.455   5.128
10973TIP3    H232877   1.296   1.524   5.054
10974TIP3   OH232878   0.934   2.776   0.668
10974TIP3    H132879   0.844   2.783   0.637
10974TIP3    H232880   0.975   2.859   0.645
10975TIP3   OH232881   4.879   5.139   3.902
10975TIP3    H132882   4.814   5.072   3.882
10975TIP3    H232883   4.896   5.182   3.818
10976TIP3   OH232884   4.176   2.288   0.987
10976TIP3    H132885   4.174   2.223   1.058
10976TIP3    H232886   4.259   2.333   0.998
10977TIP3   OH232887   2.077   6.169   4.209
10977TIP3    H132888   2.065   6.258   4.174
10977TIP3    H232889   1.994   6.125   4.192
10978TIP3   OH232890   5.148   6.136   0.220
10978TIP3    H132891   5.208   6.199   0.261
10978TIP3    H232892   5.123   6.177   0.137
10979TIP3   OH232893   7.985   7.156   1.189
10979TIP3    H132894   7.962   7.207   1.111
10979TIP3    H232895   8.063   7.107   1.163
10980TIP3   OH232896   3.571   1.668   1.106
10980TIP3    H132897   3.516   1.662   1.185
10980TIP3    H232898   3.548   1.590   1.055
10981TIP3   OH232899   3.634   1.005   3.139
10981TIP3    H132900   3.716   1.024   3.093
10981TIP3    H232901   3.582   1.085   3.128
10982TIP3   OH232902   6.020   5.946   1.325
10982TIP3    H132903   6.109   5.931   1.294
10982TIP3    H232904   6.031   5.973   1.416
10983TIP3   OH232905   5.531   2.409   6.643
10983TIP3    H132906   5.619   2.435   6.616
10983TIP3    H232907   5.527   2.432   6.736
10984TIP3   OH232908   2.224   7.248   5.236
10984TIP3    H132909   2.204   7.155   5.247
10984TIP3    H232910   2.167   7.293   5.299
10985TIP3   OH232911   5.723   3.652   6.668
10985TIP3    H132912   5.691   3.735   6.704
10985TIP3    H232913   5.661   3.587   6.701
10986TIP3   OH232914   3.619   1.890   0.009
10986TIP3    H132915   3.563   1.815  -0.013
10986TIP3    H232916   3.706   1.851   0.023
10987TIP3   OH232917   7.796   1.122   6.648
10987TIP3    H132918   7.802   1.038   6.695
10987TIP3    H232919   7.710   1.156   6.672
10988TIP3   OH232920   0.078   3.609   5.702
10988TIP3    H132921   0.064   3.659   5.622
10988TIP3    H232922   0.165   3.635   5.732
10989TIP3   OH232923   2.405   2.420   0.296
10989TIP3    H132924   2.500   2.411   0.293
10989TIP3    H232925   2.383   2.467   0.215
10990TIP3   OH232926   2.258   5.032   0.191
10990TIP3    H132927   2.285   5.099   0.253
10990TIP3    H232928   2.194   5.075   0.135
10991TIP3   OH232929   7.252   6.216   6.209
10991TIP3    H132930   7.251   6.294   6.265
10991TIP3    H232931   7.167   6.216   6.166
10992TIP3   OH232932   0.422   7.667   3.344
10992TIP3    H132933   0.509   7.632   3.326
10992TIP3    H232934   0.366   7.628   3.276
10993TIP3   OH232935   1.773   7.438   2.269
10993TIP3    H132936   1.741   7.528   2.263
10993TIP3    H232937   1.760   7.402   2.182
10994TIP3   OH232938   7.539   6.663   0.209
10994TIP3    H132939   7.525   6.738   0.267
10994TIP3    H232940   7.630   6.638   0.223
10995TIP3   OH232941   7.675   1.894   3.722
10995TIP3    H132942   7.751   1.941   3.688
10995TIP3    H232943   7.700   1.802   3.718
10996TIP3   OH232944   6.726   6.976   3.008
10996TIP3    H132945   6.651   7.005   2.956
10996TIP3    H232946   6.709   6.883   3.025
10997TIP3   OH232947   3.073   4.378   4.254
10997TIP3    H132948   3.033   4.413   4.334
10997TIP3    H232949   3.057   4.445   4.188
10998TIP3   OH232950   6.184   1.795   4.102
10998TIP3    H132951   6.270   1.769   4.069
10998TIP3    H232952   6.168   1.881   4.063
10999TIP3   OH232953   4.964   6.977   6.178
10999TIP3    H132954   4.956   6.882   6.188
10999TIP3    H232955   5.021   7.003   6.251
11000TIP3   OH232956   4.365   0.892   0.521
11000TIP3    H132957   4.276   0.914   0.494
11000TIP3    H232958   4.376   0.937   0.604
11001TIP3   OH232959   1.783   4.879   4.486
11001TIP3    H132960   1.846   4.949   4.467
11001TIP3    H232961   1.821   4.832   4.560
11002TIP3   OH232962   4.196   7.637   1.405
11002TIP3    H132963   4.201   7.702   1.475
11002TIP3    H232964   4.173   7.555   1.449
11003TIP3   OH232965   2.233   0.549   5.256
11003TIP3    H132966   2.251   0.629   5.304
11003TIP3    H232967   2.317   0.525   5.216
11004TIP3   OH232968   6.751   5.422   2.700
11004TIP3    H132969   6.822   5.380   2.650
11004TIP3    H232970   6.775   5.514   2.701
11005TIP3   OH232971   0.526   5.731   4.874
11005TIP3    H132972   0.592   5.741   4.804
11005TIP3    H232973   0.562   5.780   4.948
11006TIP3   OH232974   6.904   7.317   5.020
11006TIP3    H132975   6.902   7.379   4.947
11006TIP3    H232976   6.894   7.231   4.979
11007TIP3   OH232977   7.868   5.682   4.360
11007TIP3    H132978   7.889   5.734   4.437
11007TIP3    H232979   7.885   5.741   4.286
11008TIP3   OH232980   5.278   4.055   0.751
11008TIP3    H132981   5.320   4.104   0.680
11008TIP3    H232982   5.346   4.046   0.818
11009TIP3   OH232983   2.571   0.809   6.306
11009TIP3    H132984   2.606   0.797   6.217
11009TIP3    H232985   2.541   0.721   6.331
11010TIP3   OH232986   0.207   5.120   5.059
11010TIP3    H132987   0.275   5.055   5.080
11010TIP3    H232988   0.192   5.166   5.141
11011TIP3   OH232989   5.542   1.159   2.109
11011TIP3    H132990   5.563   1.085   2.051
11011TIP3    H232991   5.447   1.170   2.101
11012TIP3   OH232992   3.856   7.098   5.367
11012TIP3    H132993   3.915   7.135   5.432
11012TIP3    H232994   3.893   7.013   5.346
11013TIP3   OH232995   3.442   1.395   2.885
11013TIP3    H132996   3.358   1.441   2.888
11013TIP3    H232997   3.419   1.306   2.856
11014TIP3   OH232998   2.046   4.231   1.348
11014TIP3    H132999   1.976   4.169   1.370
11014TIP3    H233000   2.121   4.175   1.325
11015TIP3   OH233001   2.908   3.194   2.011
11015TIP3    H133002   2.881   3.175   2.101
11015TIP3    H233003   2.828   3.187   1.960
11016TIP3   OH233004   7.990   6.771   1.351
11016TIP3    H133005   8.027   6.770   1.439
11016TIP3    H233006   7.917   6.833   1.355
11017TIP3   OH233007   5.567   3.879   5.795
11017TIP3    H133008   5.577   3.784   5.788
11017TIP3    H233009   5.539   3.908   5.708
11018TIP3   OH233010   4.637   3.106   4.282
11018TIP3    H133011   4.605   3.065   4.202
11018TIP3    H233012   4.710   3.161   4.253
11019TIP3   OH233013   1.411   3.295   5.764
11019TIP3    H133014   1.408   3.324   5.855
11019TIP3    H233015   1.452   3.367   5.717
11020TIP3   OH233016   1.149   3.028   3.956
11020TIP3    H133017   1.108   2.982   4.029
11020TIP3    H233018   1.206   2.963   3.916
11021TIP3   OH233019   5.798   6.190   4.652
11021TIP3    H133020   5.790   6.123   4.584
11021TIP3    H233021   5.797   6.140   4.734
11022TIP3   OH233022   6.858   1.699   2.087
11022TIP3    H133023   6.850   1.788   2.122
11022TIP3    H233024   6.836   1.642   2.161
11023TIP3   OH233025   1.353   7.695   1.885
11023TIP3    H133026   1.351   7.675   1.979
11023TIP3    H233027   1.444   7.721   1.868
11024TIP3   OH233028   3.532   5.469   5.023
11024TIP3    H133029   3.451   5.447   5.069
11024TIP3    H233030   3.550   5.392   4.969
11025TIP3   OH233031   4.526   6.287   1.727
11025TIP3    H133032   4.546   6.262   1.637
11025TIP3    H233033   4.479   6.212   1.763
11026TIP3   OH233034   4.183   5.628   1.906
11026TIP3    H133035   4.128   5.575   1.963
11026TIP3    H233036   4.232   5.565   1.853
11027TIP3   OH233037   5.331   1.086   0.116
11027TIP3    H133038   5.246   1.046   0.137
11027TIP3    H233039   5.309   1.161   0.060
11028TIP3   OH233040   5.526   5.667   1.117
11028TIP3    H133041   5.559   5.634   1.034
11028TIP3    H233042   5.592   5.730   1.145
11029TIP3   OH233043   4.936   6.738   2.962
11029TIP3    H133044   4.994   6.814   2.967
11029TIP3    H233045   4.849   6.773   2.978
11030TIP3   OH233046   5.602   2.469   2.506
11030TIP3    H133047   5.653   2.408   2.454
11030TIP3    H233048   5.621   2.445   2.597
11031TIP3   OH233049   0.377   7.188   0.037
11031TIP3    H133050   0.464   7.208   0.072
11031TIP3    H233051   0.365   7.249  -0.036
11032TIP3   OH233052   8.206   3.337   2.906
11032TIP3    H133053   8.212   3.413   2.847
11032TIP3    H233054   8.118   3.302   2.891
11033TIP3   OH233055   3.376   1.299   2.046
11033TIP3    H133056   3.425   1.380   2.034
11033TIP3    H233057   3.394   1.273   2.136
11034TIP3   OH233058   7.382   4.108   1.388
11034TIP3    H133059   7.419   4.122   1.300
11034TIP3    H233060   7.458   4.112   1.446
11035TIP3   OH233061   0.179   3.272   2.053
11035TIP3    H133062   0.109   3.212   2.077
11035TIP3    H233063   0.229   3.284   2.134
11036TIP3   OH233064   5.290   6.588   6.409
11036TIP3    H133065   5.258   6.502   6.436
11036TIP3    H233066   5.379   6.572   6.377
11037TIP3   OH233067   3.908   6.485   2.692
11037TIP3    H133068   3.832   6.453   2.645
11037TIP3    H233069   3.873   6.523   2.772
11038TIP3   OH233070   4.793   3.292   4.140
11038TIP3    H133071   4.842   3.222   4.096
11038TIP3    H233072   4.764   3.350   4.069
11039TIP3   OH233073   5.968   4.313   1.541
11039TIP3    H133074   6.057   4.345   1.557
11039TIP3    H233075   5.961   4.233   1.592
11040TIP3   OH233076   6.889   2.764   1.703
11040TIP3    H133077   6.948   2.689   1.699
11040TIP3    H233078   6.944   2.837   1.731
11041TIP3   OH233079   3.853   2.946   1.510
11041TIP3    H133080   3.847   2.899   1.427
11041TIP3    H233081   3.921   2.900   1.560
11042TIP3   OH233082   1.165   1.438   4.808
11042TIP3    H133083   1.087   1.459   4.757
11042TIP3    H233084   1.156   1.490   4.888
11043TIP3   OH233085   4.738   2.654   6.735
11043TIP3    H133086   4.703   2.666   6.823
11043TIP3    H233087   4.762   2.561   6.731
11044TIP3   OH233088   5.417   5.082   6.063
11044TIP3    H133089   5.343   5.026   6.086
11044TIP3    H233090   5.420   5.148   6.132
11045TIP3   OH233091   6.210   1.038   3.598
11045TIP3    H133092   6.264   1.084   3.662
11045TIP3    H233093   6.268   0.973   3.559
11046TIP3   OH233094   5.492   2.803   4.651
11046TIP3    H133095   5.584   2.784   4.668
11046TIP3    H233096   5.468   2.866   4.719
11047TIP3   OH233097   1.694   1.501   1.418
11047TIP3    H133098   1.633   1.521   1.489
11047TIP3    H233099   1.767   1.562   1.432
11048TIP3   OH233100   2.378   0.744   5.732
11048TIP3    H133101   2.349   0.653   5.731
11048TIP3    H233102   2.298   0.795   5.749
11049TIP3   OH233103   3.603   6.040   6.327
11049TIP3    H133104   3.560   5.955   6.318
11049TIP3    H233105   3.671   6.026   6.394
11050TIP3   OH233106   7.116   4.968   3.202
11050TIP3    H133107   7.051   4.961   3.132
11050TIP3    H233108   7.175   5.038   3.174
11051TIP3   OH233109   6.175   3.926   1.396
11051TIP3    H133110   6.184   4.019   1.376
11051TIP3    H233111   6.253   3.905   1.446
11052TIP3   OH233112   3.990   4.522   1.905
11052TIP3    H133113   3.919   4.516   1.970
11052TIP3    H233114   4.023   4.432   1.898
11053TIP3   OH233115   5.944   2.647   4.344
11053TIP3    H133116   5.861   2.694   4.342
11053TIP3    H233117   5.923   2.558   4.315
11054TIP3   OH233118   6.709   6.986   5.177
11054TIP3    H133119   6.776   6.957   5.114
11054TIP3    H233120   6.718   6.926   5.251
11055TIP3   OH233121   5.021   3.260   1.430
11055TIP3    H133122   5.091   3.323   1.414
11055TIP3    H233123   5.029   3.196   1.360
11056TIP3   OH233124   2.346   0.793   2.079
11056TIP3    H133125   2.351   0.699   2.096
11056TIP3    H233126   2.435   0.818   2.056
11057TIP3   OH233127   5.836   3.283   5.770
11057TIP3    H133128   5.922   3.287   5.813
11057TIP3    H233129   5.847   3.332   5.689
11058TIP3   OH233130   3.791   4.545   2.853
11058TIP3    H133131   3.752   4.466   2.890
11058TIP3    H233132   3.765   4.543   2.761
11059TIP3   OH233133   6.857   2.874   6.101
11059TIP3    H133134   6.807   2.806   6.146
11059TIP3    H233135   6.793   2.942   6.080
11060TIP3   OH233136   4.903   0.376   0.262
11060TIP3    H133137   4.993   0.400   0.241
11060TIP3    H233138   4.870   0.336   0.181
11061TIP3   OH233139   5.574   6.538   6.369
11061TIP3    H133140   5.635   6.471   6.402
11061TIP3    H233141   5.630   6.613   6.349
11062TIP3   OH233142   4.662   7.358   6.612
11062TIP3    H133143   4.596   7.365   6.542
11062TIP3    H233144   4.705   7.444   6.612
11063TIP3   OH233145   1.287   6.798   0.877
11063TIP3    H133146   1.275   6.736   0.805
11063TIP3    H233147   1.241   6.877   0.847
11064TIP3   OH233148   2.794   4.055   4.382
11064TIP3    H133149   2.849   3.983   4.413
11064TIP3    H233150   2.751   4.087   4.462
11065TIP3   OH233151   6.901   4.701   0.976
11065TIP3    H133152   6.884   4.793   0.997
11065TIP3    H233153   6.975   4.677   1.031
11066TIP3   OH233154   6.171   6.042   5.869
11066TIP3    H133155   6.152   6.098   5.945
11066TIP3    H233156   6.259   6.009   5.885
11067TIP3   OH233157   3.388   2.865   6.013
11067TIP3    H133158   3.380   2.946   6.064
11067TIP3    H233159   3.329   2.804   6.057
11068TIP3   OH233160   1.360   7.099   2.937
11068TIP3    H133161   1.425   7.157   2.898
11068TIP3    H233162   1.281   7.113   2.884
11069TIP3   OH233163   6.100   6.268   0.787
11069TIP3    H133164   6.182   6.280   0.740
11069TIP3    H233165   6.033   6.264   0.718
11070TIP3   OH233166   1.949   6.710   5.379
11070TIP3    H133167   1.983   6.706   5.289
11070TIP3    H233168   2.026   6.694   5.434
11071TIP3   OH233169   6.423   3.470   5.110
11071TIP3    H133170   6.345   3.521   5.131
11071TIP3    H233171   6.429   3.405   5.179
11072TIP3   OH233172   6.806   1.758   5.025
11072TIP3    H133173   6.720   1.736   5.061
11072TIP3    H233174   6.855   1.793   5.099
11073TIP3   OH233175   2.102   1.142   4.045
11073TIP3    H133176   2.053   1.110   3.969
11073TIP3    H233177   2.137   1.227   4.016
11074TIP3   OH233178   6.437   2.751   4.581
11074TIP3    H133179   6.422   2.826   4.639
11074TIP3    H233180   6.366   2.691   4.601
11075TIP3   OH233181   4.795   0.190   2.357
11075TIP3    H133182   4.707   0.207   2.323
11075TIP3    H233183   4.854   0.221   2.289
11076TIP3   OH233184   1.820   5.836   5.734
11076TIP3    H133185   1.757   5.856   5.665
11076TIP3    H233186   1.876   5.914   5.738
11077TIP3   OH233187   3.256   1.431   6.712
11077TIP3    H133188   3.175   1.383   6.695
11077TIP3    H233189   3.293   1.446   6.625
11078TIP3   OH233190   8.126   6.765   6.440
11078TIP3    H133191   8.162   6.733   6.523
11078TIP3    H233192   8.075   6.843   6.464
11079TIP3   OH233193   7.085   6.358   2.980
11079TIP3    H133194   7.136   6.351   3.061
11079TIP3    H233195   7.063   6.451   2.973
11080TIP3   OH233196   0.092   3.920   4.201
11080TIP3    H133197   0.022   3.979   4.169
11080TIP3    H233198   0.128   3.966   4.277
11081TIP3   OH233199   2.949   4.735   1.587
11081TIP3    H133200   2.977   4.657   1.539
11081TIP3    H233201   2.878   4.771   1.534
11082TIP3   OH233202   6.632   1.874   1.770
11082TIP3    H133203   6.661   1.845   1.683
11082TIP3    H233204   6.713   1.877   1.821
11083TIP3   OH233205   4.751   0.415   5.554
11083TIP3    H133206   4.763   0.409   5.648
11083TIP3    H233207   4.667   0.370   5.537
11084TIP3   OH233208   1.449   2.607   1.819
11084TIP3    H133209   1.449   2.624   1.725
11084TIP3    H233210   1.520   2.661   1.853
11085TIP3   OH233211   6.208   5.145   3.177
11085TIP3    H133212   6.189   5.218   3.236
11085TIP3    H233213   6.284   5.175   3.126
11086TIP3   OH233214   4.302   2.040   0.854
11086TIP3    H133215   4.263   1.955   0.877
11086TIP3    H233216   4.278   2.098   0.926
11087TIP3   OH233217   0.782   3.100   0.533
11087TIP3    H133218   0.858   3.073   0.586
11087TIP3    H233219   0.759   3.186   0.567
11088TIP3   OH233220   1.313   7.783   4.926
11088TIP3    H133221   1.370   7.707   4.918
11088TIP3    H233222   1.296   7.792   5.020
11089TIP3   OH233223   3.935   3.456   5.434
11089TIP3    H133224   3.846   3.480   5.410
11089TIP3    H233225   3.924   3.388   5.500
11090TIP3   OH233226   2.591   0.945   0.522
11090TIP3    H133227   2.519   0.994   0.562
11090TIP3    H233228   2.637   1.009   0.468
11091TIP3   OH233229   7.117   3.844   0.876
11091TIP3    H133230   7.136   3.891   0.957
11091TIP3    H233231   7.106   3.912   0.810
11092TIP3   OH233232   3.367   3.083   5.077
11092TIP3    H133233   3.285   3.082   5.127
11092TIP3    H233234   3.371   2.997   5.035
11093TIP3   OH233235   1.440   3.706   6.779
11093TIP3    H133236   1.490   3.698   6.697
11093TIP3    H233237   1.349   3.708   6.751
11094TIP3   OH233238   4.442   6.570   5.600
11094TIP3    H133239   4.536   6.552   5.593
11094TIP3    H233240   4.400   6.494   5.561
11095TIP3   OH233241   3.244   3.900   4.814
11095TIP3    H133242   3.186   3.825   4.829
11095TIP3    H233243   3.190   3.962   4.764
11096TIP3   OH233244   6.791   4.028   4.131
11096TIP3    H133245   6.861   4.066   4.184
11096TIP3    H233246   6.790   3.935   4.155
11097TIP3   OH233247   2.357   1.324   1.361
11097TIP3    H133248   2.274   1.287   1.390
11097TIP3    H233249   2.418   1.305   1.432
11098TIP3   OH233250   7.810   4.736   5.274
11098TIP3    H133251   7.792   4.765   5.185
11098TIP3    H233252   7.897   4.770   5.294
11099TIP3   OH233253   5.293   2.315   2.772
11099TIP3    H133254   5.359   2.262   2.815
11099TIP3    H233255   5.210   2.274   2.796
11100TIP3   OH233256   5.027   0.914   1.406
11100TIP3    H133257   4.938   0.937   1.431
11100TIP3    H233258   5.023   0.822   1.384
11101TIP3   OH233259   8.251   4.183   3.713
11101TIP3    H133260   8.304   4.237   3.771
11101TIP3    H233261   8.272   4.093   3.739
11102TIP3   OH233262   8.176   0.059   2.544
11102TIP3    H133263   8.173   0.023   2.455
11102TIP3    H233264   8.086   0.086   2.562
11103TIP3   OH233265   5.573   7.520   2.564
11103TIP3    H133266   5.648   7.578   2.552
11103TIP3    H233267   5.553   7.526   2.658
11104TIP3   OH233268   1.892   3.961   6.063
11104TIP3    H133269   1.838   4.039   6.058
11104TIP3    H233270   1.839   3.892   6.023
11105TIP3   OH233271   0.995   2.407   1.736
11105TIP3    H133272   0.933   2.424   1.664
11105TIP3    H233273   0.940   2.399   1.814
11106TIP3   OH233274   7.242   2.347   4.472
11106TIP3    H133275   7.310   2.284   4.447
11106TIP3    H233276   7.245   2.414   4.404
11107TIP3   OH233277   5.394   3.734   5.359
11107TIP3    H133278   5.388   3.814   5.411
11107TIP3    H233279   5.432   3.762   5.276
11108TIP3   OH233280   6.233   0.426   6.021
11108TIP3    H133281   6.324   0.426   5.991
11108TIP3    H233282   6.181   0.420   5.941
11109TIP3   OH233283   0.858   0.899   1.697
11109TIP3    H133284   0.941   0.864   1.730
11109TIP3    H233285   0.882   0.946   1.617
11110TIP3   OH233286   4.855   1.076   0.819
11110TIP3    H133287   4.905   1.000   0.848
11110TIP3    H233288   4.803   1.101   0.895
11111TIP3   OH233289   3.658   0.252   3.828
11111TIP3    H133290   3.669   0.165   3.791
11111TIP3    H233291   3.608   0.238   3.909
11112TIP3   OH233292   0.082   4.101   2.825
11112TIP3    H133293   0.052   4.165   2.890
11112TIP3    H233294   0.178   4.102   2.833
11113TIP3   OH233295   4.709   2.415   6.257
11113TIP3    H133296   4.687   2.492   6.205
11113TIP3    H233297   4.744   2.352   6.194
11114TIP3   OH233298   4.063   3.403   0.082
11114TIP3    H133299   4.145   3.437   0.047
11114TIP3    H233300   4.019   3.365   0.006
11115TIP3   OH233301   0.469   0.131   2.453
11115TIP3    H133302   0.394   0.138   2.512
11115TIP3    H233303   0.469   0.213   2.405
11116TIP3   OH233304   4.980   7.370   3.336
11116TIP3    H133305   4.924   7.411   3.403
11116TIP3    H233306   5.057   7.340   3.384
11117TIP3   OH233307   5.911   3.840   1.376
11117TIP3    H133308   5.874   3.896   1.308
11117TIP3    H233309   6.002   3.867   1.384
11118TIP3   OH233310   6.794   2.153   5.863
11118TIP3    H133311   6.734   2.079   5.849
11118TIP3    H233312   6.751   2.206   5.930
11119TIP3   OH233313   4.811   1.775   3.189
11119TIP3    H133314   4.902   1.784   3.160
11119TIP3    H233315   4.764   1.841   3.138
11120TIP3   OH233316   2.992   1.493   0.925
11120TIP3    H133317   3.058   1.426   0.905
11120TIP3    H233318   2.998   1.554   0.852
11121TIP3   OH233319   4.705   0.579   4.697
11121TIP3    H133320   4.761   0.505   4.675
11121TIP3    H233321   4.629   0.539   4.741
11122TIP3   OH233322   2.174   0.928   0.737
11122TIP3    H133323   2.123   1.001   0.771
11122TIP3    H233324   2.263   0.942   0.772
11123TIP3   OH233325   7.703   2.737   3.277
11123TIP3    H133326   7.735   2.819   3.314
11123TIP3    H233327   7.724   2.671   3.343
11124TIP3   OH233328   5.139   7.478   6.215
11124TIP3    H133329   5.225   7.467   6.256
11124TIP3    H233330   5.078   7.440   6.278
11125TIP3   OH233331   2.556   2.935   1.498
11125TIP3    H133332   2.539   3.002   1.432
11125TIP3    H233333   2.651   2.937   1.511
11126TIP3   OH233334   1.565   5.020   1.480
11126TIP3    H133335   1.603   5.057   1.560
11126TIP3    H233336   1.484   4.979   1.510
11127TIP3   OH233337   7.785   5.956   1.774
11127TIP3    H133338   7.784   5.895   1.848
11127TIP3    H233339   7.775   5.900   1.697
11128TIP3   OH233340   0.716   7.497   0.111
11128TIP3    H133341   0.794   7.482   0.058
11128TIP3    H233342   0.749   7.518   0.198
11129TIP3   OH233343   7.018   2.754   1.108
11129TIP3    H133344   6.945   2.789   1.159
11129TIP3    H233345   7.091   2.812   1.128
11130TIP3   OH233346   1.366   7.210   1.651
11130TIP3    H133347   1.329   7.206   1.739
11130TIP3    H233348   1.297   7.249   1.597
11131TIP3   OH233349   7.285   4.533   6.628
11131TIP3    H133350   7.366   4.542   6.679
11131TIP3    H233351   7.262   4.441   6.636
11132TIP3   OH233352   8.037   3.674   0.496
11132TIP3    H133353   7.995   3.686   0.411
11132TIP3    H233354   8.086   3.592   0.487
11133TIP3   OH233355   4.458   7.193   5.852
11133TIP3    H133356   4.442   7.264   5.915
11133TIP3    H233357   4.404   7.121   5.884
11134TIP3   OH233358   0.196   2.670   1.616
11134TIP3    H133359   0.272   2.614   1.600
11134TIP3    H233360   0.123   2.626   1.573
11135TIP3   OH233361   1.571   2.817   1.514
11135TIP3    H133362   1.509   2.745   1.501
11135TIP3    H233363   1.542   2.860   1.595
11136TIP3   OH233364   4.829   5.865   1.070
11136TIP3    H133365   4.919   5.893   1.052
11136TIP3    H233366   4.803   5.818   0.991
11137TIP3   OH233367   7.890   2.491   5.098
11137TIP3    H133368   7.910   2.449   5.182
11137TIP3    H233369   7.799   2.468   5.082
11138TIP3   OH233370   3.295   3.849   1.852
11138TIP3    H133371   3.229   3.912   1.824
11138TIP3    H233372   3.260   3.810   1.931
11139TIP3   OH233373   6.404   6.549   6.449
11139TIP3    H133374   6.460   6.473   6.431
11139TIP3    H233375   6.380   6.582   6.363
11140TIP3   OH233376   2.569   6.245   4.549
11140TIP3    H133377   2.481   6.206   4.539
11140TIP3    H233378   2.610   6.233   4.463
11141TIP3   OH233379   3.189   7.641   1.403
11141TIP3    H133380   3.218   7.572   1.342
11141TIP3    H233381   3.097   7.654   1.383
11142TIP3   OH233382   6.647   0.383   2.972
11142TIP3    H133383   6.739   0.408   2.964
11142TIP3    H233384   6.634   0.319   2.901
11143TIP3   OH233385   5.971   3.006   5.714
11143TIP3    H133386   5.923   2.954   5.779
11143TIP3    H233387   5.910   3.076   5.690
11144TIP3   OH233388   2.371   6.931   0.322
11144TIP3    H133389   2.380   7.026   0.337
11144TIP3    H233390   2.379   6.921   0.227
11145TIP3   OH233391   7.817   2.453   0.352
11145TIP3    H133392   7.726   2.478   0.366
11145TIP3    H233393   7.812   2.373   0.298
11146TIP3   OH233394   6.476   5.237   6.675
11146TIP3    H133395   6.424   5.233   6.594
11146TIP3    H233396   6.556   5.189   6.655
11147TIP3   OH233397   2.984   4.497   5.755
11147TIP3    H133398   2.978   4.402   5.763
11147TIP3    H233399   2.893   4.526   5.760
11148TIP3   OH233400   4.340   6.893   2.908
11148TIP3    H133401   4.423   6.845   2.906
11148TIP3    H233402   4.365   6.984   2.893
11149TIP3   OH233403   6.887   5.691   5.951
11149TIP3    H133404   6.850   5.774   5.922
11149TIP3    H233405   6.969   5.715   5.994
11150TIP3   OH233406   7.045   2.913   0.353
11150TIP3    H133407   7.115   2.963   0.394
11150TIP3    H233408   7.078   2.823   0.349
11151TIP3   OH233409   3.840   3.085   3.231
11151TIP3    H133410   3.818   3.148   3.299
11151TIP3    H233411   3.936   3.089   3.225
11152TIP3   OH233412   5.504   4.436   0.899
11152TIP3    H133413   5.442   4.374   0.935
11152TIP3    H233414   5.574   4.442   0.964
11153TIP3   OH233415   3.111   4.600   1.878
11153TIP3    H133416   3.154   4.611   1.963
11153TIP3    H233417   3.183   4.582   1.817
11154TIP3   OH233418   1.140   6.740   6.737
11154TIP3    H133419   1.162   6.759   6.828
11154TIP3    H233420   1.158   6.647   6.727
11155TIP3   OH233421   6.915   7.360   4.421
11155TIP3    H133422   6.835   7.319   4.388
11155TIP3    H233423   6.976   7.288   4.433
11156TIP3   OH233424   7.561   0.584   2.903
11156TIP3    H133425   7.553   0.489   2.912
11156TIP3    H233426   7.531   0.618   2.987
11157TIP3   OH233427   1.824   2.940   1.770
11157TIP3    H133428   1.908   2.938   1.815
11157TIP3    H233429   1.841   2.900   1.685
11158TIP3   OH233430   3.402   4.254   4.063
11158TIP3    H133431   3.492   4.272   4.089
11158TIP3    H233432   3.353   4.254   4.145
11159TIP3   OH233433   7.210   7.492   5.890
11159TIP3    H133434   7.177   7.450   5.811
11159TIP3    H233435   7.131   7.508   5.943
11160TIP3   OH233436   6.649   1.769   5.328
11160TIP3    H133437   6.566   1.779   5.281
11160TIP3    H233438   6.623   1.743   5.417
11161TIP3   OH233439   7.677   4.292   0.869
11161TIP3    H133440   7.662   4.374   0.918
11161TIP3    H233441   7.755   4.254   0.911
11162TIP3   OH233442   0.105   1.058   4.792
11162TIP3    H133443   0.018   1.062   4.831
11162TIP3    H233444   0.090   1.066   4.697
11163TIP3   OH233445   1.190   1.147   0.008
11163TIP3    H133446   1.178   1.052   0.019
11163TIP3    H233447   1.209   1.178   0.097
11164TIP3   OH233448   6.993   6.059   2.407
11164TIP3    H133449   7.080   6.056   2.446
11164TIP3    H233450   6.936   6.089   2.478
11165TIP3   OH233451   6.578   6.077   0.916
11165TIP3    H133452   6.495   6.125   0.912
11165TIP3    H233453   6.551   5.986   0.927
11166TIP3   OH233454   0.766   5.977   5.734
11166TIP3    H133455   0.743   5.972   5.641
11166TIP3    H233456   0.721   5.902   5.774
11167TIP3   OH233457   6.436   2.408   1.530
11167TIP3    H133458   6.364   2.347   1.546
11167TIP3    H233459   6.393   2.487   1.497
11168TIP3   OH233460   6.384   7.099   5.577
11168TIP3    H133461   6.428   7.143   5.650
11168TIP3    H233462   6.313   7.159   5.554
11169TIP3   OH233463   3.495   4.871   3.475
11169TIP3    H133464   3.580   4.830   3.489
11169TIP3    H233465   3.503   4.913   3.389
11170TIP3   OH233466   5.885   0.340   4.856
11170TIP3    H133467   5.958   0.402   4.852
11170TIP3    H233468   5.906   0.273   4.791
11171TIP3   OH233469   0.386   5.274   1.095
11171TIP3    H133470   0.479   5.289   1.114
11171TIP3    H233471   0.344   5.271   1.181
11172TIP3   OH233472   7.299   7.097   4.383
11172TIP3    H133473   7.373   7.138   4.427
11172TIP3    H233474   7.338   7.047   4.311
11173TIP3   OH233475   5.447   6.763   4.034
11173TIP3    H133476   5.485   6.743   3.949
11173TIP3    H233477   5.522   6.772   4.092
11174TIP3   OH233478   3.011   0.395   4.263
11174TIP3    H133479   3.102   0.421   4.250
11174TIP3    H233480   2.961   0.476   4.256
11175TIP3   OH233481   6.183   7.527   1.527
11175TIP3    H133482   6.271   7.495   1.508
11175TIP3    H233483   6.180   7.533   1.623
11176TIP3   OH233484   7.597   1.325   3.518
11176TIP3    H133485   7.671   1.372   3.480
11176TIP3    H233486   7.534   1.319   3.447
11177TIP3   OH233487   2.962   0.257   6.328
11177TIP3    H133488   2.897   0.188   6.340
11177TIP3    H233489   3.043   0.211   6.308
11178TIP3   OH233490   4.323   4.451   1.330
11178TIP3    H133491   4.257   4.496   1.382
11178TIP3    H233492   4.318   4.359   1.358
11179TIP3   OH233493   5.744   6.221   4.336
11179TIP3    H133494   5.661   6.244   4.293
11179TIP3    H233495   5.725   6.139   4.382
11180TIP3   OH233496   5.905   1.433   0.272
11180TIP3    H133497   5.867   1.449   0.359
11180TIP3    H233498   5.897   1.338   0.261
11181TIP3   OH233499   5.369   3.122   1.088
11181TIP3    H133500   5.320   3.042   1.106
11181TIP3    H233501   5.425   3.135   1.164
11182TIP3   OH233502   0.208   5.662   5.340
11182TIP3    H133503   0.254   5.600   5.284
11182TIP3    H233504   0.228   5.633   5.429
11183TIP3   OH233505   4.319   1.782   4.682
11183TIP3    H133506   4.305   1.765   4.589
11183TIP3    H233507   4.405   1.824   4.685
11184TIP3   OH233508   7.067   4.615   5.642
11184TIP3    H133509   7.012   4.563   5.584
11184TIP3    H233510   7.090   4.692   5.591
11185TIP3   OH233511   3.661   5.321   2.104
11185TIP3    H133512   3.653   5.407   2.145
11185TIP3    H233513   3.749   5.291   2.127
11186TIP3   OH233514   5.601   0.132   3.796
11186TIP3    H133515   5.565   0.057   3.844
11186TIP3    H233516   5.678   0.098   3.752
11187TIP3   OH233517   1.321   7.016   4.624
11187TIP3    H133518   1.413   6.994   4.638
11187TIP3    H233519   1.322   7.072   4.547
11188TIP3   OH233520   5.886   1.265   5.299
11188TIP3    H133521   5.919   1.291   5.213
11188TIP3    H233522   5.816   1.328   5.317
11189TIP3   OH233523   4.144   1.434   4.909
11189TIP3    H133524   4.195   1.411   4.832
11189TIP3    H233525   4.054   1.443   4.876
11190TIP3   OH233526   3.430   0.507   3.246
11190TIP3    H133527   3.461   0.418   3.230
11190TIP3    H233528   3.486   0.541   3.316
11191TIP3   OH233529   7.476   2.532   2.495
11191TIP3    H133530   7.568   2.556   2.481
11191TIP3    H233531   7.435   2.537   2.409
11192TIP3   OH233532   4.913   3.299   4.601
11192TIP3    H133533   4.902   3.357   4.676
11192TIP3    H233534   5.005   3.308   4.576
11193TIP3   OH233535   3.217   5.955   4.863
11193TIP3    H133536   3.131   5.912   4.858
11193TIP3    H233537   3.198   6.045   4.889
11194TIP3   OH233538   2.613   0.467   1.249
11194TIP3    H133539   2.575   0.550   1.277
11194TIP3    H233540   2.707   0.480   1.254
11195TIP3   OH233541   1.215   6.658   5.689
11195TIP3    H133542   1.293   6.691   5.734
11195TIP3    H233543   1.250   6.606   5.617
11196TIP3   OH233544   2.374   3.790   0.343
11196TIP3    H133545   2.325   3.754   0.269
11196TIP3    H233546   2.308   3.801   0.412
11197TIP3   OH233547   7.747   1.115   2.791
11197TIP3    H133548   7.736   1.023   2.770
11197TIP3    H233549   7.752   1.118   2.886
11198TIP3   OH233550   3.054   4.566   4.071
11198TIP3    H133551   3.024   4.535   3.986
11198TIP3    H233552   3.044   4.661   4.067
11199TIP3   OH233553   4.531   1.789   1.024
11199TIP3    H133554   4.626   1.783   1.014
11199TIP3    H233555   4.518   1.844   1.102
11200TIP3   OH233556   5.041   0.653   6.473
11200TIP3    H133557   5.077   0.653   6.562
11200TIP3    H233558   4.977   0.725   6.473
11201TIP3   OH233559   4.257   7.219   0.122
11201TIP3    H133560   4.331   7.270   0.090
11201TIP3    H233561   4.194   7.285   0.151
11202TIP3   OH233562   0.507   4.416   6.281
11202TIP3    H133563   0.587   4.426   6.229
11202TIP3    H233564   0.519   4.476   6.354
11203TIP3   OH233565   5.567   0.903   6.112
11203TIP3    H133566   5.620   0.982   6.122
11203TIP3    H233567   5.477   0.935   6.104
11204TIP3   OH233568   7.036   0.175   4.026
11204TIP3    H133569   7.090   0.170   3.947
11204TIP3    H233570   7.099   0.180   4.098
11205TIP3   OH233571   2.409   1.260   2.224
11205TIP3    H133572   2.482   1.286   2.167
11205TIP3    H233573   2.385   1.173   2.193
11206TIP3   OH233574   0.254   3.704   1.748
11206TIP3    H133575   0.310   3.630   1.725
11206TIP3    H233576   0.275   3.721   1.840
11207TIP3   OH233577   2.191   7.025   1.985
11207TIP3    H133578   2.224   6.982   2.063
11207TIP3    H233579   2.097   7.033   2.000
11208TIP3   OH233580   4.759   4.612   5.992
11208TIP3    H133581   4.728   4.579   6.076
11208TIP3    H233582   4.699   4.684   5.971
11209TIP3   OH233583   5.998   2.799   3.824
11209TIP3    H133584   6.073   2.751   3.788
11209TIP3    H233585   5.951   2.830   3.747
11210TIP3   OH233586   2.696   6.672   2.060
11210TIP3    H133587   2.783   6.681   2.021
11210TIP3    H233588   2.713   6.633   2.146
11211TIP3   OH233589   5.972   4.067   0.156
11211TIP3    H133590   6.013   4.144   0.118
11211TIP3    H233591   5.940   4.096   0.242
11212TIP3   OH233592   0.814   3.061   2.533
11212TIP3    H133593   0.818   3.007   2.612
11212TIP3    H233594   0.738   3.118   2.548
11213TIP3   OH233595   2.163   3.944   2.999
11213TIP3    H133596   2.215   3.948   2.919
11213TIP3    H233597   2.226   3.929   3.069
11214TIP3   OH233598   2.174   2.236   2.560
11214TIP3    H133599   2.208   2.202   2.642
11214TIP3    H233600   2.234   2.202   2.493
11215TIP3   OH233601   6.742   7.646   4.969
11215TIP3    H133602   6.670   7.599   4.927
11215TIP3    H233603   6.699   7.703   5.033
11216TIP3   OH233604   1.158   3.888   4.242
11216TIP3    H133605   1.212   3.875   4.164
11216TIP3    H233606   1.167   3.807   4.291
11217TIP3   OH233607   2.314   1.697   4.567
11217TIP3    H133608   2.394   1.746   4.585
11217TIP3    H233609   2.267   1.751   4.504
11218TIP3   OH233610   6.639   5.339   2.164
11218TIP3    H133611   6.602   5.425   2.145
11218TIP3    H233612   6.707   5.357   2.229
11219TIP3   OH233613   4.123   7.593   2.404
11219TIP3    H133614   4.127   7.511   2.454
11219TIP3    H233615   4.202   7.591   2.349
11220TIP3   OH233616   3.359   0.254   0.751
11220TIP3    H133617   3.309   0.270   0.671
11220TIP3    H233618   3.399   0.169   0.738
11221TIP3   OH233619   6.210   6.524   0.970
11221TIP3    H133620   6.179   6.534   1.060
11221TIP3    H233621   6.248   6.609   0.948
11222TIP3   OH233622   5.986   1.076   1.741
11222TIP3    H133623   5.916   1.070   1.806
11222TIP3    H233624   6.061   1.108   1.790
11223TIP3   OH233625   6.173   4.130   2.486
11223TIP3    H133626   6.248   4.189   2.486
11223TIP3    H233627   6.175   4.089   2.573
11224TIP3   OH233628   2.219   0.167   2.723
11224TIP3    H133629   2.139   0.196   2.768
11224TIP3    H233630   2.199   0.178   2.630
11225TIP3   OH233631   0.914   7.006   2.105
11225TIP3    H133632   0.847   6.999   2.173
11225TIP3    H233633   0.896   6.934   2.045
11226TIP3   OH233634   0.765   3.410   3.599
11226TIP3    H133635   0.675   3.417   3.565
11226TIP3    H233636   0.781   3.495   3.640
11227TIP3   OH233637   2.667   2.347   0.308
11227TIP3    H133638   2.670   2.310   0.220
11227TIP3    H233639   2.715   2.429   0.301
11228TIP3   OH233640   7.821   2.906   1.341
11228TIP3    H133641   7.768   2.980   1.371
11228TIP3    H233642   7.893   2.901   1.404
11229TIP3   OH233643   1.136   3.095   2.973
11229TIP3    H133644   1.085   3.159   3.023
11229TIP3    H233645   1.080   3.018   2.968
11230TIP3   OH233646   2.451   3.227   2.203
11230TIP3    H133647   2.516   3.284   2.243
11230TIP3    H233648   2.391   3.205   2.275
11231TIP3   OH233649   1.099   7.072   5.820
11231TIP3    H133650   1.033   7.139   5.838
11231TIP3    H233651   1.174   7.122   5.785
11232TIP3   OH233652   8.031   6.049   6.382
11232TIP3    H133653   8.005   6.138   6.357
11232TIP3    H233654   7.989   5.992   6.318
11233TIP3   OH233655   4.051   7.324   1.027
11233TIP3    H133656   4.039   7.410   1.069
11233TIP3    H233657   4.135   7.331   0.982
11234TIP3   OH233658   5.053   4.698   2.140
11234TIP3    H133659   5.127   4.728   2.087
11234TIP3    H233660   5.074   4.727   2.229
11235TIP3   OH233661   0.465   2.977   0.373
11235TIP3    H133662   0.531   3.023   0.424
11235TIP3    H233663   0.486   2.996   0.282
11236TIP3   OH233664   0.228   0.041   5.608
11236TIP3    H133665   0.232   0.098   5.685
11236TIP3    H233666   0.163   0.082   5.551
11237TIP3   OH233667   5.926   0.249   3.939
11237TIP3    H133668   5.854   0.196   3.973
11237TIP3    H233669   5.895   0.339   3.946
11238TIP3   OH233670   5.264   0.104   1.831
11238TIP3    H133671   5.198   0.046   1.794
11238TIP3    H233672   5.227   0.131   1.915
11239TIP3   OH233673   1.128   6.987   6.083
11239TIP3    H133674   1.123   7.017   5.992
11239TIP3    H233675   1.213   7.017   6.114
11240TIP3   OH233676   2.281   1.955   3.362
11240TIP3    H133677   2.370   1.988   3.350
11240TIP3    H233678   2.280   1.919   3.450
11241TIP3   OH233679   0.102   5.847   3.278
11241TIP3    H133680   0.041   5.789   3.232
11241TIP3    H233681   0.184   5.840   3.229
11242TIP3   OH233682   7.255   0.707   5.443
11242TIP3    H133683   7.321   0.680   5.379
11242TIP3    H233684   7.210   0.781   5.401
11243TIP3   OH233685   1.722   3.148   2.603
11243TIP3    H133686   1.726   3.189   2.517
11243TIP3    H233687   1.804   3.099   2.610
11244TIP3   OH233688   3.103   3.378   0.861
11244TIP3    H133689   3.056   3.297   0.843
11244TIP3    H233690   3.156   3.358   0.938
11245TIP3   OH233691   3.989   1.924   3.020
11245TIP3    H133692   4.048   1.910   3.093
11245TIP3    H233693   4.046   1.927   2.943
11246TIP3   OH233694   7.683   5.479   0.148
11246TIP3    H133695   7.708   5.440   0.065
11246TIP3    H233696   7.590   5.459   0.157
11247TIP3   OH233697   6.534   0.738   1.919
11247TIP3    H133698   6.521   0.662   1.863
11247TIP3    H233699   6.587   0.705   1.992
11248TIP3   OH233700   7.397   7.742   5.371
11248TIP3    H133701   7.393   7.648   5.392
11248TIP3    H233702   7.469   7.775   5.425
11249TIP3   OH233703   5.708   3.385   3.631
11249TIP3    H133704   5.635   3.362   3.688
11249TIP3    H233705   5.748   3.301   3.608
11250TIP3   OH233706   4.671   4.916   6.015
11250TIP3    H133707   4.676   5.012   6.013
11250TIP3    H233708   4.753   4.889   6.057
11251TIP3   OH233709   3.785   0.704   2.994
11251TIP3    H133710   3.814   0.729   3.082
11251TIP3    H233711   3.864   0.708   2.940
11252TIP3   OH233712   4.750   4.174   5.848
11252TIP3    H133713   4.785   4.263   5.859
11252TIP3    H233714   4.748   4.138   5.936
11253TIP3   OH233715   5.312   3.178   0.400
11253TIP3    H133716   5.275   3.148   0.483
11253TIP3    H233717   5.399   3.140   0.398
11254TIP3   OH233718   3.989   1.007   0.152
11254TIP3    H133719   4.073   1.020   0.107
11254TIP3    H233720   3.958   1.096   0.170
11255TIP3   OH233721   0.185   2.665   0.718
11255TIP3    H133722   0.174   2.580   0.762
11255TIP3    H233723   0.154   2.729   0.783
11256TIP3   OH233724   5.575   6.969   0.382
11256TIP3    H133725   5.523   6.890   0.400
11256TIP3    H233726   5.665   6.942   0.397
11257TIP3   OH233727   1.999   3.604   4.835
11257TIP3    H133728   1.915   3.586   4.878
11257TIP3    H233729   2.064   3.589   4.903
11258TIP3   OH233730   2.483   3.663   4.757
11258TIP3    H133731   2.403   3.687   4.711
11258TIP3    H233732   2.553   3.697   4.701
11259TIP3   OH233733   6.124   2.127   2.659
11259TIP3    H133734   6.028   2.124   2.665
11259TIP3    H233735   6.154   2.051   2.709
11260TIP3   OH233736   1.614   4.580   2.949
11260TIP3    H133737   1.624   4.580   2.854
11260TIP3    H233738   1.629   4.489   2.974
11261TIP3   OH233739   3.067   6.864   0.086
11261TIP3    H133740   3.023   6.897   0.165
11261TIP3    H233741   3.109   6.783   0.115
11262TIP3   OH233742   2.304   6.876   6.616
11262TIP3    H133743   2.275   6.790   6.588
11262TIP3    H233744   2.287   6.933   6.540
11263TIP3   OH233745   0.463   1.209   6.525
11263TIP3    H133746   0.477   1.224   6.432
11263TIP3    H233747   0.446   1.115   6.532
11264TIP3   OH233748   0.042   7.088   0.874
11264TIP3    H133749   0.040   7.125   0.963
11264TIP3    H233750   0.130   7.052   0.865
11265TIP3   OH233751   3.103   7.122   0.572
11265TIP3    H133752   3.133   7.212   0.588
11265TIP3    H233753   3.010   7.123   0.594
11266TIP3   OH233754   8.083   4.570   6.188
11266TIP3    H133755   8.111   4.652   6.227
11266TIP3    H233756   8.075   4.589   6.094
11267TIP3   OH233757   4.425   7.401   0.578
11267TIP3    H133758   4.346   7.357   0.547
11267TIP3    H233759   4.437   7.370   0.668
11268TIP3   OH233760   6.612   5.358   0.653
11268TIP3    H133761   6.642   5.361   0.562
11268TIP3    H233762   6.678   5.407   0.701
11269TIP3   OH233763   7.342   2.902   1.528
11269TIP3    H133764   7.284   2.974   1.552
11269TIP3    H233765   7.284   2.829   1.509
11270TIP3   OH233766   4.496   5.039   3.856
11270TIP3    H133767   4.420   4.994   3.893
11270TIP3    H233768   4.562   4.971   3.845
11271TIP3   OH233769   4.496   1.323   4.134
11271TIP3    H133770   4.519   1.409   4.172
11271TIP3    H233771   4.403   1.331   4.111
11272TIP3   OH233772   8.079   2.531   3.286
11272TIP3    H133773   8.135   2.483   3.225
11272TIP3    H233774   8.046   2.605   3.236
11273TIP3   OH233775   6.115   1.488   3.704
11273TIP3    H133776   6.043   1.432   3.733
11273TIP3    H233777   6.130   1.462   3.613
11274TIP3   OH233778   6.722   3.860   4.459
11274TIP3    H133779   6.701   3.953   4.452
11274TIP3    H233780   6.721   3.842   4.553
11275TIP3   OH233781   6.744   4.670   1.943
11275TIP3    H133782   6.743   4.691   2.036
11275TIP3    H233783   6.654   4.687   1.914
11276TIP3   OH233784   4.201   2.189   1.513
11276TIP3    H133785   4.230   2.188   1.604
11276TIP3    H233786   4.117   2.142   1.514
11277TIP3   OH233787   7.805   7.271   2.867
11277TIP3    H133788   7.737   7.319   2.820
11277TIP3    H233789   7.887   7.310   2.837
11278TIP3   OH233790   2.325   2.020   2.732
11278TIP3    H133791   2.324   2.078   2.808
11278TIP3    H233792   2.413   2.028   2.696
11279TIP3   OH233793   3.660   0.178   3.427
11279TIP3    H133794   3.753   0.199   3.422
11279TIP3    H233795   3.657   0.090   3.465
11280TIP3   OH233796   0.229   4.964   6.033
11280TIP3    H133797   0.301   4.901   6.033
11280TIP3    H233798   0.187   4.954   6.118
11281TIP3   OH233799   0.096   4.741   0.357
11281TIP3    H133800   0.117   4.813   0.416
11281TIP3    H233801   0.004   4.721   0.373
11282TIP3   OH233802   1.637   5.960   3.482
11282TIP3    H133803   1.716   5.913   3.454
11282TIP3    H233804   1.627   5.937   3.574
11283TIP3   OH233805   6.151   5.272   3.772
11283TIP3    H133806   6.080   5.246   3.832
11283TIP3    H233807   6.187   5.189   3.741
11284TIP3   OH233808   3.402   2.404   3.685
11284TIP3    H133809   3.370   2.388   3.774
11284TIP3    H233810   3.396   2.320   3.641
11285TIP3   OH233811   8.178   7.404   5.852
11285TIP3    H133812   8.173   7.497   5.831
11285TIP3    H233813   8.266   7.378   5.826
11286TIP3   OH233814   4.249   0.371   3.440
11286TIP3    H133815   4.257   0.312   3.515
11286TIP3    H233816   4.336   0.370   3.400
11287TIP3   OH233817   7.827   6.333   0.331
11287TIP3    H133818   7.773   6.261   0.299
11287TIP3    H233819   7.797   6.347   0.421
11288TIP3   OH233820   5.759   7.285   4.395
11288TIP3    H133821   5.725   7.324   4.476
11288TIP3    H233822   5.705   7.322   4.326
11289TIP3   OH233823   0.876   6.780   4.389
11289TIP3    H133824   0.873   6.872   4.361
11289TIP3    H233825   0.798   6.769   4.443
11290TIP3   OH233826   8.053   0.538   2.913
11290TIP3    H133827   7.961   0.521   2.936
11290TIP3    H233828   8.052   0.623   2.870
11291TIP3   OH233829   2.770   4.000   3.851
11291TIP3    H133830   2.695   4.058   3.859
11291TIP3    H233831   2.794   3.979   3.941
11292TIP3   OH233832   4.464   3.070   2.651
11292TIP3    H133833   4.559   3.083   2.649
11292TIP3    H233834   4.452   2.976   2.639
11293TIP3   OH233835   7.340   0.078   4.696
11293TIP3    H133836   7.292   0.116   4.622
11293TIP3    H233837   7.412   0.030   4.656
11294TIP3   OH233838   4.552   1.568   4.241
11294TIP3    H133839   4.511   1.651   4.218
11294TIP3    H233840   4.531   1.556   4.334
11295TIP3   OH233841   7.589   7.200   0.130
11295TIP3    H133842   7.595   7.228   0.221
11295TIP3    H233843   7.590   7.282   0.080
11296TIP3   OH233844   2.588   7.147   6.454
11296TIP3    H133845   2.643   7.218   6.487
11296TIP3    H233846   2.504   7.158   6.499
11297TIP3   OH233847   7.335   1.350   5.140
11297TIP3    H133848   7.330   1.333   5.234
11297TIP3    H233849   7.355   1.265   5.101
11298TIP3   OH233850   3.329   0.834   0.689
11298TIP3    H133851   3.372   0.756   0.653
11298TIP3    H233852   3.339   0.899   0.620
11299TIP3   OH233853   3.879   5.495   2.814
11299TIP3    H133854   3.839   5.551   2.747
11299TIP3    H233855   3.973   5.511   2.806
11300TIP3   OH233856   4.493   3.827   6.663
11300TIP3    H133857   4.437   3.759   6.624
11300TIP3    H233858   4.518   3.883   6.589
11301TIP3   OH233859   5.693   6.969   5.422
11301TIP3    H133860   5.630   6.943   5.354
11301TIP3    H233861   5.687   6.898   5.487
11302TIP3   OH233862   5.627   7.038   2.967
11302TIP3    H133863   5.701   7.092   2.940
11302TIP3    H233864   5.590   7.083   3.043
11303TIP3   OH233865   3.899   2.445   0.842
11303TIP3    H133866   3.919   2.409   0.756
11303TIP3    H233867   3.943   2.530   0.844
11304TIP3   OH233868   2.628   5.540   1.110
11304TIP3    H133869   2.712   5.499   1.130
11304TIP3    H233870   2.650   5.624   1.070
11305TIP3   OH233871   7.665   6.540   1.260
11305TIP3    H133872   7.621   6.585   1.332
11305TIP3    H233873   7.750   6.514   1.297
11306TIP3   OH233874   4.443   7.249   5.364
11306TIP3    H133875   4.502   7.319   5.339
11306TIP3    H233876   4.370   7.254   5.302
11307TIP3   OH233877   3.299   1.624   5.107
11307TIP3    H133878   3.337   1.632   5.195
11307TIP3    H233879   3.288   1.530   5.094
11308TIP3   OH233880   3.514   7.474   4.477
11308TIP3    H133881   3.478   7.410   4.538
11308TIP3    H233882   3.546   7.422   4.403
11309TIP3   OH233883   1.048   1.739   2.496
11309TIP3    H133884   0.970   1.685   2.503
11309TIP3    H233885   1.099   1.720   2.575
11310TIP3   OH233886   3.016   5.738   5.413
11310TIP3    H133887   2.970   5.656   5.398
11310TIP3    H233888   3.088   5.716   5.471
11311TIP3   OH233889   7.914   5.948   6.610
11311TIP3    H133890   7.929   5.975   6.519
11311TIP3    H233891   7.990   5.981   6.658
11312TIP3   OH233892   4.840   3.339   5.182
11312TIP3    H133893   4.867   3.335   5.091
11312TIP3    H233894   4.756   3.293   5.184
11313TIP3   OH233895   2.199   3.104   4.936
11313TIP3    H133896   2.189   3.027   4.881
11313TIP3    H233897   2.128   3.162   4.910
11314TIP3   OH233898   4.776   0.231   6.621
11314TIP3    H133899   4.743   0.302   6.677
11314TIP3    H233900   4.783   0.156   6.680
11315TIP3   OH233901   0.018   0.963   4.155
11315TIP3    H133902   0.067   1.027   4.104
11315TIP3    H233903  -0.023   1.015   4.224
11316TIP3   OH233904   6.856   7.560   2.681
11316TIP3    H133905   6.828   7.652   2.674
11316TIP3    H233906   6.885   7.537   2.593
11317TIP3   OH233907   7.669   2.228   4.819
11317TIP3    H133908   7.688   2.266   4.904
11317TIP3    H233909   7.595   2.170   4.834
11318TIP3   OH233910   1.102   3.946   0.758
11318TIP3    H133911   1.113   3.943   0.853
11318TIP3    H233912   1.168   4.010   0.729
11319TIP3   OH233913   6.785   3.956   5.266
11319TIP3    H133914   6.720   4.003   5.214
11319TIP3    H233915   6.829   3.898   5.203
11320TIP3   OH233916   3.955   5.113   0.663
11320TIP3    H133917   3.955   5.024   0.700
11320TIP3    H233918   3.898   5.106   0.586
11321TIP3   OH233919   6.993   7.330   6.465
11321TIP3    H133920   6.922   7.305   6.525
11321TIP3    H233921   6.981   7.274   6.389
11322TIP3   OH233922   1.186   3.836   0.365
11322TIP3    H133923   1.261   3.817   0.309
11322TIP3    H233924   1.179   3.760   0.422
11323TIP3   OH233925   1.436   0.299   3.401
11323TIP3    H133926   1.461   0.239   3.331
11323TIP3    H233927   1.348   0.327   3.379
11324TIP3   OH233928   3.615   3.011   4.136
11324TIP3    H133929   3.664   3.038   4.058
11324TIP3    H233930   3.635   2.918   4.146
11325TIP3   OH233931   7.950   0.989   3.224
11325TIP3    H133932   7.875   0.960   3.276
11325TIP3    H233933   8.000   1.045   3.283
11326TIP3   OH233934   2.198   2.699   2.311
11326TIP3    H133935   2.118   2.747   2.336
11326TIP3    H233936   2.196   2.697   2.216
11327TIP3   OH233937   3.075   2.196   1.261
11327TIP3    H133938   3.111   2.260   1.199
11327TIP3    H233939   3.141   2.127   1.264
11328TIP3   OH233940   4.218   4.237   0.735
11328TIP3    H133941   4.221   4.252   0.829
11328TIP3    H233942   4.279   4.165   0.720
11329TIP3   OH233943   5.724   6.133   1.646
11329TIP3    H133944   5.790   6.099   1.706
11329TIP3    H233945   5.641   6.113   1.688
11330TIP3   OH233946   0.710   4.771   1.131
11330TIP3    H133947   0.761   4.739   1.204
11330TIP3    H233948   0.656   4.841   1.168
11331TIP3   OH233949   3.644   2.494   1.631
11331TIP3    H133950   3.575   2.428   1.629
11331TIP3    H233951   3.721   2.447   1.666
11332TIP3   OH233952   6.319   0.648   0.911
11332TIP3    H133953   6.291   0.667   0.821
11332TIP3    H233954   6.330   0.553   0.913
11333TIP3   OH233955   0.848   1.840   1.569
11333TIP3    H133956   0.817   1.760   1.609
11333TIP3    H233957   0.771   1.879   1.528
11334TIP3   OH233958   3.042   1.029   3.702
11334TIP3    H133959   3.062   0.990   3.617
11334TIP3    H233960   2.961   1.079   3.688
11335TIP3   OH233961   0.625   1.644   1.699
11335TIP3    H133962   0.594   1.592   1.773
11335TIP3    H233963   0.546   1.661   1.647
11336TIP3   OH233964   0.985   4.253   2.142
11336TIP3    H133965   0.966   4.202   2.221
11336TIP3    H233966   0.935   4.334   2.153
11337TIP3   OH233967   3.595   2.226   5.356
11337TIP3    H133968   3.637   2.172   5.423
11337TIP3    H233969   3.667   2.273   5.314
11338TIP3   OH233970   3.283   6.803   6.242
11338TIP3    H133971   3.364   6.795   6.293
11338TIP3    H233972   3.306   6.861   6.169
11339TIP3   OH233973   0.449   6.218   3.250
11339TIP3    H133974   0.464   6.312   3.259
11339TIP3    H233975   0.367   6.202   3.295
11340TIP3   OH233976   6.886   2.060   2.387
11340TIP3    H133977   6.933   2.140   2.362
11340TIP3    H233978   6.879   2.064   2.482
11341TIP3   OH233979   4.683   3.244   3.832
11341TIP3    H133980   4.594   3.263   3.861
11341TIP3    H233981   4.734   3.321   3.857
11342TIP3   OH233982   0.784   6.925   4.024
11342TIP3    H133983   0.869   6.882   4.019
11342TIP3    H233984   0.804   7.018   4.036
11343TIP3   OH233985   0.918   7.192   3.024
11343TIP3    H133986   0.895   7.262   2.964
11343TIP3    H233987   0.835   7.157   3.055
11344TIP3   OH233988   3.847   3.057   4.484
11344TIP3    H133989   3.917   3.018   4.537
11344TIP3    H233990   3.878   3.048   4.394
11345TIP3   OH233991   0.463   1.165   4.242
11345TIP3    H133992   0.492   1.149   4.153
11345TIP3    H233993   0.419   1.250   4.238
11346TIP3   OH233994   7.373   4.919   5.595
11346TIP3    H133995   7.335   4.924   5.683
11346TIP3    H233996   7.380   5.011   5.567
11347TIP3   OH233997   2.494   1.562   6.592
11347TIP3    H133998   2.551   1.515   6.653
11347TIP3    H233999   2.430   1.605   6.647
11348TIP3   OH234000   2.710   2.265   5.701
11348TIP3    H134001   2.721   2.338   5.640
11348TIP3    H234002   2.623   2.230   5.682
11349TIP3   OH234003   6.188   2.713   4.687
11349TIP3    H134004   6.153   2.625   4.699
11349TIP3    H234005   6.201   2.746   4.775
11350TIP3   OH234006   6.424   4.457   2.723
11350TIP3    H134007   6.385   4.394   2.784
11350TIP3    H234008   6.377   4.443   2.640
11351TIP3   OH234009   3.537   7.072   3.950
11351TIP3    H134010   3.569   7.129   4.020
11351TIP3    H234011   3.467   7.122   3.909
11352TIP3   OH234012   0.160   0.416   3.238
11352TIP3    H134013   0.072   0.381   3.232
11352TIP3    H234014   0.149   0.511   3.234
11353TIP3   OH234015   7.278   2.943   1.991
11353TIP3    H134016   7.301   2.869   2.046
11353TIP3    H234017   7.334   3.014   2.022
11354TIP3   OH234018   3.665   0.066   4.374
11354TIP3    H134019   3.592   0.092   4.430
11354TIP3    H234020   3.740   0.113   4.410
11355TIP3   OH234021   4.020   6.426   3.387
11355TIP3    H134022   4.039   6.505   3.438
11355TIP3    H234023   4.022   6.455   3.296
11356TIP3   OH234024   0.620   3.719   2.210
11356TIP3    H134025   0.644   3.632   2.242
11356TIP3    H234026   0.549   3.748   2.267
11357TIP3   OH234027   7.029   5.340   3.192
11357TIP3    H134028   7.046   5.404   3.261
11357TIP3    H234029   7.006   5.260   3.238
11358TIP3   OH234030   0.332   5.126   3.968
11358TIP3    H134031   0.415   5.086   3.995
11358TIP3    H234032   0.314   5.089   3.882
11359TIP3   OH234033   2.463   2.199   6.568
11359TIP3    H134034   2.518   2.272   6.541
11359TIP3    H234035   2.507   2.163   6.645
11360TIP3   OH234036   7.566   5.123   2.233
11360TIP3    H134037   7.554   5.204   2.183
11360TIP3    H234038   7.660   5.119   2.250
11361TIP3   OH234039   3.720   0.728   1.101
11361TIP3    H134040   3.734   0.715   1.007
11361TIP3    H234041   3.638   0.777   1.106
11362TIP3   OH234042   3.308   2.371   5.034
11362TIP3    H134043   3.261   2.307   4.980
11362TIP3    H234044   3.397   2.371   4.999
11363TIP3   OH234045   2.771   4.477   6.705
11363TIP3    H134046   2.715   4.544   6.744
11363TIP3    H234047   2.715   4.433   6.641
11364TIP3   OH234048   0.873   4.005   4.833
11364TIP3    H134049   0.779   4.015   4.821
11364TIP3    H234050   0.884   3.994   4.927
11365TIP3   OH234051   5.300   7.757   5.471
11365TIP3    H134052   5.329   7.813   5.400
11365TIP3    H234053   5.373   7.757   5.534
11366TIP3   OH234054   6.498   3.174   5.155
11366TIP3    H134055   6.405   3.176   5.133
11366TIP3    H234056   6.535   3.105   5.100
11367TIP3   OH234057   7.652   6.173   1.594
11367TIP3    H134058   7.596   6.152   1.519
11367TIP3    H234059   7.624   6.111   1.662
11368TIP3   OH234060   4.013   2.374   3.760
11368TIP3    H134061   4.010   2.283   3.791
11368TIP3    H234062   4.093   2.380   3.708
11369TIP3   OH234063   4.514   4.350   1.131
11369TIP3    H134064   4.537   4.301   1.210
11369TIP3    H234065   4.447   4.412   1.161
11370TIP3   OH234066   1.168   3.591   5.791
11370TIP3    H134067   1.107   3.540   5.737
11370TIP3    H234068   1.198   3.661   5.733
11371TIP3   OH234069   3.456   4.907   4.375
11371TIP3    H134070   3.499   4.870   4.297
11371TIP3    H234071   3.498   4.993   4.386
11372TIP3   OH234072   6.990   4.946   5.129
11372TIP3    H134073   6.927   4.875   5.146
11372TIP3    H234074   7.069   4.919   5.174
11373TIP3   OH234075   6.136   0.275   5.452
11373TIP3    H134076   6.096   0.361   5.458
11373TIP3    H234077   6.063   0.214   5.445
11374TIP3   OH234078   8.062   6.559   2.636
11374TIP3    H134079   8.108   6.631   2.679
11374TIP3    H234080   7.986   6.543   2.692
11375TIP3   OH234081   4.085   2.091   4.948
11375TIP3    H134082   4.122   2.016   4.993
11375TIP3    H234083   4.157   2.154   4.941
11376TIP3   OH234084   3.700   4.820   0.287
11376TIP3    H134085   3.717   4.816   0.193
11376TIP3    H234086   3.782   4.793   0.328
11377TIP3   OH234087   3.210   3.136   1.593
11377TIP3    H134088   3.248   3.202   1.651
11377TIP3    H234089   3.163   3.077   1.652
11378TIP3   OH234090   7.796   5.204   1.965
11378TIP3    H134091   7.711   5.239   1.939
11378TIP3    H234092   7.784   5.109   1.963
11379TIP3   OH234093   5.170   6.954   1.252
11379TIP3    H134094   5.201   7.002   1.175
11379TIP3    H234095   5.248   6.909   1.284
11380TIP3   OH234096   6.008   6.292   1.075
11380TIP3    H134097   5.950   6.218   1.092
11380TIP3    H234098   6.011   6.299   0.979
11381TIP3   OH234099   1.467   3.067   1.111
11381TIP3    H134100   1.381   3.099   1.138
11381TIP3    H234101   1.520   3.068   1.191
11382TIP3   OH234102   1.999   4.613   4.553
11382TIP3    H134103   1.946   4.607   4.473
11382TIP3    H234104   1.944   4.663   4.614
11383TIP3   OH234105   2.028   5.713   5.532
11383TIP3    H134106   1.964   5.724   5.603
11383TIP3    H234107   1.998   5.634   5.486
11384TIP3   OH234108   2.003   7.216   5.082
11384TIP3    H134109   1.961   7.302   5.071
11384TIP3    H234110   2.092   7.237   5.110
11385TIP3   OH234111   4.400   0.928   1.790
11385TIP3    H134112   4.309   0.915   1.764
11385TIP3    H234113   4.431   0.841   1.813
11386TIP3   OH234114   5.215   6.362   1.419
11386TIP3    H134115   5.245   6.275   1.448
11386TIP3    H234116   5.184   6.404   1.499
11387TIP3   OH234117   1.136   2.324   2.054
11387TIP3    H134118   1.187   2.313   1.974
11387TIP3    H234119   1.063   2.262   2.044
11388TIP3   OH234120   5.165   2.490   6.742
11388TIP3    H134121   5.071   2.476   6.757
11388TIP3    H234122   5.190   2.423   6.679
11389TIP3   OH234123   5.758   2.096   2.046
11389TIP3    H134124   5.763   2.095   2.142
11389TIP3    H234125   5.840   2.056   2.018
11390TIP3   OH234126   2.295   2.052   1.242
11390TIP3    H134127   2.235   2.085   1.174
11390TIP3    H234128   2.382   2.065   1.205
11391TIP3   OH234129   0.627   0.768   4.625
11391TIP3    H134130   0.616   0.818   4.544
11391TIP3    H234131   0.719   0.740   4.623
11392TIP3   OH234132   5.755   7.252   1.841
11392TIP3    H134133   5.814   7.209   1.903
11392TIP3    H234134   5.750   7.342   1.873
11393TIP3   OH234135   1.831   4.508   4.939
11393TIP3    H134136   1.847   4.543   5.026
11393TIP3    H234137   1.753   4.554   4.908
11394TIP3   OH234138   1.465   1.809   2.565
11394TIP3    H134139   1.396   1.813   2.631
11394TIP3    H234140   1.425   1.764   2.490
11395TIP3   OH234141   3.992   6.739   0.167
11395TIP3    H134142   4.069   6.689   0.197
11395TIP3    H234143   4.017   6.771   0.080
11396TIP3   OH234144   3.773   0.924   4.659
11396TIP3    H134145   3.730   0.997   4.614
11396TIP3    H234146   3.736   0.925   4.747
11397TIP3   OH234147   5.522   6.954   6.478
11397TIP3    H134148   5.470   6.904   6.540
11397TIP3    H234149   5.569   6.888   6.428
11398TIP3   OH234150   2.068   6.747   0.946
11398TIP3    H134151   2.161   6.736   0.929
11398TIP3    H234152   2.026   6.734   0.861
11399TIP3   OH234153   5.169   7.029   5.093
11399TIP3    H134154   5.234   7.087   5.132
11399TIP3    H234155   5.214   6.944   5.086
11400TIP3   OH234156   2.900   7.750   2.814
11400TIP3    H134157   2.894   7.656   2.796
11400TIP3    H234158   2.978   7.759   2.869
11401TIP3   OH234159   5.781   7.738   2.166
11401TIP3    H134160   5.714   7.802   2.143
11401TIP3    H234161   5.860   7.790   2.182
11402TIP3   OH234162   4.825   3.494   6.735
11402TIP3    H134163   4.919   3.506   6.750
11402TIP3    H234164   4.789   3.583   6.735
11403TIP3   OH234165   6.739   6.805   0.885
11403TIP3    H134166   6.782   6.872   0.831
11403TIP3    H234167   6.715   6.737   0.823
11404TIP3   OH234168   6.082   1.106   6.567
11404TIP3    H134169   6.103   1.199   6.554
11404TIP3    H234170   5.988   1.101   6.549
11405TIP3   OH234171   0.576   0.606   0.587
11405TIP3    H134172   0.539   0.614   0.675
11405TIP3    H234173   0.565   0.513   0.565
11406TIP3   OH234174   8.184   0.302   2.780
11406TIP3    H134175   8.136   0.372   2.825
11406TIP3    H234176   8.276   0.318   2.802
11407TIP3   OH234177   4.077   1.407   2.275
11407TIP3    H134178   4.125   1.488   2.259
11407TIP3    H234179   4.102   1.350   2.202
11408TIP3   OH234180   5.069   3.912   0.423
11408TIP3    H134181   5.057   3.920   0.518
11408TIP3    H234182   5.007   3.975   0.386
11409TIP3   OH234183   4.382   4.418   6.300
11409TIP3    H134184   4.368   4.453   6.389
11409TIP3    H234185   4.412   4.493   6.249
11410TIP3   OH234186   3.400   2.102   4.341
11410TIP3    H134187   3.407   2.065   4.428
11410TIP3    H234188   3.436   2.036   4.283
11411TIP3   OH234189   3.972   7.708   0.905
11411TIP3    H134190   3.955   7.791   0.948
11411TIP3    H234191   3.886   7.676   0.880
11412TIP3   OH234192   4.177   3.196   0.831
11412TIP3    H134193   4.223   3.238   0.757
11412TIP3    H234194   4.149   3.269   0.886
11413TIP3   OH234195   1.039   7.616   1.567
11413TIP3    H134196   0.997   7.554   1.626
11413TIP3    H234197   1.110   7.566   1.526
11414TIP3   OH234198   0.072   6.548   6.130
11414TIP3    H134199   0.078   6.525   6.037
11414TIP3    H234200   0.028   6.632   6.131
11415TIP3   OH234201   6.114   4.531   0.779
11415TIP3    H134202   6.039   4.589   0.766
11415TIP3    H234203   6.150   4.557   0.864
11416TIP3   OH234204   0.417   2.442   4.012
11416TIP3    H134205   0.413   2.505   4.084
11416TIP3    H234206   0.327   2.434   3.981
11417TIP3   OH234207   2.961   5.833   4.416
11417TIP3    H134208   3.003   5.749   4.396
11417TIP3    H234209   2.908   5.852   4.339
11418TIP3   OH234210   2.074   6.371   5.941
11418TIP3    H134211   1.997   6.350   5.995
11418TIP3    H234212   2.058   6.461   5.910
11419TIP3   OH234213   1.629   2.325   3.525
11419TIP3    H134214   1.631   2.358   3.436
11419TIP3    H234215   1.563   2.379   3.569
11420TIP3   OH234216   0.762   5.909   0.235
11420TIP3    H134217   0.779   5.828   0.187
11420TIP3    H234218   0.668   5.909   0.250
11421TIP3   OH234219   4.791   1.874   2.479
11421TIP3    H134220   4.859   1.919   2.429
11421TIP3    H234221   4.807   1.781   2.462
11422TIP3   OH234222   5.727   2.178   4.357
11422TIP3    H134223   5.667   2.205   4.427
11422TIP3    H234224   5.703   2.087   4.340
11423TIP3   OH234225   7.760   2.370   3.149
11423TIP3    H134226   7.793   2.450   3.108
11423TIP3    H234227   7.729   2.316   3.075
11424TIP3   OH234228   6.922   5.173   6.368
11424TIP3    H134229   6.890   5.135   6.286
11424TIP3    H234230   6.862   5.245   6.386
11425TIP3   OH234231   7.108   1.880   4.726
11425TIP3    H134232   7.111   1.929   4.809
11425TIP3    H234233   7.015   1.868   4.709
11426TIP3   OH234234   8.141   5.841   0.562
11426TIP3    H134235   8.118   5.747   0.562
11426TIP3    H234236   8.233   5.843   0.585
11427TIP3   OH234237   1.624   2.229   1.159
11427TIP3    H134238   1.586   2.282   1.089
11427TIP3    H234239   1.577   2.146   1.156
11428TIP3   OH234240   4.369   1.423   2.692
11428TIP3    H134241   4.412   1.338   2.679
11428TIP3    H234242   4.276   1.404   2.683
11429TIP3   OH234243   7.785   0.126   0.445
11429TIP3    H134244   7.723   0.181   0.493
11429TIP3    H234245   7.755   0.131   0.354
11430TIP3   OH234246   6.156   4.336   4.021
11430TIP3    H134247   6.141   4.358   3.929
11430TIP3    H234248   6.205   4.254   4.019
11431TIP3   OH234249   4.604   0.325   1.999
11431TIP3    H134250   4.583   0.324   1.906
11431TIP3    H234251   4.520   0.309   2.043
11432TIP3   OH234252   4.577   6.132   1.456
11432TIP3    H134253   4.555   6.111   1.365
11432TIP3    H234254   4.531   6.066   1.508
11433TIP3   OH234255   2.272   4.939   0.795
11433TIP3    H134256   2.193   4.888   0.810
11433TIP3    H234257   2.290   4.982   0.878
11434TIP3   OH234258   0.962   7.198   0.267
11434TIP3    H134259   0.875   7.159   0.280
11434TIP3    H234260   0.986   7.173   0.178
11435TIP3   OH234261   0.078   3.624   0.370
11435TIP3    H134262   0.003   3.564   0.374
11435TIP3    H234263   0.151   3.570   0.341
11436TIP3   OH234264   2.372   3.909   6.626
11436TIP3    H134265   2.400   3.976   6.563
11436TIP3    H234266   2.432   3.920   6.700
11437TIP3   OH234267   3.856   6.952   3.532
11437TIP3    H134268   3.853   7.047   3.524
11437TIP3    H234269   3.801   6.932   3.608
11438TIP3   OH234270   6.867   5.342   1.966
11438TIP3    H134271   6.921   5.265   1.983
11438TIP3    H234272   6.783   5.323   2.007
11439TIP3   OH234273   0.320   2.883   3.387
11439TIP3    H134274   0.341   2.974   3.368
11439TIP3    H234275   0.264   2.856   3.314
11440TIP3   OH234276   6.113   3.138   2.574
11440TIP3    H134277   6.192   3.085   2.579
11440TIP3    H234278   6.142   3.220   2.534
11441TIP3   OH234279   4.934   2.884   0.216
11441TIP3    H134280   4.976   2.855   0.297
11441TIP3    H234281   4.874   2.813   0.193
11442TIP3   OH234282   1.397   1.155   6.622
11442TIP3    H134283   1.448   1.116   6.551
11442TIP3    H234284   1.443   1.129   6.702
11443TIP3   OH234285   2.220   7.337   4.901
11443TIP3    H134286   2.297   7.290   4.868
11443TIP3    H234287   2.183   7.279   4.967
11444TIP3   OH234288   5.405   2.946   6.290
11444TIP3    H134289   5.369   3.001   6.220
11444TIP3    H234290   5.398   2.857   6.256
11445TIP3   OH234291   5.433   6.482   0.524
11445TIP3    H134292   5.361   6.453   0.580
11445TIP3    H234293   5.511   6.446   0.564
11446TIP3   OH234294   2.715   0.736   0.423
11446TIP3    H134295   2.648   0.794   0.460
11446TIP3    H234296   2.785   0.737   0.488
11447TIP3   OH234297   5.136   4.614   3.457
11447TIP3    H134298   5.158   4.627   3.365
11447TIP3    H234299   5.214   4.640   3.505
11448TIP3   OH234300   7.836   2.213   0.208
11448TIP3    H134301   7.834   2.121   0.235
11448TIP3    H234302   7.862   2.211   0.116
11449TIP3   OH234303   6.321   6.971   5.269
11449TIP3    H134304   6.314   6.997   5.361
11449TIP3    H234305   6.236   6.992   5.231
11450TIP3   OH234306   5.262   4.964   3.037
11450TIP3    H134307   5.202   4.959   2.963
11450TIP3    H234308   5.205   4.960   3.114
11451TIP3   OH234309   4.252   1.592   6.181
11451TIP3    H134310   4.197   1.519   6.209
11451TIP3    H234311   4.243   1.594   6.086
11452TIP3   OH234312   4.981   2.546   2.791
11452TIP3    H134313   4.938   2.565   2.875
11452TIP3    H234314   5.063   2.503   2.815
11453TIP3   OH234315   8.008   5.334   6.319
11453TIP3    H134316   7.929   5.327   6.373
11453TIP3    H234317   8.022   5.245   6.286
11454TIP3   OH234318   0.638   6.268   4.802
11454TIP3    H134319   0.584   6.345   4.822
11454TIP3    H234320   0.644   6.221   4.885
11455TIP3   OH234321   7.272   2.644   0.027
11455TIP3    H134322   7.329   2.584   0.076
11455TIP3    H234323   7.316   2.729   0.032
11456TIP3   OH234324   6.401   6.421   4.142
11456TIP3    H134325   6.364   6.353   4.198
11456TIP3    H234326   6.409   6.497   4.199
11457TIP3   OH234327   6.403   2.876   4.227
11457TIP3    H134328   6.338   2.912   4.286
11457TIP3    H234329   6.422   2.947   4.165
11458TIP3   OH234330   0.447   6.482   4.733
11458TIP3    H134331   0.361   6.505   4.700
11458TIP3    H234332   0.484   6.564   4.766
11459TIP3   OH234333   7.083   6.946   6.141
11459TIP3    H134334   7.117   7.024   6.187
11459TIP3    H234335   7.059   6.886   6.211
11460TIP3   OH234336   2.918   4.321   4.537
11460TIP3    H134337   2.863   4.263   4.590
11460TIP3    H234338   2.921   4.403   4.587
11461TIP3   OH234339   4.330   5.431   6.128
11461TIP3    H134340   4.260   5.455   6.068
11461TIP3    H234341   4.410   5.462   6.086
11462TIP3   OH234342   0.674   1.294   2.859
11462TIP3    H134343   0.656   1.384   2.835
11462TIP3    H234344   0.675   1.294   2.955
11463TIP3   OH234345   8.122   6.034   1.589
11463TIP3    H134346   8.197   6.023   1.530
11463TIP3    H234347   8.047   6.008   1.536
11464TIP3   OH234348   7.517   7.671   4.454
11464TIP3    H134349   7.444   7.725   4.484
11464TIP3    H234350   7.591   7.699   4.507
11465TIP3   OH234351   5.507   7.181   6.222
11465TIP3    H134352   5.493   7.263   6.175
11465TIP3    H234353   5.570   7.133   6.169
11466TIP3   OH234354   2.423   3.159   4.036
11466TIP3    H134355   2.514   3.187   4.027
11466TIP3    H234356   2.399   3.131   3.947
11467TIP3   OH234357   6.186   7.333   2.578
11467TIP3    H134358   6.100   7.351   2.616
11467TIP3    H234359   6.240   7.408   2.603
11468TIP3   OH234360   0.561   2.290   3.716
11468TIP3    H134361   0.595   2.379   3.728
11468TIP3    H234362   0.491   2.299   3.651
11469TIP3   OH234363   5.990   4.772   5.271
11469TIP3    H134364   5.932   4.698   5.292
11469TIP3    H234365   5.969   4.793   5.180
11470TIP3   OH234366   4.652   3.403   3.145
11470TIP3    H134367   4.730   3.355   3.120
11470TIP3    H234368   4.665   3.425   3.237
11471TIP3   OH234369   5.183   0.881   0.665
11471TIP3    H134370   5.149   0.944   0.602
11471TIP3    H234371   5.267   0.917   0.692
11472TIP3   OH234372   7.912   1.839   0.789
11472TIP3    H134373   7.990   1.893   0.777
11472TIP3    H234374   7.840   1.902   0.791
11473TIP3   OH234375   7.896   2.611   0.897
11473TIP3    H134376   7.918   2.520   0.920
11473TIP3    H234377   7.874   2.651   0.981
11474TIP3   OH234378   4.968   2.339   3.059
11474TIP3    H134379   5.041   2.400   3.069
11474TIP3    H234380   5.004   2.266   3.008
11475TIP3   OH234381   0.098   3.124   1.686
11475TIP3    H134382   0.094   3.067   1.609
11475TIP3    H234383   0.187   3.114   1.719
11476TIP3   OH234384   8.009   1.412   0.915
11476TIP3    H134385   7.980   1.498   0.945
11476TIP3    H234386   8.026   1.363   0.996
11477TIP3   OH234387   3.534   7.326   1.824
11477TIP3    H134388   3.466   7.258   1.831
11477TIP3    H234389   3.511   7.390   1.891
11478TIP3   OH234390   6.202   1.576   1.968
11478TIP3    H134391   6.199   1.651   1.909
11478TIP3    H234392   6.293   1.546   1.965
11479TIP3   OH234393   3.946   7.489   5.870
11479TIP3    H134394   3.873   7.493   5.808
11479TIP3    H234395   3.911   7.530   5.949
11480TIP3   OH234396   2.392   1.143   0.601
11480TIP3    H134397   2.411   1.179   0.687
11480TIP3    H234398   2.331   1.205   0.561
11481TIP3   OH234399   4.480   2.603   1.239
11481TIP3    H134400   4.552   2.585   1.299
11481TIP3    H234401   4.474   2.699   1.237
11482TIP3   OH234402   2.633   5.433   5.761
11482TIP3    H134403   2.616   5.472   5.846
11482TIP3    H234404   2.586   5.349   5.763
11483TIP3   OH234405   3.960   2.869   0.332
11483TIP3    H134406   3.926   2.839   0.248
11483TIP3    H234407   3.945   2.964   0.331
11484TIP3   OH234408   7.540   5.786   2.722
11484TIP3    H134409   7.556   5.796   2.816
11484TIP3    H234410   7.445   5.780   2.715
11485TIP3   OH234411   5.135   2.598   3.650
11485TIP3    H134412   5.049   2.565   3.678
11485TIP3    H234413   5.179   2.622   3.731
11486TIP3   OH234414   5.084   7.625   1.303
11486TIP3    H134415   5.010   7.616   1.362
11486TIP3    H234416   5.075   7.714   1.267
11487TIP3   OH234417   6.936   5.960   3.377
11487TIP3    H134418   6.874   5.977   3.448
11487TIP3    H234419   6.959   6.047   3.344
11488TIP3   OH234420   0.819   4.247   5.608
11488TIP3    H134421   0.844   4.212   5.522
11488TIP3    H234422   0.861   4.333   5.613
11489TIP3   OH234423   8.141   7.691   4.376
11489TIP3    H134424   8.151   7.759   4.442
11489TIP3    H234425   8.112   7.614   4.424
11490TIP3   OH234426   5.858   2.213   5.077
11490TIP3    H134427   5.850   2.271   5.001
11490TIP3    H234428   5.794   2.144   5.061
11491TIP3   OH234429   3.187   5.499   1.545
11491TIP3    H134430   3.206   5.449   1.625
11491TIP3    H234431   3.270   5.544   1.525
11492TIP3   OH234432   4.263   1.736   4.385
11492TIP3    H134433   4.313   1.667   4.428
11492TIP3    H234434   4.305   1.748   4.300
11493TIP3   OH234435   6.905   2.582   4.470
11493TIP3    H134436   6.996   2.558   4.488
11493TIP3    H234437   6.868   2.506   4.425
11494TIP3   OH234438   1.955   2.907   3.001
11494TIP3    H134439   2.017   2.855   2.950
11494TIP3    H234440   1.963   2.996   2.967
11495TIP3   OH234441   4.230   5.547   6.652
11495TIP3    H134442   4.308   5.580   6.696
11495TIP3    H234443   4.257   5.536   6.561
11496TIP3   OH234444   3.361   5.608   5.394
11496TIP3    H134445   3.340   5.553   5.469
11496TIP3    H234446   3.310   5.571   5.322
11497TIP3   OH234447   7.913   1.847   3.527
11497TIP3    H134448   7.863   1.769   3.552
11497TIP3    H234449   7.992   1.844   3.581
11498TIP3   OH234450   5.437   7.524   2.312
11498TIP3    H134451   5.348   7.528   2.348
11498TIP3    H234452   5.494   7.545   2.386
11499TIP3   OH234453   2.401   5.534   4.616
11499TIP3    H134454   2.446   5.554   4.533
11499TIP3    H234455   2.341   5.463   4.594
11500TIP3   OH234456   5.224   5.707   4.903
11500TIP3    H134457   5.158   5.680   4.840
11500TIP3    H234458   5.273   5.628   4.924
11501TIP3   OH234459   4.370   5.149   6.025
11501TIP3    H134460   4.462   5.154   5.999
11501TIP3    H234461   4.348   5.238   6.053
11502TIP3   OH234462   4.118   6.675   4.668
11502TIP3    H134463   4.064   6.597   4.661
11502TIP3    H234464   4.099   6.711   4.755
11503TIP3   OH234465   5.183   5.627   2.512
11503TIP3    H134466   5.107   5.682   2.496
11503TIP3    H234467   5.149   5.537   2.507
11504TIP3   OH234468   3.634   4.346   4.495
11504TIP3    H134469   3.688   4.317   4.569
11504TIP3    H234470   3.567   4.278   4.486
11505TIP3   OH234471   5.300   0.421   1.734
11505TIP3    H134472   5.348   0.439   1.654
11505TIP3    H234473   5.366   0.387   1.795
11506TIP3   OH234474   0.302   6.952   2.149
11506TIP3    H134475   0.356   6.949   2.228
11506TIP3    H234476   0.228   6.895   2.169
11507TIP3   OH234477   2.368   4.490   4.414
11507TIP3    H134478   2.284   4.445   4.415
11507TIP3    H234479   2.432   4.422   4.389
11508TIP3   OH234480   2.471   4.459   2.400
11508TIP3    H134481   2.427   4.541   2.422
11508TIP3    H234482   2.501   4.472   2.310
11509TIP3   OH234483   3.514   1.205   0.618
11509TIP3    H134484   3.585   1.256   0.579
11509TIP3    H234485   3.555   1.121   0.642
11510TIP3   OH234486   6.960   0.273   1.683
11510TIP3    H134487   7.033   0.317   1.639
11510TIP3    H234488   6.999   0.237   1.763
11511TIP3   OH234489   5.463   4.492   6.374
11511TIP3    H134490   5.387   4.475   6.319
11511TIP3    H234491   5.427   4.538   6.451
11512TIP3   OH234492   5.720   6.521   2.585
11512TIP3    H134493   5.720   6.617   2.580
11512TIP3    H234494   5.627   6.497   2.581
11513TIP3   OH234495   3.380   3.727   5.182
11513TIP3    H134496   3.395   3.642   5.142
11513TIP3    H234497   3.445   3.733   5.252
11514TIP3   OH234498   0.657   3.289   6.612
11514TIP3    H134499   0.604   3.252   6.683
11514TIP3    H234500   0.611   3.369   6.588
11515TIP3   OH234501   3.735   1.010   2.133
11515TIP3    H134502   3.743   1.097   2.094
11515TIP3    H234503   3.661   1.018   2.194
11516TIP3   OH234504   2.227   2.043   5.610
11516TIP3    H134505   2.163   1.983   5.573
11516TIP3    H234506   2.174   2.113   5.650
11517TIP3   OH234507   2.499   0.982   6.489
11517TIP3    H134508   2.467   1.055   6.436
11517TIP3    H234509   2.533   0.919   6.426
11518TIP3   OH234510   7.778   3.392   4.303
11518TIP3    H134511   7.809   3.449   4.233
11518TIP3    H234512   7.857   3.353   4.340
11519TIP3   OH234513   7.817   1.977   2.114
11519TIP3    H134514   7.877   2.009   2.047
11519TIP3    H234515   7.762   2.053   2.134
11520TIP3   OH234516   4.519   3.499   0.498
11520TIP3    H134517   4.524   3.428   0.435
11520TIP3    H234518   4.503   3.456   0.582
11521TIP3   OH234519   0.272   7.662   5.197
11521TIP3    H134520   0.241   7.729   5.257
11521TIP3    H234521   0.300   7.710   5.119
11522TIP3   OH234522   2.218   6.006   0.492
11522TIP3    H134523   2.161   5.966   0.557
11522TIP3    H234524   2.289   5.943   0.481
11523TIP3   OH234525   5.877   4.669   0.718
11523TIP3    H134526   5.812   4.707   0.778
11523TIP3    H234527   5.844   4.690   0.631
11524TIP3   OH234528   5.145   4.784   5.053
11524TIP3    H134529   5.152   4.749   5.142
11524TIP3    H234530   5.089   4.861   5.062
11525TIP3   OH234531   4.976   6.503   6.557
11525TIP3    H134532   4.913   6.454   6.504
11525TIP3    H234533   5.057   6.453   6.550
11526TIP3   OH234534   5.813   3.171   3.490
11526TIP3    H134535   5.870   3.102   3.524
11526TIP3    H234536   5.850   3.192   3.404
11527TIP3   OH234537   7.647   5.862   1.491
11527TIP3    H134538   7.573   5.909   1.531
11527TIP3    H234539   7.623   5.770   1.498
11528TIP3   OH234540   2.527   1.704   3.313
11528TIP3    H134541   2.506   1.705   3.219
11528TIP3    H234542   2.622   1.715   3.316
11529TIP3   OH234543   3.250   7.054   0.018
11529TIP3    H134544   3.316   7.029   0.082
11529TIP3    H234545   3.170   7.012   0.048
11530TIP3   OH234546   5.283   1.026   4.927
11530TIP3    H134547   5.269   0.995   5.016
11530TIP3    H234548   5.202   1.006   4.881
11531TIP3   OH234549   0.292   6.299   6.223
11531TIP3    H134550   0.244   6.216   6.229
11531TIP3    H234551   0.245   6.359   6.280
11532TIP3   OH234552   0.935   5.470   1.949
11532TIP3    H134553   0.984   5.419   1.884
11532TIP3    H234554   0.906   5.406   2.014
11533TIP3   OH234555   8.172   1.240   4.959
11533TIP3    H134556   8.105   1.266   5.022
11533TIP3    H234557   8.145   1.152   4.932
11534TIP3   OH234558   4.155   3.029   5.479
11534TIP3    H134559   4.096   2.968   5.523
11534TIP3    H234560   4.226   3.044   5.541
11535TIP3   OH234561   4.096   3.798   0.798
11535TIP3    H134562   4.167   3.734   0.798
11535TIP3    H234563   4.108   3.847   0.880
11536TIP3   OH234564   0.972   5.268   3.061
11536TIP3    H134565   1.010   5.336   3.117
11536TIP3    H234566   0.935   5.204   3.121
11537TIP3   OH234567   7.472   7.626   3.470
11537TIP3    H134568   7.462   7.531   3.479
11537TIP3    H234569   7.504   7.655   3.556
11538TIP3   OH234570   5.860   1.333   1.667
11538TIP3    H134571   5.840   1.290   1.751
11538TIP3    H234572   5.938   1.386   1.686
11539TIP3   OH234573   6.460   3.111   4.079
11539TIP3    H134574   6.433   3.183   4.136
11539TIP3    H234575   6.493   3.154   4.000
11540TIP3   OH234576   0.503   5.913   0.295
11540TIP3    H134577   0.495   6.003   0.261
11540TIP3    H234578   0.464   5.859   0.227
11541TIP3   OH234579   5.493   1.357   6.376
11541TIP3    H134580   5.438   1.294   6.424
11541TIP3    H234581   5.439   1.383   6.301
11542TIP3   OH234582   2.130   2.306   1.026
11542TIP3    H134583   2.066   2.274   1.090
11542TIP3    H234584   2.102   2.267   0.943
11543TIP3   OH234585   6.982   1.836   6.402
11543TIP3    H134586   6.972   1.929   6.383
11543TIP3    H234587   6.892   1.803   6.404
11544TIP3   OH234588   6.739   5.148   6.759
11544TIP3    H134589   6.831   5.124   6.762
11544TIP3    H234590   6.738   5.240   6.787
11545TIP3   OH234591   1.856   0.638   2.996
11545TIP3    H134592   1.763   0.655   2.987
11545TIP3    H234593   1.889   0.630   2.907
11546TIP3   OH234594   6.608   5.905   0.420
11546TIP3    H134595   6.651   5.976   0.469
11546TIP3    H234596   6.556   5.950   0.354
11547TIP3   OH234597   8.272   5.668   2.267
11547TIP3    H134598   8.228   5.685   2.183
11547TIP3    H234599   8.364   5.684   2.248
11548TIP3   OH234600   6.348   2.032   4.373
11548TIP3    H134601   6.368   1.941   4.394
11548TIP3    H234602   6.276   2.027   4.311
11549TIP3   OH234603   1.798   6.025   4.530
11549TIP3    H134604   1.718   6.044   4.578
11549TIP3    H234605   1.808   6.100   4.470
11550TIP3   OH234606   7.985   0.303   1.811
11550TIP3    H134607   7.937   0.374   1.853
11550TIP3    H234608   7.957   0.306   1.719
11551TIP3   OH234609   6.633   5.732   1.439
11551TIP3    H134610   6.592   5.810   1.400
11551TIP3    H234611   6.688   5.697   1.369
11552TIP3   OH234612   5.690   4.962   0.682
11552TIP3    H134613   5.710   5.053   0.707
11552TIP3    H234614   5.693   4.913   0.764
11553TIP3   OH234615   6.675   3.006   5.436
11553TIP3    H134616   6.734   3.001   5.510
11553TIP3    H234617   6.731   3.025   5.361
11554TIP3   OH234618   5.432   4.680   2.602
11554TIP3    H134619   5.517   4.699   2.561
11554TIP3    H234620   5.402   4.764   2.636
11555TIP3   OH234621   3.914   2.041   2.344
11555TIP3    H134622   3.822   2.064   2.355
11555TIP3    H234623   3.962   2.112   2.388
11556TIP3   OH234624   4.406   3.409   3.022
11556TIP3    H134625   4.352   3.338   3.058
11556TIP3    H234626   4.490   3.400   3.067
11557TIP3   OH234627   4.014   0.964   3.451
11557TIP3    H134628   4.058   1.047   3.434
11557TIP3    H234629   4.017   0.955   3.547
11558TIP3   OH234630   6.750   4.037   1.566
11558TIP3    H134631   6.777   3.949   1.539
11558TIP3    H234632   6.716   4.026   1.654
11559TIP3   OH234633   2.638   4.108   5.934
11559TIP3    H134634   2.562   4.060   5.966
11559TIP3    H234635   2.708   4.044   5.934
11560TIP3   OH234636   6.153   1.461   2.928
11560TIP3    H134637   6.144   1.544   2.976
11560TIP3    H234638   6.082   1.406   2.961
11561TIP3   OH234639   5.826   3.713   3.136
11561TIP3    H134640   5.782   3.794   3.109
11561TIP3    H234641   5.755   3.656   3.166
11562TIP3   OH234642   4.150   0.607   2.266
11562TIP3    H134643   4.055   0.602   2.276
11562TIP3    H234644   4.164   0.599   2.172
11563TIP3   OH234645   5.346   1.832   0.117
11563TIP3    H134646   5.342   1.923   0.085
11563TIP3    H234647   5.362   1.780   0.038
11564TIP3   OH234648   2.350   5.226   1.097
11564TIP3    H134649   2.360   5.273   1.015
11564TIP3    H234650   2.267   5.178   1.087
11565TIP3   OH234651   3.262   0.037   5.347
11565TIP3    H134652   3.172   0.064   5.366
11565TIP3    H234653   3.292   0.097   5.279
11566TIP3   OH234654   4.820   3.304   0.488
11566TIP3    H134655   4.731   3.288   0.456
11566TIP3    H234656   4.875   3.252   0.429
11567TIP3   OH234657   3.945   3.734   5.768
11567TIP3    H134658   3.992   3.708   5.689
11567TIP3    H234659   3.857   3.755   5.737
11568TIP3   OH234660   1.146   3.439   3.614
11568TIP3    H134661   1.143   3.482   3.700
11568TIP3    H234662   1.167   3.348   3.633
11569TIP3   OH234663   5.944   6.827   3.741
11569TIP3    H134664   5.932   6.774   3.662
11569TIP3    H234665   6.038   6.845   3.744
11570TIP3   OH234666   1.521   3.881   4.245
11570TIP3    H134667   1.548   3.896   4.336
11570TIP3    H234668   1.594   3.833   4.206
11571TIP3   OH234669   7.205   0.513   6.277
11571TIP3    H134670   7.273   0.464   6.323
11571TIP3    H234671   7.246   0.598   6.258
11572TIP3   OH234672   0.103   3.796   2.815
11572TIP3    H134673   0.151   3.809   2.896
11572TIP3    H234674   0.102   3.882   2.773
11573TIP3   OH234675   0.954   3.516   3.322
11573TIP3    H134676   0.913   3.598   3.348
11573TIP3    H234677   0.996   3.484   3.401
11574TIP3   OH234678   0.948   7.648   4.326
11574TIP3    H134679   0.887   7.594   4.376
11574TIP3    H234680   0.925   7.738   4.349
11575TIP3   OH234681   6.665   3.802   3.114
11575TIP3    H134682   6.680   3.897   3.116
11575TIP3    H234683   6.673   3.776   3.206
11576TIP3   OH234684   3.557   4.733   6.508
11576TIP3    H134685   3.613   4.685   6.446
11576TIP3    H234686   3.471   4.693   6.498
11577TIP3   OH234687   2.188   5.093   5.745
11577TIP3    H134688   2.222   5.005   5.765
11577TIP3    H234689   2.263   5.140   5.710
11578TIP3   OH234690   2.187   0.336   3.841
11578TIP3    H134691   2.118   0.369   3.898
11578TIP3    H234692   2.243   0.412   3.823
11579TIP3   OH234693   6.114   4.354   1.892
11579TIP3    H134694   6.099   4.426   1.831
11579TIP3    H234695   6.152   4.396   1.969
11580TIP3   OH234696   2.023   3.228   0.273
11580TIP3    H134697   2.107   3.225   0.318
11580TIP3    H234698   1.980   3.146   0.297
11581TIP3   OH234699   2.697   3.278   0.305
11581TIP3    H134700   2.747   3.282   0.386
11581TIP3    H234701   2.643   3.357   0.307
11582TIP3   OH234702   7.027   5.166   1.102
11582TIP3    H134703   6.959   5.149   1.167
11582TIP3    H234704   7.091   5.221   1.148
11583TIP3   OH234705   6.075   5.289   3.426
11583TIP3    H134706   5.981   5.309   3.426
11583TIP3    H234707   6.085   5.221   3.492
11584TIP3   OH234708   4.235   1.777   0.524
11584TIP3    H134709   4.244   1.872   0.512
11584TIP3    H234710   4.179   1.768   0.600
11585TIP3   OH234711   3.848   5.000   2.320
11585TIP3    H134712   3.875   4.920   2.275
11585TIP3    H234713   3.908   5.067   2.288
11586TIP3   OH234714   7.561   6.889   4.850
11586TIP3    H134715   7.566   6.983   4.866
11586TIP3    H234716   7.652   6.860   4.852
11587TIP3   OH234717   5.826   5.888   3.692
11587TIP3    H134718   5.738   5.905   3.660
11587TIP3    H234719   5.869   5.973   3.689
11588TIP3   OH234720   5.803   2.116   2.680
11588TIP3    H134721   5.712   2.144   2.684
11588TIP3    H234722   5.854   2.197   2.681
11589TIP3   OH234723   5.070   7.020   2.882
11589TIP3    H134724   5.044   7.110   2.859
11589TIP3    H234725   5.056   6.970   2.802
11590TIP3   OH234726   1.642   0.959   0.965
11590TIP3    H134727   1.600   0.879   0.936
11590TIP3    H234728   1.660   1.008   0.884
11591TIP3   OH234729   2.785   4.437   4.335
11591TIP3    H134730   2.829   4.357   4.364
11591TIP3    H234731   2.846   4.507   4.357
11592TIP3   OH234732   3.363   7.355   5.461
11592TIP3    H134733   3.426   7.400   5.404
11592TIP3    H234734   3.396   7.370   5.550
11593TIP3   OH234735   7.979   0.105   2.860
11593TIP3    H134736   8.043   0.035   2.870
11593TIP3    H234737   8.019   0.166   2.799
11594TIP3   OH234738   3.599   0.786   4.306
11594TIP3    H134739   3.591   0.867   4.256
11594TIP3    H234740   3.690   0.758   4.294
11595TIP3   OH234741   7.225   5.203   1.284
11595TIP3    H134742   7.261   5.114   1.286
11595TIP3    H234743   7.301   5.260   1.288
11596TIP3   OH234744   7.941   7.386   2.403
11596TIP3    H134745   7.998   7.406   2.329
11596TIP3    H234746   7.965   7.297   2.429
11597TIP3   OH234747   2.430   4.787   1.089
11597TIP3    H134748   2.485   4.775   1.167
11597TIP3    H234749   2.474   4.856   1.039
11598TIP3   OH234750   1.857   6.910   4.646
11598TIP3    H134751   1.827   6.955   4.725
11598TIP3    H234752   1.938   6.866   4.673
11599TIP3   OH234753   5.209   5.848   5.349
11599TIP3    H134754   5.170   5.923   5.304
11599TIP3    H234755   5.144   5.824   5.415
11600TIP3   OH234756   6.382   1.092   1.194
11600TIP3    H134757   6.354   1.003   1.173
11600TIP3    H234758   6.405   1.131   1.110
11601TIP3   OH234759   5.743   1.475   1.993
11601TIP3    H134760   5.821   1.458   2.046
11601TIP3    H234761   5.694   1.540   2.044
11602TIP3   OH234762   1.169   5.468   6.238
11602TIP3    H134763   1.101   5.526   6.204
11602TIP3    H234764   1.144   5.452   6.329
11603TIP3   OH234765   4.513   4.319   4.788
11603TIP3    H134766   4.557   4.348   4.868
11603TIP3    H234767   4.424   4.299   4.816
11604TIP3   OH234768   2.974   0.974   0.805
11604TIP3    H134769   3.058   0.992   0.849
11604TIP3    H234770   2.950   1.057   0.764
11605TIP3   OH234771   8.117   1.854   2.677
11605TIP3    H134772   8.057   1.926   2.698
11605TIP3    H234773   8.063   1.775   2.687
11606TIP3   OH234774   7.522   3.174   5.774
11606TIP3    H134775   7.581   3.203   5.844
11606TIP3    H234776   7.570   3.191   5.693
11607TIP3   OH234777   7.531   1.744   6.579
11607TIP3    H134778   7.516   1.730   6.486
11607TIP3    H234779   7.612   1.697   6.598
11608TIP3   OH234780   5.792   4.068   0.673
11608TIP3    H134781   5.736   4.146   0.676
11608TIP3    H234782   5.874   4.096   0.714
11609TIP3   OH234783   0.426   6.938   2.414
11609TIP3    H134784   0.508   6.949   2.367
11609TIP3    H234785   0.421   7.014   2.472
11610TIP3   OH234786   6.599   2.286   0.600
11610TIP3    H134787   6.517   2.246   0.629
11610TIP3    H234788   6.667   2.241   0.651
11611TIP3   OH234789   5.025   0.150   1.611
11611TIP3    H134790   5.038   0.069   1.660
11611TIP3    H234791   4.940   0.137   1.567
11612TIP3   OH234792   0.118   7.416   3.826
11612TIP3    H134793   0.076   7.499   3.806
11612TIP3    H234794   0.053   7.367   3.876
11613TIP3   OH234795   4.138   1.798   4.086
11613TIP3    H134796   4.069   1.733   4.069
11613TIP3    H234797   4.091   1.872   4.123
11614TIP3   OH234798   1.726   5.929   0.504
11614TIP3    H134799   1.723   5.895   0.414
11614TIP3    H234800   1.705   5.853   0.559
11615TIP3   OH234801   6.444   7.036   1.655
11615TIP3    H134802   6.457   7.031   1.750
11615TIP3    H234803   6.445   6.945   1.626
11616TIP3   OH234804   3.278   2.538   3.401
11616TIP3    H134805   3.330   2.618   3.407
11616TIP3    H234806   3.242   2.527   3.489
11617TIP3   OH234807   4.588   5.395   6.744
11617TIP3    H134808   4.681   5.412   6.733
11617TIP3    H234809   4.579   5.301   6.735
11618TIP3   OH234810   6.480   4.621   0.227
11618TIP3    H134811   6.418   4.691   0.248
11618TIP3    H234812   6.563   4.651   0.263
11619TIP3   OH234813   2.158   6.081   4.851
11619TIP3    H134814   2.069   6.047   4.860
11619TIP3    H234815   2.205   6.014   4.802
11620TIP3   OH234816   0.573   5.630   0.311
11620TIP3    H134817   0.568   5.683   0.391
11620TIP3    H234818   0.530   5.548   0.334
11621TIP3   OH234819   4.173   1.853   3.230
11621TIP3    H134820   4.258   1.814   3.211
11621TIP3    H234821   4.164   1.846   3.325
11622TIP3   OH234822   6.200   5.958   2.787
11622TIP3    H134823   6.203   6.044   2.747
11622TIP3    H234824   6.224   5.973   2.879
11623TIP3   OH234825   8.088   0.157   6.433
11623TIP3    H134826   8.045   0.092   6.488
11623TIP3    H234827   8.022   0.179   6.367
11624TIP3   OH234828   4.871   1.267   0.617
11624TIP3    H134829   4.859   1.198   0.683
11624TIP3    H234830   4.966   1.281   0.615
11625TIP3   OH234831   2.104   3.926   3.506
11625TIP3    H134832   2.072   3.964   3.424
11625TIP3    H234833   2.103   3.998   3.568
11626TIP3   OH234834   0.335   2.390   1.264
11626TIP3    H134835   0.369   2.330   1.331
11626TIP3    H234836   0.413   2.421   1.217
11627TIP3   OH234837   3.117   3.928   6.647
11627TIP3    H134838   3.027   3.900   6.657
11627TIP3    H234839   3.164   3.884   6.718
11628TIP3   OH234840   2.732   1.498   3.542
11628TIP3    H134841   2.826   1.482   3.554
11628TIP3    H234842   2.714   1.469   3.452
11629TIP3   OH234843   5.479   1.013   2.389
11629TIP3    H134844   5.496   1.040   2.299
11629TIP3    H234845   5.557   0.965   2.415
11630TIP3   OH234846   0.970   2.697   1.493
11630TIP3    H134847   0.876   2.684   1.484
11630TIP3    H234848   0.999   2.722   1.405
11631TIP3   OH234849   3.268   3.119   4.618
11631TIP3    H134850   3.347   3.068   4.635
11631TIP3    H234851   3.299   3.201   4.580
11632TIP3   OH234852   5.169   4.618   1.366
11632TIP3    H134853   5.208   4.538   1.330
11632TIP3    H234854   5.160   4.600   1.459
11633TIP3   OH234855   1.700   1.118   1.313
11633TIP3    H134856   1.690   1.150   1.403
11633TIP3    H234857   1.672   1.027   1.316
11634TIP3   OH234858   7.830   3.316   1.302
11634TIP3    H134859   7.815   3.362   1.220
11634TIP3    H234860   7.923   3.296   1.302
11635TIP3   OH234861   7.519   4.923   4.340
11635TIP3    H134862   7.429   4.906   4.367
11635TIP3    H234863   7.515   5.008   4.295
11636TIP3   OH234864   4.391   5.091   6.746
11636TIP3    H134865   4.354   5.175   6.772
11636TIP3    H234866   4.483   5.096   6.772
11637TIP3   OH234867   5.154   5.386   6.381
11637TIP3    H134868   5.095   5.461   6.382
11637TIP3    H234869   5.108   5.319   6.433
11638TIP3   OH234870   3.066   1.562   3.979
11638TIP3    H134871   3.141   1.562   4.039
11638TIP3    H234872   3.105   1.576   3.893
11639TIP3   OH234873   2.152   0.363   0.054
11639TIP3    H134874   2.193   0.331   0.135
11639TIP3    H234875   2.076   0.307   0.042
11640TIP3   OH234876   4.240   6.231   1.203
11640TIP3    H134877   4.185   6.207   1.128
11640TIP3    H234878   4.233   6.327   1.208
11641TIP3   OH234879   7.551   4.147   1.161
11641TIP3    H134880   7.641   4.118   1.177
11641TIP3    H234881   7.556   4.243   1.163
11642TIP3   OH234882   2.167   3.613   3.947
11642TIP3    H134883   2.122   3.666   4.013
11642TIP3    H234884   2.099   3.595   3.882
11643TIP3   OH234885   1.584   6.139   2.497
11643TIP3    H134886   1.524   6.210   2.473
11643TIP3    H234887   1.651   6.139   2.428
11644TIP3   OH234888   1.593   5.653   1.095
11644TIP3    H134889   1.673   5.676   1.048
11644TIP3    H234890   1.535   5.618   1.028
11645TIP3   OH234891   6.743   4.794   4.902
11645TIP3    H134892   6.815   4.782   4.964
11645TIP3    H234893   6.688   4.861   4.941
11646TIP3   OH234894   5.689   4.446   1.277
11646TIP3    H134895   5.637   4.522   1.302
11646TIP3    H234896   5.778   4.480   1.269
11647TIP3   OH234897   7.169   5.754   5.992
11647TIP3    H134898   7.242   5.802   6.029
11647TIP3    H234899   7.200   5.664   5.984
11648TIP3   OH234900   7.863   5.007   3.291
11648TIP3    H134901   7.844   5.037   3.203
11648TIP3    H234902   7.905   5.082   3.333
11649TIP3   OH234903   0.373   1.585   6.657
11649TIP3    H134904   0.445   1.587   6.594
11649TIP3    H234905   0.411   1.544   6.735
11650TIP3   OH234906   4.888   5.373   1.112
11650TIP3    H134907   4.981   5.352   1.116
11650TIP3    H234908   4.882   5.464   1.142
11651TIP3   OH234909   3.574   2.302   4.999
11651TIP3    H134910   3.643   2.312   4.934
11651TIP3    H234911   3.618   2.311   5.083
11652TIP3   OH234912   5.924   0.334   0.296
11652TIP3    H134913   5.976   0.257   0.271
11652TIP3    H234914   5.949   0.401   0.233
11653TIP3   OH234915   2.294   0.339   1.175
11653TIP3    H134916   2.201   0.326   1.159
11653TIP3    H234917   2.300   0.365   1.267
11654TIP3   OH234918   1.065   6.731   6.173
11654TIP3    H134919   1.109   6.811   6.144
11654TIP3    H234920   0.972   6.751   6.165
11655TIP3   OH234921   5.498   0.637   4.325
11655TIP3    H134922   5.520   0.675   4.410
11655TIP3    H234923   5.546   0.555   4.322
11656TIP3   OH234924   6.146   0.438   4.810
11656TIP3    H134925   6.168   0.470   4.722
11656TIP3    H234926   6.206   0.485   4.868
11657TIP3   OH234927   5.458   3.046   5.410
11657TIP3    H134928   5.502   3.129   5.423
11657TIP3    H234929   5.368   3.061   5.439
11658TIP3   OH234930   0.692   7.470   4.406
11658TIP3    H134931   0.634   7.405   4.446
11658TIP3    H234932   0.643   7.502   4.330
11659TIP3   OH234933   5.343   1.694   5.755
11659TIP3    H134934   5.300   1.610   5.773
11659TIP3    H234935   5.345   1.701   5.660
11660TIP3   OH234936   2.387   5.898   1.358
11660TIP3    H134937   2.450   5.952   1.311
11660TIP3    H234938   2.365   5.828   1.297
11661TIP3   OH234939   7.821   4.211   1.942
11661TIP3    H134940   7.861   4.241   2.024
11661TIP3    H234941   7.729   4.199   1.964
11662TIP3   OH234942   4.564   7.171   3.673
11662TIP3    H134943   4.614   7.136   3.747
11662TIP3    H234944   4.572   7.105   3.605
11663TIP3   OH234945   2.482   4.292   1.250
11663TIP3    H134946   2.484   4.350   1.326
11663TIP3    H234947   2.555   4.231   1.265
11664TIP3   OH234948   3.014   5.834   2.110
11664TIP3    H134949   2.997   5.898   2.042
11664TIP3    H234950   3.018   5.750   2.064
11665TIP3   OH234951   3.136   0.209   3.181
11665TIP3    H134952   3.085   0.190   3.260
11665TIP3    H234953   3.171   0.125   3.154
11666TIP3   OH234954   3.252   4.460   0.653
11666TIP3    H134955   3.337   4.461   0.696
11666TIP3    H234956   3.232   4.552   0.636
11667TIP3   OH234957   1.975   1.644   3.805
11667TIP3    H134958   1.924   1.720   3.775
11667TIP3    H234959   2.026   1.618   3.728
11668TIP3   OH234960   0.489   6.597   4.360
11668TIP3    H134961   0.489   6.506   4.390
11668TIP3    H234962   0.493   6.590   4.264
11669TIP3   OH234963   8.213   2.662   0.078
11669TIP3    H134964   8.281   2.726   0.100
11669TIP3    H234965   8.240   2.582   0.122
11670TIP3   OH234966   4.013   5.688   3.185
11670TIP3    H134967   4.068   5.718   3.257
11670TIP3    H234968   4.013   5.760   3.122
11671TIP3   OH234969   3.630   2.285   6.693
11671TIP3    H134970   3.631   2.257   6.601
11671TIP3    H234971   3.573   2.222   6.737
11672TIP3   OH234972   4.304   1.656   4.974
11672TIP3    H134973   4.231   1.597   4.961
11672TIP3    H234974   4.310   1.704   4.891
11673TIP3   OH234975   6.253   7.330   5.463
11673TIP3    H134976   6.239   7.425   5.458
11673TIP3    H234977   6.165   7.293   5.465
11674TIP3   OH234978   5.817   5.929   0.283
11674TIP3    H134979   5.881   5.899   0.218
11674TIP3    H234980   5.868   5.947   0.361
11675TIP3   OH234981   0.198   5.993   2.252
11675TIP3    H134982   0.234   5.978   2.340
11675TIP3    H234983   0.103   5.987   2.264
11676TIP3   OH234984   2.943   2.261   6.477
11676TIP3    H134985   3.003   2.202   6.522
11676TIP3    H234986   2.945   2.341   6.530
11677TIP3   OH234987   1.596   2.326   2.439
11677TIP3    H134988   1.643   2.397   2.482
11677TIP3    H234989   1.654   2.298   2.368
11678TIP3   OH234990   1.987   3.420   4.204
11678TIP3    H134991   2.044   3.383   4.137
11678TIP3    H234992   1.962   3.506   4.171
11679TIP3   OH234993   1.743   1.906   5.935
11679TIP3    H134994   1.738   1.812   5.917
11679TIP3    H234995   1.703   1.916   6.021
11680TIP3   OH234996   0.735   5.195   4.135
11680TIP3    H134997   0.654   5.166   4.177
11680TIP3    H234998   0.805   5.158   4.190
11681TIP3   OH234999   3.024   4.497   3.767
11681TIP3    H135000   3.111   4.466   3.790
11681TIP3    H235001   3.035   4.592   3.754
11682TIP3   OH235002   0.400   2.333   0.153
11682TIP3    H135003   0.387   2.424   0.128
11682TIP3    H235004   0.480   2.334   0.206
11683TIP3   OH235005   3.275   6.448   2.925
11683TIP3    H135006   3.206   6.498   2.968
11683TIP3    H235007   3.354   6.468   2.976
11684TIP3   OH235008   6.179   6.049   3.452
11684TIP3    H135009   6.267   6.080   3.433
11684TIP3    H235010   6.166   5.975   3.392
11685TIP3   OH235011   7.901   2.260   0.846
11685TIP3    H135012   7.839   2.311   0.795
11685TIP3    H235013   7.878   2.278   0.937
11686TIP3   OH235014   0.873   5.495   3.911
11686TIP3    H135015   0.943   5.452   3.861
11686TIP3    H235016   0.796   5.440   3.896
11687TIP3   OH235017   0.882   0.142   1.129
11687TIP3    H135018   0.959   0.182   1.168
11687TIP3    H235019   0.842   0.212   1.077
11688TIP3   OH235020   1.548   4.940   2.049
11688TIP3    H135021   1.556   4.876   1.977
11688TIP3    H235022   1.628   4.993   2.042
11689TIP3   OH235023   6.996   2.120   6.659
11689TIP3    H135024   6.959   2.121   6.571
11689TIP3    H235025   7.090   2.113   6.645
11690TIP3   OH235026   2.190   7.845   4.453
11690TIP3    H135027   2.205   7.815   4.363
11690TIP3    H235028   2.266   7.813   4.501
11691TIP3   OH235029   7.917   5.631   2.824
11691TIP3    H135030   7.866   5.612   2.903
11691TIP3    H235031   7.962   5.549   2.804
11692TIP3   OH235032   7.419   4.494   4.686
11692TIP3    H135033   7.365   4.461   4.758
11692TIP3    H235034   7.429   4.588   4.705
11693TIP3   OH235035   5.857   6.071   6.595
11693TIP3    H135036   5.805   6.032   6.666
11693TIP3    H235037   5.910   5.998   6.562
11694TIP3   OH235038   3.454   4.969   1.357
11694TIP3    H135039   3.386   4.956   1.423
11694TIP3    H235040   3.508   4.890   1.362
11695TIP3   OH235041   5.872   3.896   6.569
11695TIP3    H135042   5.794   3.880   6.517
11695TIP3    H235043   5.937   3.835   6.534
11696TIP3   OH235044   2.015   4.452   0.060
11696TIP3    H135045   1.946   4.417   0.005
11696TIP3    H235046   2.087   4.390   0.050
11697TIP3   OH235047   4.236   5.613   0.542
11697TIP3    H135048   4.145   5.610   0.571
11697TIP3    H235049   4.252   5.528   0.502
11698TIP3   OH235050   4.971   4.388   3.918
11698TIP3    H135051   4.878   4.368   3.930
11698TIP3    H235052   5.004   4.318   3.862
11699TIP3   OH235053   7.994   6.899   1.856
11699TIP3    H135054   8.031   6.885   1.769
11699TIP3    H235055   8.036   6.980   1.887
11700TIP3   OH235056   5.041   0.761   2.555
11700TIP3    H135057   4.970   0.825   2.561
11700TIP3    H235058   4.998   0.676   2.560
11701TIP3   OH235059   4.174   7.325   5.874
11701TIP3    H135060   4.178   7.283   5.960
11701TIP3    H235061   4.094   7.378   5.876
11702TIP3   OH235062   8.191   3.446   0.446
11702TIP3    H135063   8.239   3.377   0.491
11702TIP3    H235064   8.118   3.401   0.403
11703TIP3   OH235065   2.710   0.206   3.441
11703TIP3    H135066   2.625   0.185   3.479
11703TIP3    H235067   2.718   0.148   3.365
11704TIP3   OH235068   6.313   3.579   0.920
11704TIP3    H135069   6.332   3.485   0.922
11704TIP3    H235070   6.231   3.586   0.871
11705TIP3   OH235071   3.133   1.955   4.414
11705TIP3    H135072   3.049   1.945   4.370
11705TIP3    H235073   3.194   1.981   4.345
11706TIP3   OH235074   2.014   1.429   3.242
11706TIP3    H135075   2.109   1.432   3.231
11706TIP3    H235076   1.983   1.514   3.210
11707TIP3   OH235077   6.897   7.154   1.515
11707TIP3    H135078   6.834   7.145   1.443
11707TIP3    H235079   6.982   7.151   1.473
11708TIP3   OH235080   6.622   4.278   0.955
11708TIP3    H135081   6.581   4.207   0.905
11708TIP3    H235082   6.676   4.233   1.020
11709TIP3   OH235083   3.227   7.002   4.480
11709TIP3    H135084   3.267   6.931   4.430
11709TIP3    H235085   3.264   6.993   4.568
11710TIP3   OH235086   7.096   7.606   4.776
11710TIP3    H135087   7.037   7.534   4.799
11710TIP3    H235088   7.048   7.685   4.803
11711TIP3   OH235089   0.620   5.895   1.196
11711TIP3    H135090   0.648   5.895   1.288
11711TIP3    H235091   0.530   5.927   1.198
11712TIP3   OH235092   1.390   2.772   3.463
11712TIP3    H135093   1.451   2.731   3.402
11712TIP3    H235094   1.325   2.815   3.408
11713TIP3   OH235095   4.605   5.491   5.212
11713TIP3    H135096   4.553   5.571   5.209
11713TIP3    H235097   4.571   5.442   5.286
11714TIP3   OH235098   5.554   3.317   4.483
11714TIP3    H135099   5.621   3.249   4.480
11714TIP3    H235100   5.482   3.284   4.430
11715TIP3   OH235101   3.879   0.592   3.874
11715TIP3    H135102   3.891   0.536   3.951
11715TIP3    H235103   3.968   0.605   3.840
11716TIP3   OH235104   0.295   7.791   0.727
11716TIP3    H135105   0.240   7.838   0.789
11716TIP3    H235106   0.308   7.705   0.767
11717TIP3   OH235107   3.435   3.030   2.364
11717TIP3    H135108   3.446   2.961   2.298
11717TIP3    H235109   3.416   2.982   2.445
11718TIP3   OH235110   4.682   0.017   2.147
11718TIP3    H135111   4.711  -0.038   2.220
11718TIP3    H235112   4.619   0.078   2.186
11719TIP3   OH235113   6.317   7.389   3.301
11719TIP3    H135114   6.388   7.399   3.364
11719TIP3    H235115   6.245   7.442   3.337
11720TIP3   OH235116   1.810   2.354   5.270
11720TIP3    H135117   1.821   2.295   5.344
11720TIP3    H235118   1.716   2.372   5.266
11721TIP3   OH235119   6.185   5.747   1.658
11721TIP3    H135120   6.198   5.732   1.752
11721TIP3    H235121   6.244   5.818   1.636
11722TIP3   OH235122   3.084   0.172   4.110
11722TIP3    H135123   3.027   0.177   4.034
11722TIP3    H235124   3.073   0.255   4.155
11723TIP3   OH235125   0.608   1.546   5.761
11723TIP3    H135126   0.533   1.593   5.798
11723TIP3    H235127   0.596   1.554   5.666
11724TIP3   OH235128   1.261   4.509   0.709
11724TIP3    H135129   1.319   4.491   0.635
11724TIP3    H235130   1.306   4.578   0.758
11725TIP3   OH235131   0.318   3.644   0.669
11725TIP3    H135132   0.350   3.678   0.752
11725TIP3    H235133   0.307   3.722   0.614
11726TIP3   OH235134   6.704   0.234   0.690
11726TIP3    H135135   6.709   0.327   0.667
11726TIP3    H235136   6.689   0.234   0.784
11727TIP3   OH235137   3.363   3.833   2.593
11727TIP3    H135138   3.449   3.824   2.553
11727TIP3    H235139   3.358   3.762   2.657
11728TIP3   OH235140   0.392   0.734   3.444
11728TIP3    H135141   0.313   0.685   3.467
11728TIP3    H235142   0.363   0.825   3.437
11729TIP3   OH235143   5.165   1.522   0.893
11729TIP3    H135144   5.152   1.452   0.829
11729TIP3    H235145   5.241   1.571   0.861
11730TIP3   OH235146   4.414   1.015   5.554
11730TIP3    H135147   4.322   1.023   5.529
11730TIP3    H235148   4.415   1.035   5.648
11731TIP3   OH235149   0.770   6.796   5.442
11731TIP3    H135150   0.824   6.723   5.473
11731TIP3    H235151   0.772   6.859   5.513
11732TIP3   OH235152   8.131   4.615   2.779
11732TIP3    H135153   8.198   4.643   2.717
11732TIP3    H235154   8.150   4.523   2.796
11733TIP3   OH235155   6.563   4.883   3.798
11733TIP3    H135156   6.538   4.818   3.731
11733TIP3    H235157   6.601   4.831   3.868
11734TIP3   OH235158   4.499   6.917   4.611
11734TIP3    H135159   4.555   6.842   4.630
11734TIP3    H235160   4.430   6.912   4.677
11735TIP3   OH235161   7.064   4.737   6.697
11735TIP3    H135162   6.988   4.697   6.739
11735TIP3    H235163   7.129   4.667   6.695
11736TIP3   OH235164   6.942   3.548   3.550
11736TIP3    H135165   6.854   3.517   3.573
11736TIP3    H235166   6.960   3.508   3.464
11737TIP3   OH235167   1.738   5.557   0.362
11737TIP3    H135168   1.727   5.637   0.311
11737TIP3    H235169   1.708   5.581   0.450
11738TIP3   OH235170   6.529   6.784   1.715
11738TIP3    H135171   6.582   6.822   1.644
11738TIP3    H235172   6.592   6.739   1.771
11739TIP3   OH235173   3.038   6.705   6.412
11739TIP3    H135174   3.083   6.751   6.341
11739TIP3    H235175   3.007   6.623   6.372
11740TIP3   OH235176   6.332   2.361   0.503
11740TIP3    H135177   6.345   2.294   0.569
11740TIP3    H235178   6.324   2.313   0.421
11741TIP3   OH235179   3.878   4.332   0.710
11741TIP3    H135180   3.782   4.325   0.711
11741TIP3    H235181   3.908   4.250   0.749
11742TIP3   OH235182   3.451   6.527   0.370
11742TIP3    H135183   3.368   6.531   0.416
11742TIP3    H235184   3.435   6.469   0.296
11743TIP3   OH235185   6.277   5.521   4.176
11743TIP3    H135186   6.269   5.430   4.147
11743TIP3    H235187   6.368   5.527   4.207
11744TIP3   OH235188   1.253   0.903   0.235
11744TIP3    H135189   1.231   0.925   0.326
11744TIP3    H235190   1.329   0.846   0.242
11745TIP3   OH235191   3.365   6.411   2.596
11745TIP3    H135192   3.401   6.323   2.610
11745TIP3    H235193   3.340   6.440   2.684
11746TIP3   OH235194   1.408   5.267   2.746
11746TIP3    H135195   1.318   5.288   2.721
11746TIP3    H235196   1.461   5.301   2.674
11747TIP3   OH235197   6.801   6.139   6.603
11747TIP3    H135198   6.871   6.135   6.537
11747TIP3    H235199   6.741   6.205   6.569
11748TIP3   OH235200   7.255   0.474   4.313
11748TIP3    H135201   7.282   0.514   4.230
11748TIP3    H235202   7.336   0.436   4.348
11749TIP3   OH235203   2.774   3.858   5.995
11749TIP3    H135204   2.726   3.848   5.913
11749TIP3    H235205   2.806   3.770   6.015
11750TIP3   OH235206   6.432   0.588   4.585
11750TIP3    H135207   6.485   0.630   4.517
11750TIP3    H235208   6.461   0.496   4.585
11751TIP3   OH235209   7.560   3.417   0.207
11751TIP3    H135210   7.475   3.428   0.249
11751TIP3    H235211   7.588   3.328   0.232
11752TIP3   OH235212   6.116   3.721   6.506
11752TIP3    H135213   6.158   3.807   6.502
11752TIP3    H235214   6.188   3.660   6.522
11753TIP3   OH235215   0.187   6.596   3.933
11753TIP3    H135216   0.158   6.505   3.932
11753TIP3    H235217   0.275   6.593   3.895
11754TIP3   OH235218   3.437   3.693   0.173
11754TIP3    H135219   3.502   3.652   0.117
11754TIP3    H235220   3.469   3.677   0.262
11755TIP3   OH235221   4.466   7.501   4.578
11755TIP3    H135222   4.389   7.554   4.556
11755TIP3    H235223   4.442   7.454   4.658
11756TIP3   OH235224   2.215   2.139   4.603
11756TIP3    H135225   2.148   2.072   4.620
11756TIP3    H235226   2.202   2.163   4.511
11757TIP3   OH235227   5.494   6.292   1.997
11757TIP3    H135228   5.518   6.217   2.051
11757TIP3    H235229   5.486   6.365   2.058
11758TIP3   OH235230   1.967   0.826   3.581
11758TIP3    H135231   2.039   0.811   3.521
11758TIP3    H235232   1.891   0.785   3.539
11759TIP3   OH235233   7.843   6.335   2.511
11759TIP3    H135234   7.914   6.386   2.472
11759TIP3    H235235   7.841   6.253   2.461
11760TIP3   OH235236   0.778   2.064   5.913
11760TIP3    H135237   0.746   1.977   5.933
11760TIP3    H235238   0.829   2.089   5.990
11761TIP3   OH235239   2.243   1.099   2.542
11761TIP3    H135240   2.198   1.157   2.604
11761TIP3    H235241   2.317   1.150   2.511
11762TIP3   OH235242   3.603   7.223   5.640
11762TIP3    H135243   3.520   7.206   5.684
11762TIP3    H235244   3.650   7.140   5.646
11763TIP3   OH235245   2.837   3.164   2.271
11763TIP3    H135246   2.909   3.137   2.327
11763TIP3    H235247   2.777   3.090   2.271
11764TIP3   OH235248   7.752   1.256   1.174
11764TIP3    H135249   7.798   1.339   1.189
11764TIP3    H235250   7.801   1.213   1.105
11765TIP3   OH235251   7.766   5.309   6.026
11765TIP3    H135252   7.794   5.400   6.014
11765TIP3    H235253   7.680   5.304   5.984
11766TIP3   OH235254   5.438   3.456   1.605
11766TIP3    H135255   5.447   3.550   1.614
11766TIP3    H235256   5.404   3.427   1.689
11767TIP3   OH235257   1.569   4.373   1.586
11767TIP3    H135258   1.585   4.460   1.551
11767TIP3    H235259   1.619   4.370   1.667
11768TIP3   OH235260   6.295   5.270   0.047
11768TIP3    H135261   6.203   5.246   0.034
11768TIP3    H235262   6.345   5.201   0.004
11769TIP3   OH235263   2.729   0.490   3.658
11769TIP3    H135264   2.696   0.552   3.593
11769TIP3    H235265   2.722   0.537   3.742
11770TIP3   OH235266   6.270   3.176   4.958
11770TIP3    H135267   6.219   3.244   5.001
11770TIP3    H235268   6.208   3.134   4.898
11771TIP3   OH235269   2.659   4.175   4.638
11771TIP3    H135270   2.585   4.234   4.655
11771TIP3    H235271   2.678   4.136   4.724
11772TIP3   OH235272   1.013   7.584   2.783
11772TIP3    H135273   1.085   7.548   2.833
11772TIP3    H235274   1.048   7.596   2.695
11773TIP3   OH235275   4.158   4.810   6.571
11773TIP3    H135276   4.166   4.759   6.490
11773TIP3    H235277   4.076   4.782   6.610
11774TIP3   OH235278   6.433   1.353   2.718
11774TIP3    H135279   6.423   1.269   2.762
11774TIP3    H235280   6.455   1.331   2.628
11775TIP3   OH235281   6.086   4.743   5.576
11775TIP3    H135282   6.117   4.822   5.532
11775TIP3    H235283   5.997   4.765   5.604
11776TIP3   OH235284   1.552   7.099   6.691
11776TIP3    H135285   1.502   7.061   6.763
11776TIP3    H235286   1.489   7.103   6.618
11777TIP3   OH235287   2.119   6.285   0.366
11777TIP3    H135288   2.055   6.224   0.403
11777TIP3    H235289   2.142   6.247   0.281
11778TIP3   OH235290   3.471   0.245   4.028
11778TIP3    H135291   3.462   0.217   4.119
11778TIP3    H235292   3.405   0.194   3.981
11779TIP3   OH235293   1.913   6.129   3.539
11779TIP3    H135294   2.003   6.153   3.562
11779TIP3    H235295   1.858   6.178   3.600
11780TIP3   OH235296   1.026   1.122   0.356
11780TIP3    H135297   1.062   1.200   0.399
11780TIP3    H235298   0.996   1.154   0.271
11781TIP3   OH235299   0.845   7.187   1.830
11781TIP3    H135300   0.916   7.224   1.882
11781TIP3    H235301   0.771   7.182   1.890
11782TIP3   OH235302   0.229   4.407   1.735
11782TIP3    H135303   0.211   4.351   1.810
11782TIP3    H235304   0.324   4.405   1.725
11783TIP3   OH235305   1.591   6.698   2.627
11783TIP3    H135306   1.556   6.642   2.696
11783TIP3    H235307   1.556   6.785   2.646
11784TIP3   OH235308   0.531   6.725   0.743
11784TIP3    H135309   0.436   6.730   0.735
11784TIP3    H235310   0.564   6.745   0.655
11785TIP3   OH235311   6.766   6.605   6.511
11785TIP3    H135312   6.671   6.594   6.509
11785TIP3    H235313   6.788   6.609   6.604
11786TIP3   OH235314   1.345   6.834   1.866
11786TIP3    H135315   1.327   6.846   1.772
11786TIP3    H235316   1.439   6.815   1.869
11787TIP3   OH235317   4.427   6.845   2.166
11787TIP3    H135318   4.386   6.871   2.084
11787TIP3    H235319   4.425   6.749   2.164
11788TIP3   OH235320   5.904   4.147   5.438
11788TIP3    H135321   5.917   4.197   5.519
11788TIP3    H235322   5.985   4.097   5.427
11789TIP3   OH235323   6.188   3.978   5.427
11789TIP3    H135324   6.240   4.058   5.419
11789TIP3    H235325   6.227   3.917   5.364
11790TIP3   OH235326   5.400   5.875   1.414
11790TIP3    H135327   5.362   5.854   1.329
11790TIP3    H235328   5.346   5.947   1.448
11791TIP3   OH235329   6.429   4.418   0.641
11791TIP3    H135330   6.520   4.449   0.637
11791TIP3    H235331   6.377   4.495   0.619
11792TIP3   OH235332   4.512   3.965   0.888
11792TIP3    H135333   4.508   3.879   0.844
11792TIP3    H235334   4.448   3.959   0.958
11793TIP3   OH235335   1.984   3.464   5.426
11793TIP3    H135336   1.993   3.495   5.516
11793TIP3    H235337   1.913   3.517   5.390
11794TIP3   OH235338   1.145   7.417   0.649
11794TIP3    H135339   1.149   7.486   0.716
11794TIP3    H235340   1.068   7.439   0.597
11795TIP3   OH235341   6.055   0.494   0.099
11795TIP3    H135342   6.144   0.513   0.067
11795TIP3    H235343   6.015   0.444   0.028
11796TIP3   OH235344   4.521   5.647   0.601
11796TIP3    H135345   4.510   5.601   0.685
11796TIP3    H235346   4.434   5.646   0.561
11797TIP3   OH235347   6.324   2.278   0.991
11797TIP3    H135348   6.312   2.332   0.913
11797TIP3    H235349   6.261   2.312   1.054
11798TIP3   OH235350   7.963   0.342   6.251
11798TIP3    H135351   7.911   0.289   6.191
11798TIP3    H235352   7.927   0.431   6.241
11799TIP3   OH235353   3.500   6.651   2.948
11799TIP3    H135354   3.453   6.686   3.024
11799TIP3    H235355   3.442   6.667   2.874
11800TIP3   OH235356   0.549   5.665   4.225
11800TIP3    H135357   0.575   5.637   4.313
11800TIP3    H235358   0.631   5.679   4.179
11801TIP3   OH235359   6.703   1.865   1.222
11801TIP3    H135360   6.734   1.952   1.198
11801TIP3    H235361   6.774   1.806   1.195
11802TIP3   OH235362   1.606   0.691   3.203
11802TIP3    H135363   1.530   0.749   3.207
11802TIP3    H235364   1.576   0.617   3.150
11803TIP3   OH235365   3.895   2.402   4.349
11803TIP3    H135366   3.850   2.321   4.323
11803TIP3    H235367   3.831   2.449   4.402
11804TIP3   OH235368   1.462   7.051   0.667
11804TIP3    H135369   1.440   7.056   0.760
11804TIP3    H235370   1.441   7.138   0.633
11805TIP3   OH235371   0.190   5.739   6.695
11805TIP3    H135372   0.103   5.701   6.680
11805TIP3    H235373   0.244   5.665   6.721
11806TIP3   OH235374   5.070   7.761   1.703
11806TIP3    H135375   4.986   7.715   1.697
11806TIP3    H235376   5.077   7.810   1.622
11807TIP3   OH235377   2.111   4.811   6.110
11807TIP3    H135378   2.162   4.757   6.170
11807TIP3    H235379   2.172   4.831   6.038
11808TIP3   OH235380   1.735   1.667   5.496
11808TIP3    H135381   1.725   1.762   5.490
11808TIP3    H235382   1.825   1.654   5.526
11809TIP3   OH235383   0.309   7.604   0.501
11809TIP3    H135384   0.251   7.680   0.490
11809TIP3    H235385   0.391   7.641   0.534
11810TIP3   OH235386   6.807   4.051   3.372
11810TIP3    H135387   6.786   3.958   3.365
11810TIP3    H235388   6.901   4.056   3.354
11811TIP3   OH235389   8.257   0.757   0.686
11811TIP3    H135390   8.196   0.733   0.756
11811TIP3    H235391   8.200   0.781   0.613
11812TIP3   OH235392   2.853   7.240   1.255
11812TIP3    H135393   2.845   7.220   1.162
11812TIP3    H235394   2.874   7.156   1.296
11813TIP3   OH235395   5.420   7.021   4.086
11813TIP3    H135396   5.416   7.037   4.180
11813TIP3    H235397   5.418   6.926   4.077
11814TIP3   OH235398   7.556   3.070   5.522
11814TIP3    H135399   7.489   3.042   5.460
11814TIP3    H235400   7.587   2.988   5.562
11815TIP3   OH235401   6.274   3.787   1.646
11815TIP3    H135402   6.339   3.738   1.597
11815TIP3    H235403   6.325   3.843   1.705
11816TIP3   OH235404   3.838   0.928   1.395
11816TIP3    H135405   3.852   0.874   1.317
11816TIP3    H235406   3.799   0.867   1.459
11817TIP3   OH235407   4.740   5.193   4.427
11817TIP3    H135408   4.781   5.178   4.342
11817TIP3    H235409   4.669   5.129   4.430
11818TIP3   OH235410   1.788   1.080   3.349
11818TIP3    H135411   1.700   1.092   3.383
11818TIP3    H235412   1.777   1.027   3.270
11819TIP3   OH235413   6.290   7.625   4.432
11819TIP3    H135414   6.198   7.602   4.415
11819TIP3    H235415   6.335   7.540   4.436
11820TIP3   OH235416   1.100   1.036   2.956
11820TIP3    H135417   1.162   1.011   3.024
11820TIP3    H235418   1.062   1.118   2.987
11821TIP3   OH235419   4.828   6.479   0.740
11821TIP3    H135420   4.836   6.426   0.661
11821TIP3    H235421   4.746   6.526   0.729
11822TIP3   OH235422   7.801   0.539   2.404
11822TIP3    H135423   7.751   0.554   2.485
11822TIP3    H235424   7.735   0.531   2.336
11823TIP3   OH235425   7.169   2.406   5.228
11823TIP3    H135426   7.164   2.333   5.166
11823TIP3    H235427   7.095   2.392   5.288
11824TIP3   OH235428   3.261   4.558   4.546
11824TIP3    H135429   3.238   4.483   4.492
11824TIP3    H235430   3.223   4.540   4.632
11825TIP3   OH235431   8.138   6.483   3.990
11825TIP3    H135432   8.107   6.395   3.968
11825TIP3    H235433   8.058   6.533   4.008
11826TIP3   OH235434   0.884   4.090   2.991
11826TIP3    H135435   0.965   4.042   3.009
11826TIP3    H235436   0.860   4.063   2.902
11827TIP3   OH235437   2.575   6.103   4.005
11827TIP3    H135438   2.503   6.039   4.007
11827TIP3    H235439   2.531   6.187   3.990
11828TIP3   OH235440   6.713   5.212   5.848
11828TIP3    H135441   6.780   5.280   5.852
11828TIP3    H235442   6.631   5.260   5.835
11829TIP3   OH235443   6.547   6.277   0.733
11829TIP3    H135444   6.610   6.254   0.802
11829TIP3    H235445   6.464   6.239   0.764
11830TIP3   OH235446   2.124   1.467   4.823
11830TIP3    H135447   2.219   1.462   4.836
11830TIP3    H235448   2.109   1.426   4.738
11831TIP3   OH235449   4.171   6.593   0.329
11831TIP3    H135450   4.215   6.543   0.261
11831TIP3    H235451   4.240   6.648   0.367
11832TIP3   OH235452   7.728   4.484   3.834
11832TIP3    H135453   7.781   4.404   3.831
11832TIP3    H235454   7.764   4.539   3.765
11833TIP3   OH235455   1.924   4.709   3.747
11833TIP3    H135456   1.924   4.688   3.840
11833TIP3    H235457   2.017   4.718   3.724
11834TIP3   OH235458   3.335   4.315   0.000
11834TIP3    H135459   3.357   4.298   0.092
11834TIP3    H235460   3.335   4.411  -0.007
11835TIP3   OH235461   5.820   3.272   5.174
11835TIP3    H135462   5.818   3.367   5.179
11835TIP3    H235463   5.874   3.244   5.248
11836TIP3   OH235464   7.138   7.112   5.669
11836TIP3    H135465   7.118   7.048   5.737
11836TIP3    H235466   7.232   7.106   5.657
11837TIP3   OH235467   7.986   2.575   0.542
11837TIP3    H135468   7.921   2.552   0.476
11837TIP3    H235469   8.058   2.613   0.493
11838TIP3   OH235470   1.383   4.317   0.473
11838TIP3    H135471   1.463   4.302   0.422
11838TIP3    H235472   1.326   4.366   0.413
11839TIP3   OH235473   5.855   7.767   2.768
11839TIP3    H135474   5.878   7.724   2.686
11839TIP3    H235475   5.808   7.846   2.741
11840TIP3   OH235476   3.616   0.737   0.258
11840TIP3    H135477   3.570   0.740   0.174
11840TIP3    H235478   3.603   0.648   0.289
11841TIP3   OH235479   4.229   7.551   4.177
11841TIP3    H135480   4.185   7.600   4.108
11841TIP3    H235481   4.314   7.594   4.187
11842TIP3   OH235482   3.637   6.337   6.474
11842TIP3    H135483   3.656   6.258   6.422
11842TIP3    H235484   3.626   6.304   6.563
11843TIP3   OH235485   0.245   2.880   0.513
11843TIP3    H135486   0.219   2.952   0.570
11843TIP3    H235487   0.313   2.917   0.457
11844TIP3   OH235488   1.150   1.185   6.281
11844TIP3    H135489   1.149   1.091   6.295
11844TIP3    H235490   1.239   1.213   6.305
11845TIP3   OH235491   1.062   4.212   4.775
11845TIP3    H135492   1.154   4.199   4.799
11845TIP3    H235493   1.018   4.133   4.806
11846TIP3   OH235494   2.686   7.609   0.748
11846TIP3    H135495   2.627   7.547   0.791
11846TIP3    H235496   2.692   7.577   0.658
11847TIP3   OH235497   6.232   4.380   1.569
11847TIP3    H135498   6.313   4.393   1.519
11847TIP3    H235499   6.223   4.460   1.620
11848TIP3   OH235500   3.657   4.487   5.814
11848TIP3    H135501   3.745   4.450   5.805
11848TIP3    H235502   3.599   4.418   5.783
11849TIP3   OH235503   1.139   4.337   5.469
11849TIP3    H135504   1.066   4.393   5.496
11849TIP3    H235505   1.144   4.347   5.374
11850TIP3   OH235506   6.389   0.063   3.850
11850TIP3    H135507   6.370   0.057   3.944
11850TIP3    H235508   6.325   0.126   3.817
11851TIP3   OH235509   4.169   4.776   0.921
11851TIP3    H135510   4.222   4.835   0.975
11851TIP3    H235511   4.233   4.724   0.873
11852TIP3   OH235512   2.346   1.267   3.887
11852TIP3    H135513   2.405   1.302   3.821
11852TIP3    H235514   2.259   1.295   3.860
11853TIP3   OH235515   1.514   3.154   0.853
11853TIP3    H135516   1.564   3.230   0.881
11853TIP3    H235517   1.494   3.107   0.934
11854TIP3   OH235518   6.101   2.502   5.261
11854TIP3    H135519   6.147   2.437   5.314
11854TIP3    H235520   6.142   2.585   5.284
11855TIP3   OH235521   7.196   5.348   2.286
11855TIP3    H135522   7.106   5.316   2.283
11855TIP3    H235523   7.216   5.370   2.195
11856TIP3   OH235524   1.433   1.967   3.801
11856TIP3    H135525   1.463   1.955   3.891
11856TIP3    H235526   1.353   1.914   3.794
11857TIP3   OH235527   1.069   7.713   1.891
11857TIP3    H135528   1.054   7.623   1.921
11857TIP3    H235529   1.164   7.722   1.891
11858TIP3   OH235530   3.540   4.049   1.768
11858TIP3    H135531   3.629   4.016   1.775
11858TIP3    H235532   3.484   3.972   1.781
11859TIP3   OH235533   4.342   2.652   0.820
11859TIP3    H135534   4.343   2.587   0.750
11859TIP3    H235535   4.395   2.724   0.787
11860TIP3   OH235536   3.456   0.227   2.075
11860TIP3    H135537   3.486   0.185   1.994
11860TIP3    H235538   3.469   0.160   2.143
11861TIP3   OH235539   0.163   3.165   4.405
11861TIP3    H135540   0.209   3.160   4.488
11861TIP3    H235541   0.228   3.137   4.340
11862TIP3   OH235542   3.057   1.857   3.711
11862TIP3    H135543   3.028   1.942   3.746
11862TIP3    H235544   3.147   1.873   3.683
11863TIP3   OH235545   1.056   2.288   2.872
11863TIP3    H135546   1.019   2.375   2.890
11863TIP3    H235547   1.003   2.254   2.800
11864TIP3   OH235548   2.630   0.757   2.161
11864TIP3    H135549   2.591   0.727   2.244
11864TIP3    H235550   2.668   0.678   2.123
11865TIP3   OH235551   0.967   3.691   6.556
11865TIP3    H135552   0.994   3.662   6.468
11865TIP3    H235553   0.892   3.749   6.541
11866TIP3   OH235554   6.168   5.544   3.340
11866TIP3    H135555   6.254   5.535   3.383
11866TIP3    H235556   6.130   5.456   3.345
11867TIP3   OH235557   2.926   6.456   3.466
11867TIP3    H135558   2.909   6.540   3.509
11867TIP3    H235559   2.942   6.479   3.374
11868TIP3   OH235560   1.710   0.188   5.915
11868TIP3    H135561   1.771   0.168   5.844
11868TIP3    H235562   1.704   0.283   5.916
11869TIP3   OH235563   1.443   7.296   0.387
11869TIP3    H135564   1.407   7.283   0.475
11869TIP3    H235565   1.419   7.386   0.365
11870TIP3   OH235566   2.828   3.957   6.730
11870TIP3    H135567   2.900   4.003   6.773
11870TIP3    H235568   2.837   3.982   6.637
11871TIP3   OH235569   7.557   2.161   4.256
11871TIP3    H135570   7.570   2.069   4.232
11871TIP3    H235571   7.625   2.208   4.209
11872TIP3   OH235572   4.159   2.664   5.933
11872TIP3    H135573   4.107   2.630   6.006
11872TIP3    H235574   4.124   2.619   5.856
11873TIP3   OH235575   5.394   7.577   1.642
11873TIP3    H135576   5.312   7.531   1.658
11873TIP3    H235577   5.436   7.528   1.572
11874TIP3   OH235578   5.542   1.018   1.785
11874TIP3    H135579   5.471   0.965   1.821
11874TIP3    H235580   5.608   0.953   1.758
11875TIP3   OH235581   7.917   2.303   5.661
11875TIP3    H135582   8.010   2.322   5.673
11875TIP3    H235583   7.914   2.250   5.582
11876TIP3   OH235584   7.598   7.737   5.963
11876TIP3    H135585   7.578   7.728   6.057
11876TIP3    H235586   7.624   7.829   5.954
11877TIP3   OH235587   5.501   3.437   6.697
11877TIP3    H135588   5.420   3.396   6.666
11877TIP3    H235589   5.527   3.386   6.773
11878TIP3   OH235590   2.690   2.086   1.496
11878TIP3    H135591   2.768   2.131   1.526
11878TIP3    H235592   2.702   2.077   1.401
11879TIP3   OH235593   7.612   2.973   6.542
11879TIP3    H135594   7.588   3.060   6.511
11879TIP3    H235595   7.534   2.920   6.525
11880TIP3   OH235596   6.012   7.187   5.455
11880TIP3    H135597   5.941   7.229   5.407
11880TIP3    H235598   6.018   7.099   5.417
11881TIP3   OH235599   4.277   5.608   1.570
11881TIP3    H135600   4.357   5.638   1.614
11881TIP3    H235601   4.221   5.576   1.641
11882TIP3   OH235602   3.451   5.081   5.282
11882TIP3    H135603   3.520   5.015   5.274
11882TIP3    H235604   3.407   5.080   5.197
11883TIP3   OH235605   6.228   6.477   3.776
11883TIP3    H135606   6.247   6.543   3.842
11883TIP3    H235607   6.276   6.399   3.804
11884TIP3   OH235608   3.963   4.143   1.396
11884TIP3    H135609   3.935   4.067   1.346
11884TIP3    H235610   3.925   4.130   1.483
11885TIP3   OH235611   4.340   3.167   4.956
11885TIP3    H135612   4.293   3.248   4.934
11885TIP3    H235613   4.334   3.161   5.052
11886TIP3   OH235614   5.860   6.667   3.536
11886TIP3    H135615   5.786   6.607   3.550
11886TIP3    H235616   5.925   6.615   3.489
11887TIP3   OH235617   4.806   1.833   6.289
11887TIP3    H135618   4.738   1.768   6.308
11887TIP3    H235619   4.758   1.916   6.282
11888TIP3   OH235620   1.763   6.841   5.542
11888TIP3    H135621   1.834   6.805   5.490
11888TIP3    H235622   1.757   6.932   5.514
11889TIP3   OH235623   7.719   2.278   2.220
11889TIP3    H135624   7.695   2.272   2.313
11889TIP3    H235625   7.737   2.371   2.206
11890TIP3   OH235626   7.188   2.848   6.392
11890TIP3    H135627   7.123   2.901   6.346
11890TIP3    H235628   7.268   2.858   6.340
11891TIP3   OH235629   1.302   4.903   3.080
11891TIP3    H135630   1.287   4.878   2.989
11891TIP3    H235631   1.384   4.860   3.104
11892TIP3   OH235632   1.823   4.958   4.947
11892TIP3    H135633   1.851   5.013   4.874
11892TIP3    H235634   1.734   4.988   4.967
11893TIP3   OH235635   2.716   2.875   5.956
11893TIP3    H135636   2.731   2.799   5.900
11893TIP3    H235637   2.637   2.915   5.920
11894TIP3   OH235638   7.302   2.213   6.402
11894TIP3    H135639   7.389   2.253   6.402
11894TIP3    H235640   7.305   2.149   6.472
11895TIP3   OH235641   1.465   1.401   0.871
11895TIP3    H135642   1.433   1.472   0.925
11895TIP3    H235643   1.505   1.339   0.933
11896TIP3   OH235644   1.895   2.023   2.609
11896TIP3    H135645   1.816   1.989   2.566
11896TIP3    H235646   1.921   2.098   2.555
11897TIP3   OH235647   1.380   0.554   1.751
11897TIP3    H135648   1.439   0.558   1.676
11897TIP3    H235649   1.305   0.504   1.720
11898TIP3   OH235650   4.879   4.118   0.378
11898TIP3    H135651   4.871   4.190   0.441
11898TIP3    H235652   4.789   4.099   0.352
11899TIP3   OH235653   7.692   6.744   0.599
11899TIP3    H135654   7.777   6.784   0.579
11899TIP3    H235655   7.640   6.758   0.520
11900TIP3   OH235656   8.217   6.405   3.688
11900TIP3    H135657   8.213   6.499   3.668
11900TIP3    H235658   8.221   6.363   3.602
11901TIP3   OH235659   3.061   3.390   5.874
11901TIP3    H135660   2.971   3.399   5.905
11901TIP3    H235661   3.095   3.315   5.922
11902TIP3   OH235662   8.132   6.892   3.360
11902TIP3    H135663   8.129   6.800   3.335
11902TIP3    H235664   8.138   6.891   3.455
11903TIP3   OH235665   6.935   3.880   2.256
11903TIP3    H135666   6.953   3.906   2.166
11903TIP3    H235667   7.015   3.834   2.284
11904TIP3   OH235668   7.791   3.894   1.149
11904TIP3    H135669   7.791   3.831   1.221
11904TIP3    H235670   7.797   3.840   1.070
11905TIP3   OH235671   6.717   6.956   2.024
11905TIP3    H135672   6.629   6.979   1.994
11905TIP3    H235673   6.706   6.935   2.117
11906TIP3   OH235674   5.771   1.336   0.555
11906TIP3    H135675   5.780   1.408   0.617
11906TIP3    H235676   5.836   1.272   0.583
11907TIP3   OH235677   7.703   6.981   6.548
11907TIP3    H135678   7.690   6.902   6.495
11907TIP3    H235679   7.617   7.024   6.548
11908TIP3   OH235680   6.861   3.045   5.213
11908TIP3    H135681   6.856   2.960   5.169
11908TIP3    H235682   6.840   3.108   5.145
11909TIP3   OH235683   6.778   3.176   4.024
11909TIP3    H135684   6.770   3.187   4.119
11909TIP3    H235685   6.693   3.205   3.989
11910TIP3   OH235686   7.284   0.207   0.608
11910TIP3    H135687   7.255   0.263   0.680
11910TIP3    H235688   7.211   0.145   0.596
11911TIP3   OH235689   2.663   7.769   5.366
11911TIP3    H135690   2.695   7.802   5.281
11911TIP3    H235691   2.587   7.824   5.386
11912TIP3   OH235692   2.823   6.819   4.193
11912TIP3    H135693   2.843   6.873   4.269
11912TIP3    H235694   2.832   6.729   4.224
11913TIP3   OH235695   6.731   3.299   5.937
11913TIP3    H135696   6.767   3.221   5.894
11913TIP3    H235697   6.637   3.293   5.924
11914TIP3   OH235698   6.302   0.702   0.619
11914TIP3    H135699   6.393   0.724   0.600
11914TIP3    H235700   6.274   0.650   0.544
11915TIP3   OH235701   5.468   7.462   0.354
11915TIP3    H135702   5.511   7.504   0.279
11915TIP3    H235703   5.432   7.535   0.404
11916TIP3   OH235704   0.925   4.514   5.187
11916TIP3    H135705   0.851   4.513   5.126
11916TIP3    H235706   0.890   4.555   5.266
11917TIP3   OH235707   7.252   1.200   0.346
11917TIP3    H135708   7.310   1.270   0.375
11917TIP3    H235709   7.265   1.129   0.409
11918TIP3   OH235710   3.934   0.254   6.393
11918TIP3    H135711   3.854   0.306   6.402
11918TIP3    H235712   3.991   0.307   6.336
11919TIP3   OH235713   1.106   2.960   6.365
11919TIP3    H135714   1.025   2.967   6.415
11919TIP3    H235715   1.080   2.974   6.274
11920TIP3   OH235716   7.042   2.148   6.084
11920TIP3    H135717   7.004   2.149   6.172
11920TIP3    H235718   6.987   2.209   6.033
11921TIP3   OH235719   2.024   7.815   1.523
11921TIP3    H135720   1.978   7.846   1.444
11921TIP3    H235721   2.008   7.721   1.525
11922TIP3   OH235722   2.880   2.275   0.934
11922TIP3    H135723   2.894   2.356   0.884
11922TIP3    H235724   2.885   2.302   1.025
11923TIP3   OH235725   8.020   0.056   3.575
11923TIP3    H135726   8.115   0.060   3.573
11923TIP3    H235727   7.999   0.011   3.658
11924TIP3   OH235728   3.006   4.063   0.911
11924TIP3    H135729   3.088   4.104   0.883
11924TIP3    H235730   2.947   4.136   0.928
11925TIP3   OH235731   4.880   7.200   2.768
11925TIP3    H135732   4.862   7.116   2.726
11925TIP3    H235733   4.825   7.262   2.721
11926TIP3   OH235734   6.211   1.159   2.320
11926TIP3    H135735   6.300   1.188   2.335
11926TIP3    H235736   6.181   1.126   2.404
11927TIP3   OH235737   5.707   7.416   4.624
11927TIP3    H135738   5.639   7.465   4.670
11927TIP3    H235739   5.788   7.462   4.644
11928TIP3   OH235740   3.406   7.018   4.756
11928TIP3    H135741   3.373   6.989   4.841
11928TIP3    H235742   3.496   7.047   4.775
11929TIP3   OH235743   5.240   1.106   0.946
11929TIP3    H135744   5.216   1.054   1.022
11929TIP3    H235745   5.297   1.049   0.895
11930TIP3   OH235746   7.520   3.800   0.777
11930TIP3    H135747   7.453   3.820   0.842
11930TIP3    H235748   7.503   3.862   0.706
11931TIP3   OH235749   6.362   7.503   6.735
11931TIP3    H135750   6.442   7.510   6.683
11931TIP3    H235751   6.291   7.509   6.672
11932TIP3   OH235752   5.721   4.384   6.086
11932TIP3    H135753   5.698   4.296   6.114
11932TIP3    H235754   5.638   4.425   6.061
11933TIP3   OH235755   8.093   4.456   0.163
11933TIP3    H135756   8.093   4.485   0.254
11933TIP3    H235757   8.094   4.360   0.169
11934TIP3   OH235758   7.312   6.265   2.443
11934TIP3    H135759   7.404   6.239   2.432
11934TIP3    H235760   7.282   6.217   2.520
11935TIP3   OH235761   7.220   7.447   3.625
11935TIP3    H135762   7.152   7.393   3.586
11935TIP3    H235763   7.300   7.422   3.579
11936TIP3   OH235764   5.002   2.733   4.534
11936TIP3    H135765   5.000   2.811   4.589
11936TIP3    H235766   4.914   2.728   4.496
11937TIP3   OH235767   2.333   5.241   0.828
11937TIP3    H135768   2.308   5.227   0.737
11937TIP3    H235769   2.384   5.322   0.828
11938TIP3   OH235770   6.333   1.949   3.461
11938TIP3    H135771   6.384   2.028   3.442
11938TIP3    H235772   6.253   1.981   3.502
11939TIP3   OH235773   7.500   4.122   2.521
11939TIP3    H135774   7.466   4.181   2.453
11939TIP3    H235775   7.591   4.149   2.532
11940TIP3   OH235776   1.154   2.997   0.914
11940TIP3    H135777   1.079   2.988   0.973
11940TIP3    H235778   1.230   2.984   0.971
11941TIP3   OH235779   3.890   4.760   2.152
11941TIP3    H135780   3.944   4.690   2.187
11941TIP3    H235781   3.802   4.724   2.149
11942TIP3   OH235782   7.482   1.342   4.709
11942TIP3    H135783   7.528   1.263   4.738
11942TIP3    H235784   7.468   1.392   4.790
11943TIP3   OH235785   3.065   6.779   6.052
11943TIP3    H135786   3.125   6.854   6.055
11943TIP3    H235787   2.983   6.816   6.021
11944TIP3   OH235788   2.051   3.977   4.208
11944TIP3    H135789   2.006   4.022   4.137
11944TIP3    H235790   2.031   4.029   4.286
11945TIP3   OH235791   5.862   1.943   1.613
11945TIP3    H135792   5.912   1.919   1.535
11945TIP3    H235793   5.860   1.864   1.666
11946TIP3   OH235794   3.066   3.277   6.340
11946TIP3    H135795   3.158   3.264   6.366
11946TIP3    H235796   3.022   3.196   6.368
11947TIP3   OH235797   3.770   0.800   1.641
11947TIP3    H135798   3.695   0.765   1.593
11947TIP3    H235799   3.741   0.803   1.732
11948TIP3   OH235800   1.834   1.534   6.316
11948TIP3    H135801   1.910   1.480   6.335
11948TIP3    H235802   1.861   1.623   6.340
11949TIP3   OH235803   7.881   3.544   1.702
11949TIP3    H135804   7.917   3.542   1.791
11949TIP3    H235805   7.845   3.632   1.693
11950TIP3   OH235806   1.674   4.016   2.560
11950TIP3    H135807   1.684   4.067   2.641
11950TIP3    H235808   1.759   3.974   2.548
11951TIP3   OH235809   6.084   6.615   3.367
11951TIP3    H135810   6.154   6.589   3.427
11951TIP3    H235811   6.096   6.560   3.290
11952TIP3   OH235812   2.178   2.773   4.278
11952TIP3    H135813   2.240   2.702   4.261
11952TIP3    H235814   2.220   2.850   4.240
11953TIP3   OH235815   5.322   7.435   0.888
11953TIP3    H135816   5.234   7.426   0.926
11953TIP3    H235817   5.332   7.529   0.873
11954TIP3   OH235818   2.868   5.482   3.468
11954TIP3    H135819   2.876   5.498   3.374
11954TIP3    H235820   2.892   5.390   3.479
11955TIP3   OH235821   2.805   6.035   4.986
11955TIP3    H135822   2.806   6.125   5.017
11955TIP3    H235823   2.744   5.990   5.043
11956TIP3   OH235824   7.236   6.209   3.177
11956TIP3    H135825   7.180   6.134   3.154
11956TIP3    H235826   7.291   6.221   3.100
11957TIP3   OH235827   6.953   2.314   1.964
11957TIP3    H135828   6.869   2.348   1.993
11957TIP3    H235829   6.947   2.311   1.869
11958TIP3   OH235830   7.891   0.365   1.238
11958TIP3    H135831   7.798   0.345   1.242
11958TIP3    H235832   7.894   0.461   1.232
11959TIP3   OH235833   0.385   6.491   1.227
11959TIP3    H135834   0.340   6.433   1.166
11959TIP3    H235835   0.348   6.578   1.209
11960TIP3   OH235836   0.341   0.191   0.794
11960TIP3    H135837   0.415   0.229   0.748
11960TIP3    H235838   0.355   0.214   0.886
11961TIP3   OH235839   4.131   1.693   5.887
11961TIP3    H135840   4.203   1.712   5.947
11961TIP3    H235841   4.057   1.673   5.944
11962TIP3   OH235842   0.067   4.144   2.483
11962TIP3    H135843   0.075   4.223   2.430
11962TIP3    H235844   0.132   4.154   2.552
11963TIP3   OH235845   7.114   7.083   2.199
11963TIP3    H135846   7.068   7.050   2.276
11963TIP3    H235847   7.079   7.172   2.187
11964TIP3   OH235848   2.149   1.778   5.914
11964TIP3    H135849   2.063   1.749   5.882
11964TIP3    H235850   2.210   1.712   5.882
11965TIP3   OH235851   4.088   0.730   0.451
11965TIP3    H135852   4.105   0.824   0.444
11965TIP3    H235853   4.027   0.712   0.379
11966TIP3   OH235854   7.747   2.422   0.650
11966TIP3    H135855   7.791   2.507   0.650
11966TIP3    H235856   7.678   2.430   0.585
11967TIP3   OH235857   0.372   2.649   5.044
11967TIP3    H135858   0.302   2.704   5.079
11967TIP3    H235859   0.445   2.710   5.030
11968TIP3   OH235860   6.265   7.200   4.298
11968TIP3    H135861   6.170   7.206   4.311
11968TIP3    H235862   6.292   7.127   4.354
11969TIP3   OH235863   6.956   0.898   4.447
11969TIP3    H135864   6.894   0.854   4.504
11969TIP3    H235865   6.911   0.978   4.420
11970TIP3   OH235866   5.208   6.702   1.859
11970TIP3    H135867   5.289   6.653   1.848
11970TIP3    H235868   5.173   6.711   1.770
11971TIP3   OH235869   3.170   4.834   4.389
11971TIP3    H135870   3.228   4.773   4.343
11971TIP3    H235871   3.210   4.845   4.475
11972TIP3   OH235872   3.941   2.289   4.082
11972TIP3    H135873   3.897   2.349   4.022
11972TIP3    H235874   3.963   2.342   4.158
11973TIP3   OH235875   7.140   5.345   4.955
11973TIP3    H135876   7.219   5.311   4.996
11973TIP3    H235877   7.069   5.296   4.996
11974TIP3   OH235878   4.281   3.447   5.661
11974TIP3    H135879   4.315   3.431   5.573
11974TIP3    H235880   4.354   3.485   5.709
11975TIP3   OH235881   5.579   7.783   0.968
11975TIP3    H135882   5.488   7.797   0.993
11975TIP3    H235883   5.574   7.759   0.875
11976TIP3   OH235884   5.966   3.823   6.167
11976TIP3    H135885   5.950   3.829   6.073
11976TIP3    H235886   5.998   3.734   6.181
11977TIP3   OH235887   3.551   6.984   4.326
11977TIP3    H135888   3.626   6.953   4.275
11977TIP3    H235889   3.589   7.044   4.390
11978TIP3   OH235890   5.582   4.166   6.258
11978TIP3    H135891   5.619   4.134   6.340
11978TIP3    H235892   5.525   4.238   6.283
11979TIP3   OH235893   4.981   7.706   1.022
11979TIP3    H135894   4.968   7.613   1.037
11979TIP3    H235895   4.893   7.741   1.008
11980TIP3   OH235896   6.892   7.055   3.923
11980TIP3    H135897   6.957   7.109   3.968
11980TIP3    H235898   6.941   6.980   3.891
11981TIP3   OH235899   8.236   4.417   4.252
11981TIP3    H135900   8.236   4.383   4.341
11981TIP3    H235901   8.154   4.386   4.213
11982TIP3   OH235902   0.933   5.249   5.508
11982TIP3    H135903   0.942   5.187   5.581
11982TIP3    H235904   0.894   5.327   5.548
11983TIP3   OH235905   4.603   3.892   3.554
11983TIP3    H135906   4.600   3.840   3.474
11983TIP3    H235907   4.542   3.964   3.538
11984TIP3   OH235908   6.109   2.063   4.217
11984TIP3    H135909   6.043   2.073   4.285
11984TIP3    H235910   6.155   2.147   4.216
11985TIP3   OH235911   1.762   7.307   6.732
11985TIP3    H135912   1.687   7.253   6.707
11985TIP3    H235913   1.836   7.246   6.735
11986TIP3   OH235914   3.593   3.792   3.180
11986TIP3    H135915   3.535   3.869   3.177
11986TIP3    H235916   3.537   3.719   3.157
11987TIP3   OH235917   7.190   1.627   0.405
11987TIP3    H135918   7.156   1.612   0.317
11987TIP3    H235919   7.141   1.704   0.436
11988TIP3   OH235920   7.812   0.174   5.504
11988TIP3    H135921   7.895   0.165   5.550
11988TIP3    H235922   7.752   0.114   5.548
11989TIP3   OH235923   8.115   5.151   2.582
11989TIP3    H135924   8.124   5.088   2.510
11989TIP3    H235925   8.037   5.121   2.629
11990TIP3   OH235926   5.289   6.471   4.601
11990TIP3    H135927   5.303   6.541   4.536
11990TIP3    H235928   5.364   6.413   4.590
11991TIP3   OH235929   0.576   0.413   1.075
11991TIP3    H135930   0.522   0.335   1.088
11991TIP3    H235931   0.598   0.441   1.164
11992TIP3   OH235932   4.638   5.949   2.411
11992TIP3    H135933   4.696   5.958   2.335
11992TIP3    H235934   4.649   5.858   2.439
11993TIP3   OH235935   1.515   6.297   6.141
11993TIP3    H135936   1.541   6.332   6.226
11993TIP3    H235937   1.562   6.351   6.077
11994TIP3   OH235938   6.378   5.444   3.799
11994TIP3    H135939   6.303   5.384   3.802
11994TIP3    H235940   6.349   5.522   3.847
11995TIP3   OH235941   0.858   0.770   0.035
11995TIP3    H135942   0.779   0.777   0.090
11995TIP3    H235943   0.825   0.752  -0.052
11996TIP3   OH235944   6.393   6.037   4.519
11996TIP3    H135945   6.442   6.019   4.599
11996TIP3    H235946   6.446   5.999   4.449
11997TIP3   OH235947   6.095   6.871   0.555
11997TIP3    H135948   6.060   6.944   0.607
11997TIP3    H235949   6.108   6.800   0.618
11998TIP3   OH235950   7.002   2.515   6.768
11998TIP3    H135951   6.917   2.473   6.785
11998TIP3    H235952   7.067   2.451   6.796
11999TIP3   OH235953   5.881   1.865   2.600
11999TIP3    H135954   5.858   1.827   2.685
11999TIP3    H235955   5.878   1.959   2.613
12000TIP3   OH235956   5.567   7.686   0.219
12000TIP3    H135957   5.606   7.767   0.249
12000TIP3    H235958   5.589   7.681   0.126
12001TIP3   OH235959   2.472   5.428   0.209
12001TIP3    H135960   2.390   5.467   0.179
12001TIP3    H235961   2.445   5.354   0.263
12002TIP3   OH235962   6.770   5.356   4.863
12002TIP3    H135963   6.691   5.410   4.864
12002TIP3    H235964   6.812   5.373   4.948
12003TIP3   OH235965   0.783   2.863   4.709
12003TIP3    H135966   0.835   2.864   4.790
12003TIP3    H235967   0.847   2.842   4.641
12004TIP3   OH235968   2.530   4.463   3.701
12004TIP3    H135969   2.508   4.554   3.718
12004TIP3    H235970   2.625   4.458   3.713
12005TIP3   OH235971   0.433   0.820   3.165
12005TIP3    H135972   0.446   0.797   3.257
12005TIP3    H235973   0.410   0.913   3.167
12006TIP3   OH235974   5.013   1.126   2.398
12006TIP3    H135975   5.094   1.108   2.350
12006TIP3    H235976   5.024   1.079   2.481
12007TIP3   OH235977   6.663   1.473   6.309
12007TIP3    H135978   6.707   1.490   6.227
12007TIP3    H235979   6.644   1.379   6.308
12008TIP3   OH235980   8.282   4.288   4.591
12008TIP3    H135981   8.206   4.279   4.649
12008TIP3    H235982   8.296   4.382   4.585
12009TIP3   OH235983   5.248   5.110   1.538
12009TIP3    H135984   5.296   5.083   1.616
12009TIP3    H235985   5.312   5.156   1.484
12010TIP3   OH235986   4.142   0.656   3.893
12010TIP3    H135987   4.204   0.620   3.956
12010TIP3    H235988   4.128   0.746   3.922
12011TIP3   OH235989   6.280   1.484   5.681
12011TIP3    H135990   6.230   1.423   5.626
12011TIP3    H235991   6.335   1.428   5.735
12012TIP3   OH235992   0.603   3.973   0.713
12012TIP3    H135993   0.616   3.938   0.625
12012TIP3    H235994   0.649   4.057   0.712
12013TIP3   OH235995   0.164   2.005   6.690
12013TIP3    H135996   0.108   2.062   6.744
12013TIP3    H235997   0.203   2.064   6.625
12014TIP3   OH235998   7.437   0.712   0.467
12014TIP3    H135999   7.519   0.712   0.418
12014TIP3    H236000   7.379   0.655   0.416
12015TIP3   OH236001   0.244   0.492   2.181
12015TIP3    H136002   0.159   0.495   2.225
12015TIP3    H236003   0.227   0.528   2.094
12016TIP3   OH236004   4.273   7.697   3.507
12016TIP3    H136005   4.366   7.720   3.511
12016TIP3    H236006   4.269   7.626   3.444
12017TIP3   OH236007   2.436   6.847   4.803
12017TIP3    H136008   2.420   6.759   4.836
12017TIP3    H236009   2.530   6.851   4.789
12018TIP3   OH236010   4.374   7.331   2.907
12018TIP3    H136011   4.353   7.410   2.857
12018TIP3    H236012   4.305   7.323   2.972
12019TIP3   OH236013   4.925   1.338   2.091
12019TIP3    H136014   4.885   1.271   2.147
12019TIP3    H236015   4.989   1.381   2.148
12020TIP3   OH236016   7.193   1.275   6.472
12020TIP3    H136017   7.137   1.338   6.426
12020TIP3    H236018   7.270   1.325   6.496
12021TIP3   OH236019   3.025   1.834   4.035
12021TIP3    H136020   3.068   1.778   4.099
12021TIP3    H236021   3.037   1.787   3.952
12022TIP3   OH236022   6.174   5.014   5.568
12022TIP3    H136023   6.138   5.013   5.657
12022TIP3    H236024   6.269   5.010   5.580
12023TIP3   OH236025   0.177   4.575   4.212
12023TIP3    H136026   0.121   4.605   4.141
12023TIP3    H236027   0.145   4.487   4.232
12024TIP3   OH236028   6.395   7.578   2.075
12024TIP3    H136029   6.465   7.514   2.084
12024TIP3    H236030   6.435   7.652   2.030
12025TIP3   OH236031   4.820   1.911   0.735
12025TIP3    H136032   4.834   1.977   0.803
12025TIP3    H236033   4.860   1.831   0.770
12026TIP3   OH236034   6.253   0.194   6.433
12026TIP3    H136035   6.215   0.151   6.510
12026TIP3    H236036   6.177   0.225   6.383
12027TIP3   OH236037   3.668   7.666   6.472
12027TIP3    H136038   3.702   7.752   6.497
12027TIP3    H236039   3.671   7.615   6.552
12028TIP3   OH236040   2.690   3.347   6.260
12028TIP3    H136041   2.779   3.320   6.285
12028TIP3    H236042   2.687   3.336   6.165
12029TIP3   OH236043   2.861   6.263   0.957
12029TIP3    H136044   2.956   6.274   0.964
12029TIP3    H236045   2.833   6.249   1.048
12030TIP3   OH236046   7.090   1.858   0.540
12030TIP3    H136047   7.006   1.874   0.582
12030TIP3    H236048   7.142   1.936   0.560
12031TIP3   OH236049   7.694   5.614   6.476
12031TIP3    H136050   7.617   5.638   6.424
12031TIP3    H236051   7.664   5.545   6.534
12032TIP3   OH236052   5.458   7.104   1.394
12032TIP3    H136053   5.488   7.073   1.309
12032TIP3    H236054   5.530   7.083   1.454
12033TIP3   OH236055   2.614   1.691   0.826
12033TIP3    H136056   2.654   1.700   0.739
12033TIP3    H236057   2.553   1.764   0.832
12034TIP3   OH236058   6.963   0.690   6.376
12034TIP3    H136059   7.005   0.605   6.387
12034TIP3    H236060   6.873   0.676   6.408
12035TIP3   OH236061   0.231   0.854   4.926
12035TIP3    H136062   0.205   0.919   4.861
12035TIP3    H236063   0.204   0.770   4.888
12036TIP3   OH236064   4.895   6.408   4.917
12036TIP3    H136065   4.946   6.387   4.839
12036TIP3    H236066   4.951   6.466   4.968
12037TIP3   OH236067   1.962   7.432   1.957
12037TIP3    H136068   1.875   7.397   1.976
12037TIP3    H236069   1.948   7.525   1.941
12038TIP3   OH236070   3.686   7.560   6.716
12038TIP3    H136071   3.606   7.587   6.760
12038TIP3    H236072   3.687   7.464   6.723
12039TIP3   OH236073   0.513   5.451   5.714
12039TIP3    H136074   0.473   5.445   5.801
12039TIP3    H236075   0.439   5.461   5.654
12040TIP3   OH236076   4.848   1.298   5.559
12040TIP3    H136077   4.814   1.208   5.565
12040TIP3    H236078   4.830   1.324   5.469
12041TIP3   OH236079   1.936   3.374   6.267
12041TIP3    H136080   1.943   3.372   6.362
12041TIP3    H236081   2.027   3.376   6.236
12042TIP3   OH236082   8.179   0.164   6.022
12042TIP3    H136083   8.092   0.190   6.053
12042TIP3    H236084   8.239   0.225   6.066
12043TIP3   OH236085   7.184   1.281   1.008
12043TIP3    H136086   7.125   1.273   1.084
12043TIP3    H236087   7.126   1.280   0.932
12044TIP3   OH236088   6.197   3.179   3.451
12044TIP3    H136089   6.290   3.177   3.475
12044TIP3    H236090   6.157   3.239   3.513
12045TIP3   OH236091   4.059   6.569   0.950
12045TIP3    H136092   4.018   6.544   1.033
12045TIP3    H236093   4.116   6.495   0.929
12046TIP3   OH236094   3.993   2.935   6.514
12046TIP3    H136095   4.017   2.880   6.440
12046TIP3    H236096   4.070   2.991   6.529
12047TIP3   OH236097   1.669   5.025   5.997
12047TIP3    H136098   1.590   4.972   6.009
12047TIP3    H236099   1.713   5.022   6.081
12048TIP3   OH236100   2.139   2.619   5.912
12048TIP3    H136101   2.172   2.688   5.855
12048TIP3    H236102   2.132   2.660   5.998
12049TIP3   OH236103   1.110   3.186   6.628
12049TIP3    H136104   1.098   3.280   6.640
12049TIP3    H236105   1.202   3.176   6.604
12050TIP3   OH236106   8.076   2.773   3.143
12050TIP3    H136107   8.013   2.766   3.071
12050TIP3    H236108   8.084   2.866   3.160
12051TIP3   OH236109   5.533   2.300   5.514
12051TIP3    H136110   5.572   2.331   5.432
12051TIP3    H236111   5.507   2.381   5.559
12052TIP3   OH236112   0.129   7.354   5.787
12052TIP3    H136113   0.199   7.419   5.794
12052TIP3    H236114   0.142   7.314   5.701
12053TIP3   OH236115   5.593   4.614   3.974
12053TIP3    H136116   5.644   4.649   4.047
12053TIP3    H236117   5.531   4.554   4.015
12054TIP3   OH236118   0.378   5.609   2.851
12054TIP3    H136119   0.376   5.653   2.766
12054TIP3    H236120   0.419   5.672   2.910
12055TIP3   OH236121   7.315   5.910   6.188
12055TIP3    H136122   7.260   5.901   6.265
12055TIP3    H236123   7.328   6.005   6.178
12056TIP3   OH236124   8.135   2.451   3.014
12056TIP3    H136125   8.212   2.412   2.971
12056TIP3    H236126   8.074   2.469   2.943
12057TIP3   OH236127   0.831   7.696   1.400
12057TIP3    H136128   0.823   7.601   1.407
12057TIP3    H236129   0.917   7.715   1.437
12058TIP3   OH236130   7.717   3.134   1.507
12058TIP3    H136131   7.625   3.156   1.499
12058TIP3    H236132   7.763   3.206   1.464
12059TIP3   OH236133   6.403   1.805   0.132
12059TIP3    H136134   6.481   1.792   0.079
12059TIP3    H236135   6.330   1.797   0.070
12060TIP3   OH236136   1.662   1.652   3.637
12060TIP3    H136137   1.710   1.699   3.706
12060TIP3    H236138   1.718   1.578   3.615
12061TIP3   OH236139   3.422   6.420   0.748
12061TIP3    H136140   3.503   6.452   0.708
12061TIP3    H236141   3.452   6.363   0.819
12062TIP3   OH236142   3.929   1.681   2.374
12062TIP3    H136143   3.865   1.610   2.373
12062TIP3    H236144   3.977   1.669   2.456
12063TIP3   OH236145   4.737   6.944   2.807
12063TIP3    H136146   4.674   7.016   2.815
12063TIP3    H236147   4.708   6.879   2.871
12064TIP3   OH236148   6.601   1.464   5.539
12064TIP3    H136149   6.555   1.384   5.563
12064TIP3    H236150   6.559   1.532   5.591
12065TIP3   OH236151   3.789   5.511   6.635
12065TIP3    H136152   3.832   5.544   6.714
12065TIP3    H236153   3.757   5.425   6.660
12066TIP3   OH236154   0.706   1.399   1.941
12066TIP3    H136155   0.687   1.360   2.027
12066TIP3    H236156   0.742   1.327   1.890
12067TIP3   OH236157   7.707   4.243   5.282
12067TIP3    H136158   7.703   4.183   5.357
12067TIP3    H236159   7.756   4.319   5.315
12068TIP3   OH236160   1.686   1.368   5.355
12068TIP3    H136161   1.669   1.441   5.414
12068TIP3    H236162   1.607   1.361   5.302
12069TIP3   OH236163   6.276   3.637   6.233
12069TIP3    H136164   6.260   3.731   6.229
12069TIP3    H236165   6.291   3.612   6.142
12070TIP3   OH236166   6.846   3.554   1.270
12070TIP3    H136167   6.929   3.594   1.242
12070TIP3    H236168   6.828   3.594   1.355
12071TIP3   OH236169   6.344   3.291   6.100
12071TIP3    H136170   6.304   3.231   6.163
12071TIP3    H236171   6.290   3.370   6.105
12072TIP3   OH236172   4.547   5.739   3.674
12072TIP3    H136173   4.625   5.721   3.728
12072TIP3    H236174   4.580   5.790   3.601
12073TIP3   OH236175   4.222   7.090   4.888
12073TIP3    H136176   4.164   7.057   4.819
12073TIP3    H236177   4.238   7.182   4.864
12074TIP3   OH236178   2.232   0.129   3.368
12074TIP3    H136179   2.221   0.042   3.329
12074TIP3    H236180   2.290   0.115   3.442
12075TIP3   OH236181   3.520   6.474   6.071
12075TIP3    H136182   3.427   6.493   6.078
12075TIP3    H236183   3.524   6.379   6.058
12076TIP3   OH236184   7.618   5.032   0.833
12076TIP3    H136185   7.538   4.990   0.865
12076TIP3    H236186   7.622   5.115   0.882
12077TIP3   OH236187   7.472   5.079   3.199
12077TIP3    H136188   7.434   5.151   3.250
12077TIP3    H236189   7.475   5.112   3.109
12078TIP3   OH236190   8.050   4.161   0.121
12078TIP3    H136191   7.960   4.184   0.096
12078TIP3    H236192   8.041   4.121   0.208
12079TIP3   OH236193   0.570   2.289   6.714
12079TIP3    H136194   0.525   2.370   6.691
12079TIP3    H236195   0.615   2.262   6.634
12080TIP3   OH236196   2.133   4.155   3.699
12080TIP3    H136197   2.072   4.228   3.687
12080TIP3    H236198   2.214   4.197   3.728
12081TIP3   OH236199   3.151   4.258   1.734
12081TIP3    H136200   3.184   4.210   1.657
12081TIP3    H236201   3.191   4.344   1.726
12082TIP3   OH236202   4.022   3.892   4.216
12082TIP3    H136203   3.968   3.967   4.191
12082TIP3    H236204   4.043   3.906   4.308
12083TIP3   OH236205   3.813   0.523   1.263
12083TIP3    H136206   3.774   0.598   1.218
12083TIP3    H236207   3.739   0.468   1.288
12084TIP3   OH236208   2.513   2.717   2.905
12084TIP3    H136209   2.491   2.661   2.980
12084TIP3    H236210   2.607   2.734   2.915
12085TIP3   OH236211   3.236   6.071   0.836
12085TIP3    H136212   3.277   5.988   0.808
12085TIP3    H236213   3.196   6.106   0.757
12086TIP3   OH236214   5.890   6.965   0.751
12086TIP3    H136215   5.829   7.015   0.805
12086TIP3    H236216   5.835   6.907   0.699
12087TIP3   OH236217   5.944   0.237   4.367
12087TIP3    H136218   5.853   0.210   4.356
12087TIP3    H236219   5.992   0.188   4.301
12088TIP3   OH236220   5.828   2.839   3.362
12088TIP3    H136221   5.876   2.904   3.413
12088TIP3    H236222   5.851   2.858   3.271
12089TIP3   OH236223   0.108   3.411   1.722
12089TIP3    H136224   0.199   3.405   1.754
12089TIP3    H236225   0.096   3.331   1.671
12090TIP3   OH236226   2.264   5.080   4.103
12090TIP3    H136227   2.350   5.039   4.113
12090TIP3    H236228   2.222   5.032   4.031
12091TIP3   OH236229   1.239   5.260   3.473
12091TIP3    H136230   1.226   5.309   3.391
12091TIP3    H236231   1.263   5.171   3.444
12092TIP3   OH236232   3.886   7.717   4.919
12092TIP3    H136233   3.807   7.705   4.972
12092TIP3    H236234   3.855   7.722   4.829
12093TIP3   OH236235   7.558   5.387   0.609
12093TIP3    H136236   7.528   5.301   0.641
12093TIP3    H236237   7.653   5.379   0.608
12094TIP3   OH236238   8.017   2.299   2.078
12094TIP3    H136239   7.971   2.346   2.148
12094TIP3    H236240   8.035   2.367   2.012
12095TIP3   OH236241   2.693   6.965   0.352
12095TIP3    H136242   2.673   7.044   0.300
12095TIP3    H236243   2.689   6.995   0.443
12096TIP3   OH236244   1.094   6.251   4.313
12096TIP3    H136245   1.063   6.324   4.367
12096TIP3    H236246   1.023   6.187   4.316
12097TIP3   OH236247   4.474   3.525   2.572
12097TIP3    H136248   4.555   3.511   2.622
12097TIP3    H236249   4.448   3.437   2.545
12098TIP3   OH236250   8.187   1.812   2.383
12098TIP3    H136251   8.206   1.847   2.470
12098TIP3    H236252   8.099   1.843   2.363
12099TIP3   OH236253   5.919   1.166   4.677
12099TIP3    H136254   5.909   1.212   4.593
12099TIP3    H236255   6.002   1.198   4.712
12100TIP3   OH236256   3.902   6.746   0.455
12100TIP3    H136257   3.986   6.715   0.421
12100TIP3    H236258   3.867   6.670   0.503
12101TIP3   OH236259   3.400   7.577   3.066
12101TIP3    H136260   3.351   7.630   3.129
12101TIP3    H236261   3.491   7.607   3.076
12102TIP3   OH236262   7.064   1.630   3.275
12102TIP3    H136263   7.144   1.681   3.285
12102TIP3    H236264   7.082   1.569   3.204
12103TIP3   OH236265   4.680   6.680   1.393
12103TIP3    H136266   4.595   6.636   1.402
12103TIP3    H236267   4.658   6.773   1.388
12104TIP3   OH236268   3.950   4.760   5.942
12104TIP3    H136269   3.924   4.838   5.893
12104TIP3    H236270   3.881   4.749   6.008
12105TIP3   OH236271   6.771   4.810   0.387
12105TIP3    H136272   6.777   4.775   0.476
12105TIP3    H236273   6.735   4.898   0.398
12106TIP3   OH236274   2.795   3.027   0.060
12106TIP3    H136275   2.743   2.948   0.077
12106TIP3    H236276   2.740   3.080   0.002
12107TIP3   OH236277   0.255   6.507   3.042
12107TIP3    H136278   0.297   6.501   3.129
12107TIP3    H236279   0.250   6.601   3.025
12108TIP3   OH236280   2.639   1.463   1.841
12108TIP3    H136281   2.596   1.506   1.768
12108TIP3    H236282   2.732   1.464   1.819
12109TIP3   OH236283   5.659   0.024   0.221
12109TIP3    H136284   5.665   0.109   0.263
12109TIP3    H236285   5.709   0.033   0.140
12110TIP3   OH236286   6.127   5.313   6.699
12110TIP3    H136287   6.110   5.219   6.695
12110TIP3    H236288   6.044   5.353   6.673
12111TIP3   OH236289   6.580   4.919   3.437
12111TIP3    H136290   6.674   4.933   3.450
12111TIP3    H236291   6.575   4.833   3.396
12112TIP3   OH236292   1.220   3.440   4.510
12112TIP3    H136293   1.301   3.491   4.519
12112TIP3    H236294   1.156   3.504   4.478
12113TIP3   OH236295   5.686   6.377   5.246
12113TIP3    H136296   5.758   6.440   5.239
12113TIP3    H236297   5.694   6.322   5.167
12114TIP3   OH236298   4.548   5.648   3.280
12114TIP3    H136299   4.499   5.568   3.260
12114TIP3    H236300   4.507   5.715   3.226
12115TIP3   OH236301   6.281   7.546   1.204
12115TIP3    H136302   6.236   7.463   1.219
12115TIP3    H236303   6.296   7.548   1.110
12116TIP3   OH236304   6.336   5.511   0.663
12116TIP3    H136305   6.395   5.456   0.714
12116TIP3    H236306   6.389   5.542   0.590
12117TIP3   OH236307   0.389   6.630   2.458
12117TIP3    H136308   0.332   6.679   2.398
12117TIP3    H236309   0.478   6.653   2.432
12118TIP3   OH236310   3.394   2.528   6.677
12118TIP3    H136311   3.396   2.601   6.739
12118TIP3    H236312   3.410   2.450   6.731
12119TIP3   OH236313   7.367   5.994   1.220
12119TIP3    H136314   7.411   6.067   1.264
12119TIP3    H236315   7.278   6.026   1.205
12120TIP3   OH236316   5.125   5.565   5.428
12120TIP3    H136317   5.100   5.640   5.482
12120TIP3    H236318   5.113   5.489   5.485
12121TIP3   OH236319   1.966   1.130   1.220
12121TIP3    H136320   1.880   1.168   1.236
12121TIP3    H236321   2.017   1.150   1.298
12122TIP3   OH236322   2.240   1.312   5.195
12122TIP3    H136323   2.281   1.257   5.128
12122TIP3    H236324   2.251   1.261   5.276
12123TIP3   OH236325   5.609   1.391   2.651
12123TIP3    H136326   5.666   1.358   2.720
12123TIP3    H236327   5.662   1.455   2.604
12124TIP3   OH236328   1.997   2.075   2.876
12124TIP3    H136329   2.010   2.169   2.891
12124TIP3    H236330   1.959   2.070   2.788
12125TIP3   OH236331   5.164   0.386   0.146
12125TIP3    H136332   5.148   0.415   0.056
12125TIP3    H236333   5.216   0.457   0.185
12126TIP3   OH236334   5.411   1.891   2.004
12126TIP3    H136335   5.364   1.969   1.975
12126TIP3    H236336   5.503   1.920   2.009
12127TIP3   OH236337   0.216   4.704   0.695
12127TIP3    H136338   0.169   4.778   0.657
12127TIP3    H236339   0.165   4.680   0.772
12128TIP3   OH236340   2.861   6.213   6.488
12128TIP3    H136341   2.842   6.282   6.425
12128TIP3    H236342   2.956   6.202   6.484
12129TIP3   OH236343   5.354   6.510   3.189
12129TIP3    H136344   5.414   6.517   3.114
12129TIP3    H236345   5.302   6.590   3.186
12130TIP3   OH236346   7.613   6.731   3.810
12130TIP3    H136347   7.546   6.744   3.743
12130TIP3    H236348   7.617   6.636   3.823
12131TIP3   OH236349   0.923   0.217   0.165
12131TIP3    H136350   1.005   0.168   0.163
12131TIP3    H236351   0.901   0.231   0.073
12132TIP3   OH236352   2.175   7.274   4.376
12132TIP3    H136353   2.243   7.336   4.348
12132TIP3    H236354   2.224   7.195   4.401
12133TIP3   OH236355   1.161   6.283   2.244
12133TIP3    H136356   1.238   6.312   2.195
12133TIP3    H236357   1.088   6.328   2.203
12134TIP3   OH236358   0.885   2.818   4.422
12134TIP3    H136359   0.948   2.793   4.355
12134TIP3    H236360   0.906   2.909   4.442
12135TIP3   OH236361   4.628   7.784   5.552
12135TIP3    H136362   4.614   7.690   5.552
12135TIP3    H236363   4.548   7.820   5.591
12136TIP3   OH236364   6.248   6.382   5.333
12136TIP3    H136365   6.300   6.462   5.347
12136TIP3    H236366   6.304   6.327   5.278
12137TIP3   OH236367   0.414   7.133   3.037
12137TIP3    H136368   0.321   7.152   3.020
12137TIP3    H236369   0.457   7.150   2.954
12138TIP3   OH236370   1.200   0.149   5.978
12138TIP3    H136371   1.285   0.185   5.956
12138TIP3    H236372   1.211   0.112   6.065
12139TIP3   OH236373   7.581   5.949   6.453
12139TIP3    H136374   7.529   5.880   6.494
12139TIP3    H236375   7.599   6.011   6.524
12140TIP3   OH236376   6.789   0.363   6.330
12140TIP3    H136377   6.726   0.369   6.402
12140TIP3    H236378   6.871   0.335   6.371
12141TIP3   OH236379   1.586   2.766   0.674
12141TIP3    H136380   1.521   2.704   0.639
12141TIP3    H236381   1.541   2.850   0.673
12142TIP3   OH236382   0.151   5.150   1.976
12142TIP3    H136383   0.164   5.073   2.030
12142TIP3    H236384   0.198   5.220   2.022
12143TIP3   OH236385   2.058   5.873   6.247
12143TIP3    H136386   2.150   5.886   6.269
12143TIP3    H236387   2.046   5.778   6.248
12144TIP3   OH236388   1.791   7.788   0.393
12144TIP3    H136389   1.771   7.873   0.432
12144TIP3    H236390   1.812   7.732   0.467
12145TIP3   OH236391   4.885   3.770   2.580
12145TIP3    H136392   4.967   3.741   2.542
12145TIP3    H236393   4.846   3.827   2.513
12146TIP3   OH236394   2.712   1.021   2.083
12146TIP3    H136395   2.758   0.980   2.009
12146TIP3    H236396   2.653   0.953   2.116
12147TIP3   OH236397   5.930   0.762   2.740
12147TIP3    H136398   5.977   0.761   2.656
12147TIP3    H236399   5.882   0.679   2.741
12148TIP3   OH236400   4.728   6.133   4.415
12148TIP3    H136401   4.730   6.228   4.410
12148TIP3    H236402   4.743   6.103   4.326
12149TIP3   OH236403   1.302   6.265   2.780
12149TIP3    H136404   1.292   6.259   2.685
12149TIP3    H236405   1.371   6.202   2.801
12150TIP3   OH236406   4.620   5.356   3.872
12150TIP3    H136407   4.544   5.412   3.854
12150TIP3    H236408   4.592   5.301   3.946
12151TIP3   OH236409   3.157   1.728   2.274
12151TIP3    H136410   3.082   1.692   2.228
12151TIP3    H236411   3.178   1.663   2.341
12152TIP3   OH236412   1.185   0.982   1.872
12152TIP3    H136413   1.278   0.965   1.883
12152TIP3    H236414   1.150   0.903   1.831
12153TIP3   OH236415   3.729   0.467   0.140
12153TIP3    H136416   3.764   0.420   0.215
12153TIP3    H236417   3.693   0.398   0.083
12154TIP3   OH236418   4.016   0.341   0.452
12154TIP3    H136419   4.016   0.394   0.532
12154TIP3    H236420   4.094   0.369   0.404
12155TIP3   OH236421   8.262   7.677   3.825
12155TIP3    H136422   8.190   7.647   3.882
12155TIP3    H236423   8.253   7.772   3.824
12156TIP3   OH236424   2.968   0.350   1.895
12156TIP3    H136425   2.888   0.402   1.901
12156TIP3    H236426   3.018   0.374   1.973
12157TIP3   OH236427   1.292   4.250   3.864
12157TIP3    H136428   1.284   4.265   3.958
12157TIP3    H236429   1.229   4.311   3.824
12158TIP3   OH236430   5.265   4.364   6.200
12158TIP3    H136431   5.191   4.381   6.142
12158TIP3    H236432   5.240   4.287   6.250
12159TIP3   OH236433   0.300   5.857   2.735
12159TIP3    H136434   0.211   5.861   2.770
12159TIP3    H236435   0.356   5.860   2.813
12160TIP3   OH236436   7.360   5.372   0.423
12160TIP3    H136437   7.412   5.336   0.495
12160TIP3    H236438   7.276   5.327   0.428
12161TIP3   OH236439   6.828   1.044   5.572
12161TIP3    H136440   6.787   0.971   5.525
12161TIP3    H236441   6.891   1.080   5.510
12162TIP3   OH236442   7.313   2.568   4.308
12162TIP3    H136443   7.399   2.561   4.350
12162TIP3    H236444   7.269   2.640   4.353
12163TIP3   OH236445   3.606   7.524   6.236
12163TIP3    H136446   3.613   7.567   6.321
12163TIP3    H236447   3.517   7.546   6.207
12164TIP3   OH236448   6.590   2.198   4.544
12164TIP3    H136449   6.564   2.194   4.452
12164TIP3    H236450   6.598   2.292   4.562
12165TIP3   OH236451   5.239   1.441   2.124
12165TIP3    H136452   5.227   1.346   2.123
12165TIP3    H236453   5.306   1.456   2.191
12166TIP3   OH236454   0.065   4.590   1.621
12166TIP3    H136455   0.106   4.505   1.637
12166TIP3    H236456   0.012   4.578   1.543
12167TIP3   OH236457   5.637   2.451   3.997
12167TIP3    H136458   5.590   2.415   4.072
12167TIP3    H236459   5.708   2.389   3.980
12168TIP3   OH236460   2.330   5.064   1.967
12168TIP3    H136461   2.315   5.020   2.051
12168TIP3    H236462   2.291   5.006   1.902
12169TIP3   OH236463   1.875   2.801   4.136
12169TIP3    H136464   1.957   2.825   4.179
12169TIP3    H236465   1.866   2.864   4.064
12170TIP3   OH236466   3.446   1.943   4.566
12170TIP3    H136467   3.484   1.883   4.501
12170TIP3    H236468   3.522   1.981   4.610
12171TIP3   OH236469   3.635   4.052   4.892
12171TIP3    H136470   3.669   3.971   4.855
12171TIP3    H236471   3.547   4.030   4.922
12172TIP3   OH236472   1.083   5.427   3.239
12172TIP3    H136473   1.031   5.504   3.265
12172TIP3    H236474   1.172   5.461   3.230
12173TIP3   OH236475   6.201   3.509   5.439
12173TIP3    H136476   6.200   3.450   5.364
12173TIP3    H236477   6.129   3.570   5.424
12174TIP3   OH236478   1.255   0.005   4.408
12174TIP3    H136479   1.299  -0.073   4.442
12174TIP3    H236480   1.322   0.050   4.356
12175TIP3   OH236481   6.953   4.811   1.551
12175TIP3    H136482   6.886   4.757   1.592
12175TIP3    H236483   6.931   4.810   1.458
12176TIP3   OH236484   1.261   2.418   1.133
12176TIP3    H136485   1.263   2.512   1.116
12176TIP3    H236486   1.349   2.398   1.165
12177TIP3   OH236487   7.791   3.381   1.026
12177TIP3    H136488   7.819   3.289   1.019
12177TIP3    H236489   7.759   3.402   0.938
12178TIP3   OH236490   6.513   2.851   0.694
12178TIP3    H136491   6.489   2.902   0.617
12178TIP3    H236492   6.431   2.812   0.723
12179TIP3   OH236493   1.434   7.586   2.330
12179TIP3    H136494   1.377   7.547   2.396
12179TIP3    H236495   1.485   7.651   2.378
12180TIP3   OH236496   7.302   3.771   1.165
12180TIP3    H136497   7.387   3.790   1.125
12180TIP3    H236498   7.252   3.852   1.153
12181TIP3   OH236499   0.330   7.080   5.948
12181TIP3    H136500   0.238   7.089   5.969
12181TIP3    H236501   0.349   6.987   5.960
12182TIP3   OH236502   7.491   6.462   0.815
12182TIP3    H136503   7.586   6.462   0.802
12182TIP3    H236504   7.480   6.478   0.909
12183TIP3   OH236505   1.754   0.568   5.151
12183TIP3    H136506   1.737   0.476   5.170
12183TIP3    H236507   1.847   0.572   5.130
12184TIP3   OH236508   2.510   2.572   5.574
12184TIP3    H136509   2.530   2.618   5.655
12184TIP3    H236510   2.416   2.557   5.576
12185TIP3   OH236511   3.216   7.372   5.795
12185TIP3    H136512   3.176   7.434   5.734
12185TIP3    H236513   3.310   7.383   5.782
12186TIP3   OH236514   2.061   4.996   4.257
12186TIP3    H136515   2.032   5.086   4.275
12186TIP3    H236516   2.152   5.006   4.229
12187TIP3   OH236517   0.640   3.976   4.250
12187TIP3    H136518   0.720   3.932   4.280
12187TIP3    H236519   0.578   3.904   4.234
12188TIP3   OH236520   3.238   3.536   4.687
12188TIP3    H136521   3.146   3.512   4.699
12188TIP3    H236522   3.283   3.493   4.760
12189TIP3   OH236523   5.118   2.768   0.387
12189TIP3    H136524   5.188   2.834   0.387
12189TIP3    H236525   5.164   2.685   0.376
12190TIP3   OH236526   2.209   7.486   1.579
12190TIP3    H136527   2.237   7.571   1.548
12190TIP3    H236528   2.123   7.473   1.541
12191TIP3   OH236529   4.963   3.112   6.468
12191TIP3    H136530   4.914   3.143   6.392
12191TIP3    H236531   5.046   3.159   6.464
12192TIP3   OH236532   4.335   5.285   4.522
12192TIP3    H136533   4.340   5.317   4.612
12192TIP3    H236534   4.246   5.253   4.513
12193TIP3   OH236535   4.148   5.528   2.878
12193TIP3    H136536   4.172   5.446   2.920
12193TIP3    H236537   4.219   5.545   2.816
12194TIP3   OH236538   3.106   0.874   5.557
12194TIP3    H136539   3.030   0.861   5.614
12194TIP3    H236540   3.095   0.963   5.523
12195TIP3   OH236541   4.822   2.259   5.820
12195TIP3    H136542   4.825   2.164   5.807
12195TIP3    H236543   4.829   2.295   5.731
12196TIP3   OH236544   7.872   0.193   4.963
12196TIP3    H136545   7.853   0.151   5.047
12196TIP3    H236546   7.880   0.286   4.983
12197TIP3   OH236547   1.374   6.807   6.620
12197TIP3    H136548   1.415   6.721   6.636
12197TIP3    H236549   1.289   6.801   6.664
12198TIP3   OH236550   6.737   3.887   1.261
12198TIP3    H136551   6.742   3.851   1.350
12198TIP3    H236552   6.673   3.832   1.216
12199TIP3   OH236553   7.679   7.594   4.995
12199TIP3    H136554   7.730   7.532   5.047
12199TIP3    H236555   7.627   7.642   5.059
12200TIP3   OH236556   2.562   4.467   1.484
12200TIP3    H136557   2.624   4.398   1.509
12200TIP3    H236558   2.599   4.546   1.524
12201TIP3   OH236559   0.974   6.980   6.631
12201TIP3    H136560   1.039   6.963   6.699
12201TIP3    H236561   0.957   6.895   6.593
12202TIP3   OH236562   2.921   2.211   1.888
12202TIP3    H136563   2.971   2.183   1.964
12202TIP3    H236564   2.980   2.268   1.839
12203TIP3   OH236565   7.282   6.234   0.227
12203TIP3    H136566   7.232   6.167   0.181
12203TIP3    H236567   7.236   6.316   0.206
12204TIP3   OH236568   4.301   2.817   1.697
12204TIP3    H136569   4.299   2.908   1.726
12204TIP3    H236570   4.393   2.791   1.706
12205TIP3   OH236571   5.341   2.434   2.061
12205TIP3    H136572   5.379   2.500   2.003
12205TIP3    H236573   5.247   2.453   2.061
12206TIP3   OH236574   6.829   2.527   2.677
12206TIP3    H136575   6.906   2.529   2.734
12206TIP3    H236576   6.783   2.609   2.696
12207TIP3   OH236577   6.132   1.759   1.770
12207TIP3    H136578   6.189   1.795   1.702
12207TIP3    H236579   6.069   1.706   1.723
12208TIP3   OH236580   3.497   2.606   2.850
12208TIP3    H136581   3.518   2.611   2.944
12208TIP3    H236582   3.487   2.512   2.833
12209TIP3   OH236583   1.183   7.459   1.005
12209TIP3    H136584   1.138   7.523   0.950
12209TIP3    H236585   1.274   7.463   0.977
12210TIP3   OH236586   6.476   7.036   1.954
12210TIP3    H136587   6.443   7.082   2.030
12210TIP3    H236588   6.453   6.944   1.969
12211TIP3   OH236589   4.076   2.998   4.871
12211TIP3    H136590   4.056   3.077   4.820
12211TIP3    H236591   4.172   2.996   4.875
12212TIP3   OH236592   1.561   4.168   6.697
12212TIP3    H136593   1.608   4.218   6.764
12212TIP3    H236594   1.469   4.175   6.722
12213TIP3   OH236595   2.981   0.717   1.818
12213TIP3    H136596   3.062   0.670   1.796
12213TIP3    H236597   2.914   0.649   1.823
12214TIP3   OH236598   0.048   2.039   2.574
12214TIP3    H136599   0.066   2.000   2.489
12214TIP3    H236600   0.073   1.971   2.637
12215TIP3   OH236601   4.499   2.377   3.622
12215TIP3    H136602   4.478   2.289   3.654
12215TIP3    H236603   4.471   2.377   3.531
12216TIP3   OH236604   3.503   6.801   0.614
12216TIP3    H136605   3.443   6.844   0.674
12216TIP3    H236606   3.547   6.874   0.569
12217TIP3   OH236607   1.073   0.279   5.322
12217TIP3    H136608   1.103   0.275   5.232
12217TIP3    H236609   0.979   0.292   5.316
12218TIP3   OH236610   1.136   0.100   2.880
12218TIP3    H136611   1.137   0.033   2.948
12218TIP3    H236612   1.043   0.113   2.862
12219TIP3   OH236613   7.860   5.408   1.349
12219TIP3    H136614   7.912   5.376   1.423
12219TIP3    H236615   7.800   5.336   1.330
12220TIP3   OH236616   3.118   4.138   3.752
12220TIP3    H136617   3.164   4.077   3.693
12220TIP3    H236618   3.065   4.192   3.694
12221TIP3   OH236619   4.042   5.226   1.510
12221TIP3    H136620   4.079   5.238   1.423
12221TIP3    H236621   3.972   5.163   1.498
12222TIP3   OH236622   7.983   7.285   6.407
12222TIP3    H136623   8.062   7.338   6.421
12222TIP3    H236624   7.911   7.345   6.421
12223TIP3   OH236625   6.735   0.067   1.105
12223TIP3    H136626   6.749   0.026   1.191
12223TIP3    H236627   6.672   0.137   1.122
12224TIP3   OH236628   0.985   2.176   3.855
12224TIP3    H136629   1.061   2.187   3.798
12224TIP3    H236630   1.005   2.099   3.908
12225TIP3   OH236631   2.631   7.249   2.270
12225TIP3    H136632   2.622   7.247   2.365
12225TIP3    H236633   2.572   7.180   2.239
12226TIP3   OH236634   7.969   0.133   6.716
12226TIP3    H136635   7.909   0.065   6.747
12226TIP3    H236636   8.049   0.119   6.767
12227TIP3   OH236637   3.814   5.494   5.701
12227TIP3    H136638   3.768   5.416   5.732
12227TIP3    H236639   3.783   5.506   5.611
12228TIP3   OH236640   1.623   3.377   1.008
12228TIP3    H136641   1.542   3.398   1.053
12228TIP3    H236642   1.669   3.318   1.068
12229TIP3   OH236643   3.971   1.731   4.384
12229TIP3    H136644   3.948   1.716   4.292
12229TIP3    H236645   4.051   1.680   4.398
12230TIP3   OH236646   4.240   1.807   0.163
12230TIP3    H136647   4.238   1.887   0.216
12230TIP3    H236648   4.233   1.838   0.073
12231TIP3   OH236649   0.056   5.629   4.508
12231TIP3    H136650   0.080   5.719   4.486
12231TIP3    H236651   0.037   5.588   4.424
12232TIP3   OH236652   1.627   7.802   1.478
12232TIP3    H136653   1.715   7.812   1.442
12232TIP3    H236654   1.603   7.712   1.457
12233TIP3   OH236655   7.550   5.313   1.892
12233TIP3    H136656   7.562   5.380   1.958
12233TIP3    H236657   7.493   5.353   1.826
12234TIP3   OH236658   0.809   4.874   4.279
12234TIP3    H136659   0.832   4.784   4.303
12234TIP3    H236660   0.845   4.927   4.350
12235TIP3   OH236661   5.097   5.385   3.182
12235TIP3    H136662   5.019   5.415   3.228
12235TIP3    H236663   5.110   5.447   3.111
12236TIP3   OH236664   6.351   1.283   1.889
12236TIP3    H136665   6.360   1.188   1.885
12236TIP3    H236666   6.306   1.300   1.971
12237TIP3   OH236667   7.978   7.162   2.188
12237TIP3    H136668   8.055   7.212   2.215
12237TIP3    H236669   7.957   7.195   2.101
12238TIP3   OH236670   0.867   1.095   1.470
12238TIP3    H136671   0.787   1.052   1.440
12238TIP3    H236672   0.921   1.104   1.391
12239TIP3   OH236673   3.990   2.649   1.106
12239TIP3    H136674   3.983   2.561   1.143
12239TIP3    H236675   4.084   2.667   1.104
12240TIP3   OH236676   0.733   1.514   4.503
12240TIP3    H136677   0.645   1.552   4.500
12240TIP3    H236678   0.720   1.422   4.478
12241TIP3   OH236679   7.942   4.465   2.445
12241TIP3    H136680   7.934   4.549   2.490
12241TIP3    H236681   8.015   4.421   2.489
12242TIP3   OH236682   3.507   7.022   0.217
12242TIP3    H136683   3.471   7.061   0.297
12242TIP3    H236684   3.579   6.967   0.247
12243TIP3   OH236685   1.863   2.722   5.927
12243TIP3    H136686   1.894   2.637   5.957
12243TIP3    H236687   1.786   2.741   5.981
12244TIP3   OH236688   1.725   1.933   3.995
12244TIP3    H136689   1.717   1.839   3.979
12244TIP3    H236690   1.655   1.954   4.057
12245TIP3   OH236691   4.597   1.079   4.204
12245TIP3    H136692   4.563   1.167   4.192
12245TIP3    H236693   4.663   1.069   4.136
12246TIP3   OH236694   1.586   2.203   2.830
12246TIP3    H136695   1.491   2.213   2.833
12246TIP3    H236696   1.604   2.157   2.748
12247TIP3   OH236697   3.557   7.352   4.232
12247TIP3    H136698   3.500   7.415   4.188
12247TIP3    H236699   3.500   7.278   4.254
12248TIP3   OH236700   0.057   7.555   3.116
12248TIP3    H136701   0.039   7.625   3.179
12248TIP3    H236702  -0.016   7.494   3.126
12249TIP3   OH236703   3.942   4.931   2.888
12249TIP3    H136704   4.030   4.967   2.871
12249TIP3    H236705   3.958   4.841   2.917
12250TIP3   OH236706   1.307   6.843   0.545
12250TIP3    H136707   1.385   6.811   0.500
12250TIP3    H236708   1.335   6.926   0.584
12251TIP3   OH236709   0.713   7.144   5.374
12251TIP3    H136710   0.762   7.128   5.454
12251TIP3    H236711   0.779   7.146   5.305
12252TIP3   OH236712   2.412   3.032   0.658
12252TIP3    H136713   2.414   3.126   0.677
12252TIP3    H236714   2.322   3.005   0.677
12253TIP3   OH236715   0.267   1.106   3.852
12253TIP3    H136716   0.193   1.145   3.898
12253TIP3    H236717   0.275   1.018   3.890
12254TIP3   OH236718   1.942   1.293   5.440
12254TIP3    H136719   1.971   1.224   5.381
12254TIP3    H236720   1.850   1.308   5.418
12255TIP3   OH236721   2.272   7.453   5.535
12255TIP3    H136722   2.363   7.479   5.550
12255TIP3    H236723   2.232   7.529   5.492
12256TIP3   OH236724   4.631   6.817   2.355
12256TIP3    H136725   4.686   6.739   2.351
12256TIP3    H236726   4.563   6.801   2.290
12257TIP3   OH236727   2.806   7.725   3.377
12257TIP3    H136728   2.724   7.758   3.342
12257TIP3    H236729   2.869   7.736   3.306
12258TIP3   OH236730   1.549   2.091   2.126
12258TIP3    H136731   1.592   2.166   2.166
12258TIP3    H236732   1.613   2.057   2.063
12259TIP3   OH236733   8.071   6.786   3.022
12259TIP3    H136734   8.031   6.706   2.989
12259TIP3    H236735   8.104   6.831   2.944
12260TIP3   OH236736   4.728   6.572   0.042
12260TIP3    H136737   4.757   6.550  -0.047
12260TIP3    H236738   4.710   6.666   0.038
12261TIP3   OH236739   3.871   1.960   0.833
12261TIP3    H136740   3.892   2.033   0.891
12261TIP3    H236741   3.804   1.910   0.881
12262TIP3   OH236742   7.159   2.016   4.489
12262TIP3    H136743   7.233   1.982   4.439
12262TIP3    H236744   7.138   1.945   4.551
12263TIP3   OH236745   4.835   5.409   2.670
12263TIP3    H136746   4.757   5.462   2.685
12263TIP3    H236747   4.860   5.378   2.757
12264TIP3   OH236748   6.612   0.895   4.191
12264TIP3    H136749   6.700   0.913   4.158
12264TIP3    H236750   6.556   0.901   4.113
12265TIP3   OH236751   5.354   1.155   1.625
12265TIP3    H136752   5.388   1.242   1.603
12265TIP3    H236753   5.415   1.121   1.690
12266TIP3   OH236754   1.583   4.988   4.052
12266TIP3    H136755   1.578   5.081   4.071
12266TIP3    H236756   1.674   4.974   4.026
12267TIP3   OH236757   0.229   1.831   2.361
12267TIP3    H136758   0.324   1.837   2.352
12267TIP3    H236759   0.196   1.840   2.272
12268TIP3   OH236760   4.311   6.957   3.632
12268TIP3    H136761   4.255   6.880   3.633
12268TIP3    H236762   4.310   6.989   3.722
12269TIP3   OH236763   7.645   3.165   3.455
12269TIP3    H136764   7.625   3.226   3.527
12269TIP3    H236765   7.588   3.090   3.471
12270TIP3   OH236766   7.190   2.934   4.265
12270TIP3    H136767   7.245   2.898   4.335
12270TIP3    H236768   7.243   3.005   4.227
12271TIP3   OH236769   0.643   4.799   5.501
12271TIP3    H136770   0.645   4.893   5.521
12271TIP3    H236771   0.664   4.757   5.584
12272TIP3   OH236772   3.216   3.583   1.734
12272TIP3    H136773   3.156   3.521   1.775
12272TIP3    H236774   3.181   3.669   1.754
12273TIP3   OH236775   3.682   3.512   6.616
12273TIP3    H136776   3.599   3.472   6.643
12273TIP3    H236777   3.744   3.486   6.684
12274TIP3   OH236778   2.806   0.094   6.532
12274TIP3    H136779   2.739   0.032   6.559
12274TIP3    H236780   2.881   0.077   6.590
12275TIP3   OH236781   3.789   0.126   1.722
12275TIP3    H136782   3.781   0.049   1.777
12275TIP3    H236783   3.859   0.105   1.660
12276TIP3   OH236784   4.922   4.308   1.453
12276TIP3    H136785   4.992   4.258   1.410
12276TIP3    H236786   4.875   4.243   1.504
12277TIP3   OH236787   6.329   3.889   4.724
12277TIP3    H136788   6.336   3.805   4.769
12277TIP3    H236789   6.326   3.866   4.631
12278TIP3   OH236790   6.415   7.275   0.408
12278TIP3    H136791   6.424   7.297   0.501
12278TIP3    H236792   6.491   7.221   0.389
12279TIP3   OH236793   0.689   1.071   5.285
12279TIP3    H136794   0.630   1.141   5.314
12279TIP3    H236795   0.747   1.114   5.222
12280TIP3   OH236796   0.673   1.259   4.420
12280TIP3    H136797   0.642   1.232   4.506
12280TIP3    H236798   0.596   1.253   4.363
12281TIP3   OH236799   3.753   3.725   0.450
12281TIP3    H136800   3.771   3.727   0.356
12281TIP3    H236801   3.836   3.696   0.489
12282TIP3   OH236802   2.747   0.575   4.611
12282TIP3    H136803   2.714   0.491   4.580
12282TIP3    H236804   2.679   0.606   4.671
12283TIP3   OH236805   7.728   4.347   6.311
12283TIP3    H136806   7.668   4.385   6.375
12283TIP3    H236807   7.729   4.410   6.239
12284TIP3   OH236808   3.327   2.198   3.523
12284TIP3    H136809   3.365   2.200   3.435
12284TIP3    H236810   3.240   2.236   3.513
12285TIP3   OH236811   5.634   0.168   2.425
12285TIP3    H136812   5.625   0.077   2.398
12285TIP3    H236813   5.690   0.165   2.503
12286TIP3   OH236814   3.317   4.745   1.002
12286TIP3    H136815   3.256   4.809   0.965
12286TIP3    H236816   3.403   4.787   0.993
12287TIP3   OH236817   0.324   0.829   0.134
12287TIP3    H136818   0.251   0.815   0.072
12287TIP3    H236819   0.289   0.891   0.198
12288TIP3   OH236820   5.271   4.846   5.912
12288TIP3    H136821   5.246   4.910   5.979
12288TIP3    H236822   5.222   4.767   5.934
12289TIP3   OH236823   0.527   2.152   1.312
12289TIP3    H136824   0.545   2.073   1.362
12289TIP3    H236825   0.609   2.172   1.268
12290TIP3   OH236826   6.323   2.686   0.873
12290TIP3    H136827   6.271   2.740   0.932
12290TIP3    H236828   6.274   2.687   0.790
12291TIP3   OH236829   6.505   5.370   6.141
12291TIP3    H136830   6.429   5.422   6.169
12291TIP3    H236831   6.491   5.354   6.048
12292TIP3   OH236832   2.026   5.038   0.024
12292TIP3    H136833   1.940   5.011   0.057
12292TIP3    H236834   2.010   5.125  -0.013
12293TIP3   OH236835   7.838   4.954   1.863
12293TIP3    H136836   7.887   4.949   1.781
12293TIP3    H236837   7.748   4.972   1.836
12294TIP3   OH236838   0.870   7.121   6.402
12294TIP3    H136839   0.777   7.105   6.421
12294TIP3    H236840   0.916   7.091   6.480
12295TIP3   OH236841   7.865   4.987   6.332
12295TIP3    H136842   7.802   4.975   6.403
12295TIP3    H236843   7.950   4.986   6.375
12296TIP3   OH236844   3.235   4.734   2.414
12296TIP3    H136845   3.217   4.765   2.503
12296TIP3    H236846   3.191   4.650   2.408
12297TIP3   OH236847   3.193   1.490   2.852
12297TIP3    H136848   3.130   1.560   2.834
12297TIP3    H236849   3.204   1.444   2.769
12298TIP3   OH236850   4.595   0.314   3.889
12298TIP3    H136851   4.670   0.340   3.944
12298TIP3    H236852   4.554   0.397   3.864
12299TIP3   OH236853   3.392   0.982   4.592
12299TIP3    H136854   3.382   0.903   4.645
12299TIP3    H236855   3.357   0.959   4.506
12300TIP3   OH236856   4.344   0.785   2.597
12300TIP3    H136857   4.264   0.834   2.576
12300TIP3    H236858   4.327   0.696   2.565
12301TIP3   OH236859   7.673   5.889   1.195
12301TIP3    H136860   7.677   5.885   1.290
12301TIP3    H236861   7.603   5.952   1.177
12302TIP3   OH236862   4.374   6.672   2.550
12302TIP3    H136863   4.356   6.616   2.625
12302TIP3    H236864   4.464   6.652   2.525
12303TIP3   OH236865   7.029   5.890   0.956
12303TIP3    H136866   7.030   5.921   0.865
12303TIP3    H236867   7.050   5.797   0.949
12304TIP3   OH236868   7.533   2.448   0.383
12304TIP3    H136869   7.510   2.492   0.301
12304TIP3    H236870   7.525   2.355   0.363
12305TIP3   OH236871   7.331   7.365   4.051
12305TIP3    H136872   7.285   7.411   4.121
12305TIP3    H236873   7.424   7.381   4.068
12306TIP3   OH236874   2.292   0.853   4.537
12306TIP3    H136875   2.341   0.796   4.597
12306TIP3    H236876   2.218   0.885   4.589
12307TIP3   OH236877   1.241   4.090   1.643
12307TIP3    H136878   1.211   4.118   1.729
12307TIP3    H236879   1.162   4.087   1.590
12308TIP3   OH236880   4.876   1.805   4.108
12308TIP3    H136881   4.832   1.729   4.071
12308TIP3    H236882   4.827   1.881   4.075
12309TIP3   OH236883   3.777   7.156   1.868
12309TIP3    H136884   3.764   7.122   1.780
12309TIP3    H236885   3.708   7.222   1.879
12310TIP3   OH236886   2.705   5.250   4.824
12310TIP3    H136887   2.660   5.249   4.909
12310TIP3    H236888   2.732   5.341   4.813
12311TIP3   OH236889   6.463   0.278   6.729
12311TIP3    H136890   6.419   0.210   6.780
12311TIP3    H236891   6.551   0.283   6.767
12312TIP3   OH236892   7.692   4.949   6.549
12312TIP3    H136893   7.708   4.987   6.635
12312TIP3    H236894   7.641   4.870   6.566
12313TIP3   OH236895   2.815   7.000   1.375
12313TIP3    H136896   2.878   6.931   1.352
12313TIP3    H236897   2.820   7.007   1.470
12314TIP3   OH236898   3.844   3.585   1.055
12314TIP3    H136899   3.812   3.630   0.977
12314TIP3    H236900   3.768   3.580   1.113
12315TIP3   OH236901   1.432   0.529   4.931
12315TIP3    H136902   1.410   0.503   5.021
12315TIP3    H236903   1.420   0.624   4.930
12316TIP3   OH236904   4.485   1.063   3.916
12316TIP3    H136905   4.573   1.025   3.924
12316TIP3    H236906   4.439   1.036   3.995
12317TIP3   OH236907   1.743   1.758   2.733
12317TIP3    H136908   1.681   1.827   2.711
12317TIP3    H236909   1.692   1.677   2.729
12318TIP3   OH236910   6.020   7.387   4.902
12318TIP3    H136911   6.034   7.343   4.818
12318TIP3    H236912   6.108   7.407   4.934
12319TIP3   OH236913   0.587   4.967   3.484
12319TIP3    H136914   0.558   4.912   3.411
12319TIP3    H236915   0.526   5.040   3.485
12320TIP3   OH236916   7.615   6.611   3.268
12320TIP3    H136917   7.673   6.681   3.238
12320TIP3    H236918   7.532   6.655   3.285
12321TIP3   OH236919   7.460   6.301   3.824
12321TIP3    H136920   7.548   6.338   3.812
12321TIP3    H236921   7.422   6.301   3.736
12322TIP3   OH236922   3.196   7.109   5.672
12322TIP3    H136923   3.217   7.189   5.720
12322TIP3    H236924   3.114   7.130   5.627
12323TIP3   OH236925   5.935   7.164   3.966
12323TIP3    H136926   5.921   7.235   4.030
12323TIP3    H236927   5.880   7.187   3.892
12324TIP3   OH236928   7.755   6.389   4.048
12324TIP3    H136929   7.810   6.463   4.074
12324TIP3    H236930   7.715   6.415   3.965
12325TIP3   OH236931   2.844   6.597   4.774
12325TIP3    H136932   2.925   6.547   4.762
12325TIP3    H236933   2.793   6.579   4.695
12326TIP3   OH236934   3.792   0.895   6.437
12326TIP3    H136935   3.832   0.954   6.373
12326TIP3    H236936   3.859   0.885   6.505
12327TIP3   OH236937   5.127   5.208   0.091
12327TIP3    H136938   5.120   5.151   0.167
12327TIP3    H236939   5.100   5.153   0.017
12328TIP3   OH236940   4.132   6.335   4.409
12328TIP3    H136941   4.047   6.291   4.409
12328TIP3    H236942   4.195   6.267   4.430
12329TIP3   OH236943   1.373   1.815   6.629
12329TIP3    H136944   1.329   1.769   6.700
12329TIP3    H236945   1.466   1.814   6.654
12330TIP3   OH236946   6.263   1.142   5.077
12330TIP3    H136947   6.282   1.079   5.147
12330TIP3    H236948   6.221   1.089   5.009
12331TIP3   OH236949   6.261   5.530   6.588
12331TIP3    H136950   6.357   5.530   6.589
12331TIP3    H236951   6.236   5.445   6.624
12332TIP3   OH236952   1.957   7.140   2.256
12332TIP3    H136953   1.921   7.125   2.168
12332TIP3    H236954   2.011   7.062   2.272
12333TIP3   OH236955   2.148   6.355   4.824
12333TIP3    H136956   2.079   6.381   4.885
12333TIP3    H236957   2.149   6.260   4.828
12334TIP3   OH236958   0.022   0.552   6.711
12334TIP3    H136959  -0.032   0.629   6.730
12334TIP3    H236960  -0.039   0.479   6.715
12335TIP3   OH236961   3.958   2.826   2.857
12335TIP3    H136962   4.017   2.788   2.792
12335TIP3    H236963   3.916   2.750   2.897
12336TIP3   OH236964   0.119   6.189   2.035
12336TIP3    H136965   0.142   6.133   2.109
12336TIP3    H236966   0.071   6.132   1.976
12337TIP3   OH236967   4.573   3.488   6.415
12337TIP3    H136968   4.669   3.481   6.412
12337TIP3    H236969   4.555   3.575   6.379
12338TIP3   OH236970   0.419   0.429   3.072
12338TIP3    H136971   0.394   0.342   3.041
12338TIP3    H236972   0.341   0.461   3.118
12339TIP3   OH236973   6.405   4.366   2.226
12339TIP3    H136974   6.480   4.372   2.167
12339TIP3    H236975   6.364   4.282   2.206
12340TIP3   OH236976   0.947   6.499   0.823
12340TIP3    H136977   0.918   6.408   0.835
12340TIP3    H236978   1.009   6.514   0.895
12341TIP3   OH236979   5.689   1.463   5.383
12341TIP3    H136980   5.719   1.554   5.383
12341TIP3    H236981   5.594   1.470   5.383
12342TIP3   OH236982   7.133   6.160   1.220
12342TIP3    H136983   7.053   6.115   1.196
12342TIP3    H236984   7.104   6.229   1.280
12343TIP3   OH236985   4.924   1.857   2.722
12343TIP3    H136986   4.981   1.811   2.660
12343TIP3    H236987   4.860   1.903   2.667
12344TIP3   OH236988   0.246   4.100   1.616
12344TIP3    H136989   0.297   4.019   1.613
12344TIP3    H236990   0.310   4.169   1.627
12345TIP3   OH236991   5.282   6.460   0.037
12345TIP3    H136992   5.330   6.434   0.116
12345TIP3    H236993   5.226   6.384   0.017
12346TIP3   OH236994   8.210   4.993   5.311
12346TIP3    H136995   8.138   5.019   5.368
12346TIP3    H236996   8.189   5.032   5.226
12347TIP3   OH236997   8.003   2.280   1.548
12347TIP3    H136998   7.959   2.343   1.491
12347TIP3    H236999   8.091   2.272   1.512
12348TIP3   OH237000   0.342   3.470   4.842
12348TIP3    H137001   0.413   3.527   4.814
12348TIP3    H237002   0.272   3.486   4.778
12349TIP3   OH237003   1.662   0.423   0.972
12349TIP3    H137004   1.600   0.373   1.025
12349TIP3    H237005   1.610   0.458   0.900
12350TIP3   OH237006   4.660   6.310   5.078
12350TIP3    H137007   4.714   6.249   5.129
12350TIP3    H237008   4.707   6.318   4.995
12351TIP3   OH237009   0.306   5.655   1.539
12351TIP3    H137010   0.346   5.635   1.624
12351TIP3    H237011   0.339   5.742   1.517
12352TIP3   OH237012   1.632   7.153   2.279
12352TIP3    H137013   1.708   7.210   2.263
12352TIP3    H237014   1.667   7.064   2.274
12353TIP3   OH237015   1.507   1.081   3.363
12353TIP3    H137016   1.462   1.077   3.278
12353TIP3    H237017   1.439   1.067   3.428
12354TIP3   OH237018   0.191   6.523   6.363
12354TIP3    H137019   0.156   6.556   6.279
12354TIP3    H237020   0.233   6.600   6.402
12355TIP3   OH237021   0.150   1.215   3.602
12355TIP3    H137022   0.082   1.281   3.615
12355TIP3    H237023   0.197   1.212   3.686
12356TIP3   OH237024   1.366   5.828   2.990
12356TIP3    H137025   1.375   5.733   3.005
12356TIP3    H237026   1.328   5.861   3.072
12357TIP3   OH237027   1.689   1.014   2.163
12357TIP3    H137028   1.675   1.008   2.258
12357TIP3    H237029   1.652   0.933   2.128
12358TIP3   OH237030   5.072   2.286   2.218
12358TIP3    H137031   4.982   2.270   2.192
12358TIP3    H237032   5.069   2.372   2.262
12359TIP3   OH237033   1.089   5.662   3.763
12359TIP3    H137034   1.123   5.698   3.845
12359TIP3    H237035   1.161   5.673   3.700
12360TIP3   OH237036   0.843   4.664   5.387
12360TIP3    H137037   0.756   4.703   5.376
12360TIP3    H237038   0.887   4.723   5.449
12361TIP3   OH237039   0.311   0.951   1.168
12361TIP3    H137040   0.226   0.972   1.208
12361TIP3    H237041   0.334   0.866   1.206
12362TIP3   OH237042   8.160   6.833   2.755
12362TIP3    H137043   8.246   6.793   2.768
12362TIP3    H237044   8.179   6.926   2.744
12363TIP3   OH237045   5.130   4.652   3.164
12363TIP3    H137046   5.214   4.643   3.121
12363TIP3    H237047   5.081   4.574   3.138
12364TIP3   OH237048   6.726   6.033   5.913
12364TIP3    H137049   6.746   6.066   5.825
12364TIP3    H237050   6.812   6.012   5.950
12365TIP3   OH237051   0.684   1.182   1.109
12365TIP3    H137052   0.676   1.177   1.014
12365TIP3    H237053   0.594   1.187   1.142
12366TIP3   OH237054   4.450   1.862   5.294
12366TIP3    H137055   4.423   1.785   5.344
12366TIP3    H237056   4.537   1.841   5.262
12367TIP3   OH237057   3.086   3.730   0.333
12367TIP3    H137058   3.109   3.692   0.248
12367TIP3    H237059   2.995   3.758   0.323
12368TIP3   OH237060   6.337   6.776   0.260
12368TIP3    H137061   6.333   6.846   0.324
12368TIP3    H237062   6.430   6.769   0.238
12369TIP3   OH237063   5.216   4.477   0.619
12369TIP3    H137064   5.309   4.493   0.636
12369TIP3    H237065   5.171   4.552   0.657
12370TIP3   OH237066   6.215   7.620   3.863
12370TIP3    H137067   6.121   7.601   3.861
12370TIP3    H237068   6.254   7.553   3.807
12371TIP3   OH237069   2.644   0.265   1.958
12371TIP3    H137070   2.567   0.284   1.904
12371TIP3    H237071   2.610   0.264   2.048
12372TIP3   OH237072   3.330   5.890   1.759
12372TIP3    H137073   3.352   5.890   1.666
12372TIP3    H237074   3.318   5.797   1.781
12373TIP3   OH237075   2.967   3.341   0.174
12373TIP3    H137076   2.875   3.315   0.166
12373TIP3    H237077   2.999   3.346   0.084
12374TIP3   OH237078   0.575   2.585   4.405
12374TIP3    H137079   0.574   2.613   4.497
12374TIP3    H237080   0.505   2.520   4.399
12375TIP3   OH237081   5.183   1.375   3.890
12375TIP3    H137082   5.108   1.397   3.946
12375TIP3    H237083   5.248   1.441   3.909
12376TIP3   OH237084   7.564   5.490   3.041
12376TIP3    H137085   7.579   5.461   3.130
12376TIP3    H237086   7.645   5.469   2.994
12377TIP3   OH237087   8.189   6.102   4.956
12377TIP3    H137088   8.159   6.030   4.900
12377TIP3    H237089   8.167   6.074   5.044
12378TIP3   OH237090   8.222   1.218   6.458
12378TIP3    H137091   8.305   1.186   6.493
12378TIP3    H237092   8.243   1.249   6.370
12379TIP3   OH237093   7.174   7.708   0.839
12379TIP3    H137094   7.111   7.670   0.779
12379TIP3    H237095   7.172   7.652   0.916
12380TIP3   OH237096   3.415   6.971   2.828
12380TIP3    H137097   3.431   6.970   2.922
12380TIP3    H237098   3.490   7.019   2.792
12381TIP3   OH237099   2.747   4.017   1.653
12381TIP3    H137100   2.750   3.935   1.604
12381TIP3    H237101   2.723   3.991   1.742
12382TIP3   OH237102   6.288   3.076   2.107
12382TIP3    H137103   6.242   2.994   2.122
12382TIP3    H237104   6.221   3.144   2.115
12383TIP3   OH237105   0.268   7.200   0.448
12383TIP3    H137106   0.304   7.238   0.368
12383TIP3    H237107   0.196   7.145   0.418
12384TIP3   OH237108   7.089   2.951   4.947
12384TIP3    H137109   7.184   2.941   4.947
12384TIP3    H237110   7.070   2.998   4.866
12385TIP3   OH237111   5.546   3.421   3.950
12385TIP3    H137112   5.507   3.360   3.887
12385TIP3    H237113   5.505   3.399   4.033
12386TIP3   OH237114   0.588   6.532   1.730
12386TIP3    H137115   0.671   6.578   1.717
12386TIP3    H237116   0.557   6.511   1.642
12387TIP3   OH237117   0.777   1.796   5.523
12387TIP3    H137118   0.749   1.797   5.431
12387TIP3    H237119   0.708   1.843   5.570
12388TIP3   OH237120   2.250   2.514   3.380
12388TIP3    H137121   2.226   2.592   3.430
12388TIP3    H237122   2.326   2.480   3.425
12389TIP3   OH237123   7.837   6.780   3.161
12389TIP3    H137124   7.924   6.774   3.123
12389TIP3    H237125   7.842   6.854   3.222
12390TIP3   OH237126   0.917   6.811   3.253
12390TIP3    H137127   0.952   6.722   3.249
12390TIP3    H237128   0.983   6.861   3.300
12391TIP3   OH237129   5.917   6.653   5.694
12391TIP3    H137130   5.915   6.627   5.786
12391TIP3    H237131   5.986   6.599   5.655
12392TIP3   OH237132   7.129   2.762   4.684
12392TIP3    H137133   7.139   2.718   4.768
12392TIP3    H237134   7.035   2.775   4.675
12393TIP3   OH237135   1.338   0.537   1.336
12393TIP3    H137136   1.314   0.446   1.355
12393TIP3    H237137   1.413   0.554   1.392
12394TIP3   OH237138   2.012   4.238   2.397
12394TIP3    H137139   2.107   4.233   2.413
12394TIP3    H237140   1.972   4.214   2.481
12395TIP3   OH237141   1.943   3.470   0.609
12395TIP3    H137142   2.001   3.422   0.551
12395TIP3    H237143   1.992   3.548   0.634
12396TIP3   OH237144   7.087   0.681   1.512
12396TIP3    H137145   7.135   0.697   1.593
12396TIP3    H237146   7.113   0.753   1.454
12397TIP3   OH237147   0.474   4.243   1.676
12397TIP3    H137148   0.519   4.168   1.713
12397TIP3    H237149   0.532   4.275   1.607
12398TIP3   OH237150   3.583   1.538   3.667
12398TIP3    H137151   3.561   1.446   3.682
12398TIP3    H237152   3.590   1.575   3.755
12399TIP3   OH237153   1.956   0.266   2.770
12399TIP3    H137154   1.929   0.356   2.753
12399TIP3    H237155   1.939   0.220   2.687
12400TIP3   OH237156   6.895   7.218   5.419
12400TIP3    H137157   6.843   7.227   5.339
12400TIP3    H237158   6.843   7.160   5.475
12401TIP3   OH237159   7.700   1.958   6.651
12401TIP3    H137160   7.779   1.950   6.597
12401TIP3    H237161   7.633   1.908   6.603
12402TIP3   OH237162   3.906   4.714   0.469
12402TIP3    H137163   3.952   4.630   0.477
12402TIP3    H237164   3.856   4.722   0.550
12403TIP3   OH237165   7.586   4.752   5.578
12403TIP3    H137166   7.530   4.676   5.564
12403TIP3    H237167   7.527   4.827   5.575
12404TIP3   OH237168   3.611   2.250   3.351
12404TIP3    H137169   3.681   2.297   3.397
12404TIP3    H237170   3.612   2.162   3.389
12405TIP3   OH237171   5.472   3.952   1.286
12405TIP3    H137172   5.562   3.951   1.254
12405TIP3    H237173   5.479   3.985   1.376
12406TIP3   OH237174   0.502   1.732   0.949
12406TIP3    H137175   0.461   1.699   1.029
12406TIP3    H237176   0.526   1.822   0.970
12407TIP3   OH237177   0.677   4.370   4.291
12407TIP3    H137178   0.706   4.460   4.277
12407TIP3    H237179   0.690   4.355   4.384
12408TIP3   OH237180   7.156   1.197   2.506
12408TIP3    H137181   7.203   1.180   2.424
12408TIP3    H237182   7.222   1.183   2.574
12409TIP3   OH237183   2.214   3.688   2.035
12409TIP3    H137184   2.159   3.744   2.090
12409TIP3    H237185   2.303   3.704   2.066
12410TIP3   OH237186   0.762   1.801   0.653
12410TIP3    H137187   0.763   1.710   0.681
12410TIP3    H237188   0.792   1.798   0.562
12411TIP3   OH237189   3.019   2.372   0.621
12411TIP3    H137190   3.111   2.347   0.620
12411TIP3    H237191   3.007   2.423   0.541
12412TIP3   OH237192   7.561   6.147   2.382
12412TIP3    H137193   7.504   6.119   2.310
12412TIP3    H237194   7.588   6.065   2.424
12413TIP3   OH237195   6.398   5.351   1.382
12413TIP3    H137196   6.373   5.259   1.393
12413TIP3    H237197   6.346   5.383   1.309
12414TIP3   OH237198   5.402   3.608   0.255
12414TIP3    H137199   5.436   3.571   0.337
12414TIP3    H237200   5.318   3.648   0.279
12415TIP3   OH237201   8.118   3.578   4.205
12415TIP3    H137202   8.144   3.505   4.262
12415TIP3    H237203   8.162   3.560   4.122
12416TIP3   OH237204   1.778   5.320   0.223
12416TIP3    H137205   1.807   5.407   0.253
12416TIP3    H237206   1.710   5.295   0.285
12417TIP3   OH237207   4.141   7.838   5.752
12417TIP3    H137208   4.189   7.790   5.820
12417TIP3    H237209   4.099   7.909   5.799
12418TIP3   OH237210   7.721   7.074   0.413
12418TIP3    H137211   7.774   7.009   0.458
12418TIP3    H237212   7.784   7.139   0.381
12419TIP3   OH237213   1.122   5.774   4.887
12419TIP3    H137214   1.137   5.785   4.981
12419TIP3    H237215   1.128   5.862   4.851
12420TIP3   OH237216   6.392   1.196   3.777
12420TIP3    H137217   6.468   1.202   3.835
12420TIP3    H237218   6.419   1.242   3.697
12421TIP3   OH237219   0.777   3.773   5.553
12421TIP3    H137220   0.738   3.727   5.627
12421TIP3    H237221   0.852   3.819   5.590
12422TIP3   OH237222   0.177   2.442   2.727
12422TIP3    H137223   0.098   2.388   2.718
12422TIP3    H237224   0.225   2.402   2.801
12423TIP3   OH237225   3.621   5.224   1.508
12423TIP3    H137226   3.692   5.159   1.507
12423TIP3    H237227   3.662   5.304   1.476
12424TIP3   OH237228   1.168   2.472   1.492
12424TIP3    H137229   1.109   2.547   1.492
12424TIP3    H237230   1.112   2.397   1.471
12425TIP3   OH237231   2.902   5.172   5.343
12425TIP3    H137232   2.889   5.081   5.368
12425TIP3    H237233   2.829   5.219   5.383
12426TIP3   OH237234   0.837   2.920   1.703
12426TIP3    H137235   0.916   2.950   1.657
12426TIP3    H237236   0.869   2.893   1.789
12427TIP3   OH237237   4.838   6.768   2.609
12427TIP3    H137238   4.805   6.840   2.662
12427TIP3    H237239   4.761   6.715   2.590
12428TIP3   OH237240   3.994   0.948   3.161
12428TIP3    H137241   3.942   0.963   3.240
12428TIP3    H237242   4.017   0.856   3.164
12429TIP3   OH237243   4.712   0.189   0.950
12429TIP3    H137244   4.628   0.203   0.993
12429TIP3    H237245   4.709   0.098   0.919
12430TIP3   OH237246   7.390   3.359   6.009
12430TIP3    H137247   7.334   3.369   5.932
12430TIP3    H237248   7.475   3.394   5.981
12431TIP3   OH237249   2.217   2.552   0.105
12431TIP3    H137250   2.130   2.561   0.066
12431TIP3    H237251   2.207   2.583   0.195
12432TIP3   OH237252   0.128   7.107   6.582
12432TIP3    H137253   0.199   7.044   6.590
12432TIP3    H237254   0.078   7.097   6.663
12433TIP3   OH237255   0.747   6.082   6.005
12433TIP3    H137256   0.793   6.082   6.089
12433TIP3    H237257   0.666   6.130   6.023
12434TIP3   OH237258   0.417   7.770   5.790
12434TIP3    H137259   0.421   7.833   5.862
12434TIP3    H237260   0.457   7.816   5.716
12435TIP3   OH237261   3.793   1.418   1.093
12435TIP3    H137262   3.730   1.371   1.148
12435TIP3    H237263   3.758   1.408   1.004
12436TIP3   OH237264   0.267   0.091   6.238
12436TIP3    H137265   0.178   0.057   6.248
12436TIP3    H237266   0.310   0.073   6.321
12437TIP3   OH237267   0.784   1.171   3.793
12437TIP3    H137268   0.864   1.223   3.784
12437TIP3    H237269   0.814   1.090   3.834
12438TIP3   OH237270   1.467   3.646   5.431
12438TIP3    H137271   1.431   3.625   5.345
12438TIP3    H237272   1.524   3.721   5.416
12439TIP3   OH237273   5.406   4.142   0.494
12439TIP3    H137274   5.489   4.119   0.453
12439TIP3    H237275   5.340   4.101   0.438
12440TIP3   OH237276   7.145   5.346   2.713
12440TIP3    H137277   7.134   5.382   2.801
12440TIP3    H237278   7.129   5.420   2.654
12441TIP3   OH237279   6.448   5.446   3.086
12441TIP3    H137280   6.460   5.417   3.177
12441TIP3    H237281   6.503   5.388   3.034
12442TIP3   OH237282   1.771   0.203   2.227
12442TIP3    H137283   1.811   0.133   2.278
12442TIP3    H237284   1.677   0.187   2.234
12443TIP3   OH237285   3.277   1.642   3.380
12443TIP3    H137286   3.235   1.658   3.295
12443TIP3    H237287   3.244   1.713   3.436
12444TIP3   OH237288   1.214   1.569   2.700
12444TIP3    H137289   1.227   1.643   2.758
12444TIP3    H237290   1.267   1.499   2.738
12445TIP3   OH237291   5.918   0.500   2.997
12445TIP3    H137292   5.974   0.439   2.950
12445TIP3    H237293   5.834   0.497   2.950
12446TIP3   OH237294   5.293   4.496   5.086
12446TIP3    H137295   5.300   4.427   5.152
12446TIP3    H237296   5.209   4.538   5.104
12447TIP3   OH237297   0.492   4.449   2.575
12447TIP3    H137298   0.504   4.495   2.492
12447TIP3    H237299   0.501   4.357   2.553
12448TIP3   OH237300   5.401   0.497   0.750
12448TIP3    H137301   5.461   0.452   0.809
12448TIP3    H237302   5.423   0.464   0.663
12449TIP3   OH237303   8.116   0.951   0.222
12449TIP3    H137304   8.079   1.005   0.152
12449TIP3    H237305   8.155   0.876   0.175
12450TIP3   OH237306   3.318   2.547   4.432
12450TIP3    H137307   3.325   2.626   4.379
12450TIP3    H237308   3.309   2.579   4.522
12451TIP3   OH237309   1.468   2.132   6.120
12451TIP3    H137310   1.397   2.112   6.181
12451TIP3    H237311   1.543   2.081   6.152
12452TIP3   OH237312   1.970   6.865   4.373
12452TIP3    H137313   1.912   6.819   4.433
12452TIP3    H237314   1.927   6.859   4.288
12453TIP3   OH237315   1.848   4.137   4.791
12453TIP3    H137316   1.859   4.051   4.751
12453TIP3    H237317   1.902   4.195   4.738
12454TIP3   OH237318   2.956   2.111   3.750
12454TIP3    H137319   3.001   2.165   3.685
12454TIP3    H237320   2.914   2.174   3.808
12455TIP3   OH237321   2.656   1.179   4.812
12455TIP3    H137322   2.736   1.187   4.864
12455TIP3    H237323   2.665   1.095   4.767
12456TIP3   OH237324   6.110   4.694   0.165
12456TIP3    H137325   6.112   4.601   0.188
12456TIP3    H237326   6.045   4.732   0.224
12457TIP3   OH237327   4.757   5.949   1.322
12457TIP3    H137328   4.767   6.043   1.307
12457TIP3    H237329   4.784   5.909   1.239
12458TIP3   OH237330   6.293   3.471   2.931
12458TIP3    H137331   6.198   3.458   2.936
12458TIP3    H237332   6.321   3.478   3.022
12459TIP3   OH237333   6.061   1.224   6.242
12459TIP3    H137334   6.097   1.154   6.187
12459TIP3    H237335   6.120   1.227   6.318
12460TIP3   OH237336   3.075   4.787   2.174
12460TIP3    H137337   2.989   4.746   2.187
12460TIP3    H237338   3.113   4.790   2.262
12461TIP3   OH237339   1.922   5.724   4.756
12461TIP3    H137340   1.914   5.675   4.839
12461TIP3    H237341   2.007   5.766   4.762
12462TIP3   OH237342   3.267   7.181   2.981
12462TIP3    H137343   3.271   7.186   2.886
12462TIP3    H237344   3.213   7.104   2.999
12463TIP3   OH237345   7.886   5.579   1.116
12463TIP3    H137346   7.967   5.630   1.119
12463TIP3    H237347   7.884   5.532   1.199
12464TIP3   OH237348   1.658   5.994   2.697
12464TIP3    H137349   1.610   6.023   2.619
12464TIP3    H237350   1.700   5.912   2.671
12465TIP3   OH237351   8.026   0.332   2.267
12465TIP3    H137352   7.994   0.294   2.348
12465TIP3    H237353   7.959   0.310   2.202
12466TIP3   OH237354   6.410   6.984   0.416
12466TIP3    H137355   6.352   7.059   0.422
12466TIP3    H237356   6.498   7.019   0.433
12467TIP3   OH237357   1.218   0.422   0.716
12467TIP3    H137358   1.133   0.385   0.693
12467TIP3    H237359   1.227   0.404   0.810
12468TIP3   OH237360   1.472   0.870   2.967
12468TIP3    H137361   1.425   0.838   3.044
12468TIP3    H237362   1.520   0.794   2.934
12469TIP3   OH237363   0.386   5.960   6.084
12469TIP3    H137364   0.474   5.947   6.120
12469TIP3    H237365   0.395   6.036   6.026
12470TIP3   OH237366   3.115   7.799   4.290
12470TIP3    H137367   3.120   7.764   4.201
12470TIP3    H237368   3.124   7.722   4.346
12471TIP3   OH237369   5.209   7.803   6.239
12471TIP3    H137370   5.242   7.714   6.229
12471TIP3    H237371   5.127   7.804   6.189
12472TIP3   OH237372   5.289   0.518   1.261
12472TIP3    H137373   5.282   0.467   1.180
12472TIP3    H237374   5.202   0.557   1.273
12473TIP3   OH237375   2.413   0.742   0.943
12473TIP3    H137376   2.381   0.669   0.997
12473TIP3    H237377   2.371   0.820   0.980
12474TIP3   OH237378   4.659   0.240   5.039
12474TIP3    H137379   4.743   0.246   4.993
12474TIP3    H237380   4.661   0.154   5.081
12475TIP3   OH237381   5.170   4.959   6.178
12475TIP3    H137382   5.100   5.022   6.165
12475TIP3    H237383   5.185   4.959   6.272
12476TIP3   OH237384   1.731   2.887   4.456
12476TIP3    H137385   1.731   2.816   4.391
12476TIP3    H237386   1.823   2.906   4.471
12477TIP3   OH237387   2.008   2.582   0.317
12477TIP3    H137388   1.988   2.667   0.278
12477TIP3    H237389   2.096   2.592   0.353
12478TIP3   OH237390   0.303   0.553   6.726
12478TIP3    H137391   0.209   0.562   6.712
12478TIP3    H237392   0.337   0.521   6.642
12479TIP3   OH237393   7.811   4.390   4.487
12479TIP3    H137394   7.727   4.407   4.444
12479TIP3    H237395   7.864   4.466   4.466
12480TIP3   OH237396   1.741   7.173   4.900
12480TIP3    H137397   1.809   7.241   4.903
12480TIP3    H237398   1.695   7.189   4.818
12481TIP3   OH237399   5.066   5.559   4.699
12481TIP3    H137400   5.089   5.482   4.647
12481TIP3    H237401   4.974   5.576   4.678
12482TIP3   OH237402   6.997   5.306   0.212
12482TIP3    H137403   7.038   5.389   0.236
12482TIP3    H237404   7.050   5.240   0.256
12483TIP3   OH237405   5.592   5.129   5.594
12483TIP3    H137406   5.615   5.043   5.630
12483TIP3    H237407   5.642   5.192   5.645
12484TIP3   OH237408   4.738   3.219   1.825
12484TIP3    H137409   4.744   3.307   1.787
12484TIP3    H237410   4.759   3.232   1.918
12485TIP3   OH237411   4.693   7.713   5.994
12485TIP3    H137412   4.684   7.638   6.052
12485TIP3    H237413   4.620   7.705   5.932
12486TIP3   OH237414   7.622   3.347   2.055
12486TIP3    H137415   7.565   3.412   2.014
12486TIP3    H237416   7.571   3.266   2.053
12487TIP3   OH237417   7.123   7.381   3.876
12487TIP3    H137418   7.207   7.362   3.918
12487TIP3    H237419   7.145   7.392   3.783
12488TIP3   OH237420   6.548   6.868   6.460
12488TIP3    H137421   6.556   6.932   6.531
12488TIP3    H237422   6.487   6.802   6.493
12489TIP3   OH237423   5.894   3.388   2.606
12489TIP3    H137424   5.952   3.463   2.589
12489TIP3    H237425   5.949   3.326   2.654
12490TIP3   OH237426   3.449   4.517   5.148
12490TIP3    H137427   3.522   4.487   5.202
12490TIP3    H237428   3.374   4.517   5.207
12491TIP3   OH237429   3.293   7.049   1.152
12491TIP3    H137430   3.211   7.098   1.144
12491TIP3    H237431   3.280   6.994   1.230
12492TIP3   OH237432   0.594   5.271   1.354
12492TIP3    H137433   0.686   5.257   1.376
12492TIP3    H237434   0.550   5.191   1.382
12493TIP3   OH237435   7.556   6.502   1.959
12493TIP3    H137436   7.637   6.460   1.930
12493TIP3    H237437   7.576   6.535   2.046
12494TIP3   OH237438   6.822   5.068   4.727
12494TIP3    H137439   6.788   5.147   4.769
12494TIP3    H237440   6.759   4.999   4.748
12495TIP3   OH237441   4.950   5.804   6.787
12495TIP3    H137442   5.026   5.854   6.817
12495TIP3    H237443   4.875   5.861   6.805
12496TIP3   OH237444   1.777   4.059   3.706
12496TIP3    H137445   1.772   4.050   3.611
12496TIP3    H237446   1.686   4.069   3.734
12497TIP3   OH237447   2.583   5.226   6.513
12497TIP3    H137448   2.522   5.290   6.475
12497TIP3    H237449   2.657   5.278   6.543
12498TIP3   OH237450   0.041   2.028   4.667
12498TIP3    H137451  -0.041   1.984   4.688
12498TIP3    H237452   0.046   2.026   4.572
12499TIP3   OH237453   1.496   6.310   0.750
12499TIP3    H137454   1.522   6.218   0.758
12499TIP3    H237455   1.403   6.306   0.725
12500TIP3   OH237456   0.936   7.653   0.252
12500TIP3    H137457   0.944   7.582   0.316
12500TIP3    H237458   1.018   7.701   0.258
12501TIP3   OH237459   1.497   4.530   2.680
12501TIP3    H137460   1.409   4.565   2.697
12501TIP3    H237461   1.527   4.577   2.602
12502TIP3   OH237462   4.676   4.379   4.996
12502TIP3    H137463   4.717   4.464   4.980
12502TIP3    H237464   4.688   4.364   5.090
12503TIP3   OH237465   4.853   4.762   3.295
12503TIP3    H137466   4.797   4.690   3.323
12503TIP3    H237467   4.898   4.729   3.217
12504TIP3   OH237468   0.195   6.397   1.870
12504TIP3    H137469   0.179   6.335   1.941
12504TIP3    H237470   0.121   6.458   1.874
12505TIP3   OH237471   6.563   5.009   5.949
12505TIP3    H137472   6.606   5.089   5.918
12505TIP3    H237473   6.481   5.040   5.986
12506TIP3   OH237474   6.326   7.085   2.619
12506TIP3    H137475   6.273   7.150   2.574
12506TIP3    H237476   6.268   7.049   2.686
12507TIP3   OH237477   3.047   3.049   1.067
12507TIP3    H137478   3.013   2.990   1.134
12507TIP3    H237479   3.136   3.019   1.051
12508TIP3   OH237480   4.038   0.455   5.929
12508TIP3    H137481   3.998   0.373   5.903
12508TIP3    H237482   4.030   0.457   6.024
12509TIP3   OH237483   7.064   6.626   0.285
12509TIP3    H137484   6.990   6.651   0.230
12509TIP3    H237485   7.023   6.591   0.365
12510TIP3   OH237486   5.063   5.067   3.187
12510TIP3    H137487   5.049   5.161   3.180
12510TIP3    H237488   4.976   5.029   3.194
12511TIP3   OH237489   1.569   1.403   4.006
12511TIP3    H137490   1.514   1.428   3.933
12511TIP3    H237491   1.511   1.355   4.065
12512TIP3   OH237492   3.380   1.132   4.117
12512TIP3    H137493   3.431   1.201   4.160
12512TIP3    H237494   3.443   1.061   4.105
12513TIP3   OH237495   6.940   7.556   5.980
12513TIP3    H137496   6.980   7.643   5.983
12513TIP3    H237497   6.900   7.545   6.066
12514TIP3   OH237498   4.575   2.952   4.952
12514TIP3    H137499   4.652   2.896   4.953
12514TIP3    H237500   4.517   2.913   5.018
12515TIP3   OH237501   4.164   3.001   3.709
12515TIP3    H137502   4.096   2.993   3.776
12515TIP3    H237503   4.226   3.064   3.746
12516TIP3   OH237504   7.844   5.081   2.321
12516TIP3    H137505   7.907   5.042   2.259
12516TIP3    H237506   7.808   5.005   2.368
12517TIP3   OH237507   2.674   5.821   1.055
12517TIP3    H137508   2.699   5.845   0.966
12517TIP3    H237509   2.626   5.898   1.088
12518TIP3   OH237510   4.040   0.850   5.836
12518TIP3    H137511   4.113   0.896   5.795
12518TIP3    H237512   3.986   0.919   5.874
12519TIP3   OH237513   4.715   1.640   5.675
12519TIP3    H137514   4.656   1.703   5.717
12519TIP3    H237515   4.656   1.575   5.637
12520TIP3   OH237516   3.149   5.132   1.245
12520TIP3    H137517   3.209   5.162   1.312
12520TIP3    H237518   3.170   5.184   1.168
12521TIP3   OH237519   0.046   2.889   2.489
12521TIP3    H137520   0.134   2.925   2.498
12521TIP3    H237521   0.058   2.794   2.498
12522TIP3   OH237522   0.862   6.598   1.359
12522TIP3    H137523   0.794   6.538   1.329
12522TIP3    H237524   0.826   6.635   1.440
12523TIP3   OH237525   5.351   1.703   5.490
12523TIP3    H137526   5.424   1.764   5.482
12523TIP3    H237527   5.273   1.757   5.477
12524TIP3   OH237528   1.463   6.507   3.599
12524TIP3    H137529   1.464   6.415   3.572
12524TIP3    H237530   1.373   6.535   3.584
12525TIP3   OH237531   3.485   0.972   6.162
12525TIP3    H137532   3.486   0.938   6.251
12525TIP3    H237533   3.553   0.920   6.117
12526TIP3   OH237534   1.869   1.023   5.632
12526TIP3    H137535   1.782   1.036   5.594
12526TIP3    H237536   1.886   0.930   5.621
12527TIP3   OH237537   1.295   7.298   4.537
12527TIP3    H137538   1.214   7.306   4.587
12527TIP3    H237539   1.266   7.286   4.447
12528TIP3   OH237540   6.428   1.316   3.537
12528TIP3    H137541   6.498   1.355   3.484
12528TIP3    H237542   6.357   1.379   3.532
12529TIP3   OH237543   0.703   3.356   2.611
12529TIP3    H137544   0.708   3.350   2.516
12529TIP3    H237545   0.613   3.333   2.632
12530TIP3   OH237546   8.273   3.321   6.351
12530TIP3    H137547   8.228   3.332   6.435
12530TIP3    H237548   8.209   3.275   6.296
12531TIP3   OH237549   1.310   7.130   0.208
12531TIP3    H137550   1.380   7.170   0.259
12531TIP3    H237551   1.304   7.184   0.129
12532TIP3   OH237552   8.091   4.687   1.897
12532TIP3    H137553   8.066   4.720   1.983
12532TIP3    H237554   8.123   4.599   1.913
12533TIP3   OH237555   3.305   4.333   5.997
12533TIP3    H137556   3.387   4.330   5.948
12533TIP3    H237557   3.249   4.391   5.946
12534TIP3   OH237558   4.624   7.020   3.893
12534TIP3    H137559   4.645   6.937   3.850
12534TIP3    H237560   4.580   6.996   3.974
12535TIP3   OH237561   1.123   1.102   5.759
12535TIP3    H137562   1.127   1.164   5.832
12535TIP3    H237563   1.047   1.131   5.708
12536TIP3   OH237564   0.792   5.207   6.235
12536TIP3    H137565   0.759   5.147   6.301
12536TIP3    H237566   0.886   5.190   6.230
12537TIP3   OH237567   0.478   4.827   0.689
12537TIP3    H137568   0.478   4.916   0.723
12537TIP3    H237569   0.387   4.800   0.691
12538TIP3   OH237570   1.486   2.190   4.363
12538TIP3    H137571   1.508   2.168   4.454
12538TIP3    H237572   1.522   2.117   4.312
12539TIP3   OH237573   6.673   0.297   0.319
12539TIP3    H137574   6.707   0.313   0.407
12539TIP3    H237575   6.703   0.209   0.297
12540TIP3   OH237576   2.161   2.420   2.207
12540TIP3    H137577   2.100   2.371   2.262
12540TIP3    H237578   2.170   2.504   2.252
12541TIP3   OH237579   0.739   2.117   4.714
12541TIP3    H137580   0.733   2.196   4.662
12541TIP3    H237581   0.802   2.138   4.783
12542TIP3   OH237582   1.777   5.246   3.398
12542TIP3    H137583   1.737   5.188   3.463
12542TIP3    H237584   1.864   5.209   3.384
12543TIP3   OH237585   0.277   5.249   0.616
12543TIP3    H137586   0.327   5.276   0.693
12543TIP3    H237587   0.239   5.330   0.582
12544TIP3   OH237588   2.352   5.620   4.199
12544TIP3    H137589   2.259   5.615   4.178
12544TIP3    H237590   2.368   5.713   4.218
12545TIP3   OH237591   1.003   4.618   0.424
12545TIP3    H137592   1.088   4.639   0.463
12545TIP3    H237593   0.994   4.682   0.353
12546TIP3   OH237594   8.116   5.465   3.266
12546TIP3    H137595   8.115   5.485   3.360
12546TIP3    H237596   8.196   5.507   3.234
12547TIP3   OH237597   1.675   7.496   2.584
12547TIP3    H137598   1.597   7.451   2.553
12547TIP3    H237599   1.746   7.433   2.571
12548TIP3   OH237600   4.781   2.900   0.461
12548TIP3    H137601   4.738   2.896   0.375
12548TIP3    H237602   4.764   2.814   0.500
12549TIP3   OH237603   7.522   4.488   2.257
12549TIP3    H137604   7.503   4.564   2.312
12549TIP3    H237605   7.503   4.413   2.314
12550TIP3   OH237606   2.503   3.594   6.617
12550TIP3    H137607   2.493   3.666   6.554
12550TIP3    H237608   2.482   3.515   6.568
12551TIP3   OH237609   6.482   3.799   3.988
12551TIP3    H137610   6.547   3.731   3.969
12551TIP3    H237611   6.457   3.832   3.902
12552TIP3   OH237612   4.482   4.609   4.540
12552TIP3    H137613   4.526   4.523   4.538
12552TIP3    H237614   4.486   4.640   4.450
12553TIP3   OH237615   8.163   4.343   2.565
12553TIP3    H137616   8.204   4.258   2.552
12553TIP3    H237617   8.182   4.365   2.656
12554TIP3   OH237618   4.649   1.566   6.685
12554TIP3    H137619   4.677   1.534   6.770
12554TIP3    H237620   4.698   1.514   6.622
12555TIP3   OH237621   7.816   5.985   4.886
12555TIP3    H137622   7.910   5.973   4.898
12555TIP3    H237623   7.790   5.913   4.829
12556TIP3   OH237624   0.302   4.748   1.584
12556TIP3    H137625   0.331   4.815   1.646
12556TIP3    H237626   0.219   4.716   1.619
12557TIP3   OH237627   3.573   5.470   0.025
12557TIP3    H137628   3.494   5.513   0.057
12557TIP3    H237629   3.542   5.401  -0.034
12558TIP3   OH237630   6.678   5.623   2.242
12558TIP3    H137631   6.678   5.680   2.164
12558TIP3    H237632   6.585   5.609   2.260
12559TIP3   OH237633   8.178   3.193   0.683
12559TIP3    H137634   8.178   3.222   0.774
12559TIP3    H237635   8.085   3.190   0.660
12560TIP3   OH237636   5.044   0.977   0.187
12560TIP3    H137637   5.030   0.897   0.237
12560TIP3    H237638   4.964   0.988   0.136
12561TIP3   OH237639   4.695   5.788   6.125
12561TIP3    H137640   4.720   5.820   6.039
12561TIP3    H237641   4.683   5.867   6.178
12562TIP3   OH237642   6.349   1.625   3.756
12562TIP3    H137643   6.328   1.583   3.840
12562TIP3    H237644   6.277   1.599   3.699
12563TIP3   OH237645   1.701   5.784   5.985
12563TIP3    H137646   1.756   5.778   5.907
12563TIP3    H237647   1.655   5.868   5.975
12564TIP3   OH237648   7.847   1.961   4.231
12564TIP3    H137649   7.913   1.892   4.243
12564TIP3    H237650   7.895   2.034   4.194
12565TIP3   OH237651   7.193   3.162   0.516
12565TIP3    H137652   7.144   3.236   0.553
12565TIP3    H237653   7.176   3.090   0.576
12566TIP3   OH237654   2.098   0.529   5.886
12566TIP3    H137655   2.093   0.501   5.978
12566TIP3    H237656   2.188   0.506   5.860
12567TIP3   OH237657   2.394   5.489   0.931
12567TIP3    H137658   2.454   5.507   1.003
12567TIP3    H237659   2.404   5.565   0.873
12568TIP3   OH237660   0.126   1.351   4.950
12568TIP3    H137661   0.037   1.321   4.970
12568TIP3    H237662   0.115   1.436   4.908
12569TIP3   OH237663   5.103   3.531   6.750
12569TIP3    H137664   5.148   3.468   6.694
12569TIP3    H237665   5.168   3.601   6.763
12570TIP3   OH237666   6.433   2.009   1.600
12570TIP3    H137667   6.381   1.929   1.592
12570TIP3    H237668   6.507   1.984   1.655
12571TIP3   OH237669   7.098   3.050   4.686
12571TIP3    H137670   7.104   3.097   4.603
12571TIP3    H237671   7.137   2.965   4.669
12572TIP3   OH237672   5.540   3.908   2.334
12572TIP3    H137673   5.575   3.871   2.416
12572TIP3    H237674   5.449   3.930   2.354
12573TIP3   OH237675   7.100   7.856   2.948
12573TIP3    H137676   7.141   7.788   3.001
12573TIP3    H237677   7.016   7.819   2.922
12574TIP3   OH237678   6.966   5.053   5.526
12574TIP3    H137679   6.915   5.072   5.447
12574TIP3    H237680   6.919   4.981   5.568
12575TIP3   OH237681   6.909   6.992   0.804
12575TIP3    H137682   6.916   7.082   0.835
12575TIP3    H237683   6.986   6.980   0.748
12576TIP3   OH237684   5.165   6.734   0.647
12576TIP3    H137685   5.223   6.782   0.706
12576TIP3    H237686   5.077   6.754   0.678
12577TIP3   OH237687   1.690   4.124   6.450
12577TIP3    H137688   1.733   4.201   6.413
12577TIP3    H237689   1.600   4.154   6.468
12578TIP3   OH237690   5.660   4.794   2.511
12578TIP3    H137691   5.734   4.788   2.450
12578TIP3    H237692   5.642   4.888   2.517
12579TIP3   OH237693   7.693   3.203   6.001
12579TIP3    H137694   7.711   3.139   6.070
12579TIP3    H237695   7.715   3.287   6.041
12580TIP3   OH237696   5.214   3.711   2.757
12580TIP3    H137697   5.206   3.712   2.661
12580TIP3    H237698   5.242   3.622   2.778
12581TIP3   OH237699   6.678   1.887   3.577
12581TIP3    H137700   6.641   1.967   3.539
12581TIP3    H237701   6.649   1.888   3.668
12582TIP3   OH237702   5.605   4.315   3.043
12582TIP3    H137703   5.571   4.403   3.062
12582TIP3    H237704   5.633   4.321   2.952
12583TIP3   OH237705   4.328   5.107   0.492
12583TIP3    H137706   4.423   5.115   0.489
12583TIP3    H237707   4.313   5.017   0.523
12584TIP3   OH237708   8.094   7.557   1.227
12584TIP3    H137709   8.179   7.513   1.230
12584TIP3    H237710   8.091   7.597   1.140
12585TIP3   OH237711   5.794   3.073   3.885
12585TIP3    H137712   5.871   3.035   3.929
12585TIP3    H237713   5.831   3.139   3.826
12586TIP3   OH237714   2.612   2.772   1.743
12586TIP3    H137715   2.625   2.766   1.649
12586TIP3    H237716   2.523   2.805   1.754
12587TIP3   OH237717   0.942   4.858   2.051
12587TIP3    H137718   0.850   4.832   2.062
12587TIP3    H237719   0.947   4.945   2.090
12588TIP3   OH237720   7.916   7.486   4.206
12588TIP3    H137721   7.822   7.501   4.220
12588TIP3    H237722   7.942   7.428   4.278
12589TIP3   OH237723   2.270   7.685   3.585
12589TIP3    H137724   2.227   7.733   3.655
12589TIP3    H237725   2.364   7.701   3.597
12590TIP3   OH237726   0.940   4.029   0.171
12590TIP3    H137727   0.983   4.075   0.243
12590TIP3    H237728   0.993   3.951   0.158
12591TIP3   OH237729   8.020   2.575   2.398
12591TIP3    H137730   8.091   2.562   2.334
12591TIP3    H237731   8.040   2.660   2.439
12592TIP3   OH237732   0.672   7.566   3.029
12592TIP3    H137733   0.714   7.649   3.006
12592TIP3    H237734   0.646   7.577   3.120
12593TIP3   OH237735   1.889   6.301   5.035
12593TIP3    H137736   1.841   6.281   4.954
12593TIP3    H237737   1.870   6.226   5.092
12594TIP3   OH237738   1.769   6.811   2.463
12594TIP3    H137739   1.811   6.873   2.522
12594TIP3    H237740   1.692   6.780   2.511
12595TIP3   OH237741   2.202   2.510   1.207
12595TIP3    H137742   2.206   2.415   1.191
12595TIP3    H237743   2.188   2.517   1.302
12596TIP3   OH237744   2.090   2.661   1.542
12596TIP3    H137745   2.170   2.700   1.505
12596TIP3    H237746   2.020   2.722   1.519
12597TIP3   OH237747   6.583   7.192   4.443
12597TIP3    H137748   6.627   7.178   4.359
12597TIP3    H237749   6.534   7.112   4.458
12598TIP3   OH237750   8.119   5.217   4.851
12598TIP3    H137751   8.056   5.146   4.862
12598TIP3    H237752   8.112   5.241   4.759
12599TIP3   OH237753   5.052   7.495   1.798
12599TIP3    H137754   5.119   7.445   1.750
12599TIP3    H237755   5.066   7.586   1.771
12600TIP3   OH237756   5.821   0.249   0.831
12600TIP3    H137757   5.842   0.302   0.754
12600TIP3    H237758   5.883   0.176   0.827
12601TIP3   OH237759   6.184   7.697   4.947
12601TIP3    H137760   6.232   7.652   5.017
12601TIP3    H237761   6.093   7.696   4.976
12602TIP3   OH237762   4.712   3.441   4.352
12602TIP3    H137763   4.628   3.481   4.331
12602TIP3    H237764   4.740   3.399   4.271
12603TIP3   OH237765   7.596   0.782   6.247
12603TIP3    H137766   7.667   0.783   6.182
12603TIP3    H237767   7.607   0.863   6.297
12604TIP3   OH237768   2.588   3.132   4.754
12604TIP3    H137769   2.531   3.204   4.730
12604TIP3    H237770   2.616   3.094   4.671
12605TIP3   OH237771   5.293   3.285   4.854
12605TIP3    H137772   5.345   3.342   4.798
12605TIP3    H237773   5.247   3.344   4.914
12606TIP3   OH237774   8.016   1.543   3.508
12606TIP3    H137775   8.010   1.532   3.603
12606TIP3    H237776   8.109   1.561   3.493
12607TIP3   OH237777   2.633   4.626   2.869
12607TIP3    H137778   2.617   4.705   2.817
12607TIP3    H237779   2.563   4.566   2.844
12608TIP3   OH237780   7.372   6.155   6.487
12608TIP3    H137781   7.409   6.070   6.462
12608TIP3    H237782   7.399   6.214   6.416
12609TIP3   OH237783   3.225   4.246   3.077
12609TIP3    H137784   3.151   4.302   3.099
12609TIP3    H237785   3.300   4.286   3.122
12610TIP3   OH237786   6.243   2.141   4.613
12610TIP3    H137787   6.297   2.125   4.536
12610TIP3    H237788   6.157   2.163   4.578
12611TIP3   OH237789   5.963   5.207   2.739
12611TIP3    H137790   6.042   5.249   2.772
12611TIP3    H237791   5.945   5.138   2.802
12612TIP3   OH237792   0.168   1.707   3.273
12612TIP3    H137793   0.200   1.638   3.331
12612TIP3    H237794   0.108   1.758   3.327
12613TIP3   OH237795   2.239   3.718   6.280
12613TIP3    H137796   2.236   3.646   6.343
12613TIP3    H237797   2.149   3.727   6.249
12614TIP3   OH237798   8.125   7.382   0.751
12614TIP3    H137799   8.056   7.441   0.721
12614TIP3    H237800   8.152   7.334   0.672
12615TIP3   OH237801   2.866   5.802   3.345
12615TIP3    H137802   2.912   5.834   3.422
12615TIP3    H237803   2.935   5.785   3.281
12616TIP3   OH237804   5.694   7.618   3.944
12616TIP3    H137805   5.668   7.529   3.920
12616TIP3    H237806   5.778   7.607   3.988
12617TIP3   OH237807   6.228   3.848   0.868
12617TIP3    H137808   6.217   3.776   0.931
12617TIP3    H237809   6.303   3.822   0.815
12618TIP3   OH237810   6.225   3.101   5.771
12618TIP3    H137811   6.276   3.043   5.714
12618TIP3    H237812   6.136   3.069   5.764
12619TIP3   OH237813   6.185   3.251   1.830
12619TIP3    H137814   6.191   3.204   1.747
12619TIP3    H237815   6.264   3.304   1.833
12620TIP3   OH237816   6.331   1.743   3.290
12620TIP3    H137817   6.426   1.750   3.298
12620TIP3    H237818   6.297   1.804   3.355
12621TIP3   OH237819   3.756   1.217   0.889
12621TIP3    H137820   3.817   1.163   0.941
12621TIP3    H237821   3.716   1.155   0.828
12622TIP3   OH237822   2.051   2.163   6.271
12622TIP3    H137823   2.009   2.106   6.206
12622TIP3    H237824   2.090   2.103   6.334
12623TIP3   OH237825   5.748   1.138   6.167
12623TIP3    H137826   5.760   1.195   6.243
12623TIP3    H237827   5.770   1.194   6.092
12624TIP3   OH237828   0.740   7.342   0.938
12624TIP3    H137829   0.679   7.315   1.006
12624TIP3    H237830   0.770   7.260   0.899
12625TIP3   OH237831   1.563   7.172   3.912
12625TIP3    H137832   1.652   7.188   3.943
12625TIP3    H237833   1.529   7.105   3.972
12626TIP3   OH237834   0.373   2.424   4.365
12626TIP3    H137835   0.316   2.406   4.440
12626TIP3    H237836   0.369   2.345   4.311
12627TIP3   OH237837   0.077   6.488   4.934
12627TIP3    H137838   0.013   6.446   4.991
12627TIP3    H237839   0.153   6.505   4.991
12628TIP3   OH237840   4.201   7.075   6.343
12628TIP3    H137841   4.158   7.041   6.264
12628TIP3    H237842   4.147   7.149   6.370
12629TIP3   OH237843   5.091   1.993   4.359
12629TIP3    H137844   5.165   1.934   4.346
12629TIP3    H237845   5.014   1.939   4.339
12630TIP3   OH237846   6.964   6.855   2.082
12630TIP3    H137847   6.894   6.901   2.035
12630TIP3    H237848   7.011   6.925   2.128
12631TIP3   OH237849   0.252   0.544   4.251
12631TIP3    H137850   0.255   0.640   4.257
12631TIP3    H237851   0.343   0.518   4.238
12632TIP3   OH237852   2.316   7.701   1.440
12632TIP3    H137853   2.275   7.776   1.397
12632TIP3    H237854   2.390   7.738   1.488
12633TIP3   OH237855   2.704   5.784   1.894
12633TIP3    H137856   2.786   5.830   1.912
12633TIP3    H237857   2.638   5.833   1.943
12634TIP3   OH237858   1.001   6.793   5.747
12634TIP3    H137859   1.068   6.725   5.749
12634TIP3    H237860   1.049   6.874   5.768
12635TIP3   OH237861   7.706   5.684   3.973
12635TIP3    H137862   7.690   5.778   3.975
12635TIP3    H237863   7.689   5.655   4.063
12636TIP3   OH237864   3.304   5.964   5.318
12636TIP3    H137865   3.252   5.898   5.271
12636TIP3    H237866   3.393   5.952   5.286
12637TIP3   OH237867   6.261   5.172   1.821
12637TIP3    H137868   6.257   5.076   1.824
12637TIP3    H237869   6.202   5.195   1.749
12638TIP3   OH237870   2.352   5.028   0.549
12638TIP3    H137871   2.384   4.939   0.540
12638TIP3    H237872   2.294   5.026   0.625
12639TIP3   OH237873   3.096   2.163   2.660
12639TIP3    H137874   3.041   2.229   2.703
12639TIP3    H237875   3.033   2.109   2.612
12640TIP3   OH237876   6.631   0.342   0.942
12640TIP3    H137877   6.540   0.328   0.914
12640TIP3    H237878   6.624   0.387   1.025
12641TIP3   OH237879   8.169   4.222   0.568
12641TIP3    H137880   8.101   4.155   0.561
12641TIP3    H237881   8.203   4.214   0.657
12642TIP3   OH237882   0.508   3.070   5.703
12642TIP3    H137883   0.420   3.102   5.686
12642TIP3    H237884   0.556   3.147   5.733
12643TIP3   OH237885   2.283   5.378   2.511
12643TIP3    H137886   2.226   5.415   2.578
12643TIP3    H237887   2.238   5.299   2.482
12644TIP3   OH237888   1.413   0.810   4.891
12644TIP3    H137889   1.471   0.854   4.828
12644TIP3    H237890   1.435   0.850   4.975
12645TIP3   OH237891   7.863   7.539   1.392
12645TIP3    H137892   7.928   7.507   1.330
12645TIP3    H237893   7.834   7.623   1.355
12646TIP3   OH237894   0.037   5.464   4.882
12646TIP3    H137895   0.010   5.380   4.844
12646TIP3    H237896   0.122   5.482   4.842
12647TIP3   OH237897   2.565   1.735   1.762
12647TIP3    H137898   2.660   1.739   1.768
12647TIP3    H237899   2.536   1.710   1.850
12648TIP3   OH237900   3.569   2.992   3.363
12648TIP3    H137901   3.598   3.020   3.276
12648TIP3    H237902   3.643   3.010   3.420
12649TIP3   OH237903   3.473   0.083   6.320
12649TIP3    H137904   3.514   0.004   6.354
12649TIP3    H237905   3.484   0.078   6.225
12650TIP3   OH237906   2.792   3.604   1.794
12650TIP3    H137907   2.725   3.563   1.848
12650TIP3    H237908   2.744   3.648   1.724
12651TIP3   OH237909  -0.004   1.365   2.495
12651TIP3    H137910  -0.082   1.419   2.484
12651TIP3    H237911   0.067   1.427   2.511
12652TIP3   OH237912   3.578   5.940   5.294
12652TIP3    H137913   3.667   5.971   5.311
12652TIP3    H237914   3.580   5.909   5.204
12653TIP3   OH237915   7.243   7.652   3.092
12653TIP3    H137916   7.330   7.692   3.085
12653TIP3    H237917   7.253   7.564   3.056
12654TIP3   OH237918   3.793   6.147   5.838
12654TIP3    H137919   3.878   6.108   5.819
12654TIP3    H237920   3.752   6.085   5.898
12655TIP3   OH237921   4.490   3.723   0.226
12655TIP3    H137922   4.482   3.728   0.321
12655TIP3    H237923   4.407   3.758   0.194
12656TIP3   OH237924   8.186   2.620   1.751
12656TIP3    H137925   8.243   2.582   1.818
12656TIP3    H237926   8.156   2.702   1.789
12657TIP3   OH237927   2.513   5.976   2.428
12657TIP3    H137928   2.524   6.058   2.380
12657TIP3    H237929   2.592   5.926   2.408
12658TIP3   OH237930   2.773   6.171   0.378
12658TIP3    H137931   2.702   6.166   0.443
12658TIP3    H237932   2.826   6.094   0.395
12659TIP3   OH237933   5.167   1.630   2.862
12659TIP3    H137934   5.179   1.569   2.789
12659TIP3    H237935   5.254   1.636   2.903
12660TIP3   OH237936   2.189   0.375   6.444
12660TIP3    H137937   2.158   0.449   6.497
12660TIP3    H237938   2.271   0.349   6.486
12661TIP3   OH237939   0.275   5.840   0.940
12661TIP3    H137940   0.224   5.760   0.954
12661TIP3    H237941   0.214   5.899   0.897
12662TIP3   OH237942   3.079   2.830   6.769
12662TIP3    H137943   3.126   2.913   6.772
12662TIP3    H237944   3.077   2.806   6.676
12663TIP3   OH237945   7.462   5.700   6.335
12663TIP3    H137946   7.401   5.626   6.332
12663TIP3    H237947   7.414   5.772   6.294
12664TIP3   OH237948   7.355   0.767   4.623
12664TIP3    H137949   7.314   0.818   4.694
12664TIP3    H237950   7.285   0.709   4.592
12665TIP3   OH237951   4.875   4.270   2.412
12665TIP3    H137952   4.787   4.244   2.439
12665TIP3    H237953   4.920   4.295   2.493
12666TIP3   OH237954   7.945   1.027   2.569
12666TIP3    H137955   8.034   1.033   2.534
12666TIP3    H237956   7.894   1.087   2.514
12667TIP3   OH237957   5.119   5.462   1.940
12667TIP3    H137958   5.095   5.538   1.993
12667TIP3    H237959   5.138   5.393   2.004
12668TIP3   OH237960   3.071   6.662   4.558
12668TIP3    H137961   3.155   6.662   4.513
12668TIP3    H237962   3.087   6.615   4.640
12669TIP3   OH237963   1.288   7.821   6.058
12669TIP3    H137964   1.286   7.744   6.114
12669TIP3    H237965   1.359   7.875   6.093
12670TIP3   OH237966   5.027   7.805   5.886
12670TIP3    H137967   4.973   7.780   5.811
12670TIP3    H237968   5.114   7.770   5.866
12671TIP3   OH237969   8.192   5.853   6.147
12671TIP3    H137970   8.187   5.807   6.063
12671TIP3    H237971   8.229   5.938   6.126
12672TIP3   OH237972   6.390   4.428   1.888
12672TIP3    H137973   6.446   4.372   1.942
12672TIP3    H237974   6.328   4.368   1.847
12673TIP3   OH237975   0.736   4.296   1.578
12673TIP3    H137976   0.822   4.326   1.607
12673TIP3    H237977   0.748   4.268   1.488
12674TIP3   OH237978   5.339   1.433   1.634
12674TIP3    H137979   5.374   1.510   1.589
12674TIP3    H237980   5.395   1.423   1.711
12675TIP3   OH237981   2.379   1.018   1.703
12675TIP3    H137982   2.414   0.930   1.718
12675TIP3    H237983   2.303   1.005   1.646
12676TIP3   OH237984   1.823   5.135   2.221
12676TIP3    H137985   1.809   5.163   2.311
12676TIP3    H237986   1.824   5.040   2.225
12677TIP3   OH237987   3.712   2.073   5.559
12677TIP3    H137988   3.620   2.052   5.579
12677TIP3    H237989   3.755   1.989   5.550
12678TIP3   OH237990   1.330   5.646   1.281
12678TIP3    H137991   1.257   5.688   1.236
12678TIP3    H237992   1.406   5.664   1.226
12679TIP3   OH237993   1.326   7.530   0.297
12679TIP3    H137994   1.280   7.589   0.237
12679TIP3    H237995   1.310   7.569   0.384
12680TIP3   OH237996   4.584   4.054   0.549
12680TIP3    H137997   4.623   3.976   0.510
12680TIP3    H237998   4.564   4.028   0.639
12681TIP3   OH237999   0.856   0.998   0.520
12681TIP3    H138000   0.786   1.063   0.525
12681TIP3    H238001   0.920   1.036   0.459
12682TIP3   OH238002   0.104   4.268   3.080
12682TIP3    H138003   0.025   4.255   3.132
12682TIP3    H238004   0.142   4.350   3.112
12683TIP3   OH238005   2.690   0.316   0.581
12683TIP3    H138006   2.679   0.371   0.659
12683TIP3    H238007   2.784   0.313   0.567
12684TIP3   OH238008   4.633   0.034   1.312
12684TIP3    H138009   4.614   0.123   1.342
12684TIP3    H238010   4.698   0.045   1.243
12685TIP3   OH238011   2.003   7.780   6.701
12685TIP3    H138012   2.026   7.696   6.742
12685TIP3    H238013   1.908   7.777   6.693
12686TIP3   OH238014   8.253   5.957   2.330
12686TIP3    H138015   8.165   5.982   2.303
12686TIP3    H238016   8.246   5.866   2.358
12687TIP3   OH238017   1.603   7.670   4.939
12687TIP3    H138018   1.624   7.761   4.962
12687TIP3    H238019   1.580   7.673   4.846
12688TIP3   OH238020   5.920   7.361   0.219
12688TIP3    H138021   5.840   7.347   0.169
12688TIP3    H238022   5.911   7.303   0.294
12689TIP3   OH238023   3.515   2.110   6.474
12689TIP3    H138024   3.470   2.026   6.479
12689TIP3    H238025   3.603   2.089   6.444
12690TIP3   OH238026   6.941   0.441   3.708
12690TIP3    H138027   6.984   0.383   3.645
12690TIP3    H238028   6.972   0.529   3.684
12691TIP3   OH238029   0.681   7.169   0.103
12691TIP3    H138030   0.685   7.265   0.104
12691TIP3    H238031   0.682   7.146   0.010
12692TIP3   OH238032   3.619   7.011   0.501
12692TIP3    H138033   3.631   7.048   0.588
12692TIP3    H238034   3.703   7.024   0.457
12693TIP3   OH238035   6.688   2.003   6.175
12693TIP3    H138036   6.600   1.967   6.165
12693TIP3    H238037   6.746   1.933   6.146
12694TIP3   OH238038   4.981   5.449   0.186
12694TIP3    H138039   4.893   5.469   0.220
12694TIP3    H238040   4.964   5.399   0.106
12695TIP3   OH238041   6.454   7.572   1.494
12695TIP3    H138042   6.411   7.639   1.441
12695TIP3    H238043   6.503   7.519   1.431
12696TIP3   OH238044   0.365   4.088   2.541
12696TIP3    H138045   0.366   4.101   2.636
12696TIP3    H238046   0.451   4.051   2.521
12697TIP3   OH238047   2.274   5.723   0.315
12697TIP3    H138048   2.250   5.651   0.257
12697TIP3    H238049   2.222   5.709   0.394
12698TIP3   OH238050   1.636   5.000   3.489
12698TIP3    H138051   1.557   5.046   3.517
12698TIP3    H238052   1.637   4.921   3.543
12699TIP3   OH238053   2.164   7.453   4.144
12699TIP3    H138054   2.150   7.447   4.239
12699TIP3    H238055   2.258   7.470   4.136
12700TIP3   OH238056   3.443   2.619   5.125
12700TIP3    H138057   3.538   2.614   5.119
12700TIP3    H238058   3.418   2.538   5.169
12701TIP3   OH238059   5.523   2.157   2.674
12701TIP3    H138060   5.528   2.143   2.579
12701TIP3    H238061   5.441   2.115   2.700
12702TIP3   OH238062   3.157   1.680   3.135
12702TIP3    H138063   3.090   1.748   3.143
12702TIP3    H238064   3.110   1.604   3.101
12703TIP3   OH238065   2.795   1.828   6.226
12703TIP3    H138066   2.840   1.758   6.179
12703TIP3    H238067   2.812   1.907   6.174
12704TIP3   OH238068   5.976   4.606   1.506
12704TIP3    H138069   5.965   4.510   1.508
12704TIP3    H238070   5.893   4.639   1.472
12705TIP3   OH238071   2.322   6.326   5.827
12705TIP3    H138072   2.340   6.413   5.794
12705TIP3    H238073   2.240   6.335   5.877
12706TIP3   OH238074   5.852   0.903   0.922
12706TIP3    H138075   5.855   0.996   0.899
12706TIP3    H238076   5.905   0.861   0.854
12707TIP3   OH238077   5.955   2.732   2.826
12707TIP3    H138078   6.020   2.671   2.791
12707TIP3    H238079   5.950   2.802   2.761
12708TIP3   OH238080   4.811   1.341   1.376
12708TIP3    H138081   4.885   1.350   1.436
12708TIP3    H238082   4.851   1.337   1.289
12709TIP3   OH238083   3.078   5.225   4.483
12709TIP3    H138084   3.089   5.235   4.388
12709TIP3    H238085   2.983   5.223   4.495
12710TIP3   OH238086   6.973   0.861   0.966
12710TIP3    H138087   6.919   0.853   1.044
12710TIP3    H238088   7.053   0.812   0.987
12711TIP3   OH238089   3.341   6.741   3.161
12711TIP3    H138090   3.270   6.801   3.140
12711TIP3    H238091   3.328   6.719   3.253
12712TIP3   OH238092   5.931   2.840   5.098
12712TIP3    H138093   5.907   2.766   5.155
12712TIP3    H238094   5.907   2.917   5.150
12713TIP3   OH238095   8.270   1.418   1.583
12713TIP3    H138096   8.179   1.447   1.575
12713TIP3    H238097   8.286   1.414   1.677
12714TIP3   OH238098   7.041   4.745   4.363
12714TIP3    H138099   7.000   4.659   4.362
12714TIP3    H238100   7.048   4.770   4.271
12715TIP3   OH238101   0.501   4.984   3.001
12715TIP3    H138102   0.442   4.909   3.003
12715TIP3    H238103   0.537   4.988   3.090
12716TIP3   OH238104   5.322   2.597   4.661
12716TIP3    H138105   5.299   2.584   4.569
12716TIP3    H238106   5.376   2.676   4.660
12717TIP3   OH238107   8.191   5.074   0.214
12717TIP3    H138108   8.185   4.984   0.182
12717TIP3    H238109   8.268   5.075   0.271
12718TIP3   OH238110   4.783   3.805   0.684
12718TIP3    H138111   4.876   3.795   0.660
12718TIP3    H238112   4.784   3.823   0.778
12719TIP3   OH238113   4.562   2.650   2.212
12719TIP3    H138114   4.574   2.708   2.286
12719TIP3    H238115   4.484   2.682   2.168
12720TIP3   OH238116   5.054   4.905   2.838
12720TIP3    H138117   5.035   4.816   2.809
12720TIP3    H238118   4.970   4.939   2.868
12721TIP3   OH238119   1.593   6.783   6.403
12721TIP3    H138120   1.532   6.730   6.454
12721TIP3    H238121   1.672   6.789   6.457
12722TIP3   OH238122   1.514   6.201   4.987
12722TIP3    H138123   1.518   6.263   5.059
12722TIP3    H238124   1.577   6.234   4.923
12723TIP3   OH238125   6.110   3.254   0.296
12723TIP3    H138126   6.050   3.191   0.257
12723TIP3    H238127   6.151   3.298   0.222
12724TIP3   OH238128   1.793   6.996   0.732
12724TIP3    H138129   1.775   6.982   0.825
12724TIP3    H238130   1.745   6.926   0.688
12725TIP3   OH238131   0.152   1.087   6.647
12725TIP3    H138132   0.061   1.064   6.668
12725TIP3    H238133   0.176   1.154   6.710
12726TIP3   OH238134   3.049   2.901   1.470
12726TIP3    H138135   3.136   2.862   1.468
12726TIP3    H238136   3.022   2.906   1.379
12727TIP3   OH238137   1.717   6.316   4.818
12727TIP3    H138138   1.800   6.304   4.770
12727TIP3    H238139   1.655   6.344   4.751
12728TIP3   OH238140   2.714   6.190   2.807
12728TIP3    H138141   2.724   6.109   2.758
12728TIP3    H238142   2.799   6.234   2.799
12729TIP3   OH238143   6.689   2.318   0.345
12729TIP3    H138144   6.642   2.304   0.427
12729TIP3    H238145   6.774   2.351   0.372
12730TIP3   OH238146   4.627   6.967   0.497
12730TIP3    H138147   4.605   6.990   0.407
12730TIP3    H238148   4.635   6.871   0.496
12731TIP3   OH238149   4.949   6.823   4.145
12731TIP3    H138150   4.901   6.741   4.153
12731TIP3    H238151   5.040   6.798   4.164
12732TIP3   OH238152   3.085   7.394   1.104
12732TIP3    H138153   3.044   7.315   1.068
12732TIP3    H238154   3.012   7.447   1.134
12733TIP3   OH238155   0.988   5.970   2.693
12733TIP3    H138156   0.994   5.997   2.601
12733TIP3    H238157   1.076   5.943   2.716
12734TIP3   OH238158   4.642   2.936   6.563
12734TIP3    H138159   4.563   2.961   6.515
12734TIP3    H238160   4.652   3.004   6.630
12735TIP3   OH238161   5.845   5.439   3.058
12735TIP3    H138162   5.785   5.444   2.984
12735TIP3    H238163   5.867   5.531   3.077
12736TIP3   OH238164   8.262   5.932   4.181
12736TIP3    H138165   8.201   5.994   4.221
12736TIP3    H238166   8.233   5.924   4.090
12737TIP3   OH238167   6.613   2.651   1.742
12737TIP3    H138168   6.628   2.557   1.744
12737TIP3    H238169   6.699   2.690   1.760
12738TIP3   OH238170   3.049   2.869   4.092
12738TIP3    H138171   3.129   2.916   4.114
12738TIP3    H238172   3.055   2.852   3.998
12739TIP3   OH238173   0.549   0.128   1.711
12739TIP3    H138174   0.561   0.065   1.640
12739TIP3    H238175   0.464   0.168   1.693
12740TIP3   OH238176   4.295   2.638   3.014
12740TIP3    H138177   4.350   2.576   2.966
12740TIP3    H238178   4.357   2.688   3.067
12741TIP3   OH238179   5.129   5.195   0.827
12741TIP3    H138180   5.125   5.101   0.844
12741TIP3    H238181   5.041   5.218   0.797
12742TIP3   OH238182   5.284   3.772   5.801
12742TIP3    H138183   5.355   3.708   5.798
12742TIP3    H238184   5.326   3.854   5.828
12743TIP3   OH238185   8.160   6.023   3.156
12743TIP3    H138186   8.089   5.964   3.128
12743TIP3    H238187   8.201   5.977   3.229
12744TIP3   OH238188   7.937   4.729   3.776
12744TIP3    H138189   7.849   4.766   3.782
12744TIP3    H238190   7.949   4.683   3.860
12745TIP3   OH238191   4.445   2.592   0.280
12745TIP3    H138192   4.421   2.565   0.368
12745TIP3    H238193   4.411   2.524   0.223
12746TIP3   OH238194   7.699   4.290   2.442
12746TIP3    H138195   7.752   4.366   2.421
12746TIP3    H238196   7.735   4.258   2.525
12747TIP3   OH238197   1.237   7.106   1.897
12747TIP3    H138198   1.185   7.051   1.839
12747TIP3    H238199   1.251   7.053   1.976
12748TIP3   OH238200   1.306   3.878   6.206
12748TIP3    H138201   1.254   3.897   6.284
12748TIP3    H238202   1.330   3.786   6.215
12749TIP3   OH238203   3.934   7.766   5.233
12749TIP3    H138204   3.848   7.778   5.193
12749TIP3    H238205   3.963   7.680   5.202
12750TIP3   OH238206   6.750   1.546   2.278
12750TIP3    H138207   6.694   1.615   2.314
12750TIP3    H238208   6.694   1.498   2.217
12751TIP3   OH238209   1.655   1.288   0.358
12751TIP3    H138210   1.565   1.267   0.335
12751TIP3    H238211   1.654   1.382   0.374
12752TIP3   OH238212   0.262   4.322   3.650
12752TIP3    H138213   0.349   4.305   3.688
12752TIP3    H238214   0.203   4.267   3.701
12753TIP3   OH238215   5.145   3.434   5.062
12753TIP3    H138216   5.123   3.435   5.155
12753TIP3    H238217   5.222   3.491   5.055
12754TIP3   OH238218   3.003   4.285   6.373
12754TIP3    H138219   2.994   4.343   6.298
12754TIP3    H238220   3.092   4.250   6.367
12755TIP3   OH238221   4.968   7.167   5.987
12755TIP3    H138222   4.997   7.109   6.057
12755TIP3    H238223   4.891   7.124   5.951
12756TIP3   OH238224   3.575   4.605   5.447
12756TIP3    H138225   3.628   4.554   5.386
12756TIP3    H238226   3.639   4.651   5.502
12757TIP3   OH238227   2.653   5.069   5.558
12757TIP3    H138228   2.592   5.087   5.486
12757TIP3    H238229   2.667   4.975   5.555
12758TIP3   OH238230   8.170   1.397   6.689
12758TIP3    H138231   8.217   1.450   6.624
12758TIP3    H238232   8.158   1.313   6.646
12759TIP3   OH238233   7.677   2.100   5.065
12759TIP3    H138234   7.657   2.035   4.997
12759TIP3    H238235   7.740   2.056   5.122
12760TIP3   OH238236   4.049   5.843   1.070
12760TIP3    H138237   4.024   5.809   0.984
12760TIP3    H238238   4.047   5.766   1.127
12761TIP3   OH238239   6.039   5.245   1.652
12761TIP3    H138240   5.987   5.303   1.708
12761TIP3    H238241   6.043   5.292   1.568
12762TIP3   OH238242   1.938   2.496   3.933
12762TIP3    H138243   1.918   2.574   3.986
12762TIP3    H238244   1.855   2.449   3.927
12763TIP3   OH238245   0.071   2.482   5.311
12763TIP3    H138246   0.123   2.402   5.307
12763TIP3    H238247   0.104   2.529   5.387
12764TIP3   OH238248   2.315   5.936   3.589
12764TIP3    H138249   2.276   6.020   3.566
12764TIP3    H238250   2.267   5.908   3.667
12765TIP3   OH238251   4.730   1.590   4.044
12765TIP3    H138252   4.671   1.563   4.114
12765TIP3    H238253   4.674   1.601   3.967
12766TIP3   OH238254   5.707   2.432   0.607
12766TIP3    H138255   5.786   2.383   0.629
12766TIP3    H238256   5.718   2.454   0.514
12767TIP3   OH238257   6.239   6.733   2.791
12767TIP3    H138258   6.267   6.672   2.859
12767TIP3    H238259   6.282   6.702   2.712
12768TIP3   OH238260   2.142   1.580   5.282
12768TIP3    H138261   2.046   1.578   5.278
12768TIP3    H238262   2.169   1.495   5.248
12769TIP3   OH238263   6.572   6.495   3.645
12769TIP3    H138264   6.582   6.416   3.698
12769TIP3    H238265   6.638   6.487   3.576
12770TIP3   OH238266   6.769   6.086   3.555
12770TIP3    H138267   6.742   6.145   3.485
12770TIP3    H238268   6.810   6.143   3.620
12771TIP3   OH238269   6.669   4.135   4.472
12771TIP3    H138270   6.681   4.171   4.561
12771TIP3    H238271   6.588   4.174   4.441
12772TIP3   OH238272   4.456   6.957   6.708
12772TIP3    H138273   4.526   7.020   6.690
12772TIP3    H238274   4.413   6.946   6.624
12773TIP3   OH238275   0.220   3.679   6.490
12773TIP3    H138276   0.184   3.766   6.473
12773TIP3    H238277   0.198   3.628   6.413
12774TIP3   OH238278   2.108   7.531   4.733
12774TIP3    H138279   2.138   7.448   4.771
12774TIP3    H238280   2.186   7.567   4.690
12775TIP3   OH238281   7.099   5.848   3.562
12775TIP3    H138282   7.032   5.887   3.508
12775TIP3    H238283   7.061   5.845   3.650
12776TIP3   OH238284   0.396   6.117   5.590
12776TIP3    H138285   0.428   6.086   5.505
12776TIP3    H238286   0.399   6.212   5.583
12777TIP3   OH238287   3.675   7.064   4.763
12777TIP3    H138288   3.694   7.001   4.693
12777TIP3    H238289   3.756   7.112   4.775
12778TIP3   OH238290   4.779   4.643   5.045
12778TIP3    H138291   4.834   4.721   5.038
12778TIP3    H238292   4.693   4.677   5.068
12779TIP3   OH238293   8.078   6.233   3.879
12779TIP3    H138294   7.999   6.232   3.825
12779TIP3    H238295   8.143   6.279   3.827
12780TIP3   OH238296   2.427   6.377   4.750
12780TIP3    H138297   2.333   6.357   4.746
12780TIP3    H238298   2.466   6.320   4.684
12781TIP3   OH238299   4.193   4.558   4.949
12781TIP3    H138300   4.124   4.604   4.900
12781TIP3    H238301   4.274   4.589   4.910
12782TIP3   OH238302   5.851   5.335   0.954
12782TIP3    H138303   5.835   5.310   0.863
12782TIP3    H238304   5.770   5.376   0.983
12783TIP3   OH238305   6.361   6.600   2.571
12783TIP3    H138306   6.441   6.552   2.593
12783TIP3    H238307   6.331   6.560   2.490
12784TIP3   OH238308   3.671   3.764   2.889
12784TIP3    H138309   3.761   3.777   2.860
12784TIP3    H238310   3.677   3.749   2.983
12785TIP3   OH238311   0.070   1.776   0.607
12785TIP3    H138312   0.041   1.749   0.694
12785TIP3    H238313   0.150   1.825   0.623
12786TIP3   OH238314   5.345   7.146   6.655
12786TIP3    H138315   5.266   7.093   6.663
12786TIP3    H238316   5.385   7.117   6.572
12787TIP3   OH238317   7.095   0.391   3.155
12787TIP3    H138318   7.001   0.403   3.168
12787TIP3    H238319   7.135   0.428   3.234
12788TIP3   OH238320   7.543   3.591   5.844
12788TIP3    H138321   7.581   3.679   5.845
12788TIP3    H238322   7.449   3.606   5.857
12789TIP3   OH238323   2.163   7.006   1.638
12789TIP3    H138324   2.121   7.070   1.697
12789TIP3    H238325   2.120   6.923   1.658
12790TIP3   OH238326   2.718   0.128   1.142
12790TIP3    H138327   2.777   0.189   1.186
12790TIP3    H238328   2.637   0.178   1.130
12791TIP3   OH238329   4.895   1.223   1.793
12791TIP3    H138330   4.957   1.161   1.753
12791TIP3    H238331   4.817   1.170   1.810
12792TIP3   OH238332   6.330   5.701   2.779
12792TIP3    H138333   6.394   5.706   2.849
12792TIP3    H238334   6.286   5.786   2.780
12793TIP3   OH238335   1.024   5.733   0.116
12793TIP3    H138336   1.067   5.764   0.036
12793TIP3    H238337   1.075   5.657   0.142
12794TIP3   OH238338   6.421   4.506   1.423
12794TIP3    H138339   6.482   4.578   1.438
12794TIP3    H238340   6.463   4.454   1.354
12795TIP3   OH238341   7.296   1.981   6.022
12795TIP3    H138342   7.318   1.972   6.115
12795TIP3    H238343   7.205   2.012   6.022
12796TIP3   OH238344   0.228   7.594   6.678
12796TIP3    H138345   0.141   7.631   6.694
12796TIP3    H238346   0.282   7.669   6.652
12797TIP3   OH238347   5.165   5.101   0.521
12797TIP3    H138348   5.113   5.037   0.571
12797TIP3    H238349   5.254   5.066   0.522
12798TIP3   OH238350   4.059   3.127   3.491
12798TIP3    H138351   4.078   3.220   3.498
12798TIP3    H238352   4.114   3.086   3.558
12799TIP3   OH238353   4.832   4.139   1.696
12799TIP3    H138354   4.746   4.181   1.693
12799TIP3    H238355   4.818   4.057   1.743
12800TIP3   OH238356   7.980   6.697   0.876
12800TIP3    H138357   7.994   6.791   0.887
12800TIP3    H238358   8.009   6.659   0.959
12801TIP3   OH238359   3.814   3.890   2.616
12801TIP3    H138360   3.820   3.984   2.601
12801TIP3    H238361   3.848   3.878   2.705
12802TIP3   OH238362   5.062   2.478   2.409
12802TIP3    H138363   5.008   2.552   2.436
12802TIP3    H238364   5.146   2.492   2.453
12803TIP3   OH238365   6.592   5.707   3.343
12803TIP3    H138366   6.557   5.783   3.295
12803TIP3    H238367   6.523   5.684   3.405
12804TIP3   OH238368   7.290   4.796   4.441
12804TIP3    H138369   7.194   4.788   4.438
12804TIP3    H238370   7.314   4.771   4.530
12805TIP3   OH238371   4.336   1.841   6.009
12805TIP3    H138372   4.368   1.874   6.093
12805TIP3    H238373   4.304   1.919   5.964
12806TIP3   OH238374   5.932   4.448   4.944
12806TIP3    H138375   5.999   4.387   4.975
12806TIP3    H238376   5.880   4.397   4.882
12807TIP3   OH238377   0.045   5.885   2.855
12807TIP3    H138378   0.000   5.857   2.935
12807TIP3    H238379  -0.020   5.871   2.786
12808TIP3   OH238380   7.662   2.725   5.626
12808TIP3    H138381   7.590   2.678   5.666
12808TIP3    H238382   7.720   2.748   5.700
12809TIP3   OH238383   4.093   3.992   2.739
12809TIP3    H138384   4.128   4.075   2.772
12809TIP3    H238385   4.024   3.969   2.801
12810TIP3   OH238386   4.334   2.879   0.608
12810TIP3    H138387   4.249   2.903   0.646
12810TIP3    H238388   4.315   2.802   0.555
12811TIP3   OH238389   6.536   7.444   5.906
12811TIP3    H138390   6.567   7.499   5.834
12811TIP3    H238391   6.441   7.448   5.900
12812TIP3   OH238392   2.282   0.799   3.492
12812TIP3    H138393   2.226   0.864   3.448
12812TIP3    H238394   2.329   0.756   3.421
12813TIP3   OH238395   0.467   7.471   0.006
12813TIP3    H138396   0.427   7.552  -0.024
12813TIP3    H238397   0.560   7.491   0.013
12814TIP3   OH238398   1.915   5.381   1.111
12814TIP3    H138399   1.904   5.429   1.193
12814TIP3    H238400   1.907   5.449   1.043
12815TIP3   OH238401   5.445   7.701   3.993
12815TIP3    H138402   5.531   7.684   3.955
12815TIP3    H238403   5.444   7.649   4.073
12816TIP3   OH238404   3.488   6.726   4.240
12816TIP3    H138405   3.551   6.657   4.219
12816TIP3    H238406   3.540   6.807   4.236
12817TIP3   OH238407   6.616   7.414   2.875
12817TIP3    H138408   6.562   7.457   2.941
12817TIP3    H238409   6.700   7.400   2.919
12818TIP3   OH238410   4.240   4.980   1.377
12818TIP3    H138411   4.282   5.027   1.450
12818TIP3    H238412   4.180   5.044   1.339
12819TIP3   OH238413   3.243   4.178   6.745
12819TIP3    H138414   3.190   4.188   6.824
12819TIP3    H238415   3.202   4.105   6.698
12820TIP3   OH238416   1.574   7.207   2.834
12820TIP3    H138417   1.557   7.299   2.858
12820TIP3    H238418   1.625   7.173   2.906
12821TIP3   OH238419   1.991   4.824   1.497
12821TIP3    H138420   2.054   4.754   1.512
12821TIP3    H238421   2.043   4.904   1.496
12822TIP3   OH238422   7.807   6.468   0.783
12822TIP3    H138423   7.855   6.548   0.805
12822TIP3    H238424   7.779   6.432   0.867
12823TIP3   OH238425   2.293   2.907   3.084
12823TIP3    H138426   2.321   2.964   3.155
12823TIP3    H238427   2.355   2.925   3.013
12824TIP3   OH238428   5.143   0.183   5.715
12824TIP3    H138429   5.144   0.129   5.636
12824TIP3    H238430   5.185   0.265   5.689
12825TIP3   OH238431   4.419   5.823   4.050
12825TIP3    H138432   4.387   5.736   4.074
12825TIP3    H238433   4.513   5.811   4.036
12826TIP3   OH238434   0.928   2.633   6.677
12826TIP3    H138435   0.943   2.683   6.758
12826TIP3    H238436   0.846   2.668   6.642
12827TIP3   OH238437   5.735   4.750   0.507
12827TIP3    H138438   5.716   4.841   0.527
12827TIP3    H238439   5.650   4.707   0.504
12828TIP3   OH238440   7.363   7.119   1.565
12828TIP3    H138441   7.417   7.055   1.612
12828TIP3    H238442   7.416   7.143   1.489
12829TIP3   OH238443   1.169   6.059   6.074
12829TIP3    H138444   1.166   6.110   6.155
12829TIP3    H238445   1.232   5.990   6.091
12830TIP3   OH238446   0.224   1.061   6.307
12830TIP3    H138447   0.234   1.063   6.212
12830TIP3    H238448   0.161   0.990   6.323
12831TIP3   OH238449   0.826   3.106   5.678
12831TIP3    H138450   0.892   3.157   5.725
12831TIP3    H238451   0.763   3.171   5.647
12832TIP3   OH238452   0.651   4.621   3.527
12832TIP3    H138453   0.676   4.596   3.438
12832TIP3    H238454   0.576   4.564   3.547
12833TIP3   OH238455   3.110   3.727   3.022
12833TIP3    H138456   3.025   3.720   3.066
12833TIP3    H238457   3.134   3.819   3.030
12834TIP3   OH238458   7.741   6.170   4.237
12834TIP3    H138459   7.673   6.122   4.190
12834TIP3    H238460   7.766   6.241   4.178
12835TIP3   OH238461   1.318   2.260   5.003
12835TIP3    H138462   1.385   2.228   4.944
12835TIP3    H238463   1.255   2.188   5.011
12836TIP3   OH238464   5.183   1.329   3.210
12836TIP3    H138465   5.217   1.299   3.125
12836TIP3    H238466   5.109   1.385   3.187
12837TIP3   OH238467   1.593   4.906   0.309
12837TIP3    H138468   1.572   4.823   0.266
12837TIP3    H238469   1.524   4.966   0.281
12838TIP3   OH238470   2.319   0.421   5.583
12838TIP3    H138471   2.354   0.431   5.672
12838TIP3    H238472   2.396   0.400   5.529
12839TIP3   OH238473   2.600   7.649   4.192
12839TIP3    H138474   2.647   7.567   4.208
12839TIP3    H238475   2.535   7.626   4.126
12840TIP3   OH238476   7.336   6.635   2.514
12840TIP3    H138477   7.420   6.589   2.514
12840TIP3    H238478   7.276   6.576   2.559
12841TIP3   OH238479   4.444   7.233   6.759
12841TIP3    H138480   4.482   7.178   6.827
12841TIP3    H238481   4.517   7.285   6.726
12842TIP3   OH238482   3.023   1.773   1.103
12842TIP3    H138483   3.074   1.833   1.049
12842TIP3    H238484   3.002   1.700   1.044
12843TIP3   OH238485   5.883   5.618   5.972
12843TIP3    H138486   5.930   5.692   6.010
12843TIP3    H238487   5.907   5.619   5.880
12844TIP3   OH238488   8.025   5.361   2.827
12844TIP3    H138489   8.089   5.407   2.881
12844TIP3    H238490   8.076   5.322   2.756
12845TIP3   OH238491   0.284   0.223   2.692
12845TIP3    H138492   0.220   0.200   2.625
12845TIP3    H238493   0.298   0.317   2.680
12846TIP3   OH238494   1.551   4.009   0.838
12846TIP3    H138495   1.584   3.919   0.840
12846TIP3    H238496   1.561   4.035   0.746
12847TIP3   OH238497   7.948   0.597   3.713
12847TIP3    H138498   7.949   0.667   3.648
12847TIP3    H238499   7.864   0.553   3.699
12848TIP3   OH238500   2.122   1.856   2.690
12848TIP3    H138501   2.036   1.888   2.662
12848TIP3    H238502   2.173   1.936   2.706
12849TIP3   OH238503   3.770   7.444   0.813
12849TIP3    H138504   3.741   7.425   0.902
12849TIP3    H238505   3.803   7.361   0.780
12850TIP3   OH238506   5.643   0.213   4.428
12850TIP3    H138507   5.586   0.138   4.411
12850TIP3    H238508   5.698   0.185   4.501
12851TIP3   OH238509   4.076   6.798   4.917
12851TIP3    H138510   4.154   6.847   4.893
12851TIP3    H238511   4.035   6.849   4.987
12852TIP3   OH238512   1.840   7.688   3.857
12852TIP3    H138513   1.911   7.624   3.865
12852TIP3    H238514   1.767   7.651   3.907
12853TIP3   OH238515   5.173   4.054   6.616
12853TIP3    H138516   5.203   4.021   6.701
12853TIP3    H238517   5.239   4.118   6.590
12854TIP3   OH238518   7.798   5.808   3.269
12854TIP3    H138519   7.758   5.774   3.349
12854TIP3    H238520   7.789   5.903   3.277
12855TIP3   OH238521   5.997   6.928   6.426
12855TIP3    H138522   5.967   7.014   6.398
12855TIP3    H238523   6.026   6.940   6.516
12856TIP3   OH238524   3.765   6.572   2.912
12856TIP3    H138525   3.778   6.665   2.933
12856TIP3    H238526   3.670   6.560   2.917
12857TIP3   OH238527   6.918   5.924   6.273
12857TIP3    H138528   6.987   5.859   6.263
12857TIP3    H238529   6.937   5.990   6.206
12858TIP3   OH238530   4.394   1.565   2.927
12858TIP3    H138531   4.382   1.508   2.851
12858TIP3    H238532   4.457   1.519   2.983
12859TIP3   OH238533   2.014   4.626   2.447
12859TIP3    H138534   1.938   4.571   2.428
12859TIP3    H238535   2.010   4.642   2.541
12860TIP3   OH238536   2.454   6.883   5.320
12860TIP3    H138537   2.447   6.861   5.413
12860TIP3    H238538   2.454   6.798   5.275
12861TIP3   OH238539   3.195   5.809   5.131
12861TIP3    H138540   3.216   5.864   5.055
12861TIP3    H238541   3.159   5.729   5.093
12862TIP3   OH238542   7.005   7.804   0.208
12862TIP3    H138543   6.976   7.761   0.128
12862TIP3    H238544   6.930   7.798   0.268
12863TIP3   OH238545   6.077   5.672   1.036
12863TIP3    H138546   5.988   5.691   1.064
12863TIP3    H238547   6.113   5.615   1.104
12864TIP3   OH238548   7.034   3.589   4.814
12864TIP3    H138549   7.081   3.673   4.821
12864TIP3    H238550   6.968   3.593   4.883
12865TIP3   OH238551   6.443   4.000   5.284
12865TIP3    H138552   6.489   4.083   5.298
12865TIP3    H238553   6.494   3.935   5.332
12866TIP3   OH238554   6.180   5.417   2.388
12866TIP3    H138555   6.250   5.369   2.431
12866TIP3    H238556   6.129   5.456   2.459
12867TIP3   OH238557   2.980   2.657   1.671
12867TIP3    H138558   3.065   2.700   1.658
12867TIP3    H238559   2.924   2.725   1.708
12868TIP3   OH238560   2.177   5.123   2.842
12868TIP3    H138561   2.151   5.200   2.791
12868TIP3    H238562   2.096   5.096   2.887
12869TIP3   OH238563   2.657   5.493   3.081
12869TIP3    H138564   2.665   5.445   3.164
12869TIP3    H238565   2.730   5.555   3.082
12870TIP3   OH238566   3.624   6.442   2.184
12870TIP3    H138567   3.699   6.501   2.195
12870TIP3    H238568   3.654   6.377   2.121
12871TIP3   OH238569   3.700   0.223   6.628
12871TIP3    H138570   3.680   0.257   6.540
12871TIP3    H238571   3.762   0.286   6.664
12872TIP3   OH238572   4.915   3.785   1.270
12872TIP3    H138573   4.894   3.695   1.247
12872TIP3    H238574   4.894   3.793   1.363
12873TIP3   OH238575   3.161   5.695   5.665
12873TIP3    H138576   3.234   5.754   5.647
12873TIP3    H238577   3.094   5.752   5.702
12874TIP3   OH238578   4.626   2.753   5.326
12874TIP3    H138579   4.596   2.786   5.411
12874TIP3    H238580   4.573   2.800   5.262
12875TIP3   OH238581   5.825   5.610   0.797
12875TIP3    H138582   5.831   5.668   0.873
12875TIP3    H238583   5.915   5.602   0.766
12876TIP3   OH238584   1.771   1.814   5.169
12876TIP3    H138585   1.766   1.853   5.257
12876TIP3    H238586   1.821   1.878   5.118
12877TIP3   OH238587   2.132   6.618   2.413
12877TIP3    H138588   2.079   6.579   2.482
12877TIP3    H238589   2.158   6.704   2.448
12878TIP3   OH238590   6.378   0.825   5.131
12878TIP3    H138591   6.437   0.849   5.059
12878TIP3    H238592   6.406   0.880   5.204
12879TIP3   OH238593   1.871   2.559   3.052
12879TIP3    H138594   1.924   2.629   3.092
12879TIP3    H238595   1.861   2.495   3.123
12880TIP3   OH238596   4.985   6.899   5.312
12880TIP3    H138597   5.028   6.928   5.232
12880TIP3    H238598   4.996   6.972   5.373
12881TIP3   OH238599   5.339   1.775   3.106
12881TIP3    H138600   5.364   1.709   3.041
12881TIP3    H238601   5.343   1.729   3.190
12882TIP3   OH238602   6.670   4.508   4.130
12882TIP3    H138603   6.749   4.490   4.079
12882TIP3    H238604   6.634   4.421   4.148
12883TIP3   OH238605   6.200   7.777   2.494
12883TIP3    H138606   6.146   7.855   2.498
12883TIP3    H238607   6.210   7.759   2.400
12884TIP3   OH238608   4.149   1.687   0.765
12884TIP3    H138609   4.071   1.641   0.795
12884TIP3    H238610   4.219   1.658   0.824
12885TIP3   OH238611   3.531   3.515   5.064
12885TIP3    H138612   3.586   3.439   5.046
12885TIP3    H238613   3.448   3.496   5.022
12886TIP3   OH238614   8.270   6.031   1.857
12886TIP3    H138615   8.309   5.947   1.830
12886TIP3    H238616   8.218   6.059   1.782
12887TIP3   OH238617   1.028   0.566   5.168
12887TIP3    H138618   0.975   0.574   5.247
12887TIP3    H238619   1.079   0.647   5.164
12888TIP3   OH238620   4.901   1.688   2.093
12888TIP3    H138621   4.815   1.726   2.112
12888TIP3    H238622   4.927   1.729   2.011
12889TIP3   OH238623   7.996   2.207   3.168
12889TIP3    H138624   7.912   2.253   3.170
12889TIP3    H238625   8.059   2.273   3.140
12890TIP3   OH238626   4.522   1.559   2.104
12890TIP3    H138627   4.597   1.612   2.132
12890TIP3    H238628   4.557   1.472   2.091
12891TIP3   OH238629   2.667   7.116   0.076
12891TIP3    H138630   2.641   7.026   0.059
12891TIP3    H238631   2.744   7.130   0.021
12892TIP3   OH238632   0.603   6.534   5.741
12892TIP3    H138633   0.544   6.583   5.797
12892TIP3    H238634   0.677   6.593   5.726
12893TIP3   OH238635   0.097   4.454   5.851
12893TIP3    H138636   0.131   4.521   5.791
12893TIP3    H238637   0.009   4.436   5.819
12894TIP3   OH238638   4.179   1.384   5.415
12894TIP3    H138639   4.139   1.431   5.341
12894TIP3    H238640   4.119   1.400   5.488
12895TIP3   OH238641   5.365   2.616   3.230
12895TIP3    H138642   5.434   2.657   3.177
12895TIP3    H238643   5.384   2.645   3.319
12896TIP3   OH238644   8.229   3.789   2.550
12896TIP3    H138645   8.294   3.790   2.480
12896TIP3    H238646   8.145   3.806   2.506
12897TIP3   OH238647   0.218   4.392   0.871
12897TIP3    H138648   0.273   4.317   0.895
12897TIP3    H238649   0.264   4.468   0.908
12898TIP3   OH238650   0.317   0.189   5.831
12898TIP3    H138651   0.331   0.144   5.915
12898TIP3    H238652   0.244   0.248   5.848
12899TIP3   OH238653   4.851   5.514   6.747
12899TIP3    H138654   4.875   5.605   6.764
12899TIP3    H238655   4.887   5.466   6.822
12900TIP3   OH238656   7.521   6.702   1.424
12900TIP3    H138657   7.484   6.746   1.347
12900TIP3    H238658   7.445   6.675   1.475
12901TIP3   OH238659   6.805   2.329   4.373
12901TIP3    H138660   6.867   2.283   4.316
12901TIP3    H238661   6.785   2.265   4.441
12902TIP3   OH238662   3.350   5.522   4.446
12902TIP3    H138663   3.408   5.540   4.372
12902TIP3    H238664   3.341   5.606   4.491
12903TIP3   OH238665   6.891   4.141   5.439
12903TIP3    H138666   6.869   4.116   5.529
12903TIP3    H238667   6.845   4.077   5.385
12904TIP3   OH238668   4.508   2.838   5.557
12904TIP3    H138669   4.418   2.806   5.559
12904TIP3    H238670   4.507   2.915   5.613
12905TIP3   OH238671   7.881   3.927   2.724
12905TIP3    H138672   7.831   4.003   2.695
12905TIP3    H238673   7.971   3.946   2.698
12906TIP3   OH238674   2.781   6.942   6.344
12906TIP3    H138675   2.820   7.017   6.300
12906TIP3    H238676   2.714   6.980   6.401
12907TIP3   OH238677   1.549   6.579   6.608
12907TIP3    H138678   1.613   6.577   6.679
12907TIP3    H238679   1.530   6.486   6.591
12908TIP3   OH238680   1.647   4.267   0.314
12908TIP3    H138681   1.740   4.275   0.331
12908TIP3    H238682   1.637   4.291   0.222
12909TIP3   OH238683  -0.022   4.673   1.111
12909TIP3    H138684  -0.029   4.583   1.143
12909TIP3    H238685   0.003   4.663   1.019
12910TIP3   OH238686   7.980   5.837   3.602
12910TIP3    H138687   8.052   5.899   3.612
12910TIP3    H238688   7.978   5.788   3.684
12911TIP3   OH238689   5.632   3.302   2.040
12911TIP3    H138690   5.685   3.230   2.006
12911TIP3    H238691   5.660   3.378   1.990
12912TIP3   OH238692   5.689   3.155   1.415
12912TIP3    H138693   5.597   3.161   1.442
12912TIP3    H238694   5.694   3.208   1.335
12913TIP3   OH238695   6.892   7.415   4.747
12913TIP3    H138696   6.824   7.468   4.704
12913TIP3    H238697   6.915   7.349   4.681
12914TIP3   OH238698   4.433   5.708   5.195
12914TIP3    H138699   4.374   5.744   5.261
12914TIP3    H238700   4.375   5.659   5.136
12915TIP3   OH238701   4.610   3.442   3.429
12915TIP3    H138702   4.583   3.532   3.410
12915TIP3    H238703   4.570   3.423   3.513
12916TIP3   OH238704   3.678   1.570   5.540
12916TIP3    H138705   3.618   1.627   5.492
12916TIP3    H238706   3.655   1.482   5.510
12917TIP3   OH238707   1.287   5.655   2.136
12917TIP3    H138708   1.200   5.623   2.163
12917TIP3    H238709   1.279   5.750   2.139
12918TIP3   OH238710   4.939   3.814   4.791
12918TIP3    H138711   5.020   3.821   4.741
12918TIP3    H238712   4.908   3.725   4.776
12919TIP3   OH238713   4.005   1.062   6.076
12919TIP3    H138714   4.096   1.089   6.079
12919TIP3    H238715   3.956   1.139   6.107
12920TIP3   OH238716   0.642   0.391   5.942
12920TIP3    H138717   0.689   0.422   6.019
12920TIP3    H238718   0.574   0.333   5.976
12921TIP3   OH238719   7.407   6.778   5.048
12921TIP3    H138720   7.329   6.735   5.013
12921TIP3    H238721   7.455   6.807   4.970
12922TIP3   OH238722   5.265   5.881   2.165
12922TIP3    H138723   5.205   5.883   2.240
12922TIP3    H238724   5.305   5.794   2.168
12923TIP3   OH238725   5.336   2.112   1.778
12923TIP3    H138726   5.398   2.170   1.823
12923TIP3    H238727   5.388   2.073   1.708
12924TIP3   OH238728   1.477   5.830   2.324
12924TIP3    H138729   1.529   5.760   2.362
12924TIP3    H238730   1.498   5.828   2.231
12925TIP3   OH238731   2.766   6.321   5.802
12925TIP3    H138732   2.793   6.275   5.723
12925TIP3    H238733   2.848   6.336   5.850
12926TIP3   OH238734   3.201   2.490   2.750
12926TIP3    H138735   3.110   2.461   2.751
12926TIP3    H238736   3.208   2.552   2.823
12927TIP3   OH238737   7.346   3.256   2.432
12927TIP3    H138738   7.340   3.329   2.370
12927TIP3    H238739   7.267   3.205   2.416
12928TIP3   OH238740   2.935   4.691   6.722
12928TIP3    H138741   2.973   4.688   6.634
12928TIP3    H238742   2.907   4.601   6.739
12929TIP3   OH238743   5.025   3.667   3.247
12929TIP3    H138744   4.983   3.587   3.277
12929TIP3    H238745   5.109   3.670   3.293
12930TIP3   OH238746   8.289   6.760   4.813
12930TIP3    H138747   8.230   6.810   4.870
12930TIP3    H238748   8.296   6.675   4.856
12931TIP3   OH238749   0.333   7.282   1.783
12931TIP3    H138750   0.278   7.268   1.706
12931TIP3    H238751   0.414   7.235   1.764
12932TIP3   OH238752   7.349   2.611   5.125
12932TIP3    H138753   7.271   2.561   5.149
12932TIP3    H238754   7.321   2.661   5.048
12933TIP3   OH238755   7.037   0.304   2.179
12933TIP3    H138756   6.954   0.323   2.222
12933TIP3    H238757   7.036   0.210   2.164
12934TIP3   OH238758   0.300   4.622   1.339
12934TIP3    H138759   0.207   4.621   1.317
12934TIP3    H238760   0.305   4.668   1.423
12935TIP3   OH238761   0.443   0.788   1.533
12935TIP3    H138762   0.367   0.775   1.590
12935TIP3    H238763   0.413   0.758   1.446
12936TIP3   OH238764   0.703   7.669   5.781
12936TIP3    H138765   0.681   7.752   5.739
12936TIP3    H238766   0.632   7.656   5.844
12937TIP3   OH238767   3.870   2.610   2.096
12937TIP3    H138768   3.775   2.624   2.098
12937TIP3    H238769   3.901   2.665   2.025
12938TIP3   OH238770   0.848   3.380   2.847
12938TIP3    H138771   0.774   3.396   2.789
12938TIP3    H238772   0.909   3.327   2.796
12939TIP3   OH238773   1.610   3.419   1.904
12939TIP3    H138774   1.609   3.499   1.851
12939TIP3    H238775   1.648   3.446   1.987
12940TIP3   OH238776   0.260   0.378   5.040
12940TIP3    H138777   0.238   0.291   5.072
12940TIP3    H238778   0.318   0.363   4.965
12941TIP3   OH238779   6.676   7.148   0.393
12941TIP3    H138780   6.753   7.187   0.435
12941TIP3    H238781   6.709   7.070   0.350
12942TIP3   OH238782   7.596   5.027  -0.005
12942TIP3    H138783   7.506   5.043  -0.034
12942TIP3    H238784   7.610   5.090   0.066
12943TIP3   OH238785   6.743   3.184   6.228
12943TIP3    H138786   6.713   3.274   6.214
12943TIP3    H238787   6.736   3.143   6.142
12944TIP3   OH238788   5.785   0.614   5.528
12944TIP3    H138789   5.731   0.535   5.529
12944TIP3    H238790   5.737   0.675   5.472
12945TIP3   OH238791   6.761   0.460   0.559
12945TIP3    H138792   6.754   0.519   0.634
12945TIP3    H238793   6.789   0.517   0.487
12946TIP3   OH238794   1.338   3.635   3.415
12946TIP3    H138795   1.377   3.655   3.330
12946TIP3    H238796   1.289   3.554   3.401
12947TIP3   OH238797   0.802   7.393   2.856
12947TIP3    H138798   0.856   7.459   2.813
12947TIP3    H238799   0.765   7.438   2.932
12948TIP3   OH238800   0.220   2.891   4.693
12948TIP3    H138801   0.153   2.837   4.736
12948TIP3    H238802   0.273   2.829   4.644
12949TIP3   OH238803   1.296   4.968   1.597
12949TIP3    H138804   1.289   4.876   1.622
12949TIP3    H238805   1.301   5.015   1.680
12950TIP3   OH238806   2.784   0.823   2.712
12950TIP3    H138807   2.846   0.782   2.772
12950TIP3    H238808   2.751   0.899   2.760
12951TIP3   OH238809   1.951   3.485   4.488
12951TIP3    H138810   1.956   3.462   4.395
12951TIP3    H238811   1.913   3.408   4.529
12952TIP3   OH238812   5.300   0.876   5.150
12952TIP3    H138813   5.329   0.922   5.229
12952TIP3    H238814   5.205   0.888   5.150
12953TIP3   OH238815   2.647   4.635   6.455
12953TIP3    H138816   2.657   4.730   6.455
12953TIP3    H238817   2.736   4.602   6.462
12954TIP3   OH238818   0.805   7.839   1.940
12954TIP3    H138819   0.890   7.796   1.934
12954TIP3    H238820   0.783   7.861   1.849
12955TIP3   OH238821   0.611   4.388   1.907
12955TIP3    H138822   0.590   4.365   1.817
12955TIP3    H238823   0.631   4.482   1.903
12956TIP3   OH238824   3.789   1.762   2.981
12956TIP3    H138825   3.868   1.809   3.008
12956TIP3    H238826   3.817   1.711   2.905
12957TIP3   OH238827   3.069   3.406   5.552
12957TIP3    H138828   3.073   3.397   5.647
12957TIP3    H238829   3.119   3.486   5.534
12958TIP3   OH238830   1.450   0.953   1.662
12958TIP3    H138831   1.388   0.986   1.596
12958TIP3    H238832   1.530   0.937   1.612
12959TIP3   OH238833   7.783   3.512   4.753
12959TIP3    H138834   7.765   3.457   4.830
12959TIP3    H238835   7.718   3.484   4.689
12960TIP3   OH238836   4.737   4.155   4.640
12960TIP3    H138837   4.695   4.205   4.710
12960TIP3    H238838   4.827   4.187   4.638
12961TIP3   OH238839   1.521   4.926   4.568
12961TIP3    H138840   1.614   4.921   4.548
12961TIP3    H238841   1.517   4.927   4.664
12962TIP3   OH238842   4.440   2.136   4.504
12962TIP3    H138843   4.525   2.092   4.513
12962TIP3    H238844   4.435   2.194   4.580
12963TIP3   OH238845   4.620   0.078   1.723
12963TIP3    H138846   4.624   0.172   1.705
12963TIP3    H238847   4.690   0.041   1.669
12964TIP3   OH238848   7.517   0.208   6.663
12964TIP3    H138849   7.566   0.283   6.696
12964TIP3    H238850   7.584   0.150   6.627
12965TIP3   OH238851   3.798   0.930   5.458
12965TIP3    H138852   3.856   0.924   5.382
12965TIP3    H238853   3.837   0.871   5.522
12966TIP3   OH238854   5.518   3.625   3.547
12966TIP3    H138855   5.502   3.531   3.545
12966TIP3    H238856   5.543   3.644   3.637
12967TIP3   OH238857   5.167   3.825   4.635
12967TIP3    H138858   5.254   3.817   4.674
12967TIP3    H238859   5.172   3.904   4.582
12968TIP3   OH238860   6.474   0.478   0.279
12968TIP3    H138861   6.551   0.421   0.276
12968TIP3    H238862   6.405   0.424   0.318
12969TIP3   OH238863   2.032   2.364   3.643
12969TIP3    H138864   1.982   2.441   3.615
12969TIP3    H238865   1.981   2.328   3.715
12970TIP3   OH238866   0.878   3.742   5.931
12970TIP3    H138867   0.801   3.740   5.873
12970TIP3    H238868   0.948   3.777   5.875
12971TIP3   OH238869   0.122   6.795   3.131
12971TIP3    H138870   0.201   6.844   3.152
12971TIP3    H238871   0.061   6.859   3.095
12972TIP3   OH238872   7.631   6.621   4.640
12972TIP3    H138873   7.600   6.712   4.646
12972TIP3    H238874   7.676   6.606   4.724
12973TIP3   OH238875   2.871   3.625   0.072
12973TIP3    H138876   2.801   3.560   0.058
12973TIP3    H238877   2.950   3.572   0.086
12974TIP3   OH238878   1.474   6.633   0.153
12974TIP3    H138879   1.415   6.696   0.111
12974TIP3    H238880   1.483   6.562   0.089
12975TIP3   OH238881   5.769   7.455   2.872
12975TIP3    H138882   5.677   7.456   2.847
12975TIP3    H238883   5.786   7.543   2.905
12976TIP3   OH238884   7.653   0.824   5.471
12976TIP3    H138885   7.747   0.822   5.452
12976TIP3    H238886   7.637   0.912   5.503
12977TIP3   OH238887   7.407   3.007   5.302
12977TIP3    H138888   7.332   3.061   5.276
12977TIP3    H238889   7.422   2.949   5.228
12978TIP3   OH238890   1.966   3.724   4.127
12978TIP3    H138891   2.001   3.807   4.159
12978TIP3    H238892   1.874   3.725   4.152
12979TIP3   OH238893   6.970   5.921   5.725
12979TIP3    H138894   6.964   5.966   5.641
12979TIP3    H238895   7.003   5.834   5.704
12980TIP3   OH238896   3.969   1.479   0.109
12980TIP3    H138897   4.013   1.564   0.107
12980TIP3    H238898   3.913   1.482   0.186
12981TIP3   OH238899   7.282   5.889   5.689
12981TIP3    H138900   7.337   5.945   5.635
12981TIP3    H238901   7.199   5.883   5.642
12982TIP3   OH238902   7.179   3.454   3.922
12982TIP3    H138903   7.128   3.380   3.889
12982TIP3    H238904   7.237   3.415   3.988
12983TIP3   OH238905   2.458   3.127   5.034
12983TIP3    H138906   2.521   3.121   4.962
12983TIP3    H238907   2.373   3.112   4.993
12984TIP3   OH238908   5.354   4.335   3.280
12984TIP3    H138909   5.397   4.354   3.363
12984TIP3    H238910   5.327   4.421   3.248
12985TIP3   OH238911   7.099   4.062   0.690
12985TIP3    H138912   7.133   4.073   0.601
12985TIP3    H238913   7.041   4.136   0.703
12986TIP3   OH238914   3.441   5.684   2.437
12986TIP3    H138915   3.425   5.678   2.531
12986TIP3    H238916   3.380   5.751   2.407
12987TIP3   OH238917   0.692   4.859   6.677
12987TIP3    H138918   0.697   4.853   6.772
12987TIP3    H238919   0.720   4.948   6.656
12988TIP3   OH238920   6.052   1.768   0.398
12988TIP3    H138921   6.062   1.770   0.494
12988TIP3    H238922   5.963   1.734   0.384
12989TIP3   OH238923   4.048   0.058   4.132
12989TIP3    H138924   4.056  -0.028   4.173
12989TIP3    H238925   4.016   0.115   4.202
12990TIP3   OH238926   7.473   2.130   3.716
12990TIP3    H138927   7.390   2.086   3.696
12990TIP3    H238928   7.512   2.077   3.785
12991TIP3   OH238929   2.684   2.680   3.298
12991TIP3    H138930   2.671   2.773   3.280
12991TIP3    H238931   2.778   2.673   3.318
12992TIP3   OH238932   7.518   7.786   5.134
12992TIP3    H138933   7.546   7.877   5.125
12992TIP3    H238934   7.475   7.783   5.219
12993TIP3   OH238935   5.700   5.034   0.355
12993TIP3    H138936   5.671   5.017   0.265
12993TIP3    H238937   5.714   4.947   0.392
12994TIP3   OH238938   5.295   0.521   4.891
12994TIP3    H138939   5.257   0.573   4.821
12994TIP3    H238940   5.257   0.434   4.879
12995TIP3   OH238941   1.843   2.179   5.839
12995TIP3    H138942   1.837   2.217   5.927
12995TIP3    H238943   1.796   2.096   5.845
12996TIP3   OH238944   7.174   1.126   4.814
12996TIP3    H138945   7.233   1.085   4.750
12996TIP3    H238946   7.129   1.194   4.764
12997TIP3   OH238947   7.964   3.102   1.905
12997TIP3    H138948   7.944   3.152   1.984
12997TIP3    H238949   8.037   3.150   1.864
12998TIP3   OH238950   0.292   3.237   5.628
12998TIP3    H138951   0.358   3.293   5.587
12998TIP3    H238952   0.216   3.244   5.572
12999TIP3   OH238953   1.988   7.222   2.591
12999TIP3    H138954   1.962   7.253   2.678
12999TIP3    H238955   2.009   7.302   2.543
13000TIP3   OH238956   5.644   1.363   2.288
13000TIP3    H138957   5.739   1.358   2.294
13000TIP3    H238958   5.621   1.296   2.223
13001TIP3   OH238959   4.806   2.211   2.241
13001TIP3    H138960   4.756   2.130   2.228
13001TIP3    H238961   4.748   2.280   2.209
13002TIP3   OH238962   1.633   0.583   2.886
13002TIP3    H138963   1.593   0.578   2.799
13002TIP3    H238964   1.635   0.493   2.917
13003TIP3   OH238965   6.980   1.805   3.602
13003TIP3    H138966   7.008   1.887   3.561
13003TIP3    H238967   6.884   1.811   3.603
13004TIP3   OH238968   6.133   0.568   0.361
13004TIP3    H138969   6.119   0.589   0.269
13004TIP3    H238970   6.187   0.489   0.360
13005TIP3   OH238971   4.461   3.516   3.982
13005TIP3    H138972   4.488   3.465   4.058
13005TIP3    H238973   4.367   3.529   3.994
13006TIP3   OH238974   4.459   2.022   3.075
13006TIP3    H138975   4.431   2.111   3.057
13006TIP3    H238976   4.454   1.978   2.990
13007TIP3   OH238977   6.403   2.221   1.886
13007TIP3    H138978   6.454   2.272   1.823
13007TIP3    H238979   6.466   2.196   1.954
13008TIP3   OH238980   1.150   6.449   0.292
13008TIP3    H138981   1.103   6.365   0.290
13008TIP3    H238982   1.118   6.492   0.371
13009TIP3   OH238983   2.279   3.301   6.355
13009TIP3    H138984   2.227   3.303   6.435
13009TIP3    H238985   2.369   3.308   6.385
13010TIP3   OH238986   2.314   0.337   6.730
13010TIP3    H138987   2.271   0.257   6.761
13010TIP3    H238988   2.404   0.310   6.711
13011TIP3   OH238989   7.285   0.229   6.046
13011TIP3    H138990   7.206   0.254   5.998
13011TIP3    H238991   7.355   0.278   6.004
13012TIP3   OH238992   0.499   1.251   3.958
13012TIP3    H138993   0.538   1.331   3.923
13012TIP3    H238994   0.408   1.254   3.927
13013TIP3   OH238995   0.514   1.932   1.789
13013TIP3    H138996   0.444   1.994   1.807
13013TIP3    H238997   0.493   1.856   1.843
13014TIP3   OH238998   5.829   2.279   6.466
13014TIP3    H138999   5.812   2.351   6.526
13014TIP3    H239000   5.746   2.231   6.462
13015TIP3   OH239001   1.192   6.464   3.616
13015TIP3    H139002   1.156   6.378   3.594
13015TIP3    H239003   1.141   6.493   3.692
13016TIP3   OH239004   5.697   1.918   4.279
13016TIP3    H139005   5.772   1.862   4.303
13016TIP3    H239006   5.634   1.858   4.240
13017TIP3   OH239007   6.947   2.895   4.364
13017TIP3    H139008   6.914   2.982   4.341
13017TIP3    H239009   7.038   2.896   4.335
13018TIP3   OH239010   2.240   2.456   5.564
13018TIP3    H139011   2.173   2.487   5.503
13018TIP3    H239012   2.197   2.454   5.649
13019TIP3   OH239013   2.726   2.623   4.763
13019TIP3    H139014   2.668   2.571   4.818
13019TIP3    H239015   2.808   2.574   4.760
13020TIP3   OH239016   4.348   3.935   4.892
13020TIP3    H139017   4.275   3.988   4.860
13020TIP3    H239018   4.415   3.999   4.917
13021TIP3   OH239019   6.427   6.789   6.235
13021TIP3    H139020   6.465   6.835   6.309
13021TIP3    H239021   6.333   6.807   6.241
13022TIP3   OH239022   5.955   2.597   5.885
13022TIP3    H139023   6.006   2.649   5.823
13022TIP3    H239024   6.016   2.580   5.958
13023TIP3   OH239025   2.506   5.459   6.359
13023TIP3    H139026   2.511   5.383   6.301
13023TIP3    H239027   2.564   5.523   6.319
13024TIP3   OH239028   4.456   5.942   6.784
13024TIP3    H139029   4.453   5.982   6.698
13024TIP3    H239030   4.438   5.849   6.768
13025TIP3   OH239031   6.550   2.163   4.228
13025TIP3    H139032   6.483   2.111   4.273
13025TIP3    H239033   6.501   2.228   4.179
13026TIP3   OH239034   6.056   3.696   5.301
13026TIP3    H139035   6.148   3.694   5.277
13026TIP3    H239036   6.018   3.765   5.247
13027TIP3   OH239037   3.701   7.445   5.745
13027TIP3    H139038   3.660   7.365   5.714
13027TIP3    H239039   3.642   7.515   5.715
13028TIP3   OH239040   7.172   3.088   0.906
13028TIP3    H139041   7.173   3.068   0.812
13028TIP3    H239042   7.097   3.146   0.917
13029TIP3   OH239043   2.397   4.366   3.289
13029TIP3    H139044   2.493   4.372   3.299
13029TIP3    H239045   2.363   4.397   3.373
13030TIP3   OH239046   1.113   7.163   0.701
13030TIP3    H139047   1.133   7.255   0.688
13030TIP3    H239048   1.148   7.120   0.623
13031TIP3   OH239049   2.982   7.493   4.070
13031TIP3    H139050   2.992   7.487   4.165
13031TIP3    H239051   2.957   7.405   4.043
13032TIP3   OH239052   0.229   7.635   1.305
13032TIP3    H139053   0.301   7.660   1.247
13032TIP3    H239054   0.151   7.640   1.250
13033TIP3   OH239055   0.501   7.679   4.592
13033TIP3    H139056   0.411   7.646   4.593
13033TIP3    H239057   0.555   7.602   4.608
13034TIP3   OH239058   6.145   5.940   0.959
13034TIP3    H139059   6.136   5.953   1.053
13034TIP3    H239060   6.162   5.846   0.949
13035TIP3   OH239061   1.735   5.051   6.609
13035TIP3    H139062   1.725   5.087   6.697
13035TIP3    H239063   1.695   5.117   6.552
13036TIP3   OH239064   7.952   7.016   6.437
13036TIP3    H139065   7.865   7.006   6.475
13036TIP3    H239066   7.961   7.109   6.420
13037TIP3   OH239067   6.558   6.857   1.443
13037TIP3    H139068   6.621   6.861   1.371
13037TIP3    H239069   6.513   6.774   1.431
13038TIP3   OH239070   6.051   0.722   3.055
13038TIP3    H139071   6.005   0.641   3.035
13038TIP3    H239072   6.038   0.777   2.978
13039TIP3   OH239073   6.723   1.935   4.242
13039TIP3    H139074   6.696   2.022   4.213
13039TIP3    H239075   6.739   1.945   4.336
13040TIP3   OH239076   6.284   2.233   0.264
13040TIP3    H139077   6.373   2.216   0.231
13040TIP3    H239078   6.238   2.150   0.251
13041TIP3   OH239079   3.578   5.628   2.921
13041TIP3    H139080   3.554   5.536   2.907
13041TIP3    H239081   3.674   5.627   2.926
13042TIP3   OH239082   3.277   1.534   4.511
13042TIP3    H139083   3.190   1.497   4.498
13042TIP3    H239084   3.262   1.626   4.532
13043TIP3   OH239085   2.357   2.252   2.879
13043TIP3    H139086   2.398   2.309   2.814
13043TIP3    H239087   2.312   2.311   2.938
13044TIP3   OH239088   1.189   5.690   5.706
13044TIP3    H139089   1.149   5.742   5.775
13044TIP3    H239090   1.115   5.656   5.655
13045TIP3   OH239091   6.631   7.620   4.633
13045TIP3    H139092   6.573   7.690   4.663
13045TIP3    H239093   6.712   7.665   4.608
13046TIP3   OH239094   0.693   1.825   6.606
13046TIP3    H139095   0.773   1.867   6.637
13046TIP3    H239096   0.628   1.895   6.601
13047TIP3   OH239097   3.634   6.456   5.470
13047TIP3    H139098   3.683   6.520   5.419
13047TIP3    H239099   3.597   6.396   5.405
13048TIP3   OH239100   1.767   1.139   4.781
13048TIP3    H139101   1.852   1.172   4.811
13048TIP3    H239102   1.771   1.146   4.686
13049TIP3   OH239103   3.591   2.858   3.862
13049TIP3    H139104   3.679   2.895   3.869
13049TIP3    H239105   3.539   2.927   3.821
13050TIP3   OH239106   0.156   7.200   1.478
13050TIP3    H139107   0.193   7.256   1.410
13050TIP3    H239108   0.075   7.245   1.504
13051TIP3   OH239109   1.023   5.610   5.121
13051TIP3    H139110   1.116   5.629   5.132
13051TIP3    H239111   0.982   5.696   5.112
13052TIP3   OH239112   0.575   0.390   5.129
13052TIP3    H139113   0.518   0.358   5.199
13052TIP3    H239114   0.517   0.439   5.072
13053TIP3   OH239115   0.165   1.524   0.904
13053TIP3    H139116   0.211   1.530   0.820
13053TIP3    H239117   0.086   1.576   0.892
13054TIP3   OH239118   1.834   3.176   6.693
13054TIP3    H139119   1.856   3.264   6.723
13054TIP3    H239120   1.773   3.143   6.758
13055TIP3   OH239121   1.918   4.209   2.642
13055TIP3    H139122   1.916   4.129   2.694
13055TIP3    H239123   1.848   4.263   2.679
13056TIP3   OH239124   2.496   0.643   0.714
13056TIP3    H139125   2.456   0.685   0.790
13056TIP3    H239126   2.424   0.628   0.653
13057TIP3   OH239127   5.973   0.583   2.053
13057TIP3    H139128   5.973   0.679   2.056
13057TIP3    H239129   5.917   0.562   1.979
13058TIP3   OH239130   0.439   4.793   5.861
13058TIP3    H139131   0.392   4.768   5.940
13058TIP3    H239132   0.394   4.746   5.790
13059TIP3   OH239133   6.015   2.832   4.529
13059TIP3    H139134   6.067   2.776   4.587
13059TIP3    H239135   5.981   2.772   4.462
13060TIP3   OH239136   7.336   1.502   6.581
13060TIP3    H139137   7.319   1.551   6.501
13060TIP3    H239138   7.263   1.525   6.639
13061TIP3   OH239139   6.024   0.382   6.729
13061TIP3    H139140   6.042   0.288   6.729
13061TIP3    H239141   5.972   0.397   6.651
13062TIP3   OH239142   2.443   1.988   1.722
13062TIP3    H139143   2.423   1.895   1.713
13062TIP3    H239144   2.536   1.990   1.746
13063TIP3   OH239145   4.294   7.197   2.595
13063TIP3    H139146   4.281   7.102   2.586
13063TIP3    H239147   4.388   7.209   2.588
13064TIP3   OH239148   1.302   2.704   1.071
13064TIP3    H139149   1.392   2.709   1.104
13064TIP3    H239150   1.312   2.698   0.976
13065TIP3   OH239151   3.271   3.019   5.452
13065TIP3    H139152   3.246   2.959   5.522
13065TIP3    H239153   3.334   2.969   5.399
13066TIP3   OH239154   1.490   5.829   4.523
13066TIP3    H139155   1.557   5.762   4.535
13066TIP3    H239156   1.418   5.802   4.581
13067TIP3   OH239157   4.849   3.333   2.031
13067TIP3    H139158   4.821   3.354   2.120
13067TIP3    H239159   4.923   3.391   2.015
13068TIP3   OH239160   3.170   1.840   5.227
13068TIP3    H139161   3.227   1.832   5.303
13068TIP3    H239162   3.210   1.784   5.161
13069TIP3   OH239163   1.133   4.543   3.047
13069TIP3    H139164   1.190   4.618   3.032
13069TIP3    H239165   1.181   4.490   3.111
13070TIP3   OH239166   3.428   3.398   3.621
13070TIP3    H139167   3.457   3.485   3.651
13070TIP3    H239168   3.365   3.417   3.551
13071TIP3   OH239169   6.276   2.208   1.472
13071TIP3    H139170   6.287   2.173   1.384
13071TIP3    H239171   6.316   2.142   1.529
13072TIP3   OH239172   0.155   2.576   0.448
13072TIP3    H139173   0.088   2.522   0.491
13072TIP3    H239174   0.139   2.563   0.354
13073TIP3   OH239175   5.913   7.065   3.285
13073TIP3    H139176   5.947   7.058   3.196
13073TIP3    H239177   5.843   7.129   3.279
13074TIP3   OH239178   7.879   2.781   5.431
13074TIP3    H139179   7.861   2.875   5.440
13074TIP3    H239180   7.838   2.741   5.508
13075TIP3   OH239181   0.852   6.121   4.702
13075TIP3    H139182   0.870   6.053   4.766
13075TIP3    H239183   0.764   6.151   4.722
13076TIP3   OH239184   7.314   5.370   4.086
13076TIP3    H139185   7.239   5.424   4.110
13076TIP3    H239186   7.308   5.361   3.991
13077TIP3   OH239187   5.866   3.785   5.915
13077TIP3    H139188   5.917   3.706   5.895
13077TIP3    H239189   5.863   3.833   5.832
13078TIP3   OH239190   6.208   4.815   4.870
13078TIP3    H139191   6.123   4.782   4.899
13078TIP3    H239192   6.272   4.768   4.923
13079TIP3   OH239193   1.043   0.544   1.966
13079TIP3    H139194   1.106   0.613   1.988
13079TIP3    H239195   1.024   0.558   1.873
13080TIP3   OH239196   2.129   0.260   4.301
13080TIP3    H139197   2.066   0.213   4.356
13080TIP3    H239198   2.121   0.219   4.215
13081TIP3   OH239199   3.944   6.034   3.966
13081TIP3    H139200   3.865   5.981   3.958
13081TIP3    H239201   3.939   6.072   4.054
13082TIP3   OH239202   0.872   3.109   3.956
13082TIP3    H139203   0.852   3.017   3.939
13082TIP3    H239204   0.967   3.111   3.967
13083TIP3   OH239205   3.499   0.439   0.335
13083TIP3    H139206   3.594   0.443   0.345
13083TIP3    H239207   3.464   0.489   0.408
13084TIP3   OH239208   1.947   7.260   3.090
13084TIP3    H139209   1.990   7.195   3.145
13084TIP3    H239210   1.856   7.230   3.083
13085TIP3   OH239211   7.765   1.983   3.318
13085TIP3    H139212   7.806   1.936   3.391
13085TIP3    H239213   7.699   2.038   3.359
13086TIP3   OH239214   0.868   6.908   2.416
13086TIP3    H139215   0.861   6.916   2.511
13086TIP3    H239216   0.789   6.949   2.382
13087TIP3   OH239217   3.381   6.447   4.888
13087TIP3    H139218   3.337   6.413   4.966
13087TIP3    H239219   3.451   6.384   4.871
13088TIP3   OH239220   6.324   4.631   3.106
13088TIP3    H139221   6.367   4.547   3.120
13088TIP3    H239222   6.354   4.685   3.179
13089TIP3   OH239223   7.934   4.812   5.841
13089TIP3    H139224   7.973   4.823   5.755
13089TIP3    H239225   8.009   4.807   5.901
13090TIP3   OH239226   0.916   4.081   3.818
13090TIP3    H139227   0.888   4.137   3.891
13090TIP3    H239228   0.842   4.081   3.758
13091TIP3   OH239229   5.341   0.123   0.214
13091TIP3    H139230   5.295   0.162   0.288
13091TIP3    H239231   5.279   0.062   0.176
13092TIP3   OH239232   1.763   2.759   2.452
13092TIP3    H139233   1.690   2.702   2.431
13092TIP3    H239234   1.787   2.735   2.542
13093TIP3   OH239235   1.975   6.363   1.789
13093TIP3    H139236   1.929   6.438   1.828
13093TIP3    H239237   2.010   6.314   1.864
13094TIP3   OH239238   0.037   1.016   1.250
13094TIP3    H139239  -0.031   0.958   1.216
13094TIP3    H239240  -0.009   1.097   1.271
13095TIP3   OH239241   7.098   6.896   0.355
13095TIP3    H139242   7.139   6.810   0.360
13095TIP3    H239243   7.128   6.942   0.434
13096TIP3   OH239244   5.141   2.038   2.039
13096TIP3    H139245   5.213   2.093   2.071
13096TIP3    H239246   5.092   2.095   1.980
13097TIP3   OH239247   0.635   4.142   5.798
13097TIP3    H139248   0.690   4.169   5.725
13097TIP3    H239249   0.688   4.158   5.876
13098TIP3   OH239250   5.616   3.371   2.997
13098TIP3    H139251   5.562   3.439   3.036
13098TIP3    H239252   5.600   3.378   2.903
13099TIP3   OH239253   0.582   0.229   4.349
13099TIP3    H139254   0.663   0.178   4.348
13099TIP3    H239255   0.550   0.221   4.439
13100TIP3   OH239256   1.874   7.386   5.907
13100TIP3    H139257   1.969   7.400   5.913
13100TIP3    H239258   1.864   7.291   5.916
13101TIP3   OH239259   8.061   2.389   0.215
13101TIP3    H139260   8.059   2.294   0.216
13101TIP3    H239261   7.998   2.415   0.282
13102TIP3   OH239262   7.993   5.392   3.864
13102TIP3    H139263   8.020   5.393   3.955
13102TIP3    H239264   7.928   5.321   3.859
13103TIP3   OH239265   4.333   1.904   3.557
13103TIP3    H139266   4.327   1.986   3.509
13103TIP3    H239267   4.375   1.928   3.640
13104TIP3   OH239268   4.223   7.094   0.535
13104TIP3    H139269   4.197   7.180   0.503
13104TIP3    H239270   4.217   7.037   0.459
13105TIP3   OH239271   8.278   0.669   2.649
13105TIP3    H139272   8.204   0.642   2.594
13105TIP3    H239273   8.352   0.673   2.590
13106TIP3   OH239274   2.774   1.866   3.312
13106TIP3    H139275   2.838   1.864   3.240
13106TIP3    H239276   2.813   1.812   3.380
13107TIP3   OH239277   2.736   1.715   1.130
13107TIP3    H139278   2.811   1.771   1.149
13107TIP3    H239279   2.746   1.692   1.037
13108TIP3   OH239280   1.920   2.911   1.271
13108TIP3    H139281   2.010   2.891   1.246
13108TIP3    H239282   1.875   2.923   1.187
13109TIP3   OH239283   8.287   5.321   0.149
13109TIP3    H139284   8.343   5.319   0.072
13109TIP3    H239285   8.241   5.237   0.148
13110TIP3   OH239286   3.280   5.443   5.586
13110TIP3    H139287   3.224   5.385   5.535
13110TIP3    H239288   3.219   5.504   5.627
13111TIP3   OH239289   7.874   1.005   6.362
13111TIP3    H139290   7.900   1.070   6.428
13111TIP3    H239291   7.938   0.934   6.372
13112TIP3   OH239292   3.471   4.226   0.846
13112TIP3    H139293   3.379   4.202   0.835
13112TIP3    H239294   3.473   4.321   0.834
13113TIP3   OH239295   7.340   5.492   6.084
13113TIP3    H139296   7.348   5.469   6.177
13113TIP3    H239297   7.409   5.441   6.041
13114TIP3   OH239298   7.188   1.500   2.583
13114TIP3    H139299   7.098   1.520   2.556
13114TIP3    H239300   7.179   1.465   2.672
13115TIP3   OH239301   7.022   6.735   0.946
13115TIP3    H139302   6.935   6.766   0.922
13115TIP3    H239303   7.081   6.773   0.881
13116TIP3   OH239304   3.946   3.202   5.609
13116TIP3    H139305   3.945   3.171   5.519
13116TIP3    H239306   4.036   3.186   5.639
13117TIP3   OH239307   6.946   1.168   2.677
13117TIP3    H139308   7.030   1.178   2.632
13117TIP3    H239309   6.887   1.229   2.632
13118TIP3   OH239310   4.140   5.899   1.590
13118TIP3    H139311   4.060   5.899   1.643
13118TIP3    H239312   4.142   5.812   1.550
13119TIP3   OH239313   0.333   0.558   0.100
13119TIP3    H139314   0.355   0.593   0.013
13119TIP3    H239315   0.332   0.635   0.156
13120TIP3   OH239316   4.291   3.008   1.037
13120TIP3    H139317   4.322   3.008   0.947
13120TIP3    H239318   4.201   3.039   1.031
13121TIP3   OH239319   6.285   3.322   2.469
13121TIP3    H139320   6.319   3.373   2.543
13121TIP3    H239321   6.348   3.337   2.399
13122TIP3   OH239322   2.010   3.167   2.954
13122TIP3    H139323   1.986   3.255   2.925
13122TIP3    H239324   2.105   3.170   2.961
13123TIP3   OH239325   4.001   5.455   1.672
13123TIP3    H139326   4.013   5.387   1.605
13123TIP3    H239327   3.945   5.520   1.630
13124TIP3   OH239328   5.516   1.666   3.319
13124TIP3    H139329   5.580   1.609   3.277
13124TIP3    H239330   5.432   1.623   3.304
13125TIP3   OH239331   6.645   3.358   3.138
13125TIP3    H139332   6.704   3.427   3.108
13125TIP3    H239333   6.703   3.283   3.154
13126TIP3   OH239334   1.754  -0.019   4.491
13126TIP3    H139335   1.681   0.021   4.538
13126TIP3    H239336   1.818   0.051   4.484
13127TIP3   OH239337   6.702   3.592   3.897
13127TIP3    H139338   6.791   3.622   3.883
13127TIP3    H239339   6.705   3.542   3.979
13128TIP3   OH239340   1.180   4.910   3.418
13128TIP3    H139341   1.131   4.920   3.336
13128TIP3    H239342   1.246   4.843   3.400
13129TIP3   OH239343   0.440   1.559   2.272
13129TIP3    H139344   0.495   1.496   2.319
13129TIP3    H239345   0.371   1.505   2.232
13130TIP3   OH239346   3.348   5.185   0.316
13130TIP3    H139347   3.352   5.158   0.408
13130TIP3    H239348   3.437   5.215   0.295
13131TIP3   OH239349   2.601   7.068   1.210
13131TIP3    H139350   2.667   7.029   1.268
13131TIP3    H239351   2.588   7.156   1.244
13132TIP3   OH239352   3.994   6.565   5.045
13132TIP3    H139353   4.035   6.639   5.000
13132TIP3    H239354   4.054   6.493   5.031
13133TIP3   OH239355   7.593   1.055   1.688
13133TIP3    H139356   7.521   1.009   1.732
13133TIP3    H239357   7.560   1.071   1.599
13134TIP3   OH239358   3.740   4.301   1.065
13134TIP3    H139359   3.673   4.360   1.030
13134TIP3    H239360   3.693   4.247   1.128
13135TIP3   OH239361   6.174   2.765   3.608
13135TIP3    H139362   6.151   2.678   3.576
13135TIP3    H239363   6.268   2.761   3.623
13136TIP3   OH239364   0.228   7.016   4.373
13136TIP3    H139365   0.167   6.978   4.436
13136TIP3    H239366   0.176   7.029   4.294
13137TIP3   OH239367   5.730   0.308   6.722
13137TIP3    H139368   5.699   0.387   6.766
13137TIP3    H239369   5.757   0.338   6.636
13138TIP3   OH239370   5.551   3.073   3.590
13138TIP3    H139371   5.604   3.008   3.637
13138TIP3    H239372   5.614   3.121   3.537
13139TIP3   OH239373   7.094   5.940   2.106
13139TIP3    H139374   7.074   6.031   2.081
13139TIP3    H239375   7.016   5.891   2.081
13140TIP3   OH239376   1.775   3.518   2.455
13140TIP3    H139377   1.836   3.542   2.525
13140TIP3    H239378   1.702   3.579   2.465
13141TIP3   OH239379   1.308   2.616   0.761
13141TIP3    H139380   1.251   2.547   0.795
13141TIP3    H239381   1.261   2.650   0.685
13142TIP3   OH239382   6.024   6.651   2.640
13142TIP3    H139383   5.961   6.721   2.657
13142TIP3    H239384   6.105   6.682   2.681
13143TIP3   OH239385   5.306   7.304   6.416
13143TIP3    H139386   5.371   7.270   6.353
13143TIP3    H239387   5.237   7.237   6.417
13144TIP3   OH239388   5.966   3.015   1.267
13144TIP3    H139389   6.058   3.034   1.250
13144TIP3    H239390   5.919   3.082   1.216
13145TIP3   OH239391   4.410   4.079   3.468
13145TIP3    H139392   4.443   4.114   3.385
13145TIP3    H239393   4.422   4.151   3.530
13146TIP3   OH239394   2.218   1.897   3.664
13146TIP3    H139395   2.209   1.886   3.758
13146TIP3    H239396   2.234   1.809   3.630
13147TIP3   OH239397   5.928   4.555   1.204
13147TIP3    H139398   5.919   4.594   1.116
13147TIP3    H239399   6.017   4.520   1.206
13148TIP3   OH239400   7.173   6.781   2.351
13148TIP3    H139401   7.240   6.732   2.398
13148TIP3    H239402   7.138   6.719   2.287
13149TIP3   OH239403   6.004   7.702   5.792
13149TIP3    H139404   5.938   7.736   5.853
13149TIP3    H239405   6.078   7.761   5.802
13150TIP3   OH239406   7.014   7.024   3.101
13150TIP3    H139407   6.928   7.024   3.059
13150TIP3    H239408   7.076   7.020   3.029
13151TIP3   OH239409   2.674   2.127   4.821
13151TIP3    H139410   2.669   2.032   4.819
13151TIP3    H239411   2.604   2.156   4.762
13152TIP3   OH239412   4.654   7.594   4.410
13152TIP3    H139413   4.615   7.523   4.461
13152TIP3    H239414   4.711   7.639   4.472
13153TIP3   OH239415   6.945   7.388   4.057
13153TIP3    H139416   7.002   7.384   3.981
13153TIP3    H239417   6.971   7.468   4.103
13154TIP3   OH239418   1.894   2.856   0.574
13154TIP3    H139419   1.823   2.896   0.623
13154TIP3    H239420   1.891   2.763   0.599
13155TIP3   OH239421   3.843   5.051   1.497
13155TIP3    H139422   3.798   5.036   1.580
13155TIP3    H239423   3.809   4.983   1.439
13156TIP3   OH239424   1.419   3.104   2.926
13156TIP3    H139425   1.455   3.025   2.886
13156TIP3    H239426   1.328   3.082   2.945
13157TIP3   OH239427   1.362   5.621   0.135
13157TIP3    H139428   1.389   5.634   0.226
13157TIP3    H239429   1.356   5.709   0.099
13158TIP3   OH239430   0.887   1.560   0.313
13158TIP3    H139431   0.873   1.552   0.407
13158TIP3    H239432   0.819   1.505   0.274
13159TIP3   OH239433   8.272   6.834   4.320
13159TIP3    H139434   8.319   6.811   4.240
13159TIP3    H239435   8.186   6.793   4.311
13160TIP3   OH239436   6.771   0.051   0.335
13160TIP3    H139437   6.856   0.054   0.292
13160TIP3    H239438   6.783  -0.008   0.409
13161TIP3   OH239439   6.953   1.627   2.504
13161TIP3    H139440   6.865   1.602   2.530
13161TIP3    H239441   6.942   1.672   2.421
13162TIP3   OH239442   3.244   2.177   6.108
13162TIP3    H139443   3.225   2.244   6.174
13162TIP3    H239444   3.340   2.178   6.100
13163TIP3   OH239445   5.351   2.119   5.399
13163TIP3    H139446   5.262   2.118   5.434
13163TIP3    H239447   5.395   2.187   5.449
13164TIP3   OH239448   1.468   3.921   1.159
13164TIP3    H139449   1.407   3.963   1.219
13164TIP3    H239450   1.511   3.853   1.212
13165TIP3   OH239451   3.366   2.758   3.128
13165TIP3    H139452   3.407   2.732   3.211
13165TIP3    H239453   3.298   2.820   3.153
13166TIP3   OH239454   4.795   6.014   5.689
13166TIP3    H139455   4.887   5.992   5.680
13166TIP3    H239456   4.750   5.957   5.627
13167TIP3   OH239457   3.218   4.938   0.822
13167TIP3    H139458   3.125   4.958   0.832
13167TIP3    H239459   3.261   5.023   0.820
13168TIP3   OH239460   8.323   6.287   0.387
13168TIP3    H139461   8.276   6.233   0.451
13168TIP3    H239462   8.254   6.329   0.336
13169TIP3   OH239463   2.175   5.991   0.873
13169TIP3    H139464   2.110   6.000   0.804
13169TIP3    H239465   2.131   6.025   0.952
13170TIP3   OH239466   7.840   4.281   6.586
13170TIP3    H139467   7.821   4.284   6.493
13170TIP3    H239468   7.914   4.221   6.594
13171TIP3   OH239469   8.239   6.969   2.159
13171TIP3    H139470   8.244   6.874   2.170
13171TIP3    H239471   8.256   7.004   2.246
13172TIP3   OH239472   2.005   3.670   1.222
13172TIP3    H139473   1.937   3.701   1.162
13172TIP3    H239474   2.087   3.692   1.177
13173TIP3   OH239475   6.097   1.447   2.665
13173TIP3    H139476   6.152   1.506   2.613
13173TIP3    H239477   6.127   1.460   2.755
13174TIP3   OH239478   1.868   2.758   6.254
13174TIP3    H139479   1.844   2.850   6.244
13174TIP3    H239480   1.789   2.716   6.289
13175TIP3   OH239481   1.196   5.453   1.482
13175TIP3    H139482   1.160   5.503   1.408
13175TIP3    H239483   1.266   5.401   1.444
13176TIP3   OH239484   7.248   2.003   0.256
13176TIP3    H139485   7.248   2.002   0.352
13176TIP3    H239486   7.314   2.069   0.234
13177TIP3   OH239487   2.178   1.521   1.107
13177TIP3    H139488   2.100   1.561   1.069
13177TIP3    H239489   2.170   1.538   1.201
13178TIP3   OH239490   1.141   0.881   6.208
13178TIP3    H139491   1.193   0.801   6.203
13178TIP3    H239492   1.135   0.911   6.117
13179TIP3   OH239493   3.135   5.612   3.664
13179TIP3    H139494   3.111   5.703   3.651
13179TIP3    H239495   3.152   5.578   3.576
13180TIP3   OH239496   2.068   4.607   5.649
13180TIP3    H139497   2.092   4.660   5.574
13180TIP3    H239498   2.151   4.589   5.693
13181TIP3   OH239499   3.008   1.379   0.524
13181TIP3    H139500   3.003   1.366   0.619
13181TIP3    H239501   2.929   1.337   0.490
13182TIP3   OH239502   0.439   6.061   4.504
13182TIP3    H139503   0.433   6.041   4.597
13182TIP3    H239504   0.380   5.998   4.462
13183TIP3   OH239505   7.579   1.490   3.805
13183TIP3    H139506   7.604   1.401   3.781
13183TIP3    H239507   7.486   1.484   3.826
13184TIP3   OH239508   1.092   1.782   1.863
13184TIP3    H139509   1.119   1.774   1.955
13184TIP3    H239510   0.997   1.789   1.866
13185TIP3   OH239511   3.907   6.890   3.989
13185TIP3    H139512   3.928   6.797   3.982
13185TIP3    H239513   3.832   6.902   3.931
13186TIP3   OH239514   6.079   4.386   3.092
13186TIP3    H139515   6.155   4.359   3.040
13186TIP3    H239516   6.021   4.310   3.092
13187TIP3   OH239517   2.911   0.542   5.146
13187TIP3    H139518   2.952   0.563   5.062
13187TIP3    H239519   2.955   0.599   5.209
13188TIP3   OH239520   0.036   1.397   6.234
13188TIP3    H139521   0.117   1.387   6.285
13188TIP3    H239522   0.064   1.396   6.143
13189TIP3   OH239523   6.347   3.579   5.984
13189TIP3    H139524   6.437   3.568   5.954
13189TIP3    H239525   6.301   3.617   5.909
13190TIP3   OH239526   7.695   6.840   2.000
13190TIP3    H139527   7.786   6.863   1.981
13190TIP3    H239528   7.655   6.827   1.914
13191TIP3   OH239529   1.535   1.620   0.256
13191TIP3    H139530   1.524   1.528   0.232
13191TIP3    H239531   1.630   1.631   0.262
13192TIP3   OH239532   0.185   5.280   2.805
13192TIP3    H139533   0.264   5.271   2.752
13192TIP3    H239534   0.126   5.332   2.751
13193TIP3   OH239535   4.078   5.119   2.202
13193TIP3    H139536   4.133   5.064   2.259
13193TIP3    H239537   4.103   5.093   2.113
13194TIP3   OH239538   4.483   3.750   0.720
13194TIP3    H139539   4.435   3.673   0.749
13194TIP3    H239540   4.544   3.717   0.654
13195TIP3   OH239541   5.006   0.776   2.855
13195TIP3    H139542   4.952   0.831   2.798
13195TIP3    H239543   5.036   0.705   2.799
13196TIP3   OH239544   2.714   4.240   5.558
13196TIP3    H139545   2.782   4.237   5.626
13196TIP3    H239546   2.632   4.248   5.607
13197TIP3   OH239547   0.922   5.133   1.854
13197TIP3    H139548   0.983   5.129   1.780
13197TIP3    H239549   0.835   5.131   1.814
13198TIP3   OH239550   5.545   0.049   5.145
13198TIP3    H139551   5.614   0.111   5.120
13198TIP3    H239552   5.485   0.049   5.070
13199TIP3   OH239553   7.704   3.838   1.962
13199TIP3    H139554   7.789   3.802   1.988
13199TIP3    H239555   7.699   3.922   2.008
13200TIP3   OH239556   5.810   2.515   6.610
13200TIP3    H139557   5.802   2.608   6.590
13200TIP3    H239558   5.898   2.507   6.649
13201TIP3   OH239559   2.091   5.304   3.824
13201TIP3    H139560   2.090   5.364   3.898
13201TIP3    H239561   2.184   5.295   3.802
13202TIP3   OH239562   4.408   2.061   4.865
13202TIP3    H139563   4.470   1.993   4.839
13202TIP3    H239564   4.447   2.142   4.834
13203TIP3   OH239565   7.055   2.188   1.440
13203TIP3    H139566   7.086   2.189   1.530
13203TIP3    H239567   7.076   2.100   1.408
13204TIP3   OH239568   0.522   0.790   1.983
13204TIP3    H139569   0.533   0.706   1.938
13204TIP3    H239570   0.528   0.856   1.913
13205TIP3   OH239571   1.369   0.829   3.232
13205TIP3    H139572   1.350   0.777   3.311
13205TIP3    H239573   1.287   0.874   3.213
13206TIP3   OH239574   1.276   3.774   2.824
13206TIP3    H139575   1.311   3.852   2.781
13206TIP3    H239576   1.308   3.780   2.914
13207TIP3   OH239577   0.313   1.415   0.070
13207TIP3    H139578   0.243   1.413   0.136
13207TIP3    H239579   0.365   1.336   0.089
13208TIP3   OH239580   0.263   2.889   5.611
13208TIP3    H139581   0.298   2.934   5.688
13208TIP3    H239582   0.227   2.959   5.556
13209TIP3   OH239583   2.197   2.211   3.422
13209TIP3    H139584   2.148   2.249   3.494
13209TIP3    H239585   2.286   2.247   3.432
13210TIP3   OH239586   4.088   1.194   1.726
13210TIP3    H139587   4.113   1.249   1.652
13210TIP3    H239588   4.114   1.105   1.700
13211TIP3   OH239589   4.307   6.862   5.795
13211TIP3    H139590   4.330   6.877   5.886
13211TIP3    H239591   4.391   6.851   5.751
13212TIP3   OH239592   7.780   6.400   1.583
13212TIP3    H139593   7.728   6.473   1.617
13212TIP3    H239594   7.723   6.324   1.593
13213TIP3   OH239595   0.926   5.004   5.766
13213TIP3    H139596   0.879   5.061   5.827
13213TIP3    H239597   0.999   4.970   5.817
13214TIP3   OH239598   6.210   3.071   1.086
13214TIP3    H139599   6.149   3.090   1.015
13214TIP3    H239600   6.293   3.053   1.041
13215TIP3   OH239601   0.980   5.849   6.155
13215TIP3    H139602   0.933   5.908   6.213
13215TIP3    H239603   1.065   5.836   6.197
13216TIP3   OH239604   4.678   6.990   2.023
13216TIP3    H139605   4.667   6.896   2.037
13216TIP3    H239606   4.639   7.030   2.101
13217TIP3   OH239607   2.403   5.728   5.207
13217TIP3    H139608   2.428   5.639   5.182
13217TIP3    H239609   2.318   5.718   5.251
13218TIP3   OH239610   6.347   6.048   2.561
13218TIP3    H139611   6.282   6.064   2.493
13218TIP3    H239612   6.336   6.121   2.622
13219TIP3   OH239613   4.771   7.649   2.434
13219TIP3    H139614   4.709   7.714   2.468
13219TIP3    H239615   4.755   7.649   2.339
13220TIP3   OH239616   6.291   2.769   6.375
13220TIP3    H139617   6.206   2.734   6.402
13220TIP3    H239618   6.355   2.712   6.418
13221TIP3   OH239619   1.072   1.800   3.354
13221TIP3    H139620   0.977   1.816   3.350
13221TIP3    H239621   1.080   1.711   3.389
13222TIP3   OH239622   7.165   2.935   0.654
13222TIP3    H139623   7.101   2.864   0.655
13222TIP3    H239624   7.248   2.892   0.635
13223TIP3   OH239625   4.444   5.804   4.512
13223TIP3    H139626   4.480   5.892   4.520
13223TIP3    H239627   4.489   5.753   4.580
13224TIP3   OH239628   2.440   1.575   2.351
13224TIP3    H139629   2.513   1.617   2.306
13224TIP3    H239630   2.396   1.646   2.398
13225TIP3   OH239631   7.778   1.171   2.388
13225TIP3    H139632   7.743   1.177   2.300
13225TIP3    H239633   7.757   1.256   2.428
13226TIP3   OH239634   7.111   5.039   5.984
13226TIP3    H139635   7.024   5.012   5.956
13226TIP3    H239636   7.171   4.982   5.936
13227TIP3   OH239637   5.058   1.031   5.502
13227TIP3    H139638   5.000   1.018   5.427
13227TIP3    H239639   5.077   1.125   5.502
13228TIP3   OH239640   7.297   3.986   2.042
13228TIP3    H139641   7.257   4.068   2.014
13228TIP3    H239642   7.317   3.940   1.959
13229TIP3   OH239643   2.041   2.403   1.591
13229TIP3    H139644   2.088   2.347   1.529
13229TIP3    H239645   2.052   2.492   1.555
13230TIP3   OH239646   1.029   5.910   3.528
13230TIP3    H139647   1.022   5.868   3.443
13230TIP3    H239648   1.104   5.868   3.570
13231TIP3   OH239649   7.896   5.176   4.460
13231TIP3    H139650   7.876   5.250   4.404
13231TIP3    H239651   7.990   5.185   4.478
13232TIP3   OH239652   0.345   5.160   3.456
13232TIP3    H139653   0.288   5.224   3.498
13232TIP3    H239654   0.402   5.212   3.399
13233TIP3   OH239655   6.472   5.819   1.081
13233TIP3    H139656   6.463   5.824   0.986
13233TIP3    H239657   6.553   5.770   1.095
13234TIP3   OH239658   5.754   4.858   4.853
13234TIP3    H139659   5.731   4.858   4.761
13234TIP3    H239660   5.805   4.939   4.865
13235TIP3   OH239661   5.691   1.457   4.125
13235TIP3    H139662   5.766   1.515   4.106
13235TIP3    H239663   5.689   1.396   4.051
13236TIP3   OH239664   2.002   4.847   5.125
13236TIP3    H139665   2.076   4.838   5.066
13236TIP3    H239666   1.935   4.891   5.073
13237TIP3   OH239667   0.992   1.839   1.121
13237TIP3    H139668   1.072   1.821   1.170
13237TIP3    H239669   0.953   1.753   1.106
13238TIP3   OH239670   3.527   2.379   4.415
13238TIP3    H139671   3.501   2.341   4.499
13238TIP3    H239672   3.449   2.425   4.384
13239TIP3   OH239673   1.055   1.983   5.314
13239TIP3    H139674   1.089   1.898   5.286
13239TIP3    H239675   0.982   2.001   5.254
13240TIP3   OH239676   1.230   0.633   3.399
13240TIP3    H139677   1.194   0.554   3.360
13240TIP3    H239678   1.255   0.607   3.487
13241TIP3   OH239679   5.537   6.694   5.270
13241TIP3    H139680   5.632   6.705   5.269
13241TIP3    H239681   5.522   6.610   5.227
13242TIP3   OH239682   5.918   4.652   4.442
13242TIP3    H139683   5.983   4.683   4.379
13242TIP3    H239684   5.970   4.607   4.509
13243TIP3   OH239685   3.349   6.149   6.383
13243TIP3    H139686   3.359   6.244   6.385
13243TIP3    H239687   3.431   6.117   6.346
13244TIP3   OH239688   2.488   3.121   4.435
13244TIP3    H139689   2.412   3.136   4.491
13244TIP3    H239690   2.481   3.029   4.410
13245TIP3   OH239691   7.970   4.166   4.450
13245TIP3    H139692   8.012   4.156   4.535
13245TIP3    H239693   7.902   4.232   4.465
13246TIP3   OH239694   3.761   6.175   4.179
13246TIP3    H139695   3.753   6.233   4.103
13246TIP3    H239696   3.703   6.102   4.160
13247TIP3   OH239697   5.689   7.011   1.717
13247TIP3    H139698   5.738   7.017   1.635
13247TIP3    H239699   5.725   7.081   1.772
13248TIP3   OH239700   7.566   7.039   1.782
13248TIP3    H139701   7.500   7.001   1.840
13248TIP3    H239702   7.574   7.130   1.812
13249TIP3   OH239703   3.619   6.947   5.524
13249TIP3    H139704   3.533   6.915   5.551
13249TIP3    H239705   3.613   6.954   5.429
13250TIP3   OH239706   2.222   7.718   0.556
13250TIP3    H139707   2.181   7.805   0.560
13250TIP3    H239708   2.200   7.685   0.469
13251TIP3   OH239709   5.916   2.236   3.099
13251TIP3    H139710   5.913   2.158   3.042
13251TIP3    H239711   5.976   2.212   3.169
13252TIP3   OH239712   1.671   3.553   3.799
13252TIP3    H139713   1.609   3.619   3.767
13252TIP3    H239714   1.615   3.481   3.829
13253TIP3   OH239715   2.013   1.889   3.280
13253TIP3    H139716   2.005   1.805   3.326
13253TIP3    H239717   1.931   1.896   3.230
13254TIP3   OH239718   7.427   3.208   1.445
13254TIP3    H139719   7.469   3.171   1.368
13254TIP3    H239720   7.427   3.302   1.430
13255TIP3   OH239721   7.337   3.445   1.945
13255TIP3    H139722   7.380   3.528   1.923
13255TIP3    H239723   7.287   3.423   1.866
13256TIP3   OH239724   2.056   7.774   4.198
13256TIP3    H139725   2.015   7.781   4.111
13256TIP3    H239726   1.982   7.767   4.258
13257TIP3   OH239727   8.042   7.826   3.318
13257TIP3    H139728   8.033   7.731   3.328
13257TIP3    H239729   8.039   7.840   3.223
13258TIP3   OH239730   5.347   0.060   2.645
13258TIP3    H139731   5.320   0.093   2.559
13258TIP3    H239732   5.418  -0.001   2.626
13259TIP3   OH239733   2.693   3.312   4.276
13259TIP3    H139734   2.655   3.347   4.195
13259TIP3    H239735   2.639   3.236   4.297
13260TIP3   OH239736   4.741   6.264   2.246
13260TIP3    H139737   4.793   6.341   2.269
13260TIP3    H239738   4.798   6.213   2.188
13261TIP3   OH239739   3.807   7.434   4.155
13261TIP3    H139740   3.831   7.348   4.119
13261TIP3    H239741   3.713   7.428   4.169
13262TIP3   OH239742   1.471   6.299   5.393
13262TIP3    H139743   1.535   6.283   5.463
13262TIP3    H239744   1.520   6.346   5.326
13263TIP3   OH239745   6.008   3.188   2.823
13263TIP3    H139746   6.054   3.163   2.742
13263TIP3    H239747   5.917   3.164   2.806
13264TIP3   OH239748   0.512   2.551   2.653
13264TIP3    H139749   0.500   2.464   2.691
13264TIP3    H239750   0.594   2.546   2.605
13265TIP3   OH239751   1.916   3.475   0.223
13265TIP3    H139752   1.978   3.402   0.226
13265TIP3    H239753   1.830   3.432   0.213
13266TIP3   OH239754   5.576   5.561   2.582
13266TIP3    H139755   5.635   5.634   2.561
13266TIP3    H239756   5.547   5.528   2.497
13267TIP3   OH239757   5.221   1.580   6.223
13267TIP3    H139758   5.286   1.646   6.201
13267TIP3    H239759   5.243   1.504   6.169
13268TIP3   OH239760   2.003   3.607   6.447
13268TIP3    H139761   2.053   3.614   6.528
13268TIP3    H239762   1.991   3.698   6.418
13269TIP3   OH239763   2.612   0.460   3.390
13269TIP3    H139764   2.527   0.421   3.370
13269TIP3    H239765   2.644   0.411   3.466
13270TIP3   OH239766   6.446   1.228   5.483
13270TIP3    H139767   6.431   1.135   5.466
13270TIP3    H239768   6.360   1.268   5.478
13271TIP3   OH239769   5.819   3.164   4.534
13271TIP3    H139770   5.790   3.146   4.623
13271TIP3    H239771   5.808   3.081   4.488
13272TIP3   OH239772   7.824   3.701   1.347
13272TIP3    H139773   7.898   3.641   1.344
13272TIP3    H239774   7.747   3.644   1.347
13273TIP3   OH239775   6.468   4.687   3.639
13273TIP3    H139776   6.396   4.648   3.688
13273TIP3    H239777   6.537   4.621   3.640
13274TIP3   OH239778   3.627   0.979   4.118
13274TIP3    H139779   3.656   1.060   4.078
13274TIP3    H239780   3.680   0.911   4.077
13275TIP3   OH239781   2.754   7.806   4.373
13275TIP3    H139782   2.679   7.765   4.331
13275TIP3    H239783   2.815   7.734   4.388
13276TIP3   OH239784   6.145   7.763   6.183
13276TIP3    H139785   6.081   7.693   6.171
13276TIP3    H239786   6.224   7.732   6.138
13277TIP3   OH239787   7.616   4.832   0.559
13277TIP3    H139788   7.563   4.907   0.532
13277TIP3    H239789   7.706   4.861   0.547
13278TIP3   OH239790   7.518   2.386   5.830
13278TIP3    H139791   7.461   2.310   5.823
13278TIP3    H239792   7.606   2.349   5.844
13279TIP3   OH239793   0.219   6.276   0.853
13279TIP3    H139794   0.268   6.296   0.773
13279TIP3    H239795   0.130   6.257   0.822
13280TIP3   OH239796   5.087   0.495   5.166
13280TIP3    H139797   5.045   0.559   5.224
13280TIP3    H239798   5.149   0.547   5.115
13281TIP3   OH239799   1.167   2.543   4.356
13281TIP3    H139800   1.203   2.571   4.440
13281TIP3    H239801   1.212   2.460   4.337
13282TIP3   OH239802   1.580   2.790   2.036
13282TIP3    H139803   1.598   2.775   2.129
13282TIP3    H239804   1.660   2.763   1.991
13283TIP3   OH239805   6.833   5.457   0.808
13283TIP3    H139806   6.906   5.502   0.766
13283TIP3    H239807   6.866   5.369   0.826
13284TIP3   OH239808   1.165   5.789   4.014
13284TIP3    H139809   1.166   5.854   4.084
13284TIP3    H239810   1.238   5.731   4.034
13285TIP3   OH239811   1.680   7.655   3.451
13285TIP3    H139812   1.605   7.647   3.510
13285TIP3    H239813   1.665   7.738   3.405
13286TIP3   OH239814   6.026   7.211   0.933
13286TIP3    H139815   5.935   7.211   0.901
13286TIP3    H239816   6.026   7.145   1.003
13287TIP3   OH239817   3.809   3.017   2.707
13287TIP3    H139818   3.842   2.967   2.781
13287TIP3    H239819   3.767   2.952   2.651
13288TIP3   OH239820   5.561   6.948   5.150
13288TIP3    H139821   5.544   6.963   5.057
13288TIP3    H239822   5.530   6.859   5.166
13289TIP3   OH239823   5.395   4.556   3.091
13289TIP3    H139824   5.357   4.591   3.010
13289TIP3    H239825   5.483   4.593   3.095
13290TIP3   OH239826   3.335   3.436   4.092
13290TIP3    H139827   3.312   3.377   4.165
13290TIP3    H239828   3.283   3.404   4.019
13291TIP3   OH239829   5.575   2.277   4.571
13291TIP3    H139830   5.562   2.360   4.524
13291TIP3    H239831   5.618   2.303   4.652
13292TIP3   OH239832   5.265   1.570   3.307
13292TIP3    H139833   5.263   1.478   3.283
13292TIP3    H239834   5.208   1.577   3.383
13293TIP3   OH239835   7.071   2.604   6.514
13293TIP3    H139836   7.061   2.592   6.608
13293TIP3    H239837   7.100   2.694   6.503
13294TIP3   OH239838   6.652   4.239   4.727
13294TIP3    H139839   6.573   4.283   4.757
13294TIP3    H239840   6.724   4.295   4.757
13295TIP3   OH239841   4.767   1.989   3.000
13295TIP3    H139842   4.672   1.989   2.987
13295TIP3    H239843   4.803   1.978   2.912
13296TIP3   OH239844   3.795   2.775   4.429
13296TIP3    H139845   3.840   2.808   4.507
13296TIP3    H239846   3.712   2.822   4.428
13297TIP3   OH239847   3.659   3.222   6.009
13297TIP3    H139848   3.654   3.195   5.918
13297TIP3    H239849   3.687   3.314   6.006
13298TIP3   OH239850   7.128   2.027   4.962
13298TIP3    H139851   7.171   2.104   4.924
13298TIP3    H239852   7.110   2.053   5.053
13299TIP3   OH239853   7.746   2.908   0.236
13299TIP3    H139854   7.721   2.840   0.173
13299TIP3    H239855   7.726   2.869   0.322
13300TIP3   OH239856   0.678   4.651   4.109
13300TIP3    H139857   0.718   4.662   4.195
13300TIP3    H239858   0.586   4.630   4.128
13301TIP3   OH239859   0.655   6.387   2.337
13301TIP3    H139860   0.599   6.336   2.279
13301TIP3    H239861   0.620   6.476   2.332
13302TIP3   OH239862   4.820   6.319   3.435
13302TIP3    H139863   4.851   6.322   3.526
13302TIP3    H239864   4.896   6.288   3.385
13303TIP3   OH239865   6.898   2.600   0.258
13303TIP3    H139866   6.870   2.612   0.348
13303TIP3    H239867   6.870   2.679   0.213
13304TIP3   OH239868   1.312   6.536   1.934
13304TIP3    H139869   1.265   6.575   2.008
13304TIP3    H239870   1.264   6.455   1.916
13305TIP3   OH239871   1.541   6.052   0.670
13305TIP3    H139872   1.449   6.054   0.645
13305TIP3    H239873   1.577   5.978   0.621
13306TIP3   OH239874   4.577   4.006   4.384
13306TIP3    H139875   4.577   3.933   4.323
13306TIP3    H239876   4.665   4.042   4.379
13307TIP3   OH239877   8.002   1.575   0.169
13307TIP3    H139878   8.016   1.600   0.078
13307TIP3    H239879   8.079   1.521   0.190
13308TIP3   OH239880   5.000   2.445   0.171
13308TIP3    H139881   4.966   2.438   0.082
13308TIP3    H239882   5.051   2.526   0.171
13309TIP3   OH239883   3.194   1.803   4.626
13309TIP3    H139884   3.173   1.872   4.563
13309TIP3    H239885   3.281   1.827   4.659
13310TIP3   OH239886   7.014   4.814   4.078
13310TIP3    H139887   7.067   4.865   4.017
13310TIP3    H239888   6.940   4.872   4.099
13311TIP3   OH239889   4.775   0.901   2.114
13311TIP3    H139890   4.708   0.838   2.140
13311TIP3    H239891   4.775   0.967   2.184
13312TIP3   OH239892   7.451   6.378   4.232
13312TIP3    H139893   7.526   6.420   4.190
13312TIP3    H239894   7.430   6.435   4.306
13313TIP3   OH239895   4.624   3.761   0.467
13313TIP3    H139896   4.692   3.772   0.533
13313TIP3    H239897   4.592   3.672   0.480
13314TIP3   OH239898   3.907   3.427   4.314
13314TIP3    H139899   3.985   3.374   4.330
13314TIP3    H239900   3.937   3.495   4.254
13315TIP3   OH239901   1.876   5.008   4.050
13315TIP3    H139902   1.955   4.974   4.093
13315TIP3    H239903   1.861   5.093   4.092
13316TIP3   OH239904   2.303   4.033   4.087
13316TIP3    H139905   2.377   3.981   4.055
13316TIP3    H239906   2.239   3.969   4.118
13317TIP3   OH239907   1.594   3.759   6.493
13317TIP3    H139908   1.618   3.772   6.402
13317TIP3    H239909   1.537   3.833   6.514
13318TIP3   OH239910   4.108   5.036   5.029
13318TIP3    H139911   4.128   5.111   4.973
13318TIP3    H239912   4.013   5.031   5.029
13319TIP3   OH239913   2.993   6.756   0.656
13319TIP3    H139914   2.976   6.693   0.586
13319TIP3    H239915   2.907   6.791   0.679
13320TIP3   OH239916   1.346   0.078   1.632
13320TIP3    H139917   1.383  -0.007   1.610
13320TIP3    H239918   1.299   0.063   1.714
13321TIP3   OH239919   8.172   2.115   6.544
13321TIP3    H139920   8.206   2.097   6.632
13321TIP3    H239921   8.194   2.206   6.527
13322TIP3   OH239922   6.095   2.629   4.114
13322TIP3    H139923   6.016   2.674   4.086
13322TIP3    H239924   6.087   2.624   4.210
13323TIP3   OH239925   4.282   5.587   6.357
13323TIP3    H139926   4.186   5.594   6.359
13323TIP3    H239927   4.301   5.547   6.272
13324TIP3   OH239928   1.181   6.655   0.095
13324TIP3    H139929   1.175   6.581   0.156
13324TIP3    H239930   1.176   6.732   0.151
13325TIP3   OH239931   6.972   4.079   4.905
13325TIP3    H139932   6.885   4.040   4.910
13325TIP3    H239933   7.008   4.070   4.993
13326TIP3   OH239934   4.065   3.165   0.283
13326TIP3    H139935   4.049   3.234   0.220
13326TIP3    H239936   4.119   3.101   0.236
13327TIP3   OH239937   3.943   4.962   3.591
13327TIP3    H139938   4.014   4.964   3.527
13327TIP3    H239939   3.957   5.041   3.644
13328TIP3   OH239940   1.361   6.106   4.473
13328TIP3    H139941   1.316   6.022   4.472
13328TIP3    H239942   1.420   6.103   4.398
13329TIP3   OH239943   8.207   7.244   1.698
13329TIP3    H139944   8.229   7.333   1.725
13329TIP3    H239945   8.196   7.249   1.603
13330TIP3   OH239946   2.758   0.413   6.111
13330TIP3    H139947   2.712   0.329   6.103
13330TIP3    H239948   2.850   0.393   6.094
13331TIP3   OH239949   3.001   4.152   2.625
13331TIP3    H139950   3.071   4.099   2.587
13331TIP3    H239951   3.022   4.241   2.599
13332TIP3   OH239952   2.797   4.881   1.415
13332TIP3    H139953   2.878   4.929   1.429
13332TIP3    H239954   2.775   4.896   1.323
13333TIP3   OH239955   0.299   3.968   4.772
13333TIP3    H139956   0.307   4.057   4.737
13333TIP3    H239957   0.304   3.911   4.695
13334TIP3   OH239958   1.158   4.846   0.950
13334TIP3    H139959   1.133   4.885   0.866
13334TIP3    H239960   1.075   4.816   0.988
13335TIP3   OH239961   5.409   6.997   5.442
13335TIP3    H139962   5.487   7.033   5.484
13335TIP3    H239963   5.406   6.906   5.472
13336TIP3   OH239964   4.348   4.193   2.072
13336TIP3    H139965   4.409   4.262   2.045
13336TIP3    H239966   4.340   4.137   1.995
13337TIP3   OH239967   5.040   0.922   6.709
13337TIP3    H139968   5.088   0.995   6.670
13337TIP3    H239969   4.949   0.952   6.712
13338TIP3   OH239970   8.238   7.580   1.600
13338TIP3    H139971   8.144   7.576   1.616
13338TIP3    H239972   8.251   7.662   1.552
13339TIP3   OH239973   5.605   5.465   0.893
13339TIP3    H139974   5.557   5.415   0.826
13339TIP3    H239975   5.673   5.512   0.844
13340TIP3   OH239976   1.446   6.211   3.936
13340TIP3    H139977   1.368   6.171   3.897
13340TIP3    H239978   1.434   6.200   4.030
13341TIP3   OH239979   6.283   5.712   5.593
13341TIP3    H139980   6.273   5.747   5.504
13341TIP3    H239981   6.303   5.789   5.646
13342TIP3   OH239982   2.427   6.884   0.656
13342TIP3    H139983   2.384   6.969   0.667
13342TIP3    H239984   2.383   6.844   0.581
13343TIP3   OH239985   7.179   7.175   3.274
13343TIP3    H139986   7.134   7.127   3.204
13343TIP3    H239987   7.256   7.211   3.231
13344TIP3   OH239988   7.220   2.554   6.282
13344TIP3    H139989   7.252   2.524   6.367
13344TIP3    H239990   7.257   2.642   6.272
13345TIP3   OH239991   1.620   0.767   5.328
13345TIP3    H139992   1.657   0.695   5.278
13345TIP3    H239993   1.682   0.840   5.314
13346TIP3   OH239994   5.242   4.880   4.798
13346TIP3    H139995   5.200   4.825   4.731
13346TIP3    H239996   5.226   4.834   4.880
13347TIP3   OH239997   4.072   1.104   3.715
13347TIP3    H139998   4.030   1.106   3.801
13347TIP3    H239999   4.145   1.166   3.723
13348TIP3   OH240000   1.376   5.566   5.350
13348TIP3    H140001   1.359   5.628   5.421
13348TIP3    H240002   1.402   5.621   5.276
13349TIP3   OH240003   3.337   1.702   2.617
13349TIP3    H140004   3.393   1.693   2.694
13349TIP3    H240005   3.398   1.726   2.546
13350TIP3   OH240006   2.178   1.537   2.758
13350TIP3    H140007   2.106   1.573   2.809
13350TIP3    H240008   2.244   1.513   2.823
13351TIP3   OH240009   1.389   2.074   1.782
13351TIP3    H140010   1.378   2.038   1.870
13351TIP3    H240011   1.348   2.161   1.787
13352TIP3   OH240012   8.126   0.923   1.608
13352TIP3    H140013   8.089   0.836   1.592
13352TIP3    H240014   8.074   0.957   1.681
13353TIP3   OH240015   3.677   5.925   0.603
13353TIP3    H140016   3.689   5.952   0.513
13353TIP3    H240017   3.638   6.001   0.646
13354TIP3   OH240018   4.088   4.264   2.080
13354TIP3    H140019   4.176   4.225   2.084
13354TIP3    H240020   4.057   4.243   1.992
13355TIP3   OH240021   0.966   2.416   0.804
13355TIP3    H140022   0.937   2.486   0.862
13355TIP3    H240023   0.938   2.444   0.717
13356TIP3   OH240024   1.748   1.006   6.145
13356TIP3    H140025   1.758   0.915   6.115
13356TIP3    H240026   1.653   1.016   6.156
13357TIP3   OH240027   3.655   2.864   5.409
13357TIP3    H140028   3.562   2.863   5.387
13357TIP3    H240029   3.657   2.884   5.503
13358TIP3   OH240030   2.671   6.871   1.814
13358TIP3    H140031   2.672   6.786   1.858
13358TIP3    H240032   2.580   6.886   1.792
13359TIP3   OH240033   6.152   5.181   4.458
13359TIP3    H140034   6.106   5.134   4.527
13359TIP3    H240035   6.156   5.119   4.385
13360TIP3   OH240036   6.390   3.060   0.535
13360TIP3    H140037   6.388   3.150   0.566
13360TIP3    H240038   6.301   3.043   0.504
13361TIP3   OH240039   6.405   1.151   6.532
13361TIP3    H140040   6.341   1.211   6.495
13361TIP3    H240041   6.392   1.156   6.626
13362TIP3   OH240042   3.567   2.226   5.887
13362TIP3    H140043   3.559   2.214   5.982
13362TIP3    H240044   3.592   2.139   5.854
13363TIP3   OH240045   5.355   0.763   5.818
13363TIP3    H140046   5.430   0.761   5.759
13363TIP3    H240047   5.364   0.684   5.871
13364TIP3   OH240048   3.261   1.710   0.182
13364TIP3    H140049   3.232   1.801   0.187
13364TIP3    H240050   3.221   1.677   0.101
13365TIP3   OH240051   5.008   6.594   5.099
13365TIP3    H140052   5.030   6.528   5.165
13365TIP3    H240053   5.074   6.663   5.111
13366TIP3   OH240054   8.132   2.825   3.414
13366TIP3    H140055   8.111   2.807   3.323
13366TIP3    H240056   8.111   2.743   3.460
13367TIP3   OH240057   2.412   4.097   5.468
13367TIP3    H140058   2.451   4.017   5.505
13367TIP3    H240059   2.319   4.089   5.487
13368TIP3   OH240060   5.249   3.326   2.242
13368TIP3    H140061   5.332   3.333   2.290
13368TIP3    H240062   5.262   3.252   2.182
13369TIP3   OH240063   0.649   5.158   4.548
13369TIP3    H140064   0.608   5.168   4.462
13369TIP3    H240065   0.713   5.228   4.553
13370TIP3   OH240066   7.148   2.680   1.384
13370TIP3    H140067   7.077   2.743   1.390
13370TIP3    H240068   7.143   2.646   1.295
13371TIP3   OH240069   7.048   2.306   2.224
13371TIP3    H140070   7.081   2.396   2.226
13371TIP3    H240071   6.998   2.301   2.142
13372TIP3   OH240072   3.807   6.905   5.729
13372TIP3    H140073   3.754   6.895   5.650
13372TIP3    H240074   3.819   6.816   5.762
13373TIP3   OH240075   4.770   4.775   1.790
13373TIP3    H140076   4.688   4.797   1.746
13373TIP3    H240077   4.814   4.714   1.731
13374TIP3   OH240078   3.172   0.203   1.741
13374TIP3    H140079   3.104   0.231   1.802
13374TIP3    H240080   3.153   0.111   1.722
13375TIP3   OH240081   8.066   2.467   3.902
13375TIP3    H140082   8.123   2.393   3.879
13375TIP3    H240083   8.055   2.515   3.820
13376TIP3   OH240084   0.058   1.801   5.012
13376TIP3    H140085   0.051   1.756   5.096
13376TIP3    H240086  -0.019   1.857   5.008
13377TIP3   OH240087   3.173   2.849   2.100
13377TIP3    H140088   3.188   2.943   2.098
13377TIP3    H240089   3.077   2.840   2.104
13378TIP3   OH240090   4.419   2.211   5.789
13378TIP3    H140091   4.454   2.297   5.812
13378TIP3    H240092   4.493   2.166   5.748
13379TIP3   OH240093   6.990   0.743   2.964
13379TIP3    H140094   6.999   0.826   2.917
13379TIP3    H240095   6.922   0.759   3.028
13380TIP3   OH240096   8.250   0.938   5.956
13380TIP3    H140097   8.246   0.848   5.922
13380TIP3    H240098   8.217   0.931   6.045
13381TIP3   OH240099   1.088   6.203   3.604
13381TIP3    H140100   1.073   6.149   3.527
13381TIP3    H240101   1.010   6.258   3.610
13382TIP3   OH240102   4.130   6.063   5.065
13382TIP3    H140103   4.087   5.995   5.118
13382TIP3    H240104   4.137   6.025   4.978
13383TIP3   OH240105   1.689   1.051   4.210
13383TIP3    H140106   1.668   0.964   4.243
13383TIP3    H240107   1.737   1.036   4.129
13384TIP3   OH240108   3.533   3.775   1.732
13384TIP3    H140109   3.610   3.725   1.761
13384TIP3    H240110   3.471   3.766   1.805
13385TIP3   OH240111   4.548   2.417   6.531
13385TIP3    H140112   4.593   2.435   6.448
13385TIP3    H240113   4.575   2.328   6.554
13386TIP3   OH240114   3.131   6.429   5.484
13386TIP3    H140115   3.099   6.367   5.550
13386TIP3    H240116   3.055   6.445   5.428
13387TIP3   OH240117   6.003   3.543   5.905
13387TIP3    H140118   6.044   3.460   5.882
13387TIP3    H240119   6.009   3.547   6.000
13388TIP3   OH240120   6.829   1.193   4.022
13388TIP3    H140121   6.889   1.249   4.072
13388TIP3    H240122   6.886   1.142   3.965
13389TIP3   OH240123   1.495   0.239   5.339
13389TIP3    H140124   1.577   0.191   5.322
13389TIP3    H240125   1.426   0.178   5.312
13390TIP3   OH240126   6.374   2.423   5.605
13390TIP3    H140127   6.351   2.475   5.682
13390TIP3    H240128   6.420   2.347   5.640
13391TIP3   OH240129   6.865   7.654   2.923
13391TIP3    H140130   6.857   7.578   2.980
13391TIP3    H240131   6.836   7.623   2.837
13392TIP3   OH240132   8.260   3.365   3.532
13392TIP3    H140133   8.296   3.396   3.449
13392TIP3    H240134   8.167   3.348   3.513
13393TIP3   OH240135   0.078   0.356   5.873
13393TIP3    H140136   0.015   0.286   5.856
13393TIP3    H240137   0.078   0.407   5.792
13394TIP3   OH240138   5.447   0.328   2.314
13394TIP3    H140139   5.513   0.267   2.347
13394TIP3    H240140   5.367   0.305   2.360
13395TIP3   OH240141   1.556   7.499   0.096
13395TIP3    H140142   1.602   7.423   0.131
13395TIP3    H240143   1.506   7.533   0.171
13396TIP3   OH240144   0.784   6.963   1.618
13396TIP3    H140145   0.696   6.969   1.583
13396TIP3    H240146   0.824   7.048   1.600
13397TIP3   OH240147   2.980   6.525   5.901
13397TIP3    H140148   3.035   6.601   5.922
13397TIP3    H240149   2.959   6.486   5.986
13398TIP3   OH240150   4.654   4.370   2.237
13398TIP3    H140151   4.594   4.425   2.288
13398TIP3    H240152   4.624   4.280   2.253
13399TIP3   OH240153   1.652   3.487   1.479
13399TIP3    H140154   1.738   3.467   1.444
13399TIP3    H240155   1.652   3.582   1.490
13400TIP3   OH240156   4.728   2.701   0.835
13400TIP3    H140157   4.695   2.683   0.748
13400TIP3    H240158   4.788   2.629   0.855
13401TIP3   OH240159   6.190   3.870   0.228
13401TIP3    H140160   6.112   3.892   0.177
13401TIP3    H240161   6.205   3.947   0.283
13402TIP3   OH240162   3.629   2.041   2.311
13402TIP3    H140163   3.587   2.047   2.226
13402TIP3    H240164   3.605   2.122   2.356
13403TIP3   OH240165   4.743   3.598   4.975
13403TIP3    H140166   4.650   3.584   4.962
13403TIP3    H240167   4.755   3.599   5.070
13404TIP3   OH240168   1.967   0.461   3.525
13404TIP3    H140169   1.890   0.519   3.526
13404TIP3    H240170   1.935   0.379   3.488
13405TIP3   OH240171   7.819   2.234   6.363
13405TIP3    H140172   7.862   2.318   6.381
13405TIP3    H240173   7.792   2.239   6.272
13406TIP3   OH240174   1.705   4.585   6.090
13406TIP3    H140175   1.787   4.586   6.040
13406TIP3    H240176   1.709   4.664   6.143
13407TIP3   OH240177   6.807   2.122   5.148
13407TIP3    H140178   6.859   2.049   5.181
13407TIP3    H240179   6.724   2.082   5.121
13408TIP3   OH240180   2.008   6.397   0.865
13408TIP3    H140181   1.927   6.427   0.824
13408TIP3    H240182   1.990   6.399   0.959
13409TIP3   OH240183   5.901   6.442   0.623
13409TIP3    H140184   5.890   6.515   0.562
13409TIP3    H240185   5.959   6.381   0.577
13410TIP3   OH240186   1.235   2.874   4.331
13410TIP3    H140187   1.239   2.857   4.237
13410TIP3    H240188   1.301   2.815   4.368
13411TIP3   OH240189   3.946   0.257   4.345
13411TIP3    H140190   3.865   0.292   4.310
13411TIP3    H240191   3.970   0.317   4.416
13412TIP3   OH240192   2.973   1.013   5.967
13412TIP3    H140193   2.998   1.101   5.995
13412TIP3    H240194   2.932   1.025   5.882
13413TIP3   OH240195   0.573   7.778   1.366
13413TIP3    H140196   0.555   7.686   1.383
13413TIP3    H240197   0.669   7.784   1.368
13414TIP3   OH240198   0.415   4.282   0.473
13414TIP3    H140199   0.340   4.240   0.515
13414TIP3    H240200   0.434   4.358   0.528
13415TIP3   OH240201   2.001   6.448   0.568
13415TIP3    H140202   2.022   6.390   0.495
13415TIP3    H240203   2.031   6.401   0.646
13416TIP3   OH240204   7.423   7.119   5.640
13416TIP3    H140205   7.450   7.034   5.607
13416TIP3    H240206   7.495   7.147   5.696
13417TIP3   OH240207   5.272   3.097   2.088
13417TIP3    H140208   5.360   3.077   2.057
13417TIP3    H240209   5.217   3.088   2.010
13418TIP3   OH240210   3.176   4.884   1.928
13418TIP3    H140211   3.223   4.944   1.986
13418TIP3    H240212   3.136   4.820   1.987
13419TIP3   OH240213   4.234   3.446   5.982
13419TIP3    H140214   4.229   3.529   6.029
13419TIP3    H240215   4.154   3.443   5.929
13420TIP3   OH240216   7.693   1.166   5.046
13420TIP3    H140217   7.605   1.190   5.018
13420TIP3    H240218   7.715   1.229   5.114
13421TIP3   OH240219   4.129   1.271   0.980
13421TIP3    H140220   4.133   1.260   0.885
13421TIP3    H240221   4.037   1.288   0.999
13422TIP3   OH240222   3.941   5.061   0.143
13422TIP3    H140223   3.944   5.145   0.097
13422TIP3    H240224   4.017   5.063   0.202
13423TIP3   OH240225   8.029   5.384   5.464
13423TIP3    H140226   7.980   5.392   5.545
13423TIP3    H240227   8.106   5.332   5.486
13424TIP3   OH240228   2.913   5.262   2.658
13424TIP3    H140229   3.006   5.281   2.640
13424TIP3    H240230   2.912   5.231   2.749
13425TIP3   OH240231   2.690   5.993   0.090
13425TIP3    H140232   2.633   5.919   0.114
13425TIP3    H240233   2.635   6.070   0.104
13426TIP3   OH240234   6.750   1.229   0.583
13426TIP3    H140235   6.782   1.160   0.640
13426TIP3    H240236   6.825   1.288   0.573
13427TIP3   OH240237   4.133   0.647   4.619
13427TIP3    H140238   4.208   0.687   4.574
13427TIP3    H240239   4.057   0.674   4.568
13428TIP3   OH240240   4.841   2.154   5.245
13428TIP3    H140241   4.813   2.092   5.178
13428TIP3    H240242   4.778   2.142   5.316
13429TIP3   OH240243   5.947   3.038   4.274
13429TIP3    H140244   6.039   3.041   4.302
13429TIP3    H240245   5.951   3.012   4.182
13430TIP3   OH240246   1.542   7.124   1.301
13430TIP3    H140247   1.507   7.041   1.268
13430TIP3    H240248   1.466   7.181   1.311
13431TIP3   OH240249   7.840   4.054   1.549
13431TIP3    H140250   7.900   3.992   1.591
13431TIP3    H240251   7.863   4.139   1.588
13432TIP3   OH240252   0.232   3.768   1.471
13432TIP3    H140253   0.323   3.740   1.479
13432TIP3    H240254   0.204   3.788   1.560
13433TIP3   OH240255   1.339   2.323   2.383
13433TIP3    H140256   1.341   2.294   2.292
13433TIP3    H240257   1.431   2.326   2.409
13434TIP3   OH240258   2.574   1.829   3.771
13434TIP3    H140259   2.614   1.912   3.745
13434TIP3    H240260   2.647   1.767   3.772
13435TIP3   OH240261   1.555   3.330   3.908
13435TIP3    H140262   1.556   3.356   4.001
13435TIP3    H240263   1.591   3.242   3.907
13436TIP3   OH240264   5.697   7.400   6.305
13436TIP3    H140265   5.749   7.473   6.339
13436TIP3    H240266   5.664   7.432   6.221
13437TIP3   OH240267   1.317   1.829   5.144
13437TIP3    H140268   1.405   1.822   5.106
13437TIP3    H240269   1.318   1.768   5.218
13438TIP3   OH240270   0.837   1.014   5.751
13438TIP3    H140271   0.840   1.074   5.676
13438TIP3    H240272   0.780   0.943   5.722
13439TIP3   OH240273   5.334   3.828   3.728
13439TIP3    H140274   5.254   3.848   3.680
13439TIP3    H240275   5.401   3.883   3.688
13440TIP3   OH240276   7.808   1.949   3.058
13440TIP3    H140277   7.718   1.915   3.062
13440TIP3    H240278   7.823   1.987   3.145
13441TIP3   OH240279   7.022   1.196   1.194
13441TIP3    H140280   7.050   1.128   1.254
13441TIP3    H240281   6.933   1.219   1.223
13442TIP3   OH240282   8.136   3.628   3.554
13442TIP3    H140283   8.116   3.549   3.504
13442TIP3    H240284   8.221   3.611   3.594
13443TIP3   OH240285   3.323   1.444   5.375
13443TIP3    H140286   3.383   1.389   5.324
13443TIP3    H240287   3.365   1.530   5.376
13444TIP3   OH240288   5.131   6.083   1.987
13444TIP3    H140289   5.175   6.006   2.024
13444TIP3    H240290   5.171   6.157   2.032
13445TIP3   OH240291   1.804   3.801   1.551
13445TIP3    H140292   1.876   3.855   1.517
13445TIP3    H240293   1.845   3.745   1.617
13446TIP3   OH240294   0.565   4.882   0.033
13446TIP3    H140295   0.570   4.922  -0.054
13446TIP3    H240296   0.494   4.819   0.026
13447TIP3   OH240297   4.612   0.244   0.504
13447TIP3    H140298   4.589   0.333   0.529
13447TIP3    H240299   4.677   0.217   0.569
13448TIP3   OH240300   4.961   2.166   4.548
13448TIP3    H140301   5.003   2.099   4.494
13448TIP3    H240302   5.022   2.241   4.544
13449TIP3   OH240303   0.815   5.034   0.016
13449TIP3    H140304   0.826   4.939   0.024
13449TIP3    H240305   0.756   5.057   0.088
13450TIP3   OH240306   4.977   7.077   3.247
13450TIP3    H140307   5.047   7.048   3.189
13450TIP3    H240308   4.964   7.170   3.224
13451TIP3   OH240309   1.870   4.401   1.226
13451TIP3    H140310   1.927   4.336   1.266
13451TIP3    H240311   1.807   4.424   1.295
13452TIP3   OH240312   1.978   3.087   0.921
13452TIP3    H140313   1.984   2.992   0.911
13452TIP3    H240314   1.885   3.107   0.911
13453TIP3   OH240315   7.864   2.917   6.456
13453TIP3    H140316   7.769   2.925   6.466
13453TIP3    H240317   7.889   2.853   6.523
13454TIP3   OH240318   6.283   0.721   6.226
13454TIP3    H140319   6.357   0.761   6.271
13454TIP3    H240320   6.321   0.679   6.149
13455TIP3   OH240321   2.682   4.027   0.084
13455TIP3    H140322   2.763   3.976   0.083
13455TIP3    H240323   2.672   4.053   0.176
13456TIP3   OH240324   4.549   6.375   1.052
13456TIP3    H140325   4.501   6.456   1.067
13456TIP3    H240326   4.627   6.402   1.004
13457TIP3   OH240327   2.839   5.057   4.666
13457TIP3    H140328   2.794   5.091   4.589
13457TIP3    H240329   2.800   5.104   4.739
13458TIP3   OH240330   3.871   2.854   3.777
13458TIP3    H140331   3.903   2.925   3.833
13458TIP3    H240332   3.941   2.788   3.780
13459TIP3   OH240333   4.381   0.505   6.284
13459TIP3    H140334   4.350   0.569   6.348
13459TIP3    H240335   4.468   0.481   6.315
13460TIP3   OH240336   2.774   7.526   0.500
13460TIP3    H140337   2.701   7.583   0.477
13460TIP3    H240338   2.838   7.540   0.429
13461TIP3   OH240339   2.553   6.543   4.191
13461TIP3    H140340   2.483   6.575   4.135
13461TIP3    H240341   2.549   6.598   4.269
13462TIP3   OH240342   7.933   5.609   5.041
13462TIP3    H140343   7.838   5.604   5.050
13462TIP3    H240344   7.966   5.532   5.088
13463TIP3   OH240345   0.088   5.215   5.454
13463TIP3    H140346   0.076   5.271   5.378
13463TIP3    H240347   0.108   5.129   5.418
13464TIP3   OH240348   7.265   1.957   3.194
13464TIP3    H140349   7.230   2.020   3.131
13464TIP3    H240350   7.356   1.943   3.167
13465TIP3   OH240351   1.095   6.356   2.964
13465TIP3    H140352   1.167   6.310   2.923
13465TIP3    H240353   1.117   6.449   2.954
13466TIP3   OH240354   0.361   0.179   0.248
13466TIP3    H140355   0.274   0.139   0.239
13466TIP3    H240356   0.359   0.221   0.334
13467TIP3   OH240357   2.682   5.606   1.712
13467TIP3    H140358   2.726   5.524   1.737
13467TIP3    H240359   2.672   5.653   1.795
13468TIP3   OH240360   3.327   7.419   2.032
13468TIP3    H140361   3.235   7.414   2.005
13468TIP3    H240362   3.366   7.481   1.971
13469TIP3   OH240363   3.866   7.536   2.132
13469TIP3    H140364   3.801   7.606   2.133
13469TIP3    H240365   3.830   7.469   2.191
13470TIP3   OH240366   5.747   0.034   3.180
13470TIP3    H140367   5.837   0.026   3.211
13470TIP3    H240368   5.737   0.127   3.159
13471TIP3   OH240369   6.447   5.462   4.661
13471TIP3    H140370   6.355   5.477   4.639
13471TIP3    H240371   6.484   5.422   4.583
13472TIP3   OH240372   7.828   5.238   4.744
13472TIP3    H140373   7.791   5.220   4.657
13472TIP3    H240374   7.872   5.323   4.734
13473TIP3   OH240375   0.792   1.522   5.950
13473TIP3    H140376   0.721   1.514   5.887
13473TIP3    H240377   0.870   1.495   5.902
13474TIP3   OH240378   6.294   1.299   3.183
13474TIP3    H140379   6.232   1.228   3.167
13474TIP3    H240380   6.357   1.263   3.245
13475TIP3   OH240381   2.952   2.363   2.788
13475TIP3    H140382   2.897   2.412   2.727
13475TIP3    H240383   2.893   2.335   2.858
13476TIP3   OH240384   1.427   3.443   0.370
13476TIP3    H140385   1.518   3.438   0.400
13476TIP3    H240386   1.392   3.355   0.386
13477TIP3   OH240387   7.184   6.643   6.744
13477TIP3    H140388   7.122   6.571   6.737
13477TIP3    H240389   7.151   6.697   6.816
13478TIP3   OH240390   8.031   1.319   1.192
13478TIP3    H140391   8.027   1.232   1.230
13478TIP3    H240392   8.114   1.355   1.225
13479TIP3   OH240393   2.962   4.634   4.388
13479TIP3    H140394   3.041   4.688   4.381
13479TIP3    H240395   2.943   4.631   4.481
13480TIP3   OH240396   5.336   6.239   0.964
13480TIP3    H140397   5.256   6.260   0.915
13480TIP3    H240398   5.390   6.192   0.900
13481TIP3   OH240399   4.862   4.581   2.502
13481TIP3    H140400   4.807   4.651   2.465
13481TIP3    H240401   4.806   4.537   2.566
13482TIP3   OH240402   2.411   5.335   3.076
13482TIP3    H140403   2.473   5.346   3.004
13482TIP3    H240404   2.458   5.365   3.154
13483TIP3   OH240405   0.148   2.732   6.305
13483TIP3    H140406   0.087   2.798   6.271
13483TIP3    H240407   0.169   2.678   6.230
13484TIP3   OH240408   3.213   6.100   2.083
13484TIP3    H140409   3.263   6.098   2.001
13484TIP3    H240410   3.256   6.169   2.135
13485TIP3   OH240411   5.328   4.472   2.252
13485TIP3    H140412   5.370   4.416   2.317
13485TIP3    H240413   5.271   4.529   2.304
13486TIP3   OH240414   4.309   5.990   5.916
13486TIP3    H140415   4.311   5.900   5.882
13486TIP3    H240416   4.396   6.002   5.955
13487TIP3   OH240417   7.863   7.286   3.528
13487TIP3    H140418   7.887   7.203   3.568
13487TIP3    H240419   7.820   7.335   3.599
13488TIP3   OH240420   5.660   4.323   4.145
13488TIP3    H140421   5.587   4.369   4.188
13488TIP3    H240422   5.697   4.268   4.214
13489TIP3   OH240423   3.703   0.273   5.330
13489TIP3    H140424   3.734   0.334   5.263
13489TIP3    H240425   3.744   0.190   5.308
13490TIP3   OH240426   1.091   7.361   4.707
13490TIP3    H140427   1.127   7.318   4.784
13490TIP3    H240428   1.143   7.441   4.697
13491TIP3   OH240429   1.161   2.011   5.034
13491TIP3    H140430   1.224   1.947   5.066
13491TIP3    H240431   1.075   1.972   5.052
13492TIP3   OH240432   6.053   6.936   0.092
13492TIP3    H140433   6.096   7.007   0.045
13492TIP3    H240434   6.050   6.964   0.183
13493TIP3   OH240435   1.840   0.799   4.414
13493TIP3    H140436   1.931   0.827   4.405
13493TIP3    H240437   1.844   0.719   4.466
13494TIP3   OH240438   3.727   0.290   0.958
13494TIP3    H140439   3.665   0.350   0.917
13494TIP3    H240440   3.695   0.279   1.048
13495TIP3   OH240441   2.281   3.231   4.638
13495TIP3    H140442   2.355   3.283   4.670
13495TIP3    H240443   2.208   3.258   4.693
13496TIP3   OH240444   4.760   4.898   3.812
13496TIP3    H140445   4.838   4.896   3.758
13496TIP3    H240446   4.720   4.812   3.800
13497TIP3   OH240447   0.468   2.275   2.720
13497TIP3    H140448   0.413   2.286   2.797
13497TIP3    H240449   0.555   2.256   2.755
13498TIP3   OH240450   5.178   6.270   6.447
13498TIP3    H140451   5.111   6.204   6.463
13498TIP3    H240452   5.259   6.229   6.477
13499TIP3   OH240453   5.720   3.650   4.715
13499TIP3    H140454   5.726   3.735   4.672
13499TIP3    H240455   5.779   3.594   4.665
13500TIP3   OH240456   7.361   3.783   5.284
13500TIP3    H140457   7.381   3.796   5.191
13500TIP3    H240458   7.274   3.744   5.284
13501TIP3   OH240459   4.516   6.071   3.921
13501TIP3    H140460   4.450   6.116   3.869
13501TIP3    H240461   4.478   5.985   3.939
13502TIP3   OH240462   2.755   3.297   2.894
13502TIP3    H140463   2.763   3.374   2.838
13502TIP3    H240464   2.791   3.226   2.842
13503TIP3   OH240465   5.978   4.145   4.949
13503TIP3    H140466   5.951   4.175   4.862
13503TIP3    H240467   6.068   4.117   4.938
13504TIP3   OH240468   8.088   0.800   6.148
13504TIP3    H140469   8.075   0.809   6.242
13504TIP3    H240470   8.146   0.724   6.139
13505TIP3   OH240471   3.603   5.415   6.048
13505TIP3    H140472   3.564   5.418   5.961
13505TIP3    H240473   3.574   5.495   6.091
13506TIP3   OH240474   2.449   5.552   2.326
13506TIP3    H140475   2.404   5.488   2.271
13506TIP3    H240476   2.422   5.530   2.415
13507TIP3   OH240477   4.800   2.432   2.613
13507TIP3    H140478   4.821   2.343   2.585
13507TIP3    H240479   4.875   2.459   2.665
13508TIP3   OH240480   1.721   4.207   1.383
13508TIP3    H140481   1.757   4.155   1.454
13508TIP3    H240482   1.678   4.281   1.427
13509TIP3   OH240483   1.950   4.612   5.975
13509TIP3    H140484   2.003   4.644   6.048
13509TIP3    H240485   1.936   4.689   5.920
13510TIP3   OH240486   3.712   6.615   4.469
13510TIP3    H140487   3.706   6.593   4.376
13510TIP3    H240488   3.642   6.565   4.510
13511TIP3   OH240489   8.181   3.944   6.009
13511TIP3    H140490   8.172   4.039   6.002
13511TIP3    H240491   8.217   3.930   6.096
13512TIP3   OH240492   1.116   6.834   2.309
13512TIP3    H140493   1.140   6.802   2.397
13512TIP3    H240494   1.033   6.881   2.322
13513TIP3   OH240495   3.861   7.220   3.485
13513TIP3    H140496   3.778   7.249   3.448
13513TIP3    H240497   3.871   7.271   3.566
13514TIP3   OH240498   6.239   1.412   0.436
13514TIP3    H140499   6.279   1.365   0.509
13514TIP3    H240500   6.311   1.461   0.397
13515TIP3   OH240501   3.649   3.775   4.180
13515TIP3    H140502   3.656   3.680   4.173
13515TIP3    H240503   3.604   3.790   4.263
13516TIP3   OH240504   4.920   0.099   5.165
13516TIP3    H140505   4.934   0.135   5.077
13516TIP3    H240506   4.921   0.176   5.222
13517TIP3   OH240507   3.445   0.988   0.125
13517TIP3    H140508   3.526   0.999   0.176
13517TIP3    H240509   3.463   1.032   0.042
13518TIP3   OH240510   4.857   3.971   6.121
13518TIP3    H140511   4.908   3.973   6.202
13518TIP3    H240512   4.867   3.881   6.089
13519TIP3   OH240513   2.769   4.248   4.118
13519TIP3    H140514   2.785   4.330   4.164
13519TIP3    H240515   2.834   4.187   4.155
13520TIP3   OH240516   3.886   7.202   0.816
13520TIP3    H140517   3.968   7.229   0.857
13520TIP3    H240518   3.913   7.148   0.742
13521TIP3   OH240519   2.278   5.300   4.519
13521TIP3    H140520   2.310   5.221   4.563
13521TIP3    H240521   2.249   5.269   4.433
13522TIP3   OH240522   1.473   1.174   1.081
13522TIP3    H140523   1.545   1.111   1.087
13522TIP3    H240524   1.450   1.193   1.172
13523TIP3   OH240525   1.880   4.942   5.363
13523TIP3    H140526   1.917   4.914   5.280
13523TIP3    H240527   1.800   4.892   5.373
13524TIP3   OH240528   2.588   6.281   4.283
13524TIP3    H140529   2.563   6.361   4.237
13524TIP3    H240530   2.631   6.228   4.216
13525TIP3   OH240531   7.109   3.290   2.948
13525TIP3    H140532   7.112   3.386   2.949
13525TIP3    H240533   7.040   3.268   3.010
13526TIP3   OH240534   8.099   5.808   2.720
13526TIP3    H140535   8.099   5.894   2.677
13526TIP3    H240536   8.007   5.794   2.744
13527TIP3   OH240537   3.337   6.724   4.495
13527TIP3    H140538   3.389   6.729   4.415
13527TIP3    H240539   3.370   6.647   4.540
13528TIP3   OH240540   5.934   1.814   1.369
13528TIP3    H140541   5.993   1.747   1.404
13528TIP3    H240542   5.989   1.865   1.309
13529TIP3   OH240543   0.568   0.537   1.338
13529TIP3    H140544   0.657   0.552   1.370
13529TIP3    H240545   0.516   0.522   1.417
13530TIP3   OH240546   3.534   4.412   4.901
13530TIP3    H140547   3.491   4.444   4.980
13530TIP3    H240548   3.464   4.368   4.852
13531TIP3   OH240549   2.605   5.145   0.737
13531TIP3    H140550   2.659   5.223   0.731
13531TIP3    H240551   2.541   5.155   0.666
13532TIP3   OH240552   2.004   1.907   5.500
13532TIP3    H140553   1.977   1.832   5.552
13532TIP3    H240554   1.922   1.950   5.476
13533TIP3   OH240555   4.559   6.751   3.267
13533TIP3    H140556   4.591   6.834   3.302
13533TIP3    H240557   4.636   6.694   3.266
13534TIP3   OH240558   5.800   2.938   5.938
13534TIP3    H140559   5.817   2.900   6.024
13534TIP3    H240560   5.704   2.945   5.934
13535TIP3   OH240561   1.385   0.697   5.826
13535TIP3    H140562   1.395   0.639   5.750
13535TIP3    H240563   1.356   0.639   5.897
13536TIP3   OH240564   7.805   0.360   1.579
13536TIP3    H140565   7.752   0.440   1.566
13536TIP3    H240566   7.770   0.321   1.659
13537TIP3   OH240567   1.895   7.289   0.817
13537TIP3    H140568   1.989   7.301   0.805
13537TIP3    H240569   1.873   7.218   0.758
13538TIP3   OH240570   5.206   2.478   3.069
13538TIP3    H140571   5.249   2.544   3.124
13538TIP3    H240572   5.252   2.397   3.089
13539TIP3   OH240573   6.155   2.711   5.722
13539TIP3    H140574   6.219   2.783   5.721
13539TIP3    H240575   6.199   2.641   5.772
13540TIP3   OH240576   8.140   7.713   3.598
13540TIP3    H140577   8.212   7.736   3.539
13540TIP3    H240578   8.182   7.669   3.671
13541TIP3   OH240579   6.313   6.009   1.739
13541TIP3    H140580   6.391   5.999   1.794
13541TIP3    H240581   6.275   6.092   1.767
13542TIP3   OH240582   2.976   7.552   3.106
13542TIP3    H140583   2.952   7.644   3.117
13542TIP3    H240584   3.038   7.551   3.033
13543TIP3   OH240585   7.165   2.110   5.226
13543TIP3    H140586   7.255   2.135   5.245
13543TIP3    H240587   7.132   2.074   5.309
13544TIP3   OH240588   5.933   4.069   4.465
13544TIP3    H140589   5.893   4.147   4.502
13544TIP3    H240590   5.884   4.053   4.384
13545TIP3   OH240591   5.911   7.686   0.089
13545TIP3    H140592   5.914   7.721   0.178
13545TIP3    H240593   5.883   7.595   0.100
13546TIP3   OH240594   6.210   0.310   1.751
13546TIP3    H140595   6.206   0.220   1.782
13546TIP3    H240596   6.198   0.363   1.830
13547TIP3   OH240597   3.488   7.223   2.449
13547TIP3    H140598   3.538   7.176   2.383
13547TIP3    H240599   3.399   7.191   2.439
13548TIP3   OH240600   3.620   4.927   6.308
13548TIP3    H140601   3.542   4.952   6.259
13548TIP3    H240602   3.619   4.983   6.386
13549TIP3   OH240603   0.601   3.156   4.370
13549TIP3    H140604   0.544   3.197   4.305
13549TIP3    H240605   0.551   3.079   4.400
13550TIP3   OH240606   8.150   0.012   2.236
13550TIP3    H140607   8.185   0.098   2.212
13550TIP3    H240608   8.207  -0.051   2.192
13551TIP3   OH240609   5.625   5.729   2.327
13551TIP3    H140610   5.703   5.720   2.273
13551TIP3    H240611   5.624   5.821   2.353
13552TIP3   OH240612   5.700   3.498   1.361
13552TIP3    H140613   5.791   3.475   1.381
13552TIP3    H240614   5.677   3.564   1.427
13553TIP3   OH240615   0.256   1.348   6.041
13553TIP3    H140616   0.259   1.260   6.078
13553TIP3    H240617   0.266   1.336   5.947
13554TIP3   OH240618   5.663   3.323   1.652
13554TIP3    H140619   5.593   3.388   1.644
13554TIP3    H240620   5.657   3.271   1.572
13555TIP3   OH240621   1.131   1.040   6.598
13555TIP3    H140622   1.203   1.103   6.609
13555TIP3    H240623   1.052   1.093   6.603
13556TIP3   OH240624   1.713   2.781   3.383
13556TIP3    H140625   1.664   2.857   3.415
13556TIP3    H240626   1.799   2.817   3.359
13557TIP3   OH240627   7.683   6.138   3.369
13557TIP3    H140628   7.696   6.179   3.283
13557TIP3    H240629   7.770   6.136   3.408
13558TIP3   OH240630   5.823   7.226   2.405
13558TIP3    H140631   5.791   7.295   2.347
13558TIP3    H240632   5.791   7.145   2.366
13559TIP3   OH240633   4.881   1.367   3.732
13559TIP3    H140634   4.908   1.448   3.775
13559TIP3    H240635   4.947   1.353   3.664
13560TIP3   OH240636   0.167   7.260   5.541
13560TIP3    H140637   0.187   7.343   5.498
13560TIP3    H240638   0.142   7.201   5.471
13561TIP3   OH240639   4.477   0.396   3.269
13561TIP3    H140640   4.536   0.322   3.276
13561TIP3    H240641   4.498   0.436   3.184
13562TIP3   OH240642   2.384   7.534   3.052
13562TIP3    H140643   2.342   7.563   3.133
13562TIP3    H240644   2.462   7.589   3.044
13563TIP3   OH240645   4.399   1.319   3.335
13563TIP3    H140646   4.363   1.284   3.254
13563TIP3    H240647   4.479   1.268   3.350
13564TIP3   OH240648   7.294   0.761   6.541
13564TIP3    H140649   7.241   0.836   6.568
13564TIP3    H240650   7.329   0.786   6.455
13565TIP3   OH240651   0.345   1.928   3.248
13565TIP3    H140652   0.295   1.994   3.200
13565TIP3    H240653   0.292   1.849   3.243
13566TIP3   OH240654   3.689   3.234   5.705
13566TIP3    H140655   3.779   3.204   5.696
13566TIP3    H240656   3.636   3.155   5.701
13567TIP3   OH240657   3.321   7.566   2.262
13567TIP3    H140658   3.376   7.516   2.322
13567TIP3    H240659   3.319   7.513   2.183
13568TIP3   OH240660   6.758   3.813   5.766
13568TIP3    H140661   6.675   3.818   5.813
13568TIP3    H240662   6.773   3.902   5.734
13569TIP3   OH240663   3.367   0.742   0.039
13569TIP3    H140664   3.359   0.833   0.067
13569TIP3    H240665   3.395   0.747  -0.052
13570TIP3   OH240666   8.156   1.506   3.127
13570TIP3    H140667   8.122   1.590   3.155
13570TIP3    H240668   8.161   1.453   3.207
13571TIP3   OH240669   6.033   2.049   1.114
13571TIP3    H140670   6.078   2.129   1.142
13571TIP3    H240671   5.940   2.069   1.124
13572TIP3   OH240672   4.036   5.028   0.956
13572TIP3    H140673   4.099   4.955   0.962
13572TIP3    H240674   4.074   5.087   0.891
13573TIP3   OH240675   1.251  -0.024   4.057
13573TIP3    H140676   1.250   0.070   4.077
13573TIP3    H240677   1.206  -0.030   3.972
13574TIP3   OH240678   1.398   7.645   5.417
13574TIP3    H140679   1.463   7.686   5.359
13574TIP3    H240680   1.450   7.603   5.485
13575TIP3   OH240681   3.085   1.310   5.118
13575TIP3    H140682   3.156   1.297   5.056
13575TIP3    H240683   3.056   1.400   5.104
13576TIP3   OH240684   4.861   7.458   0.250
13576TIP3    H140685   4.930   7.500   0.301
13576TIP3    H240686   4.871   7.365   0.270
13577TIP3   OH240687   0.335   1.849   5.126
13577TIP3    H140688   0.346   1.874   5.035
13577TIP3    H240689   0.240   1.847   5.139
13578TIP3   OH240690   2.593   7.197   5.695
13578TIP3    H140691   2.530   7.200   5.623
13578TIP3    H240692   2.612   7.289   5.713
13579TIP3   OH240693   7.041   0.368   6.495
13579TIP3    H140694   7.110   0.313   6.534
13579TIP3    H240695   7.086   0.414   6.423
13580TIP3   OH240696   1.164   7.393   6.407
13580TIP3    H140697   1.141   7.446   6.484
13580TIP3    H240698   1.170   7.304   6.441
13581TIP3   OH240699   3.482   2.968   6.367
13581TIP3    H140700   3.533   2.889   6.386
13581TIP3    H240701   3.545   3.029   6.329
13582TIP3   OH240702   6.960   2.589   0.848
13582TIP3    H140703   6.927   2.678   0.857
13582TIP3    H240704   7.047   2.592   0.889
13583TIP3   OH240705   0.348   6.901   6.669
13583TIP3    H140706   0.279   6.890   6.734
13583TIP3    H240707   0.427   6.919   6.721
13584TIP3   OH240708   4.746   0.045   0.103
13584TIP3    H140709   4.731   0.046   0.198
13584TIP3    H240710   4.671  -0.001   0.068
13585TIP3   OH240711   7.069   4.727   2.220
13585TIP3    H140712   7.044   4.662   2.285
13585TIP3    H240713   6.986   4.761   2.187
13586TIP3   OH240714   5.442   7.438   0.040
13586TIP3    H140715   5.395   7.487  -0.026
13586TIP3    H240716   5.378   7.377   0.077
13587TIP3   OH240717   0.156   3.373   3.809
13587TIP3    H140718   0.122   3.285   3.790
13587TIP3    H240719   0.230   3.383   3.749
13588TIP3   OH240720   0.344   2.738   1.005
13588TIP3    H140721   0.410   2.806   1.018
13588TIP3    H240722   0.365   2.700   0.920
13589TIP3   OH240723   5.768   6.206   0.894
13589TIP3    H140724   5.782   6.141   0.963
13589TIP3    H240725   5.833   6.184   0.827
13590TIP3   OH240726   6.797   0.166   2.143
13590TIP3    H140727   6.770   0.176   2.052
13590TIP3    H240728   6.770   0.077   2.166
13591TIP3   OH240729   1.072   3.651   0.818
13591TIP3    H140730   1.005   3.710   0.784
13591TIP3    H240731   1.045   3.635   0.909
13592TIP3   OH240732   0.773   5.943   2.413
13592TIP3    H140733   0.685   5.970   2.440
13592TIP3    H240734   0.817   6.025   2.390
13593TIP3   OH240735   0.279   6.898   0.847
13593TIP3    H140736   0.238   6.832   0.791
13593TIP3    H240737   0.347   6.937   0.793
13594TIP3   OH240738   3.188   4.466   0.927
13594TIP3    H140739   3.194   4.478   0.832
13594TIP3    H240740   3.098   4.438   0.942
13595TIP3   OH240741   4.308   6.419   4.781
13595TIP3    H140742   4.285   6.407   4.873
13595TIP3    H240743   4.311   6.514   4.769
13596TIP3   OH240744   5.198   0.601   1.571
13596TIP3    H140745   5.252   0.678   1.585
13596TIP3    H240746   5.203   0.553   1.654
13597TIP3   OH240747   7.756   5.399   0.892
13597TIP3    H140748   7.673   5.356   0.914
13597TIP3    H240749   7.731   5.487   0.866
13598TIP3   OH240750   1.193   7.216   1.417
13598TIP3    H140751   1.250   7.280   1.374
13598TIP3    H240752   1.210   7.134   1.371
13599TIP3   OH240753   1.829   0.047   3.441
13599TIP3    H140754   1.881  -0.024   3.404
13599TIP3    H240755   1.760   0.003   3.491
13600TIP3   OH240756   7.443   5.911   1.946
13600TIP3    H140757   7.480   5.932   1.860
13600TIP3    H240758   7.401   5.993   1.974
13601TIP3   OH240759   2.734   4.680   6.030
13601TIP3    H140760   2.656   4.701   5.978
13601TIP3    H240761   2.747   4.586   6.016
13602TIP3   OH240762   7.519   0.546   3.439
13602TIP3    H140763   7.490   0.634   3.414
13602TIP3    H240764   7.586   0.525   3.374
13603TIP3   OH240765   5.978   3.336   1.211
13603TIP3    H140766   5.988   3.337   1.306
13603TIP3    H240767   5.956   3.427   1.188
13604TIP3   OH240768   0.690   0.953   6.114
13604TIP3    H140769   0.675   0.875   6.061
13604TIP3    H240770   0.720   0.919   6.198
13605TIP3   OH240771   3.492   7.508   2.476
13605TIP3    H140772   3.512   7.416   2.458
13605TIP3    H240773   3.491   7.514   2.572
13606TIP3   OH240774   8.216   3.666   3.132
13606TIP3    H140775   8.185   3.584   3.095
13606TIP3    H240776   8.139   3.704   3.175
13607TIP3   OH240777   7.450   5.980   1.619
13607TIP3    H140778   7.388   5.909   1.635
13607TIP3    H240779   7.396   6.058   1.611
13608TIP3   OH240780   5.665   0.267   0.346
13608TIP3    H140781   5.700   0.216   0.419
13608TIP3    H240782   5.732   0.334   0.330
13609TIP3   OH240783   8.111   2.220   6.148
13609TIP3    H140784   8.181   2.172   6.193
13609TIP3    H240785   8.094   2.295   6.205
13610TIP3   OH240786   2.989   6.308   3.689
13610TIP3    H140787   2.916   6.334   3.745
13610TIP3    H240788   2.984   6.368   3.614
13611TIP3   OH240789   3.357   6.339   0.190
13611TIP3    H140790   3.378   6.254   0.228
13611TIP3    H240791   3.333   6.321   0.100
13612TIP3   OH240792   2.224   4.535   6.152
13612TIP3    H140793   2.311   4.531   6.191
13612TIP3    H240794   2.228   4.478   6.076
13613TIP3   OH240795   3.992   3.259   4.737
13613TIP3    H140796   4.042   3.319   4.792
13613TIP3    H240797   4.046   3.248   4.659
13614TIP3   OH240798   7.434   2.786   0.303
13614TIP3    H140799   7.488   2.747   0.372
13614TIP3    H240800   7.352   2.738   0.307
13615TIP3   OH240801   0.858   4.966   3.550
13615TIP3    H140802   0.889   4.908   3.620
13615TIP3    H240803   0.764   4.949   3.544
13616TIP3   OH240804   1.709   0.389   3.143
13616TIP3    H140805   1.727   0.367   3.234
13616TIP3    H240806   1.782   0.444   3.117
13617TIP3   OH240807   3.715   1.760   5.244
13617TIP3    H140808   3.628   1.755   5.284
13617TIP3    H240809   3.767   1.809   5.307
13618TIP3   OH240810   5.428   2.387   5.197
13618TIP3    H140811   5.359   2.341   5.149
13618TIP3    H240812   5.380   2.444   5.258
13619TIP3   OH240813   5.566   5.900   3.617
13619TIP3    H140814   5.487   5.890   3.672
13619TIP3    H240815   5.532   5.909   3.528
13620TIP3   OH240816   8.052   4.549   4.901
13620TIP3    H140817   8.038   4.545   4.995
13620TIP3    H240818   8.007   4.471   4.867
13621TIP3   OH240819   7.967   2.251   0.542
13621TIP3    H140820   7.997   2.223   0.629
13621TIP3    H240821   7.910   2.326   0.559
13622TIP3   OH240822   5.258   0.827   3.894
13622TIP3    H140823   5.200   0.766   3.939
13622TIP3    H240824   5.260   0.795   3.804
13623TIP3   OH240825   0.787   5.868   3.260
13623TIP3    H140826   0.833   5.939   3.216
13623TIP3    H240827   0.840   5.790   3.241
13624TIP3   OH240828   1.224   1.757   3.135
13624TIP3    H140829   1.178   1.790   3.213
13624TIP3    H240830   1.307   1.805   3.135
13625TIP3   OH240831   2.324   6.126   4.576
13625TIP3    H140832   2.250   6.090   4.527
13625TIP3    H240833   2.339   6.063   4.647
13626TIP3   OH240834   1.895   2.569   3.524
13626TIP3    H140835   1.824   2.612   3.477
13626TIP3    H240836   1.876   2.585   3.616
13627TIP3   OH240837   3.774   5.720   0.283
13627TIP3    H140838   3.830   5.787   0.323
13627TIP3    H240839   3.750   5.757   0.198
13628TIP3   OH240840   3.260   0.660   2.264
13628TIP3    H140841   3.274   0.739   2.317
13628TIP3    H240842   3.167   0.640   2.276
13629TIP3   OH240843   7.425   3.099   6.108
13629TIP3    H140844   7.465   3.038   6.045
13629TIP3    H240845   7.426   3.184   6.063
13630TIP3   OH240846   6.240   5.732   4.927
13630TIP3    H140847   6.222   5.660   4.988
13630TIP3    H240848   6.331   5.718   4.900
13631TIP3   OH240849   6.225   2.030   6.076
13631TIP3    H140850   6.141   2.025   6.122
13631TIP3    H240851   6.218   2.109   6.022
13632TIP3   OH240852   6.473   6.987   5.025
13632TIP3    H140853   6.566   6.976   5.047
13632TIP3    H240854   6.427   6.966   5.107
13633TIP3   OH240855   4.175   1.453   3.991
13633TIP3    H140856   4.208   1.390   3.926
13633TIP3    H240857   4.089   1.479   3.958
13634TIP3   OH240858   3.437   6.127   5.040
13634TIP3    H140859   3.501   6.170   4.983
13634TIP3    H240860   3.462   6.035   5.040
13635TIP3   OH240861   1.665   6.228   3.770
13635TIP3    H140862   1.702   6.147   3.804
13635TIP3    H240863   1.573   6.224   3.797
13636TIP3   OH240864   4.443   5.854   5.572
13636TIP3    H140865   4.518   5.849   5.513
13636TIP3    H240866   4.447   5.773   5.623
13637TIP3   OH240867   1.691   0.455   3.756
13637TIP3    H140868   1.660   0.461   3.846
13637TIP3    H240869   1.654   0.373   3.723
13638TIP3   OH240870   2.684   3.038   3.076
13638TIP3    H140871   2.653   3.027   3.166
13638TIP3    H240872   2.606   3.025   3.022
13639TIP3   OH240873   3.673   0.177   1.479
13639TIP3    H140874   3.589   0.205   1.516
13639TIP3    H240875   3.718   0.133   1.551
13640TIP3   OH240876   0.292   0.137   3.139
13640TIP3    H140877   0.293   0.189   3.219
13640TIP3    H240878   0.310   0.047   3.167
13641TIP3   OH240879   2.016   7.611   2.832
13641TIP3    H140880   2.105   7.646   2.825
13641TIP3    H240881   2.028   7.517   2.846
13642TIP3   OH240882   4.998   7.197   2.430
13642TIP3    H140883   4.982   7.273   2.375
13642TIP3    H240884   4.941   7.129   2.394
13643TIP3   OH240885   1.323   0.501   4.344
13643TIP3    H140886   1.230   0.526   4.338
13643TIP3    H240887   1.369   0.585   4.353
13644TIP3   OH240888   1.673   3.503   2.156
13644TIP3    H140889   1.679   3.505   2.251
13644TIP3    H240890   1.725   3.578   2.127
13645TIP3   OH240891   0.611   1.517   5.373
13645TIP3    H140892   0.541   1.583   5.377
13645TIP3    H240893   0.639   1.518   5.281
13646TIP3   OH240894   6.003   6.121   0.075
13646TIP3    H140895   5.965   6.136  -0.011
13646TIP3    H240896   5.960   6.186   0.132
13647TIP3   OH240897   5.268   2.722   2.261
13647TIP3    H140898   5.355   2.684   2.255
13647TIP3    H240899   5.216   2.673   2.197
13648TIP3   OH240900   4.872   0.338   5.815
13648TIP3    H140901   4.967   0.328   5.814
13648TIP3    H240902   4.840   0.256   5.852
13649TIP3   OH240903   0.838   0.083   6.785
13649TIP3    H140904   0.884   0.082   6.869
13649TIP3    H240905   0.904   0.060   6.721
13650TIP3   OH240906   0.822   3.728   0.733
13650TIP3    H140907   0.759   3.658   0.716
13650TIP3    H240908   0.778   3.808   0.703
13651TIP3   OH240909   0.682   5.140   1.750
13651TIP3    H140910   0.685   5.110   1.660
13651TIP3    H240911   0.606   5.096   1.788
13652TIP3   OH240912   1.880   0.110   6.437
13652TIP3    H140913   1.873   0.162   6.356
13652TIP3    H240914   1.914   0.026   6.408
13653TIP3   OH240915   1.608   2.035   2.568
13653TIP3    H140916   1.557   2.072   2.495
13653TIP3    H240917   1.580   1.943   2.571
13654TIP3   OH240918   5.011   4.889   0.647
13654TIP3    H140919   4.941   4.919   0.704
13654TIP3    H240920   5.057   4.823   0.699
13655TIP3   OH240921   3.686   1.591   4.288
13655TIP3    H140922   3.776   1.567   4.312
13655TIP3    H240923   3.680   1.571   4.195
13656TIP3   OH240924   0.731   2.266   2.800
13656TIP3    H140925   0.756   2.354   2.828
13656TIP3    H240926   0.783   2.250   2.721
13657TIP3   OH240927   3.601   3.770   2.486
13657TIP3    H140928   3.604   3.778   2.390
13657TIP3    H240929   3.677   3.819   2.516
13658TIP3   OH240930   5.076   5.309   2.239
13658TIP3    H140931   5.076   5.400   2.209
13658TIP3    H240932   5.115   5.313   2.326
13659TIP3   OH240933   6.121   6.522   6.194
13659TIP3    H140934   6.098   6.532   6.286
13659TIP3    H240935   6.154   6.609   6.168
13660TIP3   OH240936   5.847   5.613   6.776
13660TIP3    H140937   5.847   5.559   6.697
13660TIP3    H240938   5.773   5.673   6.765
13661TIP3   OH240939   0.786   2.463   6.205
13661TIP3    H140940   0.852   2.482   6.272
13661TIP3    H240941   0.737   2.388   6.239
13662TIP3   OH240942   8.146   6.420   4.255
13662TIP3    H140943   8.147   6.446   4.162
13662TIP3    H240944   8.233   6.385   4.271
13663TIP3   OH240945   1.334   3.400   2.405
13663TIP3    H140946   1.255   3.385   2.457
13663TIP3    H240947   1.381   3.317   2.409
13664TIP3   OH240948   1.734   5.875   5.051
13664TIP3    H140949   1.744   5.793   5.099
13664TIP3    H240950   1.654   5.863   4.999
13665TIP3   OH240951   0.091   2.286   1.152
13665TIP3    H140952   0.178   2.314   1.181
13665TIP3    H240953   0.108   2.212   1.093
13666TIP3   OH240954   2.482   6.314   2.783
13666TIP3    H140955   2.422   6.253   2.825
13666TIP3    H240956   2.567   6.271   2.785
13667TIP3   OH240957   1.114   0.473   3.121
13667TIP3    H140958   1.020   0.462   3.108
13667TIP3    H240959   1.137   0.406   3.185
13668TIP3   OH240960   1.807   6.529   2.365
13668TIP3    H140961   1.770   6.602   2.414
13668TIP3    H240962   1.866   6.486   2.427
13669TIP3   OH240963   2.818   0.143   1.729
13669TIP3    H140964   2.777   0.186   1.804
13669TIP3    H240965   2.757   0.159   1.656
13670TIP3   OH240966   4.887   3.968   3.762
13670TIP3    H140967   4.910   3.886   3.719
13670TIP3    H240968   4.794   3.980   3.744
13671TIP3   OH240969   7.311   1.125   2.728
13671TIP3    H140970   7.358   1.184   2.787
13671TIP3    H240971   7.333   1.037   2.760
13672TIP3   OH240972   8.172   4.554   6.497
13672TIP3    H140973   8.122   4.474   6.508
13672TIP3    H240974   8.254   4.538   6.545
13673TIP3   OH240975   6.023   6.965   2.543
13673TIP3    H140976   5.937   7.005   2.556
13673TIP3    H240977   6.065   6.971   2.629
13674TIP3   OH240978   6.100   6.406   2.550
13674TIP3    H140979   6.072   6.495   2.572
13674TIP3    H240980   6.158   6.417   2.475
13675TIP3   OH240981   6.506   4.120   1.382
13675TIP3    H140982   6.582   4.079   1.423
13675TIP3    H240983   6.484   4.061   1.310
13676TIP3   OH240984   0.272   2.644   1.298
13676TIP3    H140985   0.277   2.549   1.301
13676TIP3    H240986   0.290   2.666   1.206
13677TIP3   OH240987   0.644   4.393   3.314
13677TIP3    H140988   0.596   4.312   3.297
13677TIP3    H240989   0.736   4.370   3.305
13678TIP3   OH240990   1.888   3.825   4.703
13678TIP3    H140991   1.815   3.767   4.683
13678TIP3    H240992   1.958   3.767   4.733
13679TIP3   OH240993   2.760   5.902   3.044
13679TIP3    H140994   2.792   5.961   3.112
13679TIP3    H240995   2.667   5.890   3.065
13680TIP3   OH240996   0.286   3.943   6.310
13680TIP3    H140997   0.381   3.931   6.307
13680TIP3    H240998   0.274   4.037   6.302
13681TIP3   OH240999   7.313   0.114   1.760
13681TIP3    H141000   7.290   0.118   1.668
13681TIP3    H241001   7.300   0.022   1.784
13682TIP3   OH241002   2.301   2.160   2.295
13682TIP3    H141003   2.270   2.217   2.224
13682TIP3    H241004   2.383   2.200   2.323
13683TIP3   OH241005   4.638   3.165   6.703
13683TIP3    H141006   4.705   3.232   6.719
13683TIP3    H241007   4.558   3.202   6.739
13684TIP3   OH241008   3.678   4.389   5.303
13684TIP3    H141009   3.756   4.404   5.249
13684TIP3    H241010   3.659   4.296   5.293
13685TIP3   OH241011   4.267   2.283   0.348
13685TIP3    H141012   4.207   2.351   0.316
13685TIP3    H241013   4.348   2.299   0.300
13686TIP3   OH241014   0.376   1.336   4.817
13686TIP3    H141015   0.374   1.432   4.814
13686TIP3    H241016   0.353   1.309   4.728
13687TIP3   OH241017   1.425   1.691   3.484
13687TIP3    H141018   1.408   1.773   3.439
13687TIP3    H241019   1.519   1.694   3.504
13688TIP3   OH241020   5.030   4.567   4.906
13688TIP3    H141021   4.944   4.586   4.943
13688TIP3    H241022   5.086   4.640   4.933
13689TIP3   OH241023   0.893   3.086   0.272
13689TIP3    H141024   0.846   3.133   0.203
13689TIP3    H241025   0.827   3.071   0.340
13690TIP3   OH241026   4.782   6.047   0.219
13690TIP3    H141027   4.780   5.956   0.191
13690TIP3    H241028   4.800   6.096   0.139
13691TIP3   OH241029   1.178   1.760   5.990
13691TIP3    H141030   1.164   1.676   6.034
13691TIP3    H241031   1.193   1.737   5.898
13692TIP3   OH241032   6.497   3.732   1.051
13692TIP3    H141033   6.541   3.655   1.087
13692TIP3    H241034   6.413   3.699   1.018
13693TIP3   OH241035   2.535   6.231   1.880
13693TIP3    H141036   2.582   6.223   1.963
13693TIP3    H241037   2.496   6.318   1.883
13694TIP3   OH241038   3.283   3.962   0.225
13694TIP3    H141039   3.223   3.941   0.154
13694TIP3    H241040   3.334   3.883   0.238
13695TIP3   OH241041   2.557   4.875   4.730
13695TIP3    H141042   2.622   4.909   4.792
13695TIP3    H241043   2.608   4.844   4.655
13696TIP3   OH241044   4.289   7.370   0.899
13696TIP3    H141045   4.337   7.287   0.892
13696TIP3    H241046   4.356   7.435   0.917
13697TIP3   OH241047   7.886   1.183   5.351
13697TIP3    H141048   7.886   1.087   5.351
13697TIP3    H241049   7.978   1.207   5.348
13698TIP3   OH241050   1.064   1.163   2.320
13698TIP3    H141051   0.969   1.165   2.306
13698TIP3    H241052   1.074   1.138   2.412
13699TIP3   OH241053   2.438   1.737   5.616
13699TIP3    H141054   2.441   1.705   5.526
13699TIP3    H241055   2.456   1.830   5.610
13700TIP3   OH241056   4.095   1.159   2.998
13700TIP3    H141057   4.081   1.123   3.085
13700TIP3    H241058   4.038   1.106   2.941
13701TIP3   OH241059   8.057   3.199   0.014
13701TIP3    H141060   7.998   3.145   0.066
13701TIP3    H241061   8.093   3.138  -0.051
13702TIP3   OH241062   7.651   5.581   5.076
13702TIP3    H141063   7.562   5.605   5.103
13702TIP3    H241064   7.644   5.557   4.984
13703TIP3   OH241065   6.417   7.661   0.924
13703TIP3    H141066   6.476   7.736   0.928
13703TIP3    H241067   6.364   7.677   0.845
13704TIP3   OH241068   5.481   4.835   3.136
13704TIP3    H141069   5.458   4.832   3.229
13704TIP3    H241070   5.409   4.883   3.095
13705TIP3   OH241071   0.869   5.997   1.095
13705TIP3    H141072   0.781   5.963   1.114
13705TIP3    H241073   0.917   5.987   1.177
13706TIP3   OH241074   6.470   2.594   0.377
13706TIP3    H141075   6.453   2.510   0.418
13706TIP3    H241076   6.385   2.622   0.342
13707TIP3   OH241077   3.306   7.749   3.486
13707TIP3    H141078   3.327   7.661   3.517
13707TIP3    H241079   3.387   7.798   3.494
13708TIP3   OH241080   6.110   6.286   1.339
13708TIP3    H141081   6.090   6.295   1.246
13708TIP3    H241082   6.027   6.256   1.378
13709TIP3   OH241083   2.390   6.586   0.610
13709TIP3    H141084   2.463   6.595   0.671
13709TIP3    H241085   2.380   6.492   0.597
13710TIP3   OH241086   8.012   1.431   2.138
13710TIP3    H141087   7.981   1.497   2.076
13710TIP3    H241088   8.074   1.478   2.194
13711TIP3   OH241089   1.685   7.145   3.637
13711TIP3    H141090   1.665   7.234   3.666
13711TIP3    H241091   1.600   7.101   3.631
13712TIP3   OH241092   2.020   0.373   0.443
13712TIP3    H141093   2.013   0.412   0.530
13712TIP3    H241094   1.951   0.307   0.441
13713TIP3   OH241095   4.060   5.719   0.834
13713TIP3    H141096   4.153   5.697   0.827
13713TIP3    H241097   4.017   5.657   0.775
13714TIP3   OH241098   0.181   5.833   5.664
13714TIP3    H141099   0.257   5.866   5.712
13714TIP3    H241100   0.174   5.741   5.689
13715TIP3   OH241101   3.644   1.077   3.403
13715TIP3    H141102   3.646   1.033   3.318
13715TIP3    H241103   3.564   1.131   3.400
13716TIP3   OH241104   3.202   7.638   4.587
13716TIP3    H141105   3.248   7.609   4.508
13716TIP3    H241106   3.270   7.682   4.638
13717TIP3   OH241107   4.992   1.663   3.778
13717TIP3    H141108   4.938   1.718   3.722
13717TIP3    H241109   5.059   1.628   3.720
13718TIP3   OH241110   7.884   6.820   2.732
13718TIP3    H141111   7.858   6.879   2.802
13718TIP3    H241112   7.978   6.834   2.722
13719TIP3   OH241113   6.955   0.692   2.053
13719TIP3    H141114   6.946   0.767   1.993
13719TIP3    H241115   6.992   0.623   1.998
13720TIP3   OH241116   1.600   6.814   3.501
13720TIP3    H141117   1.551   6.732   3.499
13720TIP3    H241118   1.535   6.880   3.528
13721TIP3   OH241119   1.601   1.663   6.625
13721TIP3    H141120   1.594   1.610   6.546
13721TIP3    H241121   1.572   1.604   6.695
13722TIP3   OH241122   3.150   0.281   1.011
13722TIP3    H141123   3.090   0.300   0.939
13722TIP3    H241124   3.177   0.190   0.997
13723TIP3   OH241125   2.305   5.592   5.778
13723TIP3    H141126   2.327   5.617   5.688
13723TIP3    H241127   2.292   5.497   5.774
13724TIP3   OH241128   6.916   2.092   2.691
13724TIP3    H141129   6.921   1.997   2.690
13724TIP3    H241130   7.007   2.121   2.696
13725TIP3   OH241131   7.752   1.048   5.882
13725TIP3    H141132   7.747   0.964   5.927
13725TIP3    H241133   7.836   1.085   5.911
13726TIP3   OH241134   8.293   1.833   3.447
13726TIP3    H141135   8.270   1.802   3.535
13726TIP3    H241136   8.229   1.901   3.428
13727TIP3   OH241137   5.140   5.352   0.432
13727TIP3    H141138   5.077   5.343   0.361
13727TIP3    H241139   5.122   5.277   0.489
13728TIP3   OH241140   5.475   5.983   3.333
13728TIP3    H141141   5.389   6.002   3.296
13728TIP3    H241142   5.536   6.030   3.276
13729TIP3   OH241143   2.168   7.479   3.699
13729TIP3    H141144   2.075   7.497   3.682
13729TIP3    H241145   2.214   7.548   3.651
13730TIP3   OH241146   2.316   7.412   2.350
13730TIP3    H141147   2.229   7.408   2.311
13730TIP3    H241148   2.348   7.322   2.348
13731TIP3   OH241149   0.471   0.425   1.902
13731TIP3    H141150   0.503   0.362   1.967
13731TIP3    H241151   0.442   0.501   1.954
13732TIP3   OH241152   3.641   5.724   4.761
13732TIP3    H141153   3.580   5.795   4.741
13732TIP3    H241154   3.727   5.767   4.765
13733TIP3   OH241155   1.941   1.655   6.731
13733TIP3    H141156   1.864   1.622   6.776
13733TIP3    H241157   1.999   1.579   6.722
13734TIP3   OH241158   4.122   4.872   0.333
13734TIP3    H141159   4.043   4.855   0.384
13734TIP3    H241160   4.142   4.964   0.350
13735TIP3   OH241161   6.575   1.319   4.012
13735TIP3    H141162   6.571   1.395   3.954
13735TIP3    H241163   6.663   1.284   4.001
13736TIP3   OH241164   3.969   2.730   4.220
13736TIP3    H141165   3.909   2.737   4.294
13736TIP3    H241166   3.997   2.820   4.204
13737TIP3   OH241167   7.611   3.397   4.061
13737TIP3    H141168   7.519   3.423   4.056
13737TIP3    H241169   7.626   3.378   4.153
13738TIP3   OH241170   3.920   0.374   3.044
13738TIP3    H141171   3.904   0.417   3.128
13738TIP3    H241172   3.845   0.400   2.990
13739TIP3   OH241173   1.784   3.792   1.153
13739TIP3    H141174   1.725   3.778   1.080
13739TIP3    H241175   1.729   3.783   1.231
13740TIP3   OH241176   7.893   3.521   4.076
13740TIP3    H141177   7.913   3.498   3.985
13740TIP3    H241178   7.975   3.554   4.111
13741TIP3   OH241179   2.130   5.334   6.017
13741TIP3    H141180   2.056   5.276   5.998
13741TIP3    H241181   2.200   5.274   6.043
13742TIP3   OH241182   8.004   5.024   1.610
13742TIP3    H141183   7.991   4.933   1.581
13742TIP3    H241184   8.099   5.035   1.611
13743TIP3   OH241185   7.599   4.086   6.423
13743TIP3    H141186   7.663   4.142   6.380
13743TIP3    H241187   7.515   4.129   6.408
13744TIP3   OH241188   6.179   1.148   5.670
13744TIP3    H141189   6.210   1.173   5.757
13744TIP3    H241190   6.177   1.052   5.671
13745TIP3   OH241191   5.973   6.885   4.977
13745TIP3    H141192   6.017   6.964   5.010
13745TIP3    H241193   6.015   6.868   4.893
13746TIP3   OH241194   1.380   1.633   6.419
13746TIP3    H141195   1.408   1.687   6.493
13746TIP3    H241196   1.438   1.557   6.421
13747TIP3   OH241197   6.447   4.833   0.771
13747TIP3    H141198   6.372   4.816   0.828
13747TIP3    H241199   6.482   4.917   0.801
13748TIP3   OH241200   5.366   1.606   6.526
13748TIP3    H141201   5.319   1.584   6.446
13748TIP3    H241202   5.447   1.555   6.522
13749TIP3   OH241203   7.235   3.864   2.301
13749TIP3    H141204   7.301   3.796   2.302
13749TIP3    H241205   7.249   3.910   2.219
13750TIP3   OH241206   0.424   7.418   0.291
13750TIP3    H141207   0.418   7.437   0.198
13750TIP3    H241208   0.372   7.486   0.334
13751TIP3   OH241209   1.401   7.321   0.664
13751TIP3    H141210   1.467   7.383   0.693
13751TIP3    H241211   1.319   7.370   0.665
13752TIP3   OH241212   7.464   5.875   0.111
13752TIP3    H141213   7.511   5.866   0.194
13752TIP3    H241214   7.409   5.953   0.123
13753TIP3   OH241215   6.445   6.151   6.616
13753TIP3    H141216   6.486   6.145   6.703
13753TIP3    H241217   6.367   6.204   6.630
13754TIP3   OH241218   6.730   5.363   1.128
13754TIP3    H141219   6.660   5.424   1.106
13754TIP3    H241220   6.805   5.418   1.148
13755TIP3   OH241221   0.785   2.055   1.744
13755TIP3    H141222   0.710   1.998   1.763
13755TIP3    H241223   0.832   2.010   1.673
13756TIP3   OH241224   4.585   0.902   5.249
13756TIP3    H141225   4.497   0.866   5.265
13756TIP3    H241226   4.571   0.997   5.244
13757TIP3   OH241227   1.741   1.289   6.042
13757TIP3    H141228   1.818   1.323   5.997
13757TIP3    H241229   1.726   1.203   6.002
13758TIP3   OH241230   4.613   2.844   2.436
13758TIP3    H141231   4.656   2.925   2.407
13758TIP3    H241232   4.654   2.823   2.519
13759TIP3   OH241233   3.918   3.561   5.032
13759TIP3    H141234   3.876   3.477   5.048
13759TIP3    H241235   3.845   3.623   5.024
13760TIP3   OH241236   3.060   6.288   1.312
13760TIP3    H141237   3.135   6.314   1.258
13760TIP3    H241238   3.002   6.364   1.310
13761TIP3   OH241239   1.171   4.145   3.156
13761TIP3    H141240   1.170   4.127   3.062
13761TIP3    H241241   1.232   4.219   3.165
13762TIP3   OH241242   3.016   5.613   4.687
13762TIP3    H141243   2.978   5.700   4.688
13762TIP3    H241244   2.947   5.556   4.721
13763TIP3   OH241245   2.379   0.679   0.048
13763TIP3    H141246   2.453   0.722   0.091
13763TIP3    H241247   2.356   0.607   0.107
13764TIP3   OH241248   3.794   3.459   0.232
13764TIP3    H141249   3.886   3.436   0.222
13764TIP3    H241250   3.786   3.547   0.194
13765TIP3   OH241251   1.793   5.140   1.091
13765TIP3    H141252   1.863   5.101   1.145
13765TIP3    H241253   1.809   5.234   1.096
13766TIP3   OH241254   2.338   4.435   3.037
13766TIP3    H141255   2.329   4.530   3.041
13766TIP3    H241256   2.368   4.410   3.125
13767TIP3   OH241257   2.071   0.766   6.341
13767TIP3    H141258   2.154   0.721   6.322
13767TIP3    H241259   2.028   0.774   6.256
13768TIP3   OH241260   1.386   5.199   0.652
13768TIP3    H141261   1.334   5.276   0.626
13768TIP3    H241262   1.331   5.124   0.628
13769TIP3   OH241263   0.144   2.392   5.723
13769TIP3    H141264   0.061   2.345   5.717
13769TIP3    H241265   0.207   2.336   5.680
13770TIP3   OH241266   8.017   3.265   4.415
13770TIP3    H141267   8.100   3.259   4.464
13770TIP3    H241268   7.982   3.177   4.417
13771TIP3   OH241269   7.025   2.189   4.269
13771TIP3    H141270   7.081   2.139   4.328
13771TIP3    H241271   7.085   2.246   4.221
13772TIP3   OH241272   4.841   4.843   6.625
13772TIP3    H141273   4.746   4.841   6.629
13772TIP3    H241274   4.869   4.770   6.681
13773TIP3   OH241275   5.455   3.788   4.747
13773TIP3    H141276   5.451   3.852   4.817
13773TIP3    H241277   5.546   3.791   4.716
13774TIP3   OH241278   4.627   6.770   5.738
13774TIP3    H141279   4.649   6.678   5.744
13774TIP3    H241280   4.700   6.809   5.690
13775TIP3   OH241281   5.549   0.987   6.459
13775TIP3    H141282   5.469   0.963   6.505
13775TIP3    H241283   5.543   0.942   6.374
13776TIP3   OH241284   2.082   6.914   4.000
13776TIP3    H141285   2.009   6.898   4.059
13776TIP3    H241286   2.115   7.000   4.025
13777TIP3   OH241287   5.340   2.722   5.013
13777TIP3    H141288   5.300   2.784   5.074
13777TIP3    H241289   5.423   2.763   4.989
13778TIP3   OH241290   3.909   3.958   5.036
13778TIP3    H141291   3.973   3.926   5.099
13778TIP3    H241292   3.875   3.879   4.995
13779TIP3   OH241293   1.928   6.320   4.639
13779TIP3    H141294   1.987   6.246   4.625
13779TIP3    H241295   1.905   6.350   4.551
13780TIP3   OH241296   2.152   3.577   3.101
13780TIP3    H141297   2.225   3.607   3.156
13780TIP3    H241298   2.097   3.526   3.160
13781TIP3   OH241299   6.514   2.782   1.201
13781TIP3    H141300   6.533   2.868   1.165
13781TIP3    H241301   6.488   2.798   1.291
13782TIP3   OH241302   2.163   6.004   4.424
13782TIP3    H141303   2.097   5.941   4.454
13782TIP3    H241304   2.113   6.070   4.376
13783TIP3   OH241305   0.192   5.744   6.019
13783TIP3    H141306   0.114   5.767   5.970
13783TIP3    H241307   0.236   5.827   6.037
13784TIP3   OH241308   1.288   4.403   3.245
13784TIP3    H141309   1.376   4.429   3.271
13784TIP3    H241310   1.238   4.406   3.327
13785TIP3   OH241311   2.926   1.733   3.504
13785TIP3    H141312   2.964   1.646   3.495
13785TIP3    H241313   2.999   1.788   3.533
13786TIP3   OH241314   4.516   3.626   1.362
13786TIP3    H141315   4.438   3.642   1.308
13786TIP3    H241316   4.590   3.648   1.305
13787TIP3   OH241317   3.394   2.457   0.926
13787TIP3    H141318   3.389   2.458   0.830
13787TIP3    H241319   3.367   2.545   0.952
13788TIP3   OH241320   6.808   6.369   2.824
13788TIP3    H141321   6.843   6.432   2.761
13788TIP3    H241322   6.830   6.407   2.910
13789TIP3   OH241323   6.467   5.522   1.047
13789TIP3    H141324   6.497   5.585   0.981
13789TIP3    H241325   6.375   5.506   1.024
13790TIP3   OH241326   6.857   6.606   1.136
13790TIP3    H141327   6.801   6.534   1.109
13790TIP3    H241328   6.915   6.622   1.060
13791TIP3   OH241329   0.891   3.718   5.022
13791TIP3    H141330   0.943   3.638   5.031
13791TIP3    H241331   0.955   3.785   4.998
13792TIP3   OH241332   1.039   3.453   1.756
13792TIP3    H141333   1.115   3.488   1.803
13792TIP3    H241334   0.964   3.476   1.811
13793TIP3   OH241335   7.964   1.072   2.217
13793TIP3    H141336   7.898   1.085   2.284
13793TIP3    H241337   7.984   1.160   2.185
13794TIP3   OH241338   3.010   5.438   3.840
13794TIP3    H141339   3.083   5.383   3.867
13794TIP3    H241340   3.032   5.467   3.752
13795TIP3   OH241341   6.923   1.094   3.131
13795TIP3    H141342   6.991   1.114   3.196
13795TIP3    H241343   6.971   1.058   3.057
13796TIP3   OH241344   5.241   6.762   5.076
13796TIP3    H141345   5.292   6.720   5.146
13796TIP3    H241346   5.243   6.699   5.004
13797TIP3   OH241347   7.070   6.036   3.034
13797TIP3    H141348   7.072   5.940   3.040
13797TIP3    H241349   7.126   6.056   2.959
13798TIP3   OH241350   1.292   6.773   4.242
13798TIP3    H141351   1.231   6.732   4.303
13798TIP3    H241352   1.277   6.867   4.250
13799TIP3   OH241353   5.974   6.237   2.907
13799TIP3    H141354   5.920   6.315   2.924
13799TIP3    H241355   6.000   6.207   2.994
13800TIP3   OH241356   5.497   3.724   4.267
13800TIP3    H141357   5.445   3.664   4.320
13800TIP3    H241358   5.443   3.741   4.189
13801TIP3   OH241359   6.494   7.061   6.075
13801TIP3    H141360   6.574   7.035   6.119
13801TIP3    H241361   6.429   7.070   6.145
13802TIP3   OH241362   8.015   1.196   2.775
13802TIP3    H141363   7.964   1.273   2.751
13802TIP3    H241364   7.988   1.129   2.711
13803TIP3   OH241365   3.308   3.965   3.070
13803TIP3    H141366   3.264   4.049   3.071
13803TIP3    H241367   3.401   3.987   3.062
13804TIP3   OH241368   4.140   2.344   0.719
13804TIP3    H141369   4.071   2.282   0.697
13804TIP3    H241370   4.158   2.330   0.812
13805TIP3   OH241371   5.451   0.633   6.394
13805TIP3    H141372   5.393   0.561   6.417
13805TIP3    H241373   5.530   0.591   6.360
13806TIP3   OH241374   7.669   5.626   0.780
13806TIP3    H141375   7.607   5.691   0.813
13806TIP3    H241376   7.722   5.674   0.716
13807TIP3   OH241377   7.673   2.440   3.957
13807TIP3    H141378   7.705   2.523   3.994
13807TIP3    H241379   7.612   2.406   4.022
13808TIP3   OH241380   6.175   6.255   6.086
13808TIP3    H141381   6.270   6.256   6.071
13808TIP3    H241382   6.155   6.344   6.117
13809TIP3   OH241383   5.307   3.781   0.613
13809TIP3    H141384   5.253   3.858   0.598
13809TIP3    H241385   5.256   3.708   0.578
13810TIP3   OH241386   6.724   1.214   1.202
13810TIP3    H141387   6.770   1.179   1.125
13810TIP3    H241388   6.652   1.265   1.165
13811TIP3   OH241389   1.071   4.766   4.976
13811TIP3    H141390   1.006   4.830   5.005
13811TIP3    H241391   1.022   4.684   4.966
13812TIP3   OH241392   0.657   0.826   0.430
13812TIP3    H141393   0.705   0.868   0.501
13812TIP3    H241394   0.626   0.743   0.468
13813TIP3   OH241395   1.446   5.777   4.259
13813TIP3    H141396   1.396   5.700   4.287
13813TIP3    H241397   1.471   5.819   4.341
13814TIP3   OH241398   2.708   6.308   0.142
13814TIP3    H141399   2.735   6.233   0.194
13814TIP3    H241400   2.760   6.381   0.175
13815TIP3   OH241401   3.508   3.508   2.431
13815TIP3    H141402   3.533   3.596   2.461
13815TIP3    H241403   3.435   3.484   2.489
13816TIP3   OH241404   3.244   3.681   4.222
13816TIP3    H141405   3.295   3.619   4.171
13816TIP3    H241406   3.184   3.627   4.273
13817TIP3   OH241407   3.679   1.404   2.693
13817TIP3    H141408   3.658   1.391   2.786
13817TIP3    H241409   3.630   1.482   2.669
13818TIP3   OH241410   8.003   4.230   4.180
13818TIP3    H141411   8.002   4.192   4.268
13818TIP3    H241412   7.921   4.280   4.175
13819TIP3   OH241413   2.532   7.276   1.394
13819TIP3    H141414   2.519   7.359   1.348
13819TIP3    H241415   2.445   7.252   1.426
13820TIP3   OH241416   6.531   4.987   5.016
13820TIP3    H141417   6.544   5.059   5.077
13820TIP3    H241418   6.460   5.016   4.959
13821TIP3   OH241419   3.232   0.437   5.247
13821TIP3    H141420   3.295   0.455   5.176
13821TIP3    H241421   3.183   0.361   5.216
13822TIP3   OH241422   5.131   1.830   1.633
13822TIP3    H141423   5.177   1.863   1.711
13822TIP3    H241424   5.060   1.892   1.619
13823TIP3   OH241425   7.410   5.437   0.167
13823TIP3    H141426   7.396   5.412   0.258
13823TIP3    H241427   7.348   5.509   0.152
13824TIP3   OH241428   6.647   1.148   1.998
13824TIP3    H141429   6.676   1.139   1.907
13824TIP3    H241430   6.721   1.187   2.044
13825TIP3   OH241431   6.469   6.370   4.622
13825TIP3    H141432   6.562   6.363   4.645
13825TIP3    H241433   6.465   6.346   4.530
13826TIP3   OH241434   2.496   5.812   0.723
13826TIP3    H141435   2.589   5.801   0.742
13826TIP3    H241436   2.491   5.816   0.628
13827TIP3   OH241437   1.266   0.049   1.152
13827TIP3    H141438   1.259  -0.033   1.202
13827TIP3    H241439   1.355   0.049   1.118
13828TIP3   OH241440   2.130   1.155   6.650
13828TIP3    H141441   2.100   1.099   6.579
13828TIP3    H241442   2.219   1.125   6.669
13829TIP3   OH241443   0.482   7.629   2.343
13829TIP3    H141444   0.534   7.645   2.264
13829TIP3    H241445   0.454   7.716   2.372
13830TIP3   OH241446   5.160   0.023   5.427
13830TIP3    H141447   5.106   0.094   5.391
13830TIP3    H241448   5.104  -0.020   5.491
13831TIP3   OH241449   0.445   2.914   6.620
13831TIP3    H141450   0.398   2.957   6.692
13831TIP3    H241451   0.449   2.981   6.552
13832TIP3   OH241452   3.410   0.052   5.609
13832TIP3    H141453   3.452   0.138   5.597
13832TIP3    H241454   3.341   0.050   5.543
13833TIP3   OH241455   1.243   5.156   4.782
13833TIP3    H141456   1.274   5.099   4.852
13833TIP3    H241457   1.194   5.097   4.724
13834TIP3   OH241458   6.931   5.159   1.362
13834TIP3    H141459   6.921   5.122   1.449
13834TIP3    H241460   7.017   5.201   1.363
13835TIP3   OH241461   4.744   1.100   4.600
13835TIP3    H141462   4.825   1.053   4.620
13835TIP3    H241463   4.773   1.189   4.578
13836TIP3   OH241464   5.513   4.440   3.546
13836TIP3    H141465   5.482   4.516   3.595
13836TIP3    H241466   5.450   4.371   3.566
13837TIP3   OH241467   1.658   5.620   2.295
13837TIP3    H141468   1.613   5.557   2.238
13837TIP3    H241469   1.751   5.600   2.284
13838TIP3   OH241470   6.766   0.431   4.243
13838TIP3    H141471   6.776   0.396   4.155
13838TIP3    H241472   6.694   0.382   4.281
13839TIP3   OH241473   4.879   6.406   2.001
13839TIP3    H141474   4.874   6.463   2.077
13839TIP3    H241475   4.921   6.459   1.933
13840TIP3   OH241476   7.718   0.888   3.317
13840TIP3    H141477   7.635   0.918   3.354
13840TIP3    H241478   7.694   0.814   3.261
13841TIP3   OH241479   7.882   0.768   0.608
13841TIP3    H141480   7.857   0.750   0.518
13841TIP3    H241481   7.950   0.835   0.602
13842TIP3   OH241482   3.645   4.314   2.899
13842TIP3    H141483   3.581   4.268   2.845
13842TIP3    H241484   3.593   4.365   2.961
13843TIP3   OH241485   2.331   6.400   6.504
13843TIP3    H141486   2.304   6.316   6.465
13843TIP3    H241487   2.326   6.386   6.598
13844TIP3   OH241488   0.326   6.768   2.751
13844TIP3    H141489   0.242   6.808   2.729
13844TIP3    H241490   0.348   6.716   2.673
13845TIP3   OH241491   2.204   4.726   3.448
13845TIP3    H141492   2.295   4.728   3.479
13845TIP3    H241493   2.159   4.793   3.499
13846TIP3   OH241494   1.673   1.627   1.179
13846TIP3    H141495   1.630   1.707   1.209
13846TIP3    H241496   1.654   1.563   1.247
13847TIP3   OH241497   4.911   1.636   2.421
13847TIP3    H141498   4.999   1.639   2.458
13847TIP3    H241499   4.924   1.644   2.326
13848TIP3   OH241500   0.595   6.989   6.072
13848TIP3    H141501   0.583   7.078   6.039
13848TIP3    H241502   0.683   6.988   6.110
13849TIP3   OH241503   0.342   6.302   5.161
13849TIP3    H141504   0.298   6.256   5.090
13849TIP3    H241505   0.332   6.244   5.237
13850TIP3   OH241506   5.648   1.101   4.746
13850TIP3    H141507   5.655   1.028   4.807
13850TIP3    H241508   5.734   1.108   4.706
13851TIP3   OH241509   2.148   0.161   5.968
13851TIP3    H141510   2.104   0.236   6.008
13851TIP3    H241511   2.241   0.181   5.978
13852TIP3   OH241512   1.019   1.460   4.155
13852TIP3    H141513   0.951   1.393   4.144
13852TIP3    H241514   1.077   1.423   4.222
13853TIP3   OH241515   0.194   5.578   3.740
13853TIP3    H141516   0.110   5.534   3.751
13853TIP3    H241517   0.173   5.660   3.696
13854TIP3   OH241518   6.280   4.687   1.001
13854TIP3    H141519   6.367   4.648   0.987
13854TIP3    H241520   6.288   4.733   1.084
13855TIP3   OH241521   6.604   1.500   3.779
13855TIP3    H141522   6.536   1.556   3.740
13855TIP3    H241523   6.655   1.469   3.704
13856TIP3   OH241524   2.765   1.870   4.109
13856TIP3    H141525   2.839   1.909   4.062
13856TIP3    H241526   2.774   1.776   4.092
13857TIP3   OH241527   2.622   5.723   2.172
13857TIP3    H141528   2.563   5.681   2.235
13857TIP3    H241529   2.666   5.650   2.128
13858TIP3   OH241530  -0.012   3.328   1.436
13858TIP3    H141531   0.045   3.261   1.474
13858TIP3    H241532   0.046   3.381   1.382
13859TIP3   OH241533   6.015   1.889   5.627
13859TIP3    H141534   6.017   1.852   5.715
13859TIP3    H241535   6.084   1.843   5.580
13860TIP3   OH241536   2.823   2.497   0.765
13860TIP3    H141537   2.909   2.471   0.732
13860TIP3    H241538   2.762   2.470   0.697
13861TIP3   OH241539   0.606   2.396   0.603
13861TIP3    H141540   0.660   2.404   0.681
13861TIP3    H241541   0.567   2.309   0.609
13862TIP3   OH241542   1.245   4.256   4.149
13862TIP3    H141543   1.216   4.342   4.180
13862TIP3    H241544   1.294   4.219   4.223
13863TIP3   OH241545   6.799   3.143   2.892
13863TIP3    H141546   6.743   3.199   2.837
13863TIP3    H241547   6.799   3.058   2.848
13864TIP3   OH241548   7.906   4.691   2.587
13864TIP3    H141549   7.846   4.742   2.641
13864TIP3    H241550   7.988   4.688   2.637
13865TIP3   OH241551   3.011   4.085   4.160
13865TIP3    H141552   3.060   4.057   4.237
13865TIP3    H241553   3.048   4.170   4.137
13866TIP3   OH241554   2.675   6.537   4.567
13866TIP3    H141555   2.717   6.570   4.487
13866TIP3    H241556   2.594   6.497   4.536
13867TIP3   OH241557   1.982   3.489   1.876
13867TIP3    H141558   1.907   3.429   1.869
13867TIP3    H241559   2.015   3.475   1.965
13868TIP3   OH241560   7.956   6.642   0.522
13868TIP3    H141561   7.928   6.595   0.443
13868TIP3    H241562   7.885   6.630   0.584
13869TIP3   OH241563   6.564   1.576   4.361
13869TIP3    H141564   6.534   1.489   4.333
13869TIP3    H241565   6.621   1.605   4.291
13870TIP3   OH241566   5.746   1.724   5.480
13870TIP3    H141567   5.680   1.793   5.467
13870TIP3    H241568   5.822   1.754   5.431
13871TIP3   OH241569   3.666   2.243   0.828
13871TIP3    H141570   3.719   2.179   0.874
13871TIP3    H241571   3.621   2.291   0.897
13872TIP3   OH241572   7.894   4.080   0.344
13872TIP3    H141573   7.888   4.002   0.399
13872TIP3    H241574   7.812   4.082   0.295
13873TIP3   OH241575   1.727   5.559   3.544
13873TIP3    H141576   1.792   5.629   3.555
13873TIP3    H241577   1.760   5.488   3.599
13874TIP3   OH241578   4.194   3.371   1.704
13874TIP3    H141579   4.248   3.396   1.779
13874TIP3    H241580   4.251   3.315   1.651
13875TIP3   OH241581   7.545   1.227   4.154
13875TIP3    H141582   7.517   1.203   4.243
13875TIP3    H241583   7.467   1.266   4.115
13876TIP3   OH241584   4.804   4.609   3.918
13876TIP3    H141585   4.887   4.563   3.932
13876TIP3    H241586   4.775   4.633   4.006
13877TIP3   OH241587   6.418   0.516   4.188
13877TIP3    H141588   6.325   0.500   4.199
13877TIP3    H241589   6.446   0.451   4.123
13878TIP3   OH241590   0.695   3.521   0.996
13878TIP3    H141591   0.751   3.445   0.983
13878TIP3    H241592   0.629   3.492   1.060
13879TIP3   OH241593   6.346   7.070   1.393
13879TIP3    H141594   6.420   7.034   1.443
13879TIP3    H241595   6.321   6.999   1.334
13880TIP3   OH241596   2.086   1.257   2.362
13880TIP3    H141597   2.161   1.198   2.366
13880TIP3    H241598   2.068   1.267   2.268
13881TIP3   OH241599   4.630   2.623   4.848
13881TIP3    H141600   4.604   2.695   4.791
13881TIP3    H241601   4.717   2.597   4.816
13882TIP3   OH241602   7.495   6.073   4.324
13882TIP3    H141603   7.465   6.157   4.289
13882TIP3    H241604   7.481   6.079   4.418
13883TIP3   OH241605   6.345   2.557   5.845
13883TIP3    H141606   6.438   2.577   5.833
13883TIP3    H241607   6.338   2.532   5.937
13884TIP3   OH241608   8.043   2.971   1.468
13884TIP3    H141609   7.988   3.003   1.540
13884TIP3    H241610   8.128   3.012   1.483
13885TIP3   OH241611   7.891   0.359   5.764
13885TIP3    H141612   7.814   0.412   5.744
13885TIP3    H241613   7.962   0.400   5.716
13886TIP3   OH241614   2.759   1.560   1.403
13886TIP3    H141615   2.816   1.493   1.367
13886TIP3    H241616   2.787   1.569   1.494
13887TIP3   OH241617   0.136   2.157   0.625
13887TIP3    H141618   0.055   2.167   0.573
13887TIP3    H241619   0.173   2.074   0.596
13888TIP3   OH241620   2.770   3.751   1.542
13888TIP3    H141621   2.813   3.758   1.457
13888TIP3    H241622   2.679   3.730   1.521
13889TIP3   OH241623   6.713   1.649   3.056
13889TIP3    H141624   6.661   1.573   3.027
13889TIP3    H241625   6.669   1.680   3.135
13890TIP3   OH241626   6.078   3.276   4.464
13890TIP3    H141627   6.116   3.207   4.410
13890TIP3    H241628   5.985   3.254   4.470
13891TIP3   OH241629   4.673   2.237   1.088
13891TIP3    H141630   4.582   2.258   1.069
13891TIP3    H241631   4.698   2.298   1.158
13892TIP3   OH241632   1.306   2.110   6.587
13892TIP3    H141633   1.230   2.105   6.645
13892TIP3    H241634   1.332   2.019   6.574
13893TIP3   OH241635   8.084   7.117   3.213
13893TIP3    H141636   8.087   7.034   3.260
13893TIP3    H241637   7.994   7.148   3.224
13894TIP3   OH241638   0.246   1.122   0.919
13894TIP3    H141639   0.166   1.082   0.885
13894TIP3    H241640   0.271   1.066   0.992
13895TIP3   OH241641   7.067   0.737   0.291
13895TIP3    H141642   7.147   0.709   0.246
13895TIP3    H241643   7.021   0.791   0.226
13896TIP3   OH241644   2.956   6.912   0.332
13896TIP3    H141645   3.012   6.972   0.382
13896TIP3    H241646   2.869   6.926   0.368
13897TIP3   OH241647   7.697   7.116   1.131
13897TIP3    H141648   7.771   7.070   1.090
13897TIP3    H241649   7.734   7.201   1.157
13898TIP3   OH241650   7.855   1.417   3.102
13898TIP3    H141651   7.950   1.412   3.087
13898TIP3    H241652   7.827   1.489   3.047
13899TIP3   OH241653   7.386   5.806   4.193
13899TIP3    H141654   7.477   5.821   4.167
13899TIP3    H241655   7.389   5.807   4.289
13900TIP3   OH241656   1.085   1.938   0.503
13900TIP3    H141657   1.100   1.858   0.454
13900TIP3    H241658   1.037   1.995   0.443
13901TIP3   OH241659   2.962   0.353   3.404
13901TIP3    H141660   2.893   0.314   3.457
13901TIP3    H241661   2.917   0.398   3.333
13902TIP3   OH241662   2.533   7.027   3.100
13902TIP3    H141663   2.619   7.056   3.131
13902TIP3    H241664   2.490   7.107   3.069
13903TIP3   OH241665   4.797   3.464   3.925
13903TIP3    H141666   4.763   3.548   3.894
13903TIP3    H241667   4.884   3.484   3.958
13904TIP3   OH241668   4.310   2.516   4.211
13904TIP3    H141669   4.305   2.426   4.244
13904TIP3    H241670   4.240   2.562   4.257
13905TIP3   OH241671   1.410   5.839   0.867
13905TIP3    H141672   1.451   5.917   0.903
13905TIP3    H241673   1.482   5.778   0.852
13906TIP3   OH241674   8.129   2.076   0.910
13906TIP3    H141675   8.188   2.094   0.836
13906TIP3    H241676   8.046   2.115   0.885
13907TIP3   OH241677   6.014   5.096   0.143
13907TIP3    H141678   5.996   5.066   0.232
13907TIP3    H241679   6.019   5.192   0.151
13908TIP3   OH241680   3.737   3.355   4.763
13908TIP3    H141681   3.829   3.336   4.742
13908TIP3    H241682   3.705   3.274   4.802
13909TIP3   OH241683   6.528   5.703   2.967
13909TIP3    H141684   6.502   5.626   3.017
13909TIP3    H241685   6.622   5.712   2.984
13910TIP3   OH241686   0.968   3.650   2.093
13910TIP3    H141687   0.909   3.724   2.106
13910TIP3    H241688   1.046   3.688   2.054
13911TIP3   OH241689   1.520   4.761   3.136
13911TIP3    H141690   1.543   4.696   3.069
13911TIP3    H241691   1.602   4.808   3.152
13912TIP3   OH241692   5.537   0.472   2.970
13912TIP3    H141693   5.597   0.476   2.895
13912TIP3    H241694   5.463   0.527   2.944
13913TIP3   OH241695   7.825   4.142   1.290
13913TIP3    H141696   7.832   4.057   1.245
13913TIP3    H241697   7.839   4.121   1.382
13914TIP3   OH241698   6.275   5.094   2.669
13914TIP3    H141699   6.302   5.002   2.668
13914TIP3    H241700   6.245   5.109   2.759
13915TIP3   OH241701   3.176   5.313   1.045
13915TIP3    H141702   3.244   5.312   0.977
13915TIP3    H241703   3.181   5.401   1.082
13916TIP3   OH241704   0.797   6.976   1.265
13916TIP3    H141705   0.855   6.926   1.207
13916TIP3    H241706   0.722   6.918   1.280
13917TIP3   OH241707   1.744   5.077   0.104
13917TIP3    H141708   1.762   5.152   0.160
13917TIP3    H241709   1.715   5.009   0.165
13918TIP3   OH241710   3.814   3.976   0.884
13918TIP3    H141711   3.753   4.006   0.817
13918TIP3    H241712   3.758   3.949   0.957
13919TIP3   OH241713   7.536   6.425   5.034
13919TIP3    H141714   7.509   6.512   5.063
13919TIP3    H241715   7.507   6.367   5.104
13920TIP3   OH241716   5.500   0.134   6.723
13920TIP3    H141717   5.573   0.193   6.739
13920TIP3    H241718   5.430   0.166   6.780
13921TIP3   OH241719   8.203   4.239   0.829
13921TIP3    H141720   8.162   4.176   0.888
13921TIP3    H241721   8.244   4.303   0.888
13922TIP3   OH241722   1.819   4.313   2.144
13922TIP3    H141723   1.776   4.268   2.071
13922TIP3    H241724   1.777   4.277   2.222
13923TIP3   OH241725   1.323   6.954   2.128
13923TIP3    H141726   1.313   6.890   2.057
13923TIP3    H241727   1.241   6.947   2.177
13924TIP3   OH241728   4.249   3.784   2.552
13924TIP3    H141729   4.167   3.780   2.503
13924TIP3    H241730   4.289   3.698   2.539
13925TIP3   OH241731   5.822   0.517   1.831
13925TIP3    H141732   5.796   0.486   1.744
13925TIP3    H241733   5.758   0.477   1.891
13926TIP3   OH241734   2.801   3.281   1.131
13926TIP3    H141735   2.765   3.206   1.083
13926TIP3    H241736   2.800   3.254   1.223
13927TIP3   OH241737   0.653   4.644   5.748
13927TIP3    H141738   0.719   4.592   5.795
13927TIP3    H241739   0.613   4.699   5.816
13928TIP3   OH241740   7.443   6.617   5.287
13928TIP3    H141741   7.355   6.587   5.312
13928TIP3    H241742   7.427   6.686   5.223
13929TIP3   OH241743   7.536   2.263   1.400
13929TIP3    H141744   7.452   2.273   1.356
13929TIP3    H241745   7.552   2.348   1.441
13930TIP3   OH241746   7.854   6.724   2.476
13930TIP3    H141747   7.878   6.799   2.421
13930TIP3    H241748   7.869   6.754   2.566
13931TIP3   OH241749   1.811   6.653   3.159
13931TIP3    H141750   1.792   6.670   3.251
13931TIP3    H241751   1.779   6.564   3.144
13932TIP3   OH241752   0.696   3.161   3.729
13932TIP3    H141753   0.749   3.234   3.696
13932TIP3    H241754   0.738   3.137   3.812
13933TIP3   OH241755   3.752   6.969   6.231
13933TIP3    H141756   3.841   6.976   6.197
13933TIP3    H241757   3.696   6.995   6.158
13934TIP3   OH241758   3.700   7.696   3.659
13934TIP3    H141759   3.777   7.642   3.678
13934TIP3    H241760   3.707   7.769   3.720
13935TIP3   OH241761   8.244   2.550   2.233
13935TIP3    H141762   8.221   2.616   2.168
13935TIP3    H241763   8.320   2.505   2.197
13936TIP3   OH241764   7.536   2.145   6.758
13936TIP3    H141765   7.595   2.087   6.710
13936TIP3    H241766   7.594   2.206   6.803
13937TIP3   OH241767   5.039   7.476   6.666
13937TIP3    H141768   5.130   7.501   6.685
13937TIP3    H241769   5.012   7.535   6.595
13938TIP3   OH241770   4.864   5.475   3.885
13938TIP3    H141771   4.783   5.447   3.926
13938TIP3    H241772   4.875   5.416   3.810
13939TIP3   OH241773   3.341   0.794   4.778
13939TIP3    H141774   3.297   0.717   4.744
13939TIP3    H241775   3.424   0.760   4.814
13940TIP3   OH241776   5.400   0.401   4.146
13940TIP3    H141777   5.460   0.378   4.075
13940TIP3    H241778   5.417   0.494   4.163
13941TIP3   OH241779   4.732   1.430   2.596
13941TIP3    H141780   4.758   1.515   2.631
13941TIP3    H241781   4.654   1.406   2.647
13942TIP3   OH241782   3.415   7.708   4.743
13942TIP3    H141783   3.460   7.782   4.703
13942TIP3    H241784   3.477   7.635   4.734
13943TIP3   OH241785   2.937   7.011   2.021
13943TIP3    H141786   2.879   7.075   1.980
13943TIP3    H241787   3.020   7.019   1.973
13944TIP3   OH241788   4.128   5.817   4.808
13944TIP3    H141789   4.119   5.882   4.739
13944TIP3    H241790   4.038   5.797   4.835
13945TIP3   OH241791   1.289   2.716   2.981
13945TIP3    H141792   1.254   2.795   2.941
13945TIP3    H241793   1.345   2.677   2.914
13946TIP3   OH241794   2.358   7.458   0.408
13946TIP3    H141795   2.423   7.527   0.420
13946TIP3    H241796   2.282   7.504   0.372
13947TIP3   OH241797   7.466   1.826   1.427
13947TIP3    H141798   7.498   1.736   1.428
13947TIP3    H241799   7.373   1.818   1.409
13948TIP3   OH241800   3.317   4.622   2.728
13948TIP3    H141801   3.285   4.639   2.817
13948TIP3    H241802   3.305   4.706   2.683
13949TIP3   OH241803   3.781   0.715   2.603
13949TIP3    H141804   3.707   0.735   2.546
13949TIP3    H241805   3.844   0.785   2.586
13950TIP3   OH241806   6.571   2.787   2.135
13950TIP3    H141807   6.663   2.770   2.157
13950TIP3    H241808   6.522   2.742   2.204
13951TIP3   OH241809   4.969   1.838   5.290
13951TIP3    H141810   4.995   1.852   5.381
13951TIP3    H241811   5.018   1.904   5.240
13952TIP3   OH241812   0.783   3.592   5.316
13952TIP3    H141813   0.755   3.658   5.380
13952TIP3    H241814   0.815   3.643   5.242
13953TIP3   OH241815   8.021   6.189   2.885
13953TIP3    H141816   8.077   6.171   2.961
13953TIP3    H241817   8.079   6.180   2.810
13954TIP3   OH241818   4.766   3.933   4.970
13954TIP3    H141819   4.810   3.870   4.913
13954TIP3    H241820   4.748   3.885   5.050
13955TIP3   OH241821   3.527   3.567   5.580
13955TIP3    H141822   3.592   3.556   5.511
13955TIP3    H241823   3.573   3.541   5.660
13956TIP3   OH241824   6.560   2.129   3.519
13956TIP3    H141825   6.623   2.171   3.461
13956TIP3    H241826   6.526   2.199   3.574
13957TIP3   OH241827   6.159   1.023   1.975
13957TIP3    H141828   6.246   0.987   1.960
13957TIP3    H241829   6.171   1.087   2.045
13958TIP3   OH241830   7.478   2.588   0.877
13958TIP3    H141831   7.419   2.635   0.937
13958TIP3    H241832   7.522   2.524   0.932
13959TIP3   OH241833   1.885   1.710   1.399
13959TIP3    H141834   1.885   1.756   1.483
13959TIP3    H241835   1.877   1.779   1.333
13960TIP3   OH241836   8.340   0.249   1.478
13960TIP3    H141837   8.270   0.314   1.488
13960TIP3    H241838   8.295   0.164   1.482
13961TIP3   OH241839   7.481   1.094   0.721
13961TIP3    H141840   7.439   1.012   0.747
13961TIP3    H241841   7.540   1.070   0.650
13962TIP3   OH241842   7.499   4.235   6.005
13962TIP3    H141843   7.438   4.249   6.078
13962TIP3    H241844   7.463   4.286   5.933
13963TIP3   OH241845   2.733   4.476   2.647
13963TIP3    H141846   2.749   4.528   2.725
13963TIP3    H241847   2.731   4.539   2.575
13964TIP3   OH241848   0.656   0.447   2.929
13964TIP3    H141849   0.584   0.492   2.973
13964TIP3    H241850   0.712   0.518   2.896
13965TIP3   OH241851   2.544   4.514   1.807
13965TIP3    H141852   2.584   4.598   1.785
13965TIP3    H241853   2.584   4.451   1.747
13966TIP3   OH241854   6.640   4.230   5.292
13966TIP3    H141855   6.598   4.315   5.303
13966TIP3    H241856   6.709   4.229   5.358
13967TIP3   OH241857   4.459   0.602   4.900
13967TIP3    H141858   4.474   0.523   4.953
13967TIP3    H241859   4.422   0.665   4.961
13968TIP3   OH241860   5.487   3.606   5.717
13968TIP3    H141861   5.496   3.569   5.629
13968TIP3    H241862   5.533   3.544   5.773
13969TIP3   OH241863   6.171   1.297   0.824
13969TIP3    H141864   6.178   1.307   0.918
13969TIP3    H241865   6.177   1.386   0.789
13970TIP3   OH241866   3.346   0.344   6.818
13970TIP3    H141867   3.427   0.370   6.861
13970TIP3    H241868   3.352   0.384   6.731
13971TIP3   OH241869   1.054   5.991   6.487
13971TIP3    H141870   1.144   6.025   6.496
13971TIP3    H241871   1.014   6.008   6.572
13972TIP3   OH241872   6.155   6.848   4.778
13972TIP3    H141873   6.238   6.806   4.803
13972TIP3    H241874   6.122   6.794   4.707
13973TIP3   OH241875   1.524   1.080   2.816
13973TIP3    H141876   1.517   0.999   2.867
13973TIP3    H241877   1.594   1.062   2.753
13974TIP3   OH241878   2.797   2.082   1.248
13974TIP3    H141879   2.892   2.087   1.249
13974TIP3    H241880   2.777   2.018   1.180
13975TIP3   OH241881   3.171   2.192   4.844
13975TIP3    H141882   3.141   2.119   4.898
13975TIP3    H241883   3.101   2.205   4.781
13976TIP3   OH241884   0.381   7.716   6.151
13976TIP3    H141885   0.388   7.671   6.235
13976TIP3    H241886   0.434   7.664   6.091
13977TIP3   OH241887   3.675   6.831   3.388
13977TIP3    H141888   3.625   6.792   3.459
13977TIP3    H241889   3.755   6.863   3.429
13978TIP3   OH241890   0.348   4.901   6.445
13978TIP3    H141891   0.362   4.991   6.416
13978TIP3    H241892   0.273   4.906   6.505
13979TIP3   OH241893   5.357   4.982   0.674
13979TIP3    H141894   5.431   4.923   0.667
13979TIP3    H241895   5.294   4.936   0.730
13980TIP3   OH241896   1.337   5.531   0.921
13980TIP3    H141897   1.320   5.566   0.833
13980TIP3    H241898   1.404   5.464   0.907
13981TIP3   OH241899   4.776   3.519   2.560
13981TIP3    H141900   4.825   3.601   2.558
13981TIP3    H241901   4.843   3.451   2.547
13982TIP3   OH241902   0.074   0.808   6.308
13982TIP3    H141903   0.078   0.715   6.331
13982TIP3    H241904  -0.011   0.837   6.340
13983TIP3   OH241905   1.388   5.134   4.447
13983TIP3    H141906   1.468   5.175   4.414
13983TIP3    H241907   1.418   5.066   4.507
13984TIP3   OH241908   7.840   4.562   1.511
13984TIP3    H141909   7.803   4.476   1.531
13984TIP3    H241910   7.763   4.617   1.493
13985TIP3   OH241911   2.745   2.400   4.380
13985TIP3    H141912   2.724   2.336   4.312
13985TIP3    H241913   2.807   2.356   4.437
13986TIP3   OH241914   0.979   4.260   2.703
13986TIP3    H141915   0.922   4.289   2.631
13986TIP3    H241916   0.938   4.295   2.782
13987TIP3   OH241917   2.411   7.314   6.623
13987TIP3    H141918   2.430   7.257   6.697
13987TIP3    H241919   2.326   7.354   6.644
13988TIP3   OH241920   3.643   1.620   0.313
13988TIP3    H141921   3.608   1.583   0.232
13988TIP3    H241922   3.567   1.658   0.358
13989TIP3   OH241923   1.201   3.736   5.528
13989TIP3    H141924   1.197   3.805   5.462
13989TIP3    H241925   1.284   3.691   5.510
13990TIP3   OH241926   5.801   0.237   5.313
13990TIP3    H141927   5.811   0.261   5.221
13990TIP3    H241928   5.709   0.252   5.332
13991TIP3   OH241929   3.715   6.268   0.227
13991TIP3    H141930   3.778   6.307   0.287
13991TIP3    H241931   3.731   6.311   0.143
13992TIP3   OH241932   8.228   0.161   4.766
13992TIP3    H141933   8.286   0.101   4.811
13992TIP3    H241934   8.163   0.105   4.724
13993TIP3   OH241935   8.232   5.642   3.454
13993TIP3    H141936   8.232   5.626   3.548
13993TIP3    H241937   8.314   5.602   3.423
13994TIP3   OH241938   7.857   3.056   5.469
13994TIP3    H141939   7.932   3.096   5.513
13994TIP3    H241940   7.791   3.046   5.537
13995TIP3   OH241941   5.448   4.713   2.232
13995TIP3    H141942   5.523   4.712   2.173
13995TIP3    H241943   5.400   4.632   2.211
13996TIP3   OH241944   7.215   4.290   1.197
13996TIP3    H141945   7.145   4.356   1.205
13996TIP3    H241946   7.266   4.299   1.278
13997TIP3   OH241947   7.120   2.689   2.388
13997TIP3    H141948   7.092   2.774   2.421
13997TIP3    H241949   7.107   2.694   2.294
13998TIP3   OH241950   2.936   6.171   3.985
13998TIP3    H141951   2.898   6.203   3.903
13998TIP3    H241952   2.975   6.086   3.962
13999TIP3   OH241953   1.957   4.094   1.941
13999TIP3    H141954   1.963   4.013   1.991
13999TIP3    H241955   1.864   4.117   1.945
14000TIP3   OH241956   5.526   3.320   1.250
14000TIP3    H141957   5.571   3.395   1.290
14000TIP3    H241958   5.433   3.345   1.250
14001TIP3   OH241959   5.090   4.201   6.329
14001TIP3    H141960   5.031   4.213   6.404
14001TIP3    H241961   5.103   4.106   6.324
14002TIP3   OH241962   2.358   3.131   3.265
14002TIP3    H141963   2.424   3.086   3.316
14002TIP3    H241964   2.331   3.205   3.320
14003TIP3   OH241965   1.749   0.418   2.010
14003TIP3    H141966   1.765   0.371   2.092
14003TIP3    H241967   1.654   0.428   2.007
14004TIP3   OH241968   7.705   3.747   4.847
14004TIP3    H141969   7.738   3.673   4.795
14004TIP3    H241970   7.759   3.748   4.925
14005TIP3   OH241971   5.070   3.995   4.965
14005TIP3    H141972   5.012   3.929   4.928
14005TIP3    H241973   5.039   4.078   4.928
14006TIP3   OH241974   5.176   0.427   3.751
14006TIP3    H141975   5.160   0.412   3.844
14006TIP3    H241976   5.107   0.379   3.706
14007TIP3   OH241977   7.792   6.952   1.355
14007TIP3    H141978   7.703   6.979   1.328
14007TIP3    H241979   7.789   6.953   1.450
14008TIP3   OH241980   0.768   0.415   3.882
14008TIP3    H141981   0.738   0.343   3.938
14008TIP3    H241982   0.790   0.373   3.799
14009TIP3   OH241983   0.099   2.869   0.896
14009TIP3    H141984   0.193   2.862   0.916
14009TIP3    H241985   0.058   2.884   0.980
14010TIP3   OH241986   5.717   0.876   2.466
14010TIP3    H141987   5.805   0.896   2.434
14010TIP3    H241988   5.715   0.914   2.554
14011TIP3   OH241989   2.028   6.199   2.012
14011TIP3    H141990   2.095   6.255   2.051
14011TIP3    H241991   2.067   6.112   2.011
14012TIP3   OH241992   6.206   4.028   5.963
14012TIP3    H141993   6.122   4.058   5.996
14012TIP3    H241994   6.185   3.988   5.878
14013TIP3   OH241995   3.407   0.494   6.126
14013TIP3    H141996   3.486   0.512   6.178
14013TIP3    H241997   3.346   0.563   6.152
14014TIP3   OH241998   4.244   0.585   2.994
14014TIP3    H141999   4.322   0.564   2.942
14014TIP3    H242000   4.245   0.522   3.066
14015TIP3   OH242001   4.715   3.816   5.589
14015TIP3    H142002   4.737   3.723   5.591
14015TIP3    H242003   4.633   3.821   5.541
14016TIP3   OH242004   4.061   5.665   6.029
14016TIP3    H142005   4.092   5.666   5.939
14016TIP3    H242006   4.008   5.585   6.036
14017TIP3   OH242007   1.422   6.768   5.304
14017TIP3    H142008   1.425   6.859   5.333
14017TIP3    H242009   1.494   6.760   5.241
14018TIP3   OH242010   6.052   0.521   5.494
14018TIP3    H142011   6.083   0.596   5.444
14018TIP3    H242012   5.959   0.540   5.509
14019TIP3   OH242013   2.689   2.655   0.571
14019TIP3    H142014   2.648   2.714   0.635
14019TIP3    H242015   2.761   2.706   0.534
14020TIP3   OH242016   3.011   6.170   5.157
14020TIP3    H142017   3.001   6.086   5.202
14020TIP3    H242018   2.963   6.232   5.212
14021TIP3   OH242019   4.630   2.263   1.599
14021TIP3    H142020   4.605   2.222   1.682
14021TIP3    H242021   4.622   2.357   1.616
14022TIP3   OH242022   0.406   1.107   2.366
14022TIP3    H142023   0.481   1.048   2.374
14022TIP3    H242024   0.338   1.069   2.422
14023TIP3   OH242025   6.177   1.336   6.476
14023TIP3    H142026   6.219   1.403   6.422
14023TIP3    H242027   6.194   1.364   6.566
14024TIP3   OH242028   2.202   0.205   5.306
14024TIP3    H142029   2.187   0.297   5.325
14024TIP3    H242030   2.140   0.184   5.237
14025TIP3   OH242031   1.935   1.663   4.890
14025TIP3    H142032   1.970   1.751   4.880
14025TIP3    H242033   2.002   1.605   4.854
14026TIP3   OH242034   5.921   4.340   2.168
14026TIP3    H142035   5.886   4.280   2.103
14026TIP3    H242036   5.996   4.380   2.125
14027TIP3   OH242037   4.657   0.932   0.015
14027TIP3    H142038   4.707   0.870  -0.039
14027TIP3    H242039   4.646   0.887   0.098
14028TIP3   OH242040   2.068   0.942   3.353
14028TIP3    H142041   1.982   0.967   3.387
14028TIP3    H242042   2.068   0.972   3.262
14029TIP3   OH242043   3.575   5.089   2.287
14029TIP3    H142044   3.654   5.132   2.318
14029TIP3    H242045   3.582   5.091   2.192
14030TIP3   OH242046   3.518   2.141   0.108
14030TIP3    H142047   3.606   2.172   0.128
14030TIP3    H242048   3.531   2.053   0.073
14031TIP3   OH242049   6.352   3.482   1.806
14031TIP3    H142050   6.386   3.539   1.737
14031TIP3    H242051   6.429   3.453   1.854
14032TIP3   OH242052   5.412   5.271   0.676
14032TIP3    H142053   5.389   5.179   0.690
14032TIP3    H242054   5.433   5.277   0.582
14033TIP3   OH242055   6.485   1.320   4.685
14033TIP3    H142056   6.575   1.295   4.704
14033TIP3    H242057   6.436   1.238   4.691
14034TIP3   OH242058   5.489   2.069   0.429
14034TIP3    H142059   5.451   1.981   0.432
14034TIP3    H242060   5.417   2.127   0.455
14035TIP3   OH242061   0.768   7.201   4.136
14035TIP3    H142062   0.681   7.161   4.125
14035TIP3    H242063   0.750   7.295   4.140
14036TIP3   OH242064   2.873   1.598   2.933
14036TIP3    H142065   2.893   1.593   2.840
14036TIP3    H242066   2.917   1.523   2.972
14037TIP3   OH242067   6.131   6.932   4.461
14037TIP3    H142068   6.063   6.998   4.473
14037TIP3    H242069   6.208   6.968   4.504
14038TIP3   OH242070   2.307   0.770   6.057
14038TIP3    H142071   2.393   0.753   6.019
14038TIP3    H242072   2.305   0.717   6.137
14039TIP3   OH242073   3.116   1.616   5.458
14039TIP3    H142074   3.173   1.667   5.515
14039TIP3    H242075   3.172   1.545   5.425
14040TIP3   OH242076   8.105   0.559   5.566
14040TIP3    H142077   8.114   0.653   5.576
14040TIP3    H242078   8.027   0.547   5.513
14041TIP3   OH242079   8.142   3.303   4.862
14041TIP3    H142080   8.198   3.366   4.907
14041TIP3    H242081   8.199   3.226   4.851
14042TIP3   OH242082   4.925   1.935   3.719
14042TIP3    H142083   4.893   1.977   3.798
14042TIP3    H242084   4.987   1.998   3.682
14043TIP3   OH242085   1.314   1.413   3.389
14043TIP3    H142086   1.398   1.394   3.431
14043TIP3    H242087   1.303   1.507   3.400
14044TIP3   OH242088   2.572   7.725   6.305
14044TIP3    H142089   2.568   7.632   6.327
14044TIP3    H242090   2.652   7.756   6.347
14045TIP3   OH242091   3.485   2.317   2.870
14045TIP3    H142092   3.390   2.324   2.860
14045TIP3    H242093   3.498   2.275   2.954
14046TIP3   OH242094   3.778   3.460   6.072
14046TIP3    H142095   3.857   3.511   6.053
14046TIP3    H242096   3.761   3.477   6.164
14047TIP3   OH242097   1.287   1.279   4.544
14047TIP3    H142098   1.376   1.259   4.516
14047TIP3    H242099   1.278   1.234   4.628
14048TIP3   OH242100   5.145   5.627   3.416
14048TIP3    H142101   5.122   5.693   3.481
14048TIP3    H242102   5.064   5.612   3.367
14049TIP3   OH242103   6.600   1.752   2.360
14049TIP3    H142104   6.654   1.829   2.378
14049TIP3    H242105   6.520   1.767   2.410
14050TIP3   OH242106   0.688   4.462   2.999
14050TIP3    H142107   0.699   4.530   3.066
14050TIP3    H242108   0.775   4.453   2.960
14051TIP3   OH242109   8.130   3.221   3.788
14051TIP3    H142110   8.191   3.201   3.859
14051TIP3    H242111   8.183   3.269   3.724
14052TIP3   OH242112   7.836   5.960   2.870
14052TIP3    H142113   7.869   6.048   2.890
14052TIP3    H242114   7.769   5.974   2.803
14053TIP3   OH242115   0.322   4.727   3.573
14053TIP3    H142116   0.366   4.769   3.500
14053TIP3    H242117   0.384   4.733   3.646
14054TIP3   OH242118   1.226   2.858   1.589
14054TIP3    H142119   1.273   2.817   1.661
14054TIP3    H242120   1.150   2.801   1.575
14055TIP3   OH242121   1.691   4.406   6.300
14055TIP3    H142122   1.642   4.416   6.382
14055TIP3    H242123   1.639   4.453   6.235
14056TIP3   OH242124   2.395   1.189   5.926
14056TIP3    H142125   2.455   1.239   5.981
14056TIP3    H242126   2.357   1.124   5.985
14057TIP3   OH242127   6.161   4.192   1.325
14057TIP3    H142128   6.214   4.252   1.273
14057TIP3    H242129   6.141   4.240   1.405
14058TIP3   OH242130   5.400   4.641   5.584
14058TIP3    H142131   5.313   4.602   5.589
14058TIP3    H242132   5.432   4.638   5.674
14059TIP3   OH242133   8.091   5.798   1.241
14059TIP3    H142134   8.171   5.768   1.284
14059TIP3    H242135   8.023   5.789   1.307
14060TIP3   OH242136   5.241   4.644   3.951
14060TIP3    H142137   5.302   4.701   3.905
14060TIP3    H242138   5.160   4.650   3.900
14061TIP3   OH242139   1.970   6.596   4.675
14061TIP3    H142140   2.010   6.510   4.661
14061TIP3    H242141   2.043   6.658   4.670
14062TIP3   OH242142   7.134   4.139   6.127
14062TIP3    H142143   7.137   4.132   6.032
14062TIP3    H242144   7.149   4.050   6.158
14063TIP3   OH242145   0.781   5.440   2.594
14063TIP3    H142146   0.803   5.462   2.684
14063TIP3    H242147   0.686   5.436   2.592
14064TIP3   OH242148   7.631   2.122   1.051
14064TIP3    H142149   7.611   2.043   1.100
14064TIP3    H242150   7.711   2.156   1.091
14065TIP3   OH242151   1.268   4.619   0.061
14065TIP3    H142152   1.337   4.677   0.029
14065TIP3    H242153   1.276   4.540   0.008
14066TIP3   OH242154   3.306   1.832   0.711
14066TIP3    H142155   3.242   1.761   0.722
14066TIP3    H242156   3.385   1.788   0.679
14067TIP3   OH242157   6.507   7.167   0.700
14067TIP3    H142158   6.570   7.100   0.673
14067TIP3    H242159   6.534   7.190   0.789
14068TIP3   OH242160   5.033   1.032   5.825
14068TIP3    H142161   4.996   1.056   5.740
14068TIP3    H242162   5.127   1.044   5.815
14069TIP3   OH242163   2.438   2.786   6.664
14069TIP3    H142164   2.433   2.694   6.689
14069TIP3    H242165   2.494   2.786   6.586
14070TIP3   OH242166   1.246   0.336   1.624
14070TIP3    H142167   1.303   0.276   1.671
14070TIP3    H242168   1.199   0.281   1.561
14071TIP3   OH242169   1.897   7.349   4.749
14071TIP3    H142170   1.939   7.430   4.722
14071TIP3    H242171   1.921   7.286   4.680
14072TIP3   OH242172   2.407   0.269   2.979
14072TIP3    H142173   2.340   0.234   2.921
14072TIP3    H242174   2.453   0.335   2.927
14073TIP3   OH242175   4.732   0.195   4.494
14073TIP3    H142176   4.807   0.148   4.457
14073TIP3    H242177   4.656   0.150   4.458
14074TIP3   OH242178   5.177   3.176   5.627
14074TIP3    H142179   5.203   3.243   5.690
14074TIP3    H242180   5.208   3.094   5.665
14075TIP3   OH242181   6.046   6.548   6.459
14075TIP3    H142182   6.019   6.617   6.520
14075TIP3    H242183   6.021   6.466   6.502
14076TIP3   OH242184   1.683   5.056   3.798
14076TIP3    H142185   1.704   5.038   3.707
14076TIP3    H242186   1.608   5.000   3.817
14077TIP3   OH242187   6.778   0.849   0.146
14077TIP3    H142188   6.749   0.931   0.106
14077TIP3    H242189   6.796   0.872   0.237
14078TIP3   OH242190   1.582   7.224   4.686
14078TIP3    H142191   1.487   7.217   4.697
14078TIP3    H242192   1.598   7.194   4.596
14079TIP3   OH242193   4.343   4.637   2.183
14079TIP3    H142194   4.319   4.722   2.219
14079TIP3    H242195   4.439   4.637   2.183
14080TIP3   OH242196   0.018   3.743   1.290
14080TIP3    H142197   0.013   3.835   1.264
14080TIP3    H242198   0.083   3.741   1.361
14081TIP3   OH242199   4.060   5.325   5.528
14081TIP3    H142200   4.075   5.245   5.479
14081TIP3    H242201   4.037   5.295   5.616
14082TIP3   OH242202   1.578   7.512   4.280
14082TIP3    H142203   1.556   7.490   4.371
14082TIP3    H242204   1.505   7.479   4.229
14083TIP3   OH242205   7.639   6.158   1.138
14083TIP3    H142206   7.730   6.175   1.163
14083TIP3    H242207   7.643   6.134   1.045
14084TIP3   OH242208   4.283   1.380   4.667
14084TIP3    H142209   4.273   1.290   4.637
14084TIP3    H242210   4.372   1.384   4.704
14085TIP3   OH242211   4.554   0.788   3.036
14085TIP3    H142212   4.617   0.860   3.041
14085TIP3    H242213   4.470   0.829   3.054
14086TIP3   OH242214   5.024   0.974   1.944
14086TIP3    H142215   4.973   0.934   2.015
14086TIP3    H242216   4.985   0.938   1.864
14087TIP3   OH242217   1.032   1.382   3.481
14087TIP3    H142218   1.014   1.362   3.389
14087TIP3    H242219   1.121   1.350   3.495
14088TIP3   OH242220   1.594   2.260   5.667
14088TIP3    H142221   1.516   2.312   5.646
14088TIP3    H242222   1.572   2.214   5.748
14089TIP3   OH242223   7.200   6.273   5.396
14089TIP3    H142224   7.246   6.318   5.325
14089TIP3    H242225   7.241   6.186   5.399
14090TIP3   OH242226   0.788   5.553   0.970
14090TIP3    H142227   0.753   5.543   1.058
14090TIP3    H242228   0.880   5.528   0.979
14091TIP3   OH242229   5.679   5.998   0.582
14091TIP3    H142230   5.764   5.984   0.625
14091TIP3    H242231   5.691   5.961   0.494
14092TIP3   OH242232   1.656   3.285   5.032
14092TIP3    H142233   1.600   3.307   5.107
14092TIP3    H242234   1.595   3.250   4.967
14093TIP3   OH242235   6.749   2.435   0.862
14093TIP3    H142236   6.833   2.480   0.855
14093TIP3    H242237   6.685   2.504   0.881
14094TIP3   OH242238   0.351   6.760   6.407
14094TIP3    H142239   0.359   6.815   6.485
14094TIP3    H242240   0.426   6.700   6.412
14095TIP3   OH242241   4.840   5.208   6.593
14095TIP3    H142242   4.800   5.150   6.658
14095TIP3    H242243   4.930   5.218   6.621
14096TIP3   OH242244   7.298   4.195   3.677
14096TIP3    H142245   7.243   4.263   3.637
14096TIP3    H242246   7.388   4.221   3.656
14097TIP3   OH242247   7.533   3.056   2.820
14097TIP3    H142248   7.503   3.126   2.879
14097TIP3    H242249   7.547   2.981   2.877
14098TIP3   OH242250   6.003   2.263   1.960
14098TIP3    H142251   6.056   2.198   1.915
14098TIP3    H242252   5.916   2.253   1.923
14099TIP3   OH242253   1.155   3.936   6.435
14099TIP3    H142254   1.164   4.018   6.482
14099TIP3    H242255   1.191   3.870   6.495
14100TIP3   OH242256   0.651   1.794   5.241
14100TIP3    H142257   0.664   1.887   5.226
14100TIP3    H242258   0.563   1.787   5.279
14101TIP3   OH242259   7.683   5.062   2.773
14101TIP3    H142260   7.653   5.051   2.864
14101TIP3    H242261   7.604   5.090   2.726
14102TIP3   OH242262   0.515   4.552   4.951
14102TIP3    H142263   0.490   4.467   4.915
14102TIP3    H242264   0.464   4.615   4.900
14103TIP3   OH242265   7.839   6.597   5.666
14103TIP3    H142266   7.762   6.625   5.715
14103TIP3    H242267   7.805   6.568   5.582
14104TIP3   OH242268   3.390   5.744   6.580
14104TIP3    H142269   3.363   5.668   6.530
14104TIP3    H242270   3.486   5.745   6.572
14105TIP3   OH242271   1.752   5.356   0.773
14105TIP3    H142272   1.695   5.353   0.850
14105TIP3    H242273   1.764   5.449   0.756
14106TIP3   OH242274   5.645   2.769   2.526
14106TIP3    H142275   5.615   2.686   2.489
14106TIP3    H242276   5.646   2.753   2.621
14107TIP3   OH242277   7.748   0.929   2.062
14107TIP3    H142278   7.801   1.005   2.087
14107TIP3    H242279   7.791   0.855   2.105
14108TIP3   OH242280   4.695   1.738   3.630
14108TIP3    H142281   4.660   1.683   3.700
14108TIP3    H242282   4.702   1.825   3.669
14109TIP3   OH242283   4.195   0.076   4.500
14109TIP3    H142284   4.130   0.143   4.520
14109TIP3    H242285   4.143  -0.003   4.482
14110TIP3   OH242286   6.850   7.604   1.204
14110TIP3    H142287   6.782   7.616   1.137
14110TIP3    H242288   6.888   7.518   1.184
14111TIP3   OH242289   7.181   0.767   4.363
14111TIP3    H142290   7.171   0.672   4.373
14111TIP3    H242291   7.100   0.803   4.399
14112TIP3   OH242292   7.132   0.748   3.812
14112TIP3    H142293   7.116   0.748   3.906
14112TIP3    H242294   7.221   0.783   3.802
14113TIP3   OH242295   6.076   0.153   1.213
14113TIP3    H142296   6.126   0.072   1.203
14113TIP3    H242297   6.070   0.166   1.307
14114TIP3   OH242298   3.001   6.274   1.999
14114TIP3    H142299   3.044   6.360   1.998
14114TIP3    H242300   3.071   6.211   2.012
14115TIP3   OH242301   6.881   7.186   6.222
14115TIP3    H142302   6.940   7.129   6.173
14115TIP3    H242303   6.830   7.232   6.155
14116TIP3   OH242304   8.175   0.151   1.950
14116TIP3    H142305   8.131   0.215   1.894
14116TIP3    H242306   8.110   0.084   1.967
14117TIP3   OH242307   1.329   2.394   1.713
14117TIP3    H142308   1.381   2.450   1.771
14117TIP3    H242309   1.314   2.448   1.635
14118TIP3   OH242310   4.744   0.212   3.658
14118TIP3    H142311   4.663   0.247   3.694
14118TIP3    H242312   4.725   0.120   3.639
14119TIP3   OH242313   3.771   1.398   2.980
14119TIP3    H142314   3.839   1.453   2.941
14119TIP3    H242315   3.724   1.457   3.040
14120TIP3   OH242316   7.051   3.146   1.220
14120TIP3    H142317   7.146   3.152   1.231
14120TIP3    H242318   7.039   3.119   1.129
14121TIP3   OH242319   4.549   1.420   5.537
14121TIP3    H142320   4.620   1.372   5.579
14121TIP3    H242321   4.506   1.356   5.481
14122TIP3   OH242322   5.059   6.457   3.294
14122TIP3    H142323   5.031   6.409   3.216
14122TIP3    H242324   5.142   6.498   3.268
14123TIP3   OH242325   0.478   0.502   4.854
14123TIP3    H142326   0.417   0.574   4.840
14123TIP3    H242327   0.463   0.442   4.781
14124TIP3   OH242328   3.586   5.538   0.394
14124TIP3    H142329   3.641   5.573   0.325
14124TIP3    H242330   3.594   5.601   0.466
14125TIP3   OH242331   5.428   0.831   2.085
14125TIP3    H142332   5.518   0.831   2.050
14125TIP3    H242333   5.430   0.770   2.158
14126TIP3   OH242334   5.257   6.217   5.711
14126TIP3    H142335   5.184   6.154   5.720
14126TIP3    H242336   5.331   6.173   5.752
14127TIP3   OH242337   3.350   7.099   3.346
14127TIP3    H142338   3.376   7.035   3.279
14127TIP3    H242339   3.255   7.104   3.338
14128TIP3   OH242340   1.842   3.131   4.876
14128TIP3    H142341   1.824   3.187   4.952
14128TIP3    H242342   1.835   3.042   4.910
14129TIP3   OH242343   5.409   6.130   6.182
14129TIP3    H142344   5.456   6.213   6.172
14129TIP3    H242345   5.475   6.063   6.165
14130TIP3   OH242346   6.404   3.287   6.408
14130TIP3    H142347   6.459   3.365   6.401
14130TIP3    H242348   6.467   3.215   6.419
14131TIP3   OH242349   0.184   0.715   2.475
14131TIP3    H142350   0.233   0.776   2.419
14131TIP3    H242351   0.134   0.661   2.413
14132TIP3   OH242352   5.722   2.327   1.327
14132TIP3    H142353   5.777   2.330   1.405
14132TIP3    H242354   5.758   2.255   1.275
14133TIP3   OH242355   3.062   4.725   3.210
14133TIP3    H142356   2.991   4.782   3.183
14133TIP3    H242357   3.097   4.765   3.290
14134TIP3   OH242358   5.150   7.439   4.621
14134TIP3    H142359   5.136   7.366   4.681
14134TIP3    H242360   5.187   7.508   4.675
14135TIP3   OH242361   5.890   2.290   3.998
14135TIP3    H142362   5.935   2.276   3.915
14135TIP3    H242363   5.842   2.209   4.013
14136TIP3   OH242364   3.497   6.573   6.583
14136TIP3    H142365   3.417   6.622   6.600
14136TIP3    H242366   3.479   6.522   6.504
14137TIP3   OH242367   2.862   1.302   1.381
14137TIP3    H142368   2.787   1.244   1.385
14137TIP3    H242369   2.898   1.300   1.470
14138TIP3   OH242370   6.220   4.641   6.560
14138TIP3    H142371   6.313   4.641   6.534
14138TIP3    H242372   6.173   4.658   6.478
14139TIP3   OH242373   0.526   3.542   3.490
14139TIP3    H142374   0.567   3.628   3.502
14139TIP3    H242375   0.433   3.558   3.501
14140TIP3   OH242376   3.485   6.764   0.046
14140TIP3    H142377   3.491   6.859   0.057
14140TIP3    H242378   3.537   6.728   0.118
14141TIP3   OH242379   2.442   5.502   3.424
14141TIP3    H142380   2.368   5.555   3.454
14141TIP3    H242381   2.494   5.562   3.370
14142TIP3   OH242382   3.877   7.185   3.985
14142TIP3    H142383   3.881   7.090   3.976
14142TIP3    H242384   3.966   7.210   4.011
14143TIP3   OH242385   2.409   4.074   4.523
14143TIP3    H142386   2.446   4.115   4.602
14143TIP3    H242387   2.463   4.109   4.451
14144TIP3   OH242388   4.890   2.404   6.772
14144TIP3    H142389   4.857   2.404   6.861
14144TIP3    H242390   4.861   2.320   6.736
14145TIP3   OH242391   6.933   0.582   1.315
14145TIP3    H142392   6.882   0.663   1.312
14145TIP3    H242393   7.007   0.602   1.373
14146TIP3   OH242394   7.875   2.023   1.575
14146TIP3    H142395   7.787   2.026   1.537
14146TIP3    H242396   7.915   2.106   1.549
14147TIP3   OH242397   7.287   3.938   3.494
14147TIP3    H142398   7.328   3.988   3.423
14147TIP3    H242399   7.290   3.996   3.570
14148TIP3   OH242400   0.675   4.678   4.625
14148TIP3    H142401   0.728   4.619   4.677
14148TIP3    H242402   0.674   4.760   4.675
14149TIP3   OH242403   2.793   2.330   1.189
14149TIP3    H142404   2.794   2.235   1.204
14149TIP3    H242405   2.841   2.367   1.263
14150TIP3   OH242406   6.234   2.459   3.821
14150TIP3    H142407   6.141   2.468   3.843
14150TIP3    H242408   6.236   2.454   3.726
14151TIP3   OH242409   0.717   2.469   3.377
14151TIP3    H142410   0.746   2.464   3.468
14151TIP3    H242411   0.714   2.563   3.358
14152TIP3   OH242412   1.775   6.201   0.718
14152TIP3    H142413   1.784   6.245   0.633
14152TIP3    H242414   1.703   6.138   0.705
14153TIP3   OH242415   2.716   4.985   3.410
14153TIP3    H142416   2.652   4.938   3.357
14153TIP3    H242417   2.786   4.921   3.425
14154TIP3   OH242418   6.143   6.836   6.228
14154TIP3    H142419   6.111   6.872   6.145
14154TIP3    H242420   6.086   6.874   6.294
14155TIP3   OH242421   6.170   5.930   4.377
14155TIP3    H142422   6.156   5.847   4.422
14155TIP3    H242423   6.244   5.970   4.424
14156TIP3   OH242424   6.829   1.258   0.302
14156TIP3    H142425   6.802   1.250   0.393
14156TIP3    H242426   6.895   1.327   0.302
14157TIP3   OH242427   6.289   3.336   3.226
14157TIP3    H142428   6.247   3.296   3.302
14157TIP3    H242429   6.276   3.272   3.156
14158TIP3   OH242430   5.662   6.831   0.639
14158TIP3    H142431   5.602   6.782   0.582
14158TIP3    H242432   5.640   6.800   0.727
14159TIP3   OH242433   4.744   3.603   0.216
14159TIP3    H142434   4.730   3.552   0.137
14159TIP3    H242435   4.656   3.615   0.252
14160TIP3   OH242436   3.209   0.583   1.754
14160TIP3    H142437   3.241   0.507   1.802
14160TIP3    H242438   3.260   0.584   1.673
14161TIP3   OH242439   2.393   3.803   3.783
14161TIP3    H142440   2.436   3.811   3.868
14161TIP3    H242441   2.431   3.873   3.730
14162TIP3   OH242442   4.623   5.963   4.902
14162TIP3    H142443   4.557   6.030   4.885
14162TIP3    H242444   4.581   5.881   4.876
14163TIP3   OH242445   8.041   1.648   4.816
14163TIP3    H142446   8.032   1.661   4.911
14163TIP3    H242447   8.053   1.736   4.781
14164TIP3   OH242448   6.787   2.729   1.294
14164TIP3    H142449   6.786   2.637   1.269
14164TIP3    H242450   6.697   2.758   1.280
14165TIP3   OH242451   4.138   0.600   0.832
14165TIP3    H142452   4.097   0.560   0.908
14165TIP3    H242453   4.176   0.682   0.865
14166TIP3   OH242454   2.925   3.916   0.101
14166TIP3    H142455   2.975   3.976   0.046
14166TIP3    H242456   2.939   3.830   0.061
14167TIP3   OH242457   6.755   1.264   4.758
14167TIP3    H142458   6.766   1.325   4.685
14167TIP3    H242459   6.769   1.318   4.836
14168TIP3   OH242460   8.178   2.791   5.586
14168TIP3    H142461   8.116   2.737   5.633
14168TIP3    H242462   8.264   2.758   5.612
14169TIP3   OH242463   7.176   6.471   2.663
14169TIP3    H142464   7.191   6.378   2.649
14169TIP3    H242465   7.082   6.480   2.672
14170TIP3   OH242466   4.593   6.954   3.476
14170TIP3    H142467   4.633   6.873   3.507
14170TIP3    H242468   4.499   6.941   3.488
14171TIP3   OH242469   0.469   0.078   2.132
14171TIP3    H142470   0.514   0.112   2.208
14171TIP3    H242471   0.418   0.152   2.099
14172TIP3   OH242472   5.764   0.124   1.682
14172TIP3    H142473   5.729   0.203   1.641
14172TIP3    H242474   5.694   0.096   1.742
14173TIP3   OH242475   6.538   3.795   2.456
14173TIP3    H142476   6.452   3.755   2.440
14173TIP3    H242477   6.588   3.776   2.377
14174TIP3   OH242478   3.898   0.726   5.634
14174TIP3    H142479   3.949   0.666   5.579
14174TIP3    H242480   3.963   0.765   5.693
14175TIP3   OH242481   2.810   1.985   0.943
14175TIP3    H142482   2.830   2.075   0.918
14175TIP3    H242483   2.871   1.931   0.893
14176TIP3   OH242484   3.393   0.712   2.706
14176TIP3    H142485   3.334   0.647   2.744
14176TIP3    H242486   3.428   0.760   2.781
14177TIP3   OH242487   0.564   4.791   3.716
14177TIP3    H142488   0.554   4.871   3.664
14177TIP3    H242489   0.619   4.734   3.662
14178TIP3   OH242490   7.577   1.618   4.276
14178TIP3    H142491   7.657   1.566   4.273
14178TIP3    H242492   7.534   1.592   4.358
14179TIP3   OH242493   3.257   3.414   6.086
14179TIP3    H142494   3.209   3.451   6.160
14179TIP3    H242495   3.222   3.459   6.010
14180TIP3   OH242496   0.547   2.924   4.526
14180TIP3    H142497   0.502   2.841   4.538
14180TIP3    H242498   0.636   2.908   4.559
14181TIP3   OH242499   2.544   4.511   0.182
14181TIP3    H142500   2.627   4.553   0.163
14181TIP3    H242501   2.546   4.493   0.276
14182TIP3   OH242502   3.760   6.916   0.249
14182TIP3    H142503   3.815   6.853   0.296
14182TIP3    H242504   3.822   6.966   0.195
14183TIP3   OH242505   1.965   1.242   3.453
14183TIP3    H142506   1.982   1.299   3.378
14183TIP3    H242507   1.912   1.170   3.418
14184TIP3   OH242508   5.165   3.407   5.820
14184TIP3    H142509   5.243   3.415   5.874
14184TIP3    H242510   5.185   3.457   5.741
14185TIP3   OH242511   2.465   0.079   2.684
14185TIP3    H142512   2.446   0.004   2.629
14185TIP3    H242513   2.380   0.104   2.721
14186TIP3   OH242514   2.398   2.760   0.037
14186TIP3    H142515   2.344   2.838   0.046
14186TIP3    H242516   2.337   2.687   0.051
14187TIP3   OH242517   2.931   6.561   5.363
14187TIP3    H142518   2.934   6.609   5.280
14187TIP3    H242519   2.892   6.623   5.424
14188TIP3   OH242520   4.930   2.916   1.894
14188TIP3    H142521   4.903   2.834   1.853
14188TIP3    H242522   4.872   2.924   1.970
14189TIP3   OH242523   7.613   7.253   3.748
14189TIP3    H142524   7.659   7.170   3.739
14189TIP3    H242525   7.613   7.271   3.842
14190TIP3   OH242526   7.704   7.710   3.790
14190TIP3    H142527   7.755   7.629   3.793
14190TIP3    H242528   7.613   7.681   3.798
14191TIP3   OH242529   2.795   4.977   0.388
14191TIP3    H142530   2.740   4.913   0.343
14191TIP3    H242531   2.768   4.970   0.480
14192TIP3   OH242532   5.659   6.609   3.328
14192TIP3    H142533   5.719   6.675   3.293
14192TIP3    H242534   5.627   6.562   3.251
14193TIP3   OH242535   0.366   7.089   5.669
14193TIP3    H142536   0.306   7.149   5.625
14193TIP3    H242537   0.338   7.092   5.761
14194TIP3   OH242538   6.126   3.556   1.935
14194TIP3    H142539   6.191   3.521   1.873
14194TIP3    H242540   6.079   3.478   1.966
14195TIP3   OH242541   5.147   4.392   5.892
14195TIP3    H142542   5.053   4.393   5.873
14195TIP3    H242543   5.163   4.303   5.924
14196TIP3   OH242544   8.258   0.507   1.254
14196TIP3    H142545   8.344   0.525   1.293
14196TIP3    H242546   8.197   0.560   1.305
14197TIP3   OH242547   6.678   0.592   2.096
14197TIP3    H142548   6.641   0.525   2.038
14197TIP3    H242549   6.772   0.589   2.079
14198TIP3   OH242550   5.889   5.584   2.264
14198TIP3    H142551   5.923   5.559   2.350
14198TIP3    H242552   5.914   5.512   2.206
14199TIP3   OH242553   8.123   2.544   5.742
14199TIP3    H142554   8.130   2.478   5.812
14199TIP3    H242555   8.210   2.584   5.739
14200TIP3   OH242556   4.023   0.595   1.114
14200TIP3    H142557   3.955   0.550   1.165
14200TIP3    H242558   4.007   0.688   1.129
14201TIP3   OH242559   5.787   0.640   0.857
14201TIP3    H142560   5.806   0.654   0.765
14201TIP3    H242561   5.728   0.711   0.881
14202TIP3   OH242562   3.288   3.142   1.162
14202TIP3    H142563   3.202   3.181   1.176
14202TIP3    H242564   3.290   3.065   1.219
14203TIP3   OH242565   7.764   2.780   4.417
14203TIP3    H142566   7.682   2.767   4.369
14203TIP3    H242567   7.807   2.853   4.372
14204TIP3   OH242568   8.025   1.030   5.644
14204TIP3    H142569   7.976   1.086   5.704
14204TIP3    H242570   8.004   0.941   5.671
14205TIP3   OH242571   4.183   7.183   4.500
14205TIP3    H142572   4.149   7.222   4.419
14205TIP3    H242573   4.199   7.258   4.557
14206TIP3   OH242574   3.067   7.212   4.388
14206TIP3    H142575   3.139   7.160   4.424
14206TIP3    H242576   3.009   7.228   4.463
14207TIP3   OH242577   0.292   3.578   2.726
14207TIP3    H142578   0.235   3.504   2.703
14207TIP3    H242579   0.231   3.649   2.746
14208TIP3   OH242580   5.662   4.864   5.363
14208TIP3    H142581   5.683   4.776   5.393
14208TIP3    H242582   5.732   4.919   5.398
14209TIP3   OH242583   2.214   4.710   4.711
14209TIP3    H142584   2.293   4.669   4.745
14209TIP3    H242585   2.167   4.639   4.668
14210TIP3   OH242586   7.040   1.061   5.093
14210TIP3    H142587   7.047   1.107   5.010
14210TIP3    H242588   6.976   0.992   5.077
14211TIP3   OH242589   4.859   1.624   2.807
14211TIP3    H142590   4.849   1.719   2.806
14211TIP3    H242591   4.951   1.610   2.829
14212TIP3   OH242592   4.029   1.796   4.667
14212TIP3    H142593   4.006   1.772   4.757
14212TIP3    H242594   4.125   1.794   4.665
14213TIP3   OH242595   5.066   0.938   3.622
14213TIP3    H142596   5.133   0.871   3.613
14213TIP3    H242597   5.105   1.004   3.680
14214TIP3   OH242598   7.031   5.763   3.163
14214TIP3    H142599   6.986   5.828   3.218
14214TIP3    H242600   7.082   5.711   3.225
14215TIP3   OH242601   0.913   5.233   2.504
14215TIP3    H142602   0.862   5.312   2.519
14215TIP3    H242603   0.850   5.161   2.515
14216TIP3   OH242604   8.143   3.433   5.951
14216TIP3    H142605   8.137   3.399   6.041
14216TIP3    H242606   8.203   3.508   5.958
14217TIP3   OH242607   1.316   4.599   3.840
14217TIP3    H142608   1.328   4.617   3.747
14217TIP3    H242609   1.225   4.571   3.848
14218TIP3   OH242610   0.528   6.516   6.330
14218TIP3    H142611   0.571   6.520   6.244
14218TIP3    H242612   0.600   6.510   6.392
14219TIP3   OH242613   6.850   5.637   1.696
14219TIP3    H142614   6.883   5.605   1.780
14219TIP3    H242615   6.781   5.576   1.672
14220TIP3   OH242616   5.345   6.333   0.293
14220TIP3    H142617   5.390   6.269   0.349
14220TIP3    H242618   5.363   6.417   0.335
14221TIP3   OH242619   2.467   1.154   3.545
14221TIP3    H142620   2.475   1.103   3.625
14221TIP3    H242621   2.535   1.118   3.487
14222TIP3   OH242622   6.344   6.146   1.428
14222TIP3    H142623   6.284   6.220   1.421
14222TIP3    H242624   6.380   6.154   1.517
14223TIP3   OH242625   5.117   5.697   6.291
14223TIP3    H142626   5.066   5.640   6.349
14223TIP3    H242627   5.089   5.786   6.314
14224TIP3   OH242628   2.974   5.584   0.724
14224TIP3    H142629   3.032   5.581   0.800
14224TIP3    H242630   3.033   5.596   0.649
14225TIP3   OH242631   2.099   4.779   5.442
14225TIP3    H142632   2.047   4.857   5.424
14225TIP3    H242633   2.186   4.799   5.408
14226TIP3   OH242634   5.553   3.983   2.858
14226TIP3    H142635   5.566   3.909   2.917
14226TIP3    H242636   5.475   4.027   2.892
14227TIP3   OH242637   6.088   2.083   0.599
14227TIP3    H142638   6.114   2.007   0.547
14227TIP3    H242639   5.993   2.073   0.611
14228TIP3   OH242640   0.058   1.801   2.771
14228TIP3    H142641   0.051   1.745   2.849
14228TIP3    H242642  -0.031   1.805   2.736
14229TIP3   OH242643   4.924   2.262   0.569
14229TIP3    H142644   4.858   2.290   0.633
14229TIP3    H242645   4.903   2.170   0.553
14230TIP3   OH242646   7.981   7.803   4.981
14230TIP3    H142647   7.996   7.762   5.066
14230TIP3    H242648   7.940   7.887   5.002
14231TIP3   OH242649   7.981   1.906   6.067
14231TIP3    H142650   8.006   1.822   6.104
14231TIP3    H242651   8.028   1.971   6.120
14232TIP3   OH242652   1.708   3.466   0.435
14232TIP3    H142653   1.725   3.459   0.529
14232TIP3    H242654   1.706   3.561   0.419
14233TIP3   OH242655   2.676   4.114   5.338
14233TIP3    H142656   2.698   4.174   5.410
14233TIP3    H242657   2.591   4.078   5.361
14234TIP3   OH242658   6.865   3.006   3.726
14234TIP3    H142659   6.952   2.968   3.735
14234TIP3    H242660   6.831   2.968   3.644
14235TIP3   OH242661   2.203   7.671   3.307
14235TIP3    H142662   2.163   7.736   3.249
14235TIP3    H242663   2.211   7.715   3.391
14236TIP3   OH242664   7.342   0.557   5.822
14236TIP3    H142665   7.377   0.530   5.737
14236TIP3    H242666   7.379   0.495   5.884
14237TIP3   OH242667   6.471   0.185   1.120
14237TIP3    H142668   6.387   0.227   1.102
14237TIP3    H242669   6.465   0.157   1.211
14238TIP3   OH242670   2.868   1.341   0.109
14238TIP3    H142671   2.808   1.300   0.171
14238TIP3    H242672   2.895   1.422   0.152
14239TIP3   OH242673   0.118   2.226   4.851
14239TIP3    H142674   0.162   2.294   4.799
14239TIP3    H242675   0.119   2.149   4.794
14240TIP3   OH242676   7.439   0.737   3.122
14240TIP3    H142677   7.468   0.812   3.072
14240TIP3    H242678   7.416   0.773   3.208
14241TIP3   OH242679   2.064   2.581   2.019
14241TIP3    H142680   2.151   2.611   1.994
14241TIP3    H242681   2.079   2.498   2.065
14242TIP3   OH242682   3.672   0.024   5.140
14242TIP3    H142683   3.741  -0.038   5.167
14242TIP3    H242684   3.719   0.091   5.089
14243TIP3   OH242685   0.283   3.646   3.499
14243TIP3    H142686   0.231   3.614   3.573
14243TIP3    H242687   0.219   3.691   3.443
14244TIP3   OH242688   4.174   4.745   3.165
14244TIP3    H142689   4.107   4.689   3.124
14244TIP3    H242690   4.126   4.793   3.233
14245TIP3   OH242691   5.091   2.573   4.998
14245TIP3    H142692   5.173   2.618   5.019
14245TIP3    H242693   5.039   2.581   5.078
14246TIP3   OH242694   8.140   4.284   1.721
14246TIP3    H142695   8.187   4.340   1.782
14246TIP3    H242696   8.204   4.219   1.694
14247TIP3   OH242697   5.002   6.642   1.433
14247TIP3    H142698   5.066   6.710   1.457
14247TIP3    H242699   5.002   6.582   1.507
14248TIP3   OH242700   6.900   4.214   3.950
14248TIP3    H142701   6.836   4.166   4.001
14248TIP3    H242702   6.955   4.259   4.015
14249TIP3   OH242703   6.713   2.719   3.701
14249TIP3    H142704   6.719   2.673   3.784
14249TIP3    H242705   6.799   2.705   3.661
14250TIP3   OH242706   7.052   3.164   6.598
14250TIP3    H142707   7.043   3.086   6.653
14250TIP3    H242708   7.127   3.210   6.634
14251TIP3   OH242709   6.762   7.031   2.695
14251TIP3    H142710   6.853   7.060   2.706
14251TIP3    H242711   6.717   7.067   2.772
14252TIP3   OH242712   2.717   2.930   2.389
14252TIP3    H142713   2.764   2.847   2.390
14252TIP3    H242714   2.633   2.910   2.348
14253TIP3   OH242715   4.272   3.140   5.222
14253TIP3    H142716   4.321   3.143   5.304
14253TIP3    H242717   4.215   3.217   5.226
14254TIP3   OH242718   6.411   4.002   1.147
14254TIP3    H142719   6.468   3.991   1.071
14254TIP3    H242720   6.345   3.933   1.137
14255TIP3   OH242721   6.945   0.818   4.951
14255TIP3    H142722   6.974   0.728   4.966
14255TIP3    H242723   6.874   0.810   4.887
14256TIP3   OH242724   5.794   3.035   0.521
14256TIP3    H142725   5.815   3.046   0.614
14256TIP3    H242726   5.820   2.946   0.500
14257TIP3   OH242727   4.193   0.158   5.433
14257TIP3    H142728   4.284   0.178   5.411
14257TIP3    H242729   4.150   0.243   5.436
14258TIP3   OH242730   4.716   4.020   1.048
14258TIP3    H142731   4.775   4.076   0.998
14258TIP3    H242732   4.633   4.023   1.000
14259TIP3   OH242733   4.485   6.366   5.975
14259TIP3    H142734   4.534   6.345   5.896
14259TIP3    H242735   4.451   6.454   5.961
14260TIP3   OH242736   7.881   4.171   1.011
14260TIP3    H142737   7.951   4.114   0.980
14260TIP3    H242738   7.885   4.163   1.107
14261TIP3   OH242739   6.278   5.500   6.244
14261TIP3    H142740   6.315   5.587   6.256
14261TIP3    H242741   6.203   5.497   6.303
14262TIP3   OH242742   3.883   0.434   5.649
14262TIP3    H142743   3.903   0.349   5.609
14262TIP3    H242744   3.873   0.416   5.742
14263TIP3   OH242745   3.311   7.828   2.503
14263TIP3    H142746   3.329   7.812   2.595
14263TIP3    H242747   3.235   7.773   2.483
14264TIP3   OH242748   3.887   6.016   0.729
14264TIP3    H142749   3.868   6.097   0.681
14264TIP3    H242750   3.814   5.958   0.707
14265TIP3   OH242751   1.493   5.305   5.121
14265TIP3    H142752   1.500   5.357   5.201
14265TIP3    H242753   1.505   5.214   5.150
14266TIP3   OH242754   4.496   7.469   3.340
14266TIP3    H142755   4.505   7.529   3.415
14266TIP3    H242756   4.415   7.421   3.357
14267TIP3   OH242757   2.469   7.061   6.185
14267TIP3    H142758   2.458   7.137   6.129
14267TIP3    H242759   2.497   7.097   6.269
14268TIP3   OH242760   5.459   0.993   3.682
14268TIP3    H142761   5.376   1.023   3.719
14268TIP3    H242762   5.434   0.923   3.622
14269TIP3   OH242763   3.539   4.152   6.710
14269TIP3    H142764   3.452   4.116   6.730
14269TIP3    H242765   3.568   4.101   6.634
14270TIP3   OH242766   3.069   7.597   3.389
14270TIP3    H142767   3.137   7.664   3.384
14270TIP3    H242768   3.053   7.572   3.298
14271TIP3   OH242769   3.958   1.615   3.222
14271TIP3    H142770   3.926   1.557   3.291
14271TIP3    H242771   3.924   1.701   3.245
14272TIP3   OH242772   3.147   6.651   1.374
14272TIP3    H142773   3.122   6.559   1.382
14272TIP3    H242774   3.239   6.648   1.350
14273TIP3   OH242775   4.612   4.568   2.671
14273TIP3    H142776   4.602   4.658   2.643
14273TIP3    H242777   4.541   4.555   2.735
14274TIP3   OH242778   2.767   2.876   6.259
14274TIP3    H142779   2.782   2.782   6.247
14274TIP3    H242780   2.715   2.902   6.183
14275TIP3   OH242781   4.732   4.551   4.189
14275TIP3    H142782   4.699   4.469   4.151
14275TIP3    H242783   4.799   4.523   4.251
14276TIP3   OH242784   8.000   6.136   0.646
14276TIP3    H142785   7.911   6.107   0.629
14276TIP3    H242786   7.994   6.187   0.727
14277TIP3   OH242787   0.216   4.050   5.325
14277TIP3    H142788   0.254   4.016   5.406
14277TIP3    H242789   0.164   4.125   5.352
14278TIP3   OH242790   3.978   2.158   3.308
14278TIP3    H142791   3.982   2.214   3.230
14278TIP3    H242792   4.066   2.120   3.314
14279TIP3   OH242793   6.724   2.429   6.243
14279TIP3    H142794   6.693   2.516   6.266
14279TIP3    H242795   6.809   2.422   6.287
14280TIP3   OH242796   0.811   6.682   1.648
14280TIP3    H142797   0.796   6.775   1.632
14280TIP3    H242798   0.896   6.679   1.691
14281TIP3   OH242799   0.288   0.388   0.433
14281TIP3    H142800   0.243   0.468   0.406
14281TIP3    H242801   0.312   0.404   0.525
14282TIP3   OH242802   0.598   5.100   0.177
14282TIP3    H142803   0.581   5.033   0.111
14282TIP3    H242804   0.551   5.070   0.254
14283TIP3   OH242805   5.439   4.592   1.938
14283TIP3    H142806   5.360   4.549   1.904
14283TIP3    H242807   5.503   4.522   1.947
14284TIP3   OH242808   7.146   7.392   1.815
14284TIP3    H142809   7.152   7.428   1.904
14284TIP3    H242810   7.054   7.403   1.792
14285TIP3   OH242811   0.770   1.567   3.297
14285TIP3    H142812   0.713   1.536   3.227
14285TIP3    H242813   0.715   1.567   3.376
14286TIP3   OH242814   6.370   0.445   2.165
14286TIP3    H142815   6.293   0.388   2.170
14286TIP3    H242816   6.383   0.477   2.254
14287TIP3   OH242817   5.271   0.612   6.044
14287TIP3    H142818   5.328   0.544   6.077
14287TIP3    H242819   5.262   0.674   6.117
14288TIP3   OH242820   7.540   0.134   1.035
14288TIP3    H142821   7.507   0.057   0.989
14288TIP3    H242822   7.462   0.174   1.074
14289TIP3   OH242823   6.954   0.966   1.609
14289TIP3    H142824   7.017   0.969   1.681
14289TIP3    H242825   7.002   0.931   1.535
14290TIP3   OH242826   1.796   2.994   3.957
14290TIP3    H142827   1.878   3.038   3.980
14290TIP3    H242828   1.729   3.039   4.009
14291TIP3   OH242829   6.441   4.321   3.872
14291TIP3    H142830   6.394   4.264   3.811
14291TIP3    H242831   6.493   4.261   3.926
14292TIP3   OH242832   0.813   5.854   4.854
14292TIP3    H142833   0.776   5.873   4.941
14292TIP3    H242834   0.841   5.763   4.861
14293TIP3   OH242835   5.911   3.294   1.483
14293TIP3    H142836   5.843   3.230   1.464
14293TIP3    H242837   5.901   3.313   1.576
14294TIP3   OH242838   1.547   2.514   4.544
14294TIP3    H142839   1.516   2.428   4.571
14294TIP3    H242840   1.633   2.498   4.506
14295TIP3   OH242841   4.896   4.156   5.179
14295TIP3    H142842   4.851   4.079   5.213
14295TIP3    H242843   4.950   4.123   5.107
14296TIP3   OH242844   2.625   5.009   3.677
14296TIP3    H142845   2.667   5.007   3.591
14296TIP3    H242846   2.698   5.013   3.739
14297TIP3   OH242847   6.578   3.202   6.789
14297TIP3    H142848   6.566   3.109   6.810
14297TIP3    H242849   6.607   3.203   6.698
14298TIP3   OH242850   7.889   2.182   3.569
14298TIP3    H142851   7.898   2.276   3.551
14298TIP3    H242852   7.922   2.172   3.659
14299TIP3   OH242853   5.928   3.056   0.238
14299TIP3    H142854   5.836   3.047   0.211
14299TIP3    H242855   5.939   2.989   0.305
14300TIP3   OH242856   4.563   6.976   5.177
14300TIP3    H142857   4.584   6.883   5.174
14300TIP3    H242858   4.543   6.993   5.269
14301TIP3   OH242859   0.688   1.339   6.652
14301TIP3    H142860   0.732   1.367   6.571
14301TIP3    H242861   0.596   1.332   6.627
14302TIP3   OH242862   5.363   3.452   0.032
14302TIP3    H142863   5.436   3.393   0.015
14302TIP3    H242864   5.383   3.492   0.116
14303TIP3   OH242865   0.282   1.931   0.560
14303TIP3    H142866   0.369   1.907   0.594
14303TIP3    H242867   0.301   1.988   0.486
14304TIP3   OH242868   1.760   1.332   4.295
14304TIP3    H142869   1.690   1.394   4.277
14304TIP3    H242870   1.748   1.263   4.230
14305TIP3   OH242871   0.083   3.434   4.734
14305TIP3    H142872   0.091   3.375   4.809
14305TIP3    H242873   0.044   3.380   4.666
14306TIP3   OH242874   6.662   1.824   1.478
14306TIP3    H142875   6.746   1.853   1.515
14306TIP3    H242876   6.665   1.855   1.387
14307TIP3   OH242877   1.000   1.472   4.576
14307TIP3    H142878   1.032   1.394   4.530
14307TIP3    H242879   0.904   1.464   4.572
14308TIP3   OH242880   6.470   1.654   2.145
14308TIP3    H142881   6.498   1.562   2.149
14308TIP3    H242882   6.523   1.698   2.212
14309TIP3   OH242883   0.918   1.072   5.999
14309TIP3    H142884   0.874   1.079   5.915
14309TIP3    H242885   0.874   1.000   6.044
14310TIP3   OH242886   2.180   7.171   4.095
14310TIP3    H142887   2.189   7.265   4.085
14310TIP3    H242888   2.154   7.159   4.186
14311TIP3   OH242889   3.696   0.316   4.202
14311TIP3    H142890   3.708   0.221   4.197
14311TIP3    H242891   3.620   0.333   4.147
14312TIP3   OH242892   3.694   5.816   0.047
14312TIP3    H142893   3.606   5.848   0.068
14312TIP3    H242894   3.742   5.893   0.018
14313TIP3   OH242895   8.053   6.603   1.114
14313TIP3    H142896   8.119   6.561   1.169
14313TIP3    H242897   7.986   6.634   1.175
14314TIP3   OH242898   4.702   6.902   0.743
14314TIP3    H142899   4.677   6.936   0.657
14314TIP3    H242900   4.719   6.980   0.796
14315TIP3   OH242901   4.969   7.226   0.313
14315TIP3    H142902   5.065   7.226   0.306
14315TIP3    H242903   4.946   7.134   0.325
14316TIP3   OH242904   7.909   5.865   6.236
14316TIP3    H142905   7.953   5.780   6.231
14316TIP3    H242906   7.818   5.844   6.256
14317TIP3   OH242907   2.437   6.333   0.103
14317TIP3    H142908   2.438   6.428   0.118
14317TIP3    H242909   2.528   6.306   0.109
14318TIP3   OH242910   3.832   2.542   4.033
14318TIP3    H142911   3.893   2.593   4.085
14318TIP3    H242912   3.746   2.577   4.055
14319TIP3   OH242913   8.279   5.996   3.856
14319TIP3    H142914   8.210   6.054   3.822
14319TIP3    H242915   8.360   6.029   3.817
14320TIP3   OH242916   5.012   4.992   5.650
14320TIP3    H142917   4.993   5.049   5.724
14320TIP3    H242918   5.107   4.984   5.650
14321TIP3   OH242919   1.510   2.760   0.233
14321TIP3    H142920   1.543   2.677   0.267
14321TIP3    H242921   1.423   2.769   0.272
14322TIP3   OH242922   7.420   4.496   2.771
14322TIP3    H142923   7.433   4.575   2.719
14322TIP3    H242924   7.346   4.451   2.730
14323TIP3   OH242925   4.283   4.674   5.715
14323TIP3    H142926   4.378   4.660   5.720
14323TIP3    H242927   4.245   4.590   5.742
14324TIP3   OH242928   0.830   3.984   2.758
14324TIP3    H142929   0.906   4.006   2.703
14324TIP3    H242930   0.836   3.890   2.770
14325TIP3   OH242931   6.261   6.848   4.245
14325TIP3    H142932   6.217   6.903   4.180
14325TIP3    H242933   6.229   6.880   4.329
14326TIP3   OH242934   3.853   3.869   1.262
14326TIP3    H142935   3.797   3.875   1.339
14326TIP3    H242936   3.794   3.883   1.188
14327TIP3   OH242937   0.728   7.333   3.844
14327TIP3    H142938   0.707   7.367   3.931
14327TIP3    H242939   0.676   7.386   3.784
14328TIP3   OH242940   4.975   4.712   3.681
14328TIP3    H142941   4.939   4.640   3.732
14328TIP3    H242942   5.053   4.676   3.639
14329TIP3   OH242943   2.753   5.666   6.686
14329TIP3    H142944   2.795   5.721   6.620
14329TIP3    H242945   2.798   5.687   6.768
14330TIP3   OH242946   5.119   0.166   2.040
14330TIP3    H142947   5.091   0.077   2.058
14330TIP3    H242948   5.045   0.221   2.068
14331TIP3   OH242949   3.673   5.309   3.740
14331TIP3    H142950   3.594   5.258   3.724
14331TIP3    H242951   3.642   5.397   3.761
14332TIP3   OH242952   1.811   1.261   0.859
14332TIP3    H142953   1.821   1.283   0.951
14332TIP3    H242954   1.718   1.274   0.840
14333TIP3   OH242955   0.832   6.942   0.398
14333TIP3    H142956   0.911   6.980   0.435
14333TIP3    H242957   0.860   6.856   0.366
14334TIP3   OH242958   4.246   2.266   4.329
14334TIP3    H142959   4.165   2.240   4.373
14334TIP3    H242960   4.315   2.224   4.379
14335TIP3   OH242961   6.738   4.085   5.670
14335TIP3    H142962   6.705   4.132   5.747
14335TIP3    H242963   6.660   4.067   5.618
14336TIP3   OH242964   7.719   3.460   6.096
14336TIP3    H142965   7.758   3.505   6.021
14336TIP3    H242966   7.662   3.526   6.137
14337TIP3   OH242967   0.506   1.868   2.961
14337TIP3    H142968   0.488   1.796   3.021
14337TIP3    H242969   0.422   1.913   2.952
14338TIP3   OH242970   6.102   7.166   5.727
14338TIP3    H142971   6.133   7.252   5.757
14338TIP3    H242972   6.055   7.185   5.646
14339TIP3   OH242973   0.924   0.102   3.110
14339TIP3    H142974   0.892   0.069   3.026
14339TIP3    H242975   0.907   0.196   3.107
14340TIP3   OH242976   4.051   6.771   3.338
14340TIP3    H142977   4.110   6.729   3.401
14340TIP3    H242978   4.000   6.833   3.391
14341TIP3   OH242979   0.862   5.058   2.251
14341TIP3    H142980   0.791   4.994   2.256
14341TIP3    H242981   0.900   5.059   2.338
14342TIP3   OH242982   4.981   5.274   2.941
14342TIP3    H142983   4.930   5.334   2.997
14342TIP3    H242984   5.072   5.299   2.957
14343TIP3   OH242985   7.096   3.593   1.136
14343TIP3    H142986   7.140   3.673   1.107
14343TIP3    H242987   7.168   3.530   1.150
14344TIP3   OH242988   1.214   6.012   4.187
14344TIP3    H142989   1.174   6.007   4.274
14344TIP3    H242990   1.287   6.073   4.198
14345TIP3   OH242991   6.283   7.281   4.931
14345TIP3    H142992   6.371   7.248   4.951
14345TIP3    H242993   6.264   7.245   4.844
14346TIP3   OH242994   7.148   2.376   5.891
14346TIP3    H142995   7.154   2.306   5.826
14346TIP3    H242996   7.054   2.397   5.894
14347TIP3   OH242997   5.979   4.837   2.595
14347TIP3    H142998   5.946   4.813   2.509
14347TIP3    H242999   6.070   4.861   2.579
14348TIP3   OH243000   1.427   2.580   1.516
14348TIP3    H143001   1.343   2.560   1.477
14348TIP3    H243002   1.491   2.530   1.465
14349TIP3   OH243003   3.623   4.341   6.357
14349TIP3    H143004   3.635   4.388   6.275
14349TIP3    H243005   3.540   4.295   6.347
14350TIP3   OH243006   0.915   4.183   5.865
14350TIP3    H143007   1.011   4.183   5.870
14350TIP3    H243008   0.895   4.233   5.786
14351TIP3   OH243009   3.529   1.111   1.848
14351TIP3    H143010   3.607   1.158   1.819
14351TIP3    H243011   3.500   1.158   1.926
14352TIP3   OH243012   4.165   7.530   5.604
14352TIP3    H143013   4.175   7.568   5.692
14352TIP3    H243014   4.237   7.468   5.597
14353TIP3   OH243015   3.240   6.705   6.624
14353TIP3    H143016   3.179   6.727   6.553
14353TIP3    H243017   3.221   6.613   6.643
14354TIP3   OH243018   0.129   5.017   4.785
14354TIP3    H143019   0.149   5.056   4.870
14354TIP3    H243020   0.065   4.949   4.804
14355TIP3   OH243021   3.748   5.706   5.154
14355TIP3    H143022   3.679   5.738   5.096
14355TIP3    H243023   3.715   5.622   5.186
14356TIP3   OH243024   7.505   6.298   5.310
14356TIP3    H143025   7.532   6.381   5.348
14356TIP3    H243026   7.585   6.244   5.310
14357TIP3   OH243027   5.483   7.347   1.083
14357TIP3    H143028   5.413   7.380   1.026
14357TIP3    H243029   5.494   7.417   1.148
14358TIP3   OH243030   4.942   2.052   3.221
14358TIP3    H143031   4.981   1.965   3.209
14358TIP3    H243032   4.879   2.060   3.149
14359TIP3   OH243033   0.719   4.135   6.381
14359TIP3    H143034   0.814   4.133   6.370
14359TIP3    H243035   0.684   4.096   6.301
14360TIP3   OH243036   4.007   1.703   6.512
14360TIP3    H143037   4.077   1.696   6.577
14360TIP3    H243038   3.953   1.776   6.543
14361TIP3   OH243039   1.481   1.967   5.411
14361TIP3    H143040   1.415   2.035   5.396
14361TIP3    H243041   1.443   1.911   5.479
14362TIP3   OH243042   1.845   6.085   5.221
14362TIP3    H143043   1.782   6.029   5.175
14362TIP3    H243044   1.890   6.027   5.281
14363TIP3   OH243045   1.791   0.597   5.808
14363TIP3    H143046   1.870   0.544   5.810
14363TIP3    H243047   1.775   0.614   5.715
14364TIP3   OH243048   1.379   2.093   4.645
14364TIP3    H143049   1.368   2.181   4.683
14364TIP3    H243050   1.425   2.043   4.712
14365TIP3   OH243051   1.935   2.989   5.856
14365TIP3    H143052   1.901   2.921   5.914
14365TIP3    H243053   1.857   3.031   5.820
14366TIP3   OH243054   0.887   2.450   4.991
14366TIP3    H143055   0.945   2.420   5.060
14366TIP3    H243056   0.820   2.502   5.036
14367TIP3   OH243057   3.991   2.211   4.717
14367TIP3    H143058   4.034   2.168   4.790
14367TIP3    H243059   4.054   2.276   4.687
14368TIP3   OH243060   4.892   0.440   4.307
14368TIP3    H143061   4.968   0.468   4.256
14368TIP3    H243062   4.847   0.521   4.331
14369TIP3   OH243063   4.166   4.261   2.874
14369TIP3    H143064   4.073   4.278   2.887
14369TIP3    H243065   4.208   4.295   2.953
14370TIP3   OH243066   2.107   3.442   2.108
14370TIP3    H143067   2.158   3.521   2.089
14370TIP3    H243068   2.109   3.435   2.203
14371TIP3   OH243069   5.772   6.980   3.586
14371TIP3    H143070   5.703   7.046   3.575
14371TIP3    H243071   5.735   6.901   3.548
14372TIP3   OH243072   6.315   6.309   4.829
14372TIP3    H143073   6.367   6.330   4.751
14372TIP3    H243074   6.228   6.287   4.795
14373TIP3   OH243075   2.798   3.870   5.198
14373TIP3    H143076   2.725   3.840   5.252
14373TIP3    H243077   2.823   3.954   5.236
14374TIP3   OH243078   5.873   0.196   1.945
14374TIP3    H143079   5.825   0.156   1.872
14374TIP3    H243080   5.843   0.287   1.946
14375TIP3   OH243081   0.887   4.285   3.251
14375TIP3    H143082   0.966   4.317   3.293
14375TIP3    H243083   0.918   4.244   3.170
14376TIP3   OH243084   1.145   4.863   6.447
14376TIP3    H143085   1.207   4.885   6.378
14376TIP3    H243086   1.157   4.931   6.514
14377TIP3   OH243087   0.787   7.858   6.064
14377TIP3    H143088   0.850   7.788   6.080
14377TIP3    H243089   0.838   7.928   6.023
14378TIP3   OH243090   3.504   2.928   1.876
14378TIP3    H143091   3.431   2.991   1.870
14378TIP3    H243092   3.563   2.953   1.805
14379TIP3   OH243093   6.108   3.033   0.454
14379TIP3    H143094   6.047   3.075   0.514
14379TIP3    H243095   6.137   3.103   0.395
14380TIP3   OH243096   3.267   3.590   0.704
14380TIP3    H143097   3.358   3.587   0.734
14380TIP3    H243098   3.221   3.527   0.760
14381TIP3   OH243099   0.375   3.637   2.067
14381TIP3    H143100   0.448   3.676   2.115
14381TIP3    H243101   0.304   3.633   2.132
14382TIP3   OH243102   3.753   5.695   2.655
14382TIP3    H143103   3.744   5.727   2.565
14382TIP3    H243104   3.819   5.752   2.694
14383TIP3   OH243105   8.072   6.524   5.808
14383TIP3    H143106   8.009   6.517   5.736
14383TIP3    H243107   8.060   6.612   5.843
14384TIP3   OH243108   2.127   0.680   2.884
14384TIP3    H143109   2.127   0.587   2.909
14384TIP3    H243110   2.133   0.679   2.789
14385TIP3   OH243111   3.596   5.207   4.912
14385TIP3    H143112   3.650   5.144   4.960
14385TIP3    H243113   3.526   5.154   4.874
14386TIP3   OH243114   6.091   6.190   4.028
14386TIP3    H143115   6.135   6.107   4.047
14386TIP3    H243116   6.070   6.227   4.115
14387TIP3   OH243117   0.192   5.029   3.753
14387TIP3    H143118   0.110   5.072   3.778
14387TIP3    H243119   0.180   5.006   3.661
14388TIP3   OH243120   3.064   6.682   2.485
14388TIP3    H143121   3.155   6.660   2.501
14388TIP3    H243122   3.065   6.732   2.404
14389TIP3   OH243123   6.571   3.061   2.099
14389TIP3    H143124   6.479   3.084   2.106
14389TIP3    H243125   6.573   2.966   2.111
14390TIP3   OH243126   4.331   0.747   4.447
14390TIP3    H143127   4.390   0.822   4.438
14390TIP3    H243128   4.386   0.671   4.430
14391TIP3   OH243129   6.657   5.668   0.889
14391TIP3    H143130   6.721   5.600   0.867
14391TIP3    H243131   6.676   5.739   0.828
14392TIP3   OH243132   5.182   5.166   2.027
14392TIP3    H143133   5.231   5.086   2.045
14392TIP3    H243134   5.154   5.197   2.113
14393TIP3   OH243135   3.463   7.818   5.011
14393TIP3    H143136   3.388   7.838   5.067
14393TIP3    H243137   3.425   7.780   4.932
14394TIP3   OH243138   3.634   5.342   4.134
14394TIP3    H143139   3.583   5.269   4.169
14394TIP3    H243140   3.575   5.384   4.071
14395TIP3   OH243141   3.630   2.957   5.687
14395TIP3    H143142   3.534   2.954   5.697
14395TIP3    H243143   3.663   2.928   5.771
14396TIP3   OH243144   1.043   1.404   2.509
14396TIP3    H143145   1.004   1.366   2.587
14396TIP3    H243146   1.111   1.462   2.542
14397TIP3   OH243147   3.650   6.678   2.389
14397TIP3    H143148   3.742   6.651   2.387
14397TIP3    H243149   3.649   6.754   2.447
14398TIP3   OH243150   2.236   3.857   1.172
14398TIP3    H143151   2.153   3.905   1.181
14398TIP3    H243152   2.286   3.881   1.251
14399TIP3   OH243153   7.761   4.482   2.128
14399TIP3    H143154   7.669   4.475   2.154
14399TIP3    H243155   7.770   4.572   2.097
14400TIP3   OH243156   1.840   1.647   4.573
14400TIP3    H143157   1.851   1.669   4.480
14400TIP3    H243158   1.887   1.564   4.583
14401TIP3   OH243159   5.828   5.939   6.003
14401TIP3    H143160   5.833   5.931   5.908
14401TIP3    H243161   5.883   5.869   6.036
14402TIP3   OH243162   7.015   0.077   0.979
14402TIP3    H143163   7.053   0.013   1.040
14402TIP3    H243164   6.922   0.076   0.997
14403TIP3   OH243165   4.483   0.327   5.587
14403TIP3    H143166   4.478   0.232   5.600
14403TIP3    H243167   4.480   0.363   5.676
14404TIP3   OH243168   5.192   4.659   4.208
14404TIP3    H143169   5.122   4.724   4.214
14404TIP3    H243170   5.210   4.651   4.114
14405TIP3   OH243171   5.284   7.204   3.951
14405TIP3    H143172   5.348   7.150   3.997
14405TIP3    H243173   5.200   7.161   3.967
14406TIP3   OH243174   5.766   5.990   4.469
14406TIP3    H143175   5.814   5.914   4.439
14406TIP3    H243176   5.686   5.954   4.508
14407TIP3   OH243177   7.187   2.641   6.014
14407TIP3    H143178   7.159   2.562   5.967
14407TIP3    H243179   7.199   2.612   6.104
14408TIP3   OH243180   1.122   2.446   6.777
14408TIP3    H143181   1.068   2.510   6.731
14408TIP3    H243182   1.202   2.495   6.799
14409TIP3   OH243183   3.802   5.244   6.659
14409TIP3    H143184   3.828   5.193   6.736
14409TIP3    H243185   3.873   5.232   6.596
14410TIP3   OH243186   4.032   5.941   3.688
14410TIP3    H143187   3.978   5.985   3.622
14410TIP3    H243188   3.988   5.857   3.701
14411TIP3   OH243189   5.348   2.315   0.957
14411TIP3    H143190   5.382   2.395   0.995
14411TIP3    H243191   5.381   2.315   0.867
14412TIP3   OH243192   5.095   6.255   0.855
14412TIP3    H143193   5.014   6.227   0.813
14412TIP3    H243194   5.124   6.331   0.803
14413TIP3   OH243195   0.612   0.342   2.147
14413TIP3    H143196   0.686   0.281   2.151
14413TIP3    H243197   0.643   0.413   2.090
14414TIP3   OH243198   8.053   1.777   3.263
14414TIP3    H143199   7.978   1.816   3.309
14414TIP3    H243200   8.128   1.831   3.289
14415TIP3   OH243201   6.254   6.306   3.312
14415TIP3    H143202   6.327   6.335   3.258
14415TIP3    H243203   6.249   6.370   3.383
14416TIP3   OH243204   0.806   4.397   0.521
14416TIP3    H143205   0.761   4.437   0.596
14416TIP3    H243206   0.884   4.451   0.508
14417TIP3   OH243207   8.038   7.120   2.767
14417TIP3    H143208   7.973   7.061   2.806
14417TIP3    H243209   8.030   7.201   2.817
14418TIP3   OH243210   4.650   1.100   1.815
14418TIP3    H143211   4.613   1.070   1.898
14418TIP3    H243212   4.592   1.063   1.748
14419TIP3   OH243213   6.464   5.011   4.295
14419TIP3    H143214   6.507   4.938   4.340
14419TIP3    H243215   6.481   5.087   4.350
14420TIP3   OH243216   4.626   4.833   1.107
14420TIP3    H143217   4.668   4.760   1.062
14420TIP3    H243218   4.572   4.791   1.175
14421TIP3   OH243219   6.816   4.887   4.498
14421TIP3    H143220   6.898   4.850   4.465
14421TIP3    H243221   6.844   4.948   4.567
14422TIP3   OH243222   3.758   6.691   6.654
14422TIP3    H143223   3.797   6.725   6.573
14422TIP3    H243224   3.680   6.645   6.624
14423TIP3   OH243225   7.821   2.938   3.422
14423TIP3    H143226   7.907   2.950   3.464
14423TIP3    H243227   7.787   3.027   3.413
14424TIP3   OH243228   6.441   2.635   3.674
14424TIP3    H143229   6.528   2.673   3.690
14424TIP3    H243230   6.399   2.636   3.760
14425TIP3   OH243231   1.412   3.685   0.224
14425TIP3    H143232   1.494   3.721   0.192
14425TIP3    H243233   1.435   3.599   0.258
14426TIP3   OH243234   2.021   7.209   6.713
14426TIP3    H143235   2.091   7.147   6.732
14426TIP3    H243236   2.004   7.252   6.796
14427TIP3   OH243237   1.015   2.660   3.196
14427TIP3    H143238   0.987   2.574   3.227
14427TIP3    H243239   1.104   2.670   3.231
14428TIP3   OH243240   7.516   2.361   1.051
14428TIP3    H143241   7.459   2.379   1.125
14428TIP3    H243242   7.563   2.281   1.074
14429TIP3   OH243243   0.581   6.151   3.853
14429TIP3    H143244   0.640   6.088   3.895
14429TIP3    H243245   0.516   6.096   3.808
14430TIP3   OH243246   2.261   1.508   2.168
14430TIP3    H143247   2.319   1.506   2.244
14430TIP3    H243248   2.300   1.446   2.106
14431TIP3   OH243249   3.740   0.382   0.440
14431TIP3    H143250   3.834   0.389   0.419
14431TIP3    H243251   3.730   0.293   0.476
14432TIP3   OH243252   4.274   2.905   6.246
14432TIP3    H143253   4.299   2.935   6.159
14432TIP3    H243254   4.180   2.922   6.251
14433TIP3   OH243255   4.572   3.364   0.736
14433TIP3    H143256   4.585   3.315   0.817
14433TIP3    H243257   4.661   3.383   0.706
14434TIP3   OH243258   1.579   7.611   3.954
14434TIP3    H143259   1.537   7.574   4.032
14434TIP3    H243260   1.511   7.664   3.913
14435TIP3   OH243261   6.866   6.927   0.209
14435TIP3    H143262   6.940   6.912   0.267
14435TIP3    H243263   6.889   7.006   0.160
14436TIP3   OH243264   4.388   5.769   1.084
14436TIP3    H143265   4.318   5.761   1.148
14436TIP3    H243266   4.455   5.707   1.113
14437TIP3   OH243267   0.222   7.207   5.167
14437TIP3    H143268   0.163   7.140   5.202
14437TIP3    H243269   0.308   7.165   5.165
14438TIP3   OH243270   4.509   0.875   6.281
14438TIP3    H143271   4.573   0.821   6.235
14438TIP3    H243272   4.552   0.960   6.291
14439TIP3   OH243273   7.036   7.289   2.473
14439TIP3    H143274   7.024   7.194   2.464
14439TIP3    H243275   6.949   7.322   2.493
14440TIP3   OH243276   7.125   7.233   5.996
14440TIP3    H143277   7.181   7.184   5.935
14440TIP3    H243278   7.054   7.267   5.942
14441TIP3   OH243279   7.915   4.729   3.350
14441TIP3    H143280   7.869   4.806   3.317
14441TIP3    H243281   7.894   4.659   3.288
14442TIP3   OH243282   4.250   7.079   6.011
14442TIP3    H143283   4.303   7.007   6.045
14442TIP3    H243284   4.260   7.149   6.076
14443TIP3   OH243285   5.700   6.053   5.162
14443TIP3    H143286   5.709   6.026   5.253
14443TIP3    H243287   5.790   6.060   5.130
14444TIP3   OH243288   6.717   6.838   1.218
14444TIP3    H143289   6.648   6.867   1.159
14444TIP3    H243290   6.774   6.784   1.164
14445TIP3   OH243291   3.025   1.416   3.061
14445TIP3    H143292   3.110   1.425   3.017
14445TIP3    H243293   3.011   1.322   3.068
14446TIP3   OH243294   1.729   3.778   5.066
14446TIP3    H143295   1.729   3.691   5.026
14446TIP3    H243296   1.710   3.838   4.993
14447TIP3   OH243297   1.017   5.884   5.144
14447TIP3    H143298   1.064   5.965   5.124
14447TIP3    H243299   0.927   5.912   5.159
14448TIP3   OH243300   5.868   1.468   5.605
14448TIP3    H143301   5.831   1.486   5.518
14448TIP3    H243302   5.798   1.494   5.665
14449TIP3   OH243303   0.164   3.265   6.762
14449TIP3    H143304   0.151   3.238   6.671
14449TIP3    H243305   0.246   3.315   6.761
14450TIP3   OH243306   5.813   3.458   0.827
14450TIP3    H143307   5.762   3.516   0.883
14450TIP3    H243308   5.901   3.496   0.826
14451TIP3   OH243309   3.366   1.809   3.009
14451TIP3    H143310   3.288   1.757   3.025
14451TIP3    H243311   3.334   1.890   2.969
14452TIP3   OH243312   2.018   5.014   4.590
14452TIP3    H143313   2.096   4.984   4.544
14452TIP3    H243314   2.051   5.073   4.658
14453TIP3   OH243315   3.080   3.935   3.941
14453TIP3    H143316   3.097   4.002   3.875
14453TIP3    H243317   3.079   3.982   4.024
14454TIP3   OH243318   2.879   7.732   6.657
14454TIP3    H143319   2.860   7.825   6.655
14454TIP3    H243320   2.840   7.701   6.739
14455TIP3   OH243321   4.148   5.964   2.700
14455TIP3    H143322   4.194   6.047   2.711
14455TIP3    H243323   4.209   5.899   2.735
14456TIP3   OH243324   1.562   7.328   5.754
14456TIP3    H143325   1.652   7.303   5.775
14456TIP3    H243326   1.508   7.261   5.797
14457TIP3   OH243327   2.923   4.952   2.582
14457TIP3    H143328   3.014   4.958   2.613
14457TIP3    H243329   2.890   5.042   2.590
14458TIP3   OH243330   2.069   2.369   2.929
14458TIP3    H143331   2.071   2.421   2.848
14458TIP3    H243332   2.065   2.434   2.999
14459TIP3   OH243333   8.118   7.130   1.931
14459TIP3    H143334   8.194   7.096   1.978
14459TIP3    H243335   8.155   7.188   1.864
14460TIP3   OH243336   7.781   0.281   5.232
14460TIP3    H143337   7.785   0.277   5.328
14460TIP3    H243338   7.705   0.226   5.210
14461TIP3   OH243339   5.342   7.413   2.054
14461TIP3    H143340   5.349   7.455   2.139
14461TIP3    H243341   5.335   7.486   1.992
14462TIP3   OH243342   2.138   3.117   5.241
14462TIP3    H143343   2.077   3.048   5.215
14462TIP3    H243344   2.208   3.113   5.176
14463TIP3   OH243345   4.499   4.654   4.277
14463TIP3    H143346   4.575   4.622   4.228
14463TIP3    H243347   4.424   4.610   4.235
14464TIP3   OH243348   6.344   5.245   0.371
14464TIP3    H143349   6.304   5.231   0.285
14464TIP3    H243350   6.372   5.337   0.370
14465TIP3   OH243351   2.874   5.185   1.894
14465TIP3    H143352   2.783   5.162   1.914
14465TIP3    H243353   2.899   5.126   1.823
14466TIP3   OH243354   0.574   0.942   4.875
14466TIP3    H143355   0.560   0.865   4.820
14466TIP3    H243356   0.628   0.911   4.947
14467TIP3   OH243357   4.708   2.623   1.402
14467TIP3    H143358   4.758   2.646   1.323
14467TIP3    H243359   4.761   2.554   1.443
14468TIP3   OH243360   2.402   1.114   5.053
14468TIP3    H143361   2.466   1.166   5.100
14468TIP3    H243362   2.452   1.041   5.016
14469TIP3   OH243363   1.316   6.535   5.189
14469TIP3    H143364   1.319   6.627   5.215
14469TIP3    H243365   1.342   6.536   5.097
14470TIP3   OH243366   6.567   6.923   3.963
14470TIP3    H143367   6.566   6.829   3.947
14470TIP3    H243368   6.656   6.941   3.996
14471TIP3   OH243369   2.067   5.281   6.685
14471TIP3    H143370   2.103   5.320   6.605
14471TIP3    H243371   2.144   5.251   6.733
14472TIP3   OH243372   6.096   0.900   5.488
14472TIP3    H143373   6.123   0.834   5.425
14472TIP3    H243374   6.004   0.916   5.469
14473TIP3   OH243375   6.127   2.811   1.056
14473TIP3    H143376   6.108   2.755   1.131
14473TIP3    H243377   6.127   2.900   1.091
14474TIP3   OH243378   3.357   5.282   4.605
14474TIP3    H143379   3.361   5.369   4.564
14474TIP3    H243380   3.265   5.257   4.598
14475TIP3   OH243381   2.626   3.871   1.982
14475TIP3    H143382   2.575   3.860   2.062
14475TIP3    H243383   2.586   3.811   1.920
14476TIP3   OH243384  -0.018   0.687   5.887
14476TIP3    H143385   0.076   0.697   5.873
14476TIP3    H243386  -0.027   0.601   5.929
14477TIP3   OH243387   7.256   3.999   0.455
14477TIP3    H143388   7.314   4.007   0.379
14477TIP3    H243389   7.269   3.909   0.485
14478TIP3   OH243390   2.856   2.527   0.188
14478TIP3    H143391   2.803   2.604   0.166
14478TIP3    H243392   2.884   2.492   0.104
14479TIP3   OH243393   1.911   3.956   2.781
14479TIP3    H143394   1.918   3.906   2.700
14479TIP3    H243395   1.946   3.898   2.849
14480TIP3   OH243396   0.403   3.066   6.116
14480TIP3    H143397   0.479   3.098   6.067
14480TIP3    H243398   0.380   3.138   6.175
14481TIP3   OH243399   7.123   3.932   5.628
14481TIP3    H143400   7.188   3.863   5.620
14481TIP3    H243401   7.050   3.903   5.573
14482TIP3   OH243402   5.956   0.148   5.970
14482TIP3    H143403   5.945   0.235   5.932
14482TIP3    H243404   5.869   0.107   5.964
14483TIP3   OH243405   2.041   4.405   1.024
14483TIP3    H143406   1.978   4.427   1.093
14483TIP3    H243407   2.049   4.485   0.973
14484TIP3   OH243408   4.285   3.544   0.781
14484TIP3    H143409   4.208   3.516   0.830
14484TIP3    H243410   4.320   3.464   0.743
14485TIP3   OH243411   0.713   5.481   1.216
14485TIP3    H143412   0.661   5.551   1.256
14485TIP3    H243413   0.670   5.401   1.244
14486TIP3   OH243414   4.099   3.902   0.309
14486TIP3    H143415   4.058   3.910   0.396
14486TIP3    H243416   4.076   3.984   0.265
14487TIP3   OH243417   1.939   5.088   3.729
14487TIP3    H143418   1.986   5.165   3.761
14487TIP3    H243419   1.860   5.083   3.783
14488TIP3   OH243420   2.608   6.716   0.327
14488TIP3    H143421   2.636   6.803   0.354
14488TIP3    H243422   2.598   6.668   0.410
14489TIP3   OH243423   4.103   0.896   4.042
14489TIP3    H143424   4.052   0.966   4.085
14489TIP3    H243425   4.192   0.907   4.076
14490TIP3   OH243426   2.525   1.218   4.573
14490TIP3    H143427   2.569   1.214   4.658
14490TIP3    H243428   2.432   1.230   4.594
14491TIP3   OH243429   7.134   1.306   3.677
14491TIP3    H143430   7.117   1.375   3.613
14491TIP3    H243431   7.153   1.229   3.625
14492TIP3   OH243432   3.334   1.397   0.696
14492TIP3    H143433   3.310   1.433   0.611
14492TIP3    H243434   3.398   1.329   0.677
14493TIP3   OH243435   1.575   4.045   2.867
14493TIP3    H143436   1.612   4.129   2.840
14493TIP3    H243437   1.582   4.046   2.963
14494TIP3   OH243438   7.287   6.966   4.142
14494TIP3    H143439   7.236   6.980   4.062
14494TIP3    H243440   7.330   6.882   4.129
14495TIP3   OH243441   6.855   7.547   2.344
14495TIP3    H143442   6.767   7.553   2.379
14495TIP3    H243443   6.873   7.634   2.309
14496TIP3   OH243444   2.325   4.679   2.453
14496TIP3    H143445   2.236   4.650   2.434
14496TIP3    H243446   2.343   4.745   2.385
14497TIP3   OH243447   2.798   4.725   4.205
14497TIP3    H143448   2.844   4.803   4.235
14497TIP3    H243449   2.845   4.652   4.246
14498TIP3   OH243450   1.032   0.997   1.263
14498TIP3    H143451   1.013   1.076   1.213
14498TIP3    H243452   1.009   0.925   1.204
14499TIP3   OH243453   2.144   0.245   1.837
14499TIP3    H143454   2.192   0.184   1.892
14499TIP3    H243455   2.202   0.320   1.829
14500TIP3   OH243456   4.770   2.392   5.571
14500TIP3    H143457   4.678   2.401   5.597
14500TIP3    H243458   4.796   2.480   5.543
14501TIP3   OH243459   3.871   6.488   2.375
14501TIP3    H143460   3.867   6.415   2.313
14501TIP3    H243461   3.962   6.519   2.369
14502TIP3   OH243462   0.666   4.932   3.207
14502TIP3    H143463   0.725   5.002   3.235
14502TIP3    H243464   0.722   4.870   3.161
14503TIP3   OH243465   4.745   0.400   1.117
14503TIP3    H143466   4.751   0.327   1.055
14503TIP3    H243467   4.656   0.434   1.104
14504TIP3   OH243468   4.123   5.608   5.752
14504TIP3    H143469   4.119   5.684   5.693
14504TIP3    H243470   4.053   5.551   5.721
14505TIP3   OH243471   4.025   4.090   4.498
14505TIP3    H143472   3.933   4.062   4.494
14505TIP3    H243473   4.071   4.015   4.536
14506TIP3   OH243474   3.530   3.378   0.305
14506TIP3    H143475   3.612   3.419   0.277
14506TIP3    H243476   3.542   3.360   0.398
14507TIP3   OH243477   1.298   2.851   5.346
14507TIP3    H143478   1.308   2.859   5.251
14507TIP3    H243479   1.370   2.795   5.373
14508TIP3   OH243480   3.558   2.145   2.019
14508TIP3    H143481   3.580   2.171   1.930
14508TIP3    H243482   3.490   2.207   2.046
14509TIP3   OH243483   4.964   4.607   6.367
14509TIP3    H143484   4.983   4.538   6.304
14509TIP3    H243485   4.977   4.565   6.452
14510TIP3   OH243486   4.649   3.682   3.124
14510TIP3    H143487   4.669   3.746   3.056
14510TIP3    H243488   4.667   3.597   3.084
14511TIP3   OH243489   0.264   3.201   3.201
14511TIP3    H143490   0.326   3.128   3.201
14511TIP3    H243491   0.315   3.275   3.234
14512TIP3   OH243492   5.158   1.332   0.222
14512TIP3    H143493   5.191   1.408   0.173
14512TIP3    H243494   5.077   1.363   0.262
14513TIP3   OH243495   3.384   7.034   5.246
14513TIP3    H143496   3.316   7.100   5.260
14513TIP3    H243497   3.359   6.991   5.165
14514TIP3   OH243498   0.150   0.193   1.115
14514TIP3    H143499   0.098   0.113   1.108
14514TIP3    H243500   0.096   0.261   1.075
14515TIP3   OH243501   4.553   4.670   3.446
14515TIP3    H143502   4.569   4.671   3.541
14515TIP3    H243503   4.498   4.593   3.432
14516TIP3   OH243504   1.659   4.531   5.204
14516TIP3    H143505   1.637   4.519   5.296
14516TIP3    H243506   1.755   4.525   5.201
14517TIP3   OH243507   1.579   6.601   4.257
14517TIP3    H143508   1.489   6.618   4.285
14517TIP3    H243509   1.622   6.686   4.261
14518TIP3   OH243510   5.823   7.798   0.609
14518TIP3    H143511   5.741   7.771   0.649
14518TIP3    H243512   5.843   7.883   0.647
14519TIP3   OH243513   3.281   6.921   0.713
14519TIP3    H143514   3.243   6.914   0.801
14519TIP3    H243515   3.230   6.991   0.671
14520TIP3   OH243516   3.950   0.212   2.528
14520TIP3    H143517   3.978   0.173   2.445
14520TIP3    H243518   3.957   0.141   2.592
14521TIP3   OH243519   6.920   2.316   3.722
14521TIP3    H143520   6.968   2.280   3.647
14521TIP3    H243521   6.973   2.292   3.797
14522TIP3   OH243522   2.907   4.198   6.080
14522TIP3    H143523   2.944   4.286   6.084
14522TIP3    H243524   2.965   4.150   6.020
14523TIP3   OH243525   7.148   7.532   2.589
14523TIP3    H143526   7.098   7.610   2.565
14523TIP3    H243527   7.087   7.460   2.576
14524TIP3   OH243528   5.721   1.616   0.694
14524TIP3    H143529   5.641   1.631   0.644
14524TIP3    H243530   5.692   1.572   0.774
14525TIP3   OH243531   8.295   0.250   2.207
14525TIP3    H143532   8.286   0.250   2.112
14525TIP3    H243533   8.225   0.308   2.238
14526TIP3   OH243534   3.283   3.044   4.115
14526TIP3    H143535   3.302   3.083   4.030
14526TIP3    H243536   3.330   3.099   4.178
14527TIP3   OH243537   4.311   5.988   1.266
14527TIP3    H143538   4.369   5.995   1.190
14527TIP3    H243539   4.266   6.073   1.269
14528TIP3   OH243540   5.086   7.521   0.726
14528TIP3    H143541   5.008   7.531   0.782
14528TIP3    H243542   5.109   7.610   0.700
14529TIP3   OH243543   4.390   7.355   5.617
14529TIP3    H143544   4.440   7.311   5.686
14529TIP3    H243545   4.384   7.289   5.547
14530TIP3   OH243546   5.470   1.770   2.436
14530TIP3    H143547   5.487   1.864   2.428
14530TIP3    H243548   5.462   1.754   2.530
14531TIP3   OH243549   0.237   0.802   6.799
14531TIP3    H143550   0.294   0.726   6.803
14531TIP3    H243551   0.266   0.849   6.721
14532TIP3   OH243552   3.174   4.931   5.400
14532TIP3    H143553   3.118   4.864   5.437
14532TIP3    H243554   3.228   4.962   5.473
14533TIP3   OH243555   0.058   6.671   1.600
14533TIP3    H143556   0.145   6.655   1.636
14533TIP3    H243557   0.064   6.759   1.561
14534TIP3   OH243558   1.095   3.618   2.640
14534TIP3    H143559   1.024   3.667   2.683
14534TIP3    H243560   1.065   3.607   2.549
14535TIP3   OH243561   4.343   5.909   3.598
14535TIP3    H143562   4.412   5.858   3.641
14535TIP3    H243563   4.316   5.972   3.664
14536TIP3   OH243564   6.172   6.632   0.083
14536TIP3    H143565   6.248   6.657   0.136
14536TIP3    H243566   6.124   6.714   0.071
14537TIP3   OH243567   5.641   6.699   2.005
14537TIP3    H143568   5.718   6.732   2.052
14537TIP3    H243569   5.571   6.761   2.027
14538TIP3   OH243570   0.926   2.891   3.053
14538TIP3    H143571   0.971   2.907   3.135
14538TIP3    H243572   0.886   2.804   3.064
14539TIP3   OH243573   2.525   6.377   1.422
14539TIP3    H143574   2.488   6.454   1.466
14539TIP3    H243575   2.583   6.338   1.487
14540TIP3   OH243576   3.212   6.865   1.981
14540TIP3    H143577   3.245   6.955   1.972
14540TIP3    H243578   3.245   6.836   2.066
14541TIP3   OH243579   1.129   5.443   0.107
14541TIP3    H143580   1.223   5.457   0.111
14541TIP3    H243581   1.108   5.394   0.187
14542TIP3   OH243582   0.479   3.855   6.652
14542TIP3    H143583   0.573   3.869   6.661
14542TIP3    H243584   0.471   3.781   6.593
14543TIP3   OH243585   7.499   5.099   0.554
14543TIP3    H143586   7.569   5.085   0.618
14543TIP3    H243587   7.419   5.104   0.606
14544TIP3   OH243588   3.562   3.589   0.641
14544TIP3    H143589   3.573   3.643   0.718
14544TIP3    H243590   3.619   3.628   0.575
14545TIP3   OH243591   1.524   6.729   0.404
14545TIP3    H143592   1.509   6.699   0.315
14545TIP3    H243593   1.523   6.649   0.457
14546TIP3   OH243594   2.742   5.730   3.635
14546TIP3    H143595   2.809   5.682   3.586
14546TIP3    H243596   2.777   5.734   3.725
14547TIP3   OH243597   0.597   0.791   0.158
14547TIP3    H143598   0.609   0.805   0.252
14547TIP3    H243599   0.504   0.811   0.144
14548TIP3   OH243600   3.625   1.109   6.741
14548TIP3    H143601   3.695   1.086   6.802
14548TIP3    H243602   3.576   1.028   6.728
14549TIP3   OH243603   2.646   5.896   4.384
14549TIP3    H143604   2.679   5.853   4.304
14549TIP3    H243605   2.698   5.976   4.391
14550TIP3   OH243606   5.665   1.840   1.381
14550TIP3    H143607   5.761   1.837   1.386
14550TIP3    H243608   5.638   1.876   1.465
14551TIP3   OH243609   2.254   3.037   4.202
14551TIP3    H143610   2.334   3.072   4.162
14551TIP3    H243611   2.232   3.103   4.269
14552TIP3   OH243612   4.262   6.734   6.211
14552TIP3    H143613   4.317   6.680   6.269
14552TIP3    H243614   4.177   6.691   6.212
14553TIP3   OH243615   5.825   0.090   4.658
14553TIP3    H143616   5.862   0.020   4.605
14553TIP3    H243617   5.776   0.045   4.727
14554TIP3   OH243618   7.086   0.585   0.517
14554TIP3    H143619   7.081   0.640   0.439
14554TIP3    H243620   7.167   0.535   0.507
14555TIP3   OH243621   6.178   1.317   5.445
14555TIP3    H143622   6.184   1.256   5.518
14555TIP3    H243623   6.101   1.289   5.396
14556TIP3   OH243624   8.212   1.859   1.078
14556TIP3    H143625   8.307   1.857   1.073
14556TIP3    H243626   8.187   1.944   1.041
14557TIP3   OH243627   1.139   6.117   5.051
14557TIP3    H143628   1.122   6.211   5.046
14557TIP3    H243629   1.219   6.110   5.104
14558TIP3   OH243630   5.606   5.793   5.090
14558TIP3    H143631   5.515   5.795   5.121
14558TIP3    H243632   5.636   5.884   5.100
14559TIP3   OH243633   3.275   6.131   0.465
14559TIP3    H143634   3.233   6.130   0.379
14559TIP3    H243635   3.203   6.115   0.526
14560TIP3   OH243636   1.597   4.421   5.521
14560TIP3    H143637   1.614   4.343   5.468
14560TIP3    H243638   1.683   4.446   5.554
14561TIP3   OH243639   4.557   7.073   2.250
14561TIP3    H143640   4.493   7.143   2.260
14561TIP3    H243641   4.505   6.997   2.224
14562TIP3   OH243642   2.922   0.778   6.106
14562TIP3    H143643   2.937   0.867   6.074
14562TIP3    H243644   3.002   0.730   6.081
14563TIP3   OH243645   2.102   6.763   0.024
14563TIP3    H143646   2.096   6.794  -0.067
14563TIP3    H243647   2.051   6.826   0.075
14564TIP3   OH243648   3.894   5.458   3.111
14564TIP3    H143649   3.907   5.485   3.020
14564TIP3    H243650   3.930   5.531   3.163
14565TIP3   OH243651   7.337   2.484   3.753
14565TIP3    H143652   7.251   2.515   3.781
14565TIP3    H243653   7.378   2.452   3.833
14566TIP3   OH243654   5.392   2.668   1.900
14566TIP3    H143655   5.324   2.736   1.901
14566TIP3    H243656   5.472   2.715   1.923
14567TIP3   OH243657   6.327   5.040   3.717
14567TIP3    H143658   6.377   4.983   3.775
14567TIP3    H243659   6.337   5.001   3.630
14568TIP3   OH243660   1.752   4.050   3.437
14568TIP3    H143661   1.798   4.065   3.354
14568TIP3    H243662   1.720   3.960   3.430
14569TIP3   OH243663   5.996   2.203   0.032
14569TIP3    H143664   6.062   2.258  -0.010
14569TIP3    H243665   6.011   2.116  -0.004
14570TIP3   OH243666   7.516   6.906   5.265
14570TIP3    H143667   7.473   6.904   5.179
14570TIP3    H243668   7.557   6.992   5.269
14571TIP3   OH243669   0.594   7.115   6.494
14571TIP3    H143670   0.521   7.101   6.433
14571TIP3    H243671   0.552   7.123   6.579
14572TIP3   OH243672   6.768   2.977   1.557
14572TIP3    H143673   6.691   2.928   1.529
14572TIP3    H243674   6.817   2.915   1.611
14573TIP3   OH243675   7.444   7.371   1.148
14573TIP3    H143676   7.500   7.446   1.129
14573TIP3    H243677   7.470   7.305   1.084
14574TIP3   OH243678   5.534   5.606   2.876
14574TIP3    H143679   5.611   5.549   2.884
14574TIP3    H243680   5.519   5.611   2.782
14575TIP3   OH243681   6.383   2.939   0.215
14575TIP3    H143682   6.444   2.895   0.274
14575TIP3    H243683   6.413   3.029   0.211
14576TIP3   OH243684   2.398   3.991   6.031
14576TIP3    H143685   2.397   4.011   6.125
14576TIP3    H243686   2.312   4.020   6.000
14577TIP3   OH243687   2.229   4.469   1.290
14577TIP3    H143688   2.286   4.428   1.226
14577TIP3    H243689   2.181   4.397   1.330
14578TIP3   OH243690   5.272   0.693   3.658
14578TIP3    H143691   5.285   0.679   3.564
14578TIP3    H243692   5.217   0.620   3.686
14579TIP3   OH243693   0.713   7.213   4.715
14579TIP3    H143694   0.659   7.138   4.742
14579TIP3    H243695   0.675   7.240   4.631
14580TIP3   OH243696   4.184   5.907   0.639
14580TIP3    H143697   4.119   5.863   0.694
14580TIP3    H243698   4.247   5.838   0.617
14581TIP3   OH243699   5.064   6.030   5.010
14581TIP3    H143700   5.148   6.028   4.964
14581TIP3    H243701   5.007   5.973   4.959
14582TIP3   OH243702   6.634   4.217   6.368
14582TIP3    H143703   6.609   4.232   6.277
14582TIP3    H243704   6.551   4.211   6.415
14583TIP3   OH243705   6.346   5.707   3.916
14583TIP3    H143706   6.261   5.678   3.950
14583TIP3    H243707   6.324   5.780   3.858
14584TIP3   OH243708   3.377   3.095   2.996
14584TIP3    H143709   3.291   3.066   3.028
14584TIP3    H243710   3.364   3.187   2.973
14585TIP3   OH243711   1.644   3.045   5.710
14585TIP3    H143712   1.556   3.078   5.696
14585TIP3    H243713   1.676   3.023   5.623
14586TIP3   OH243714   4.891   6.443   2.633
14586TIP3    H143715   4.902   6.496   2.712
14586TIP3    H243716   4.898   6.505   2.561
14587TIP3   OH243717   3.084   1.779   6.662
14587TIP3    H143718   3.011   1.727   6.696
14587TIP3    H243719   3.157   1.757   6.721
14588TIP3   OH243720   0.103   2.895   4.250
14588TIP3    H143721   0.189   2.904   4.208
14588TIP3    H243722   0.084   2.982   4.285
14589TIP3   OH243723   3.847   6.224   0.536
14589TIP3    H143724   3.763   6.260   0.510
14589TIP3    H243725   3.910   6.294   0.517
14590TIP3   OH243726   4.921   4.169   3.122
14590TIP3    H143727   4.868   4.134   3.194
14590TIP3    H243728   4.866   4.158   3.044
14591TIP3   OH243729   3.817   7.315   6.322
14591TIP3    H143730   3.756   7.386   6.305
14591TIP3    H243731   3.865   7.304   6.239
14592TIP3   OH243732   3.256   0.847   0.327
14592TIP3    H143733   3.302   0.925   0.298
14592TIP3    H243734   3.184   0.880   0.380
14593TIP3   OH243735   1.926   1.580   0.801
14593TIP3    H143736   1.917   1.581   0.896
14593TIP3    H243737   1.895   1.666   0.772
14594TIP3   OH243738   3.663   7.792   5.748
14594TIP3    H143739   3.599   7.860   5.727
14594TIP3    H243740   3.682   7.804   5.841
14595TIP3   OH243741   7.015   6.391   1.580
14595TIP3    H143742   7.020   6.482   1.552
14595TIP3    H243743   7.089   6.380   1.639
14596TIP3   OH243744   7.792   0.616   0.114
14596TIP3    H143745   7.858   0.618   0.044
14596TIP3    H243746   7.720   0.564   0.077
14597TIP3   OH243747   0.401   7.054   0.661
14597TIP3    H143748   0.464   6.998   0.617
14597TIP3    H243749   0.350   7.093   0.591
14598TIP3   OH243750   7.988   1.284   1.616
14598TIP3    H143751   7.911   1.240   1.652
14598TIP3    H243752   7.955   1.368   1.583
14599TIP3   OH243753   2.750   4.017   2.588
14599TIP3    H143754   2.839   4.043   2.611
14599TIP3    H243755   2.711   4.094   2.548
14600TIP3   OH243756   5.379   4.909   2.780
14600TIP3    H143757   5.350   4.984   2.830
14600TIP3    H243758   5.472   4.926   2.763
14601TIP3   OH243759   7.169   4.988   0.045
14601TIP3    H143760   7.154   4.938  -0.035
14601TIP3    H243761   7.109   4.950   0.109
14602TIP3   OH243762   4.254   5.441   0.062
14602TIP3    H143763   4.209   5.362   0.032
14602TIP3    H243764   4.184   5.500   0.088
14603TIP3   OH243765   7.982   2.467   2.798
14603TIP3    H143766   7.990   2.414   2.719
14603TIP3    H243767   7.895   2.506   2.792
14604TIP3   OH243768   0.697   0.472   5.696
14604TIP3    H143769   0.776   0.517   5.727
14604TIP3    H243770   0.664   0.425   5.773
14605TIP3   OH243771   2.070   5.080   4.881
14605TIP3    H143772   2.150   5.128   4.902
14605TIP3    H243773   2.094   4.988   4.892
14606TIP3   OH243774   1.929   3.617   3.348
14606TIP3    H143775   1.956   3.525   3.351
14606TIP3    H243776   2.006   3.666   3.379
14607TIP3   OH243777   0.517   0.611   6.148
14607TIP3    H143778   0.563   0.628   6.230
14607TIP3    H243779   0.446   0.675   6.146
14608TIP3   OH243780   5.334   2.018   6.751
14608TIP3    H143781   5.243   2.041   6.767
14608TIP3    H243782   5.331   1.930   6.713
14609TIP3   OH243783   7.400   4.112   3.237
14609TIP3    H143784   7.452   4.086   3.161
14609TIP3    H243785   7.451   4.082   3.312
14610TIP3   OH243786   7.073   0.438   5.359
14610TIP3    H143787   7.113   0.444   5.446
14610TIP3    H243788   7.107   0.356   5.323
14611TIP3   OH243789   7.038   1.600   4.267
14611TIP3    H143790   6.962   1.656   4.284
14611TIP3    H243791   7.106   1.661   4.239
14612TIP3   OH243792   7.719   7.355   6.451
14612TIP3    H143793   7.699   7.278   6.399
14612TIP3    H243794   7.695   7.429   6.396
14613TIP3   OH243795   1.797   4.864   2.286
14613TIP3    H143796   1.771   4.887   2.375
14613TIP3    H243797   1.730   4.803   2.255
14614TIP3   OH243798   1.637   4.689   0.111
14614TIP3    H143799   1.618   4.595   0.121
14614TIP3    H243800   1.589   4.714   0.032
14615TIP3   OH243801   2.951   1.280   1.669
14615TIP3    H143802   2.937   1.230   1.749
14615TIP3    H243803   3.043   1.263   1.646
14616TIP3   OH243804   6.406   2.318   3.254
14616TIP3    H143805   6.477   2.338   3.193
14616TIP3    H243806   6.417   2.380   3.326
14617TIP3   OH243807   5.286   6.529   4.888
14617TIP3    H143808   5.379   6.507   4.894
14617TIP3    H243809   5.265   6.519   4.795
14618TIP3   OH243810   4.551   5.156   5.432
14618TIP3    H143811   4.485   5.127   5.369
14618TIP3    H243812   4.634   5.126   5.395
14619TIP3   OH243813   2.370   5.054   3.625
14619TIP3    H143814   2.465   5.056   3.639
14619TIP3    H243815   2.355   5.116   3.554
14620TIP3   OH243816   3.756   6.000   1.124
14620TIP3    H143817   3.842   6.021   1.089
14620TIP3    H243818   3.696   6.054   1.073
14621TIP3   OH243819   2.403   0.229   5.098
14621TIP3    H143820   2.465   0.225   5.172
14621TIP3    H243821   2.317   0.226   5.139
14622TIP3   OH243822   0.739   0.625   4.365
14622TIP3    H143823   0.795   0.701   4.347
14622TIP3    H243824   0.797   0.550   4.352
14623TIP3   OH243825   6.348   6.208   0.903
14623TIP3    H143826   6.277   6.144   0.902
14623TIP3    H243827   6.310   6.285   0.947
14624TIP3   OH243828   0.813   1.824   3.326
14624TIP3    H143829   0.780   1.738   3.300
14624TIP3    H243830   0.735   1.872   3.352
14625TIP3   OH243831   7.811   4.052   3.865
14625TIP3    H143832   7.745   4.000   3.821
14625TIP3    H243833   7.799   4.034   3.958
14626TIP3   OH243834   1.020   5.794   0.837
14626TIP3    H143835   0.985   5.705   0.833
14626TIP3    H243836   0.950   5.845   0.877
14627TIP3   OH243837   7.729   1.329   1.706
14627TIP3    H143838   7.683   1.246   1.713
14627TIP3    H243839   7.661   1.392   1.680
14628TIP3   OH243840   4.755   3.046   4.547
14628TIP3    H143841   4.728   3.074   4.460
14628TIP3    H243842   4.825   3.107   4.571
14629TIP3   OH243843   7.150   6.854   0.750
14629TIP3    H143844   7.215   6.815   0.691
14629TIP3    H243845   7.160   6.948   0.736
14630TIP3   OH243846   4.175   7.367   0.489
14630TIP3    H143847   4.172   7.391   0.397
14630TIP3    H243848   4.141   7.444   0.535
14631TIP3   OH243849   2.259   7.027   6.402
14631TIP3    H143850   2.182   7.030   6.345
14631TIP3    H243851   2.294   7.116   6.400
14632TIP3   OH243852   3.741   4.082   5.649
14632TIP3    H143853   3.816   4.071   5.589
14632TIP3    H243854   3.768   4.152   5.708
14633TIP3   OH243855   3.617   5.927   1.800
14633TIP3    H143856   3.522   5.937   1.811
14633TIP3    H243857   3.655   5.977   1.872
14634TIP3   OH243858   3.888   1.000   0.990
14634TIP3    H143859   3.818   0.935   0.998
14634TIP3    H243860   3.950   0.960   0.929
14635TIP3   OH243861   3.149   4.744   1.218
14635TIP3    H143862   3.174   4.835   1.202
14635TIP3    H243863   3.180   4.697   1.142
14636TIP3   OH243864   5.944   3.102   1.701
14636TIP3    H143865   6.011   3.123   1.637
14636TIP3    H243866   5.899   3.026   1.665
14637TIP3   OH243867   4.146   6.559   1.608
14637TIP3    H143868   4.094   6.542   1.686
14637TIP3    H243869   4.236   6.570   1.639
14638TIP3   OH243870   2.600   0.573   4.182
14638TIP3    H143871   2.623   0.649   4.236
14638TIP3    H243872   2.504   0.573   4.181
14639TIP3   OH243873   6.043   3.119   0.895
14639TIP3    H143874   6.005   3.150   0.813
14639TIP3    H243875   6.003   3.033   0.909
14640TIP3   OH243876   2.704   6.396   3.013
14640TIP3    H143877   2.683   6.310   2.976
14640TIP3    H243878   2.731   6.449   2.938
14641TIP3   OH243879   0.102   1.048   1.671
14641TIP3    H143880   0.019   1.007   1.695
14641TIP3    H243881   0.098   1.135   1.709
14642TIP3   OH243882   6.376   5.212   4.141
14642TIP3    H143883   6.434   5.136   4.150
14642TIP3    H243884   6.293   5.175   4.112
14643TIP3   OH243885   3.503   0.264   3.197
14643TIP3    H143886   3.450   0.189   3.170
14643TIP3    H243887   3.560   0.229   3.266
14644TIP3   OH243888   1.599   7.011   3.302
14644TIP3    H143889   1.614   6.936   3.359
14644TIP3    H243890   1.559   6.974   3.223
14645TIP3   OH243891   7.935   3.325   5.072
14645TIP3    H143892   7.991   3.296   4.999
14645TIP3    H243893   7.991   3.318   5.149
14646TIP3   OH243894   0.175   6.570   4.687
14646TIP3    H143895   0.217   6.649   4.722
14646TIP3    H243896   0.118   6.539   4.758
14647TIP3   OH243897   3.075   2.724   4.837
14647TIP3    H143898   3.002   2.784   4.850
14647TIP3    H243899   3.034   2.638   4.822
14648TIP3   OH243900   0.739   7.833   0.774
14648TIP3    H143901   0.783   7.776   0.838
14648TIP3    H243902   0.749   7.788   0.690
14649TIP3   OH243903   5.271   7.694   5.790
14649TIP3    H143904   5.342   7.655   5.841
14649TIP3    H243905   5.238   7.621   5.736
14650TIP3   OH243906   1.017   7.772   6.593
14650TIP3    H143907   1.094   7.779   6.648
14650TIP3    H243908   0.973   7.856   6.602
14651TIP3   OH243909   6.185   2.477   1.909
14651TIP3    H143910   6.105   2.436   1.941
14651TIP3    H243911   6.254   2.441   1.965
14652TIP3   OH243912   3.102   3.655   3.888
14652TIP3    H143913   3.128   3.611   3.969
14652TIP3    H243914   3.124   3.747   3.903
14653TIP3   OH243915   2.754   3.726   4.979
14653TIP3    H143916   2.755   3.773   5.062
14653TIP3    H243917   2.667   3.744   4.943
14654TIP3   OH243918   6.925   3.912   6.686
14654TIP3    H143919   6.971   3.921   6.769
14654TIP3    H243920   6.847   3.966   6.696
14655TIP3   OH243921   5.473   4.095   0.200
14655TIP3    H143922   5.517   4.105   0.116
14655TIP3    H243923   5.542   4.068   0.261
14656TIP3   OH243924   4.556   2.867   0.223
14656TIP3    H143925   4.509   2.784   0.234
14656TIP3    H243926   4.488   2.929   0.197
14657TIP3   OH243927   4.197   1.012   2.551
14657TIP3    H143928   4.271   1.023   2.492
14657TIP3    H243929   4.181   1.100   2.586
14658TIP3   OH243930   0.691   0.045   6.430
14658TIP3    H143931   0.644   0.121   6.463
14658TIP3    H243932   0.646   0.021   6.349
14659TIP3   OH243933   2.289   5.756   0.874
14659TIP3    H143934   2.235   5.835   0.871
14659TIP3    H243935   2.361   5.774   0.815
14660TIP3   OH243936   7.987   7.063   3.637
14660TIP3    H143937   8.079   7.085   3.623
14660TIP3    H243938   7.985   6.967   3.642
14661TIP3   OH243939   0.380   1.906   6.161
14661TIP3    H143940   0.399   1.812   6.156
14661TIP3    H243941   0.294   1.912   6.202
14662TIP3   OH243942   0.117   5.331   0.890
14662TIP3    H143943   0.100   5.325   0.984
14662TIP3    H243944   0.213   5.326   0.883
14663TIP3   OH243945   6.314   1.047   1.458
14663TIP3    H143946   6.394   1.030   1.508
14663TIP3    H243947   6.344   1.051   1.367
14664TIP3   OH243948   1.440   2.479   3.690
14664TIP3    H143949   1.400   2.560   3.658
14664TIP3    H243950   1.387   2.454   3.765
14665TIP3   OH243951   3.655   3.800   4.764
14665TIP3    H143952   3.612   3.768   4.684
14665TIP3    H243953   3.748   3.803   4.741
14666TIP3   OH243954   5.862   3.533   5.138
14666TIP3    H143955   5.811   3.580   5.073
14666TIP3    H243956   5.918   3.599   5.178
14667TIP3   OH243957   7.897   1.425   5.496
14667TIP3    H143958   7.888   1.502   5.440
14667TIP3    H243959   7.870   1.351   5.442
14668TIP3   OH243960   5.219   3.480   1.395
14668TIP3    H143961   5.253   3.561   1.357
14668TIP3    H243962   5.279   3.460   1.467
14669TIP3   OH243963   3.609   1.367   5.864
14669TIP3    H143964   3.520   1.402   5.874
14669TIP3    H243965   3.606   1.317   5.782
14670TIP3   OH243966   2.434   0.769   3.707
14670TIP3    H143967   2.511   0.753   3.653
14670TIP3    H243968   2.367   0.799   3.646
14671TIP3   OH243969   2.121   0.532   4.759
14671TIP3    H143970   2.046   0.540   4.700
14671TIP3    H243971   2.153   0.443   4.745
14672TIP3   OH243972   2.048   4.459   2.210
14672TIP3    H143973   2.011   4.376   2.241
14672TIP3    H243974   2.061   4.511   2.290
14673TIP3   OH243975   2.047   3.326   4.800
14673TIP3    H143976   2.039   3.421   4.807
14673TIP3    H243977   1.977   3.300   4.740
14674TIP3   OH243978   1.601   3.783   2.824
14674TIP3    H143979   1.630   3.766   2.914
14674TIP3    H243980   1.601   3.878   2.817
14675TIP3   OH243981   3.379   6.042   2.697
14675TIP3    H143982   3.406   6.029   2.606
14675TIP3    H243983   3.392   5.957   2.739
14676TIP3   OH243984   4.239   6.758   1.351
14676TIP3    H143985   4.189   6.831   1.387
14676TIP3    H243986   4.204   6.680   1.395
14677TIP3   OH243987   0.264   4.719   2.440
14677TIP3    H143988   0.197   4.685   2.499
14677TIP3    H243989   0.312   4.782   2.493
14678TIP3   OH243990   1.514   7.591   5.907
14678TIP3    H143991   1.598   7.560   5.872
14678TIP3    H243992   1.455   7.516   5.898
14679TIP3   OH243993   1.627   5.232   5.806
14679TIP3    H143994   1.630   5.171   5.879
14679TIP3    H243995   1.687   5.303   5.830
14680TIP3   OH243996   3.237   7.615   1.869
14680TIP3    H143997   3.234   7.660   1.785
14680TIP3    H243998   3.158   7.645   1.915
14681TIP3   OH243999   4.139   1.690   2.972
14681TIP3    H144000   4.208   1.635   2.935
14681TIP3    H244001   4.174   1.779   2.969
14682TIP3   OH244002   2.609   6.598   0.791
14682TIP3    H144003   2.701   6.596   0.816
14682TIP3    H244004   2.562   6.624   0.870
14683TIP3   OH244005   7.676   6.604   4.276
14683TIP3    H144006   7.752   6.639   4.229
14683TIP3    H244007   7.614   6.677   4.279
14684TIP3   OH244008   0.791   4.700   3.105
14684TIP3    H144009   0.844   4.711   3.185
14684TIP3    H244010   0.852   4.664   3.041
14685TIP3   OH244011   3.178   7.269   3.725
14685TIP3    H144012   3.236   7.233   3.792
14685TIP3    H244013   3.220   7.351   3.699
14686TIP3   OH244014   2.652   2.272   0.776
14686TIP3    H144015   2.732   2.275   0.828
14686TIP3    H244016   2.667   2.201   0.714
14687TIP3   OH244017   1.216   4.608   5.478
14687TIP3    H144018   1.151   4.539   5.476
14687TIP3    H244019   1.212   4.648   5.391
14688TIP3   OH244020   5.093   5.975   5.708
14688TIP3    H144021   5.140   5.913   5.762
14688TIP3    H244022   5.099   5.940   5.619
14689TIP3   OH244023   2.531   5.034   0.992
14689TIP3    H144024   2.553   5.071   0.907
14689TIP3    H244025   2.471   5.097   1.031
14690TIP3   OH244026   5.584   2.664   0.739
14690TIP3    H144027   5.638   2.649   0.816
14690TIP3    H244028   5.615   2.600   0.675
14691TIP3   OH244029   0.139   6.375   1.094
14691TIP3    H144030   0.111   6.287   1.116
14691TIP3    H244031   0.169   6.369   1.004
14692TIP3   OH244032   6.917   6.924   5.016
14692TIP3    H144033   6.984   6.963   4.960
14692TIP3    H244034   6.886   6.848   4.966
14693TIP3   OH244035   3.480   7.568   2.759
14693TIP3    H144036   3.480   7.617   2.842
14693TIP3    H244037   3.389   7.542   2.746
14694TIP3   OH244038   3.868   1.748   3.534
14694TIP3    H144039   3.861   1.653   3.525
14694TIP3    H244040   3.826   1.783   3.455
14695TIP3   OH244041   5.910   6.350   0.253
14695TIP3    H144042   5.879   6.312   0.334
14695TIP3    H244043   5.979   6.411   0.279
14696TIP3   OH244044   1.438   7.629   3.598
14696TIP3    H144045   1.375   7.664   3.535
14696TIP3    H244046   1.431   7.688   3.673
14697TIP3   OH244047   6.931   4.924   2.696
14697TIP3    H144048   6.970   4.843   2.663
14697TIP3    H244049   6.836   4.907   2.693
14698TIP3   OH244050   3.944   2.189   0.571
14698TIP3    H144051   3.951   2.094   0.582
14698TIP3    H244052   3.853   2.202   0.544
14699TIP3   OH244053   6.511   0.908   2.246
14699TIP3    H144054   6.427   0.896   2.203
14699TIP3    H244055   6.554   0.976   2.195
14700TIP3   OH244056   5.724   2.489   3.718
14700TIP3    H144057   5.692   2.502   3.808
14700TIP3    H244058   5.654   2.441   3.675
14701TIP3   OH244059   3.752   6.880   4.560
14701TIP3    H144060   3.731   6.787   4.563
14701TIP3    H244061   3.834   6.884   4.511
14702TIP3   OH244062   7.852   5.087   3.017
14702TIP3    H144063   7.944   5.110   3.033
14702TIP3    H244064   7.813   5.169   2.986
14703TIP3   OH244065   7.478   7.366   3.554
14703TIP3    H144066   7.487   7.280   3.514
14703TIP3    H244067   7.519   7.356   3.640
14704TIP3   OH244068   2.503   2.216   4.623
14704TIP3    H144069   2.408   2.207   4.637
14704TIP3    H244070   2.514   2.211   4.528
14705TIP3   OH244071   7.323   3.053   5.016
14705TIP3    H144072   7.414   3.023   5.007
14705TIP3    H244073   7.323   3.141   4.978
14706TIP3   OH244074   3.988   0.054   3.161
14706TIP3    H144075   4.062   0.039   3.103
14706TIP3    H244076   3.961  -0.034   3.190
14707TIP3   OH244077   6.417   7.444   4.188
14707TIP3    H144078   6.363   7.519   4.165
14707TIP3    H244079   6.489   7.481   4.239
14708TIP3   OH244080   1.008   1.516   3.184
14708TIP3    H144081   0.933   1.533   3.241
14708TIP3    H244082   1.014   1.594   3.129
14709TIP3   OH244083   2.916   4.060   3.303
14709TIP3    H144084   2.895   3.973   3.338
14709TIP3    H244085   2.876   4.060   3.215
14710TIP3   OH244086   0.808   0.040   5.237
14710TIP3    H144087   0.762  -0.007   5.307
14710TIP3    H244088   0.793   0.132   5.255
14711TIP3   OH244089   6.069   5.150   2.481
14711TIP3    H144090   6.151   5.130   2.526
14711TIP3    H244091   6.009   5.175   2.551
14712TIP3   OH244092   8.158   2.066   2.155
14712TIP3    H144093   8.083   2.125   2.146
14712TIP3    H244094   8.147   2.028   2.242
14713TIP3   OH244095   3.146   5.113   4.166
14713TIP3    H144096   3.058   5.115   4.127
14713TIP3    H244097   3.181   5.201   4.150
14714TIP3   OH244098   4.420   5.778   4.870
14714TIP3    H144099   4.436   5.684   4.883
14714TIP3    H244100   4.325   5.787   4.875
14715TIP3   OH244101   3.842   5.150   4.774
14715TIP3    H144102   3.853   5.127   4.867
14715TIP3    H244103   3.762   5.202   4.772
14716TIP3   OH244104   1.917   3.446   1.367
14716TIP3    H144105   1.969   3.373   1.332
14716TIP3    H244106   1.935   3.519   1.307
14717TIP3   OH244107   1.457   5.610   6.358
14717TIP3    H144108   1.366   5.597   6.385
14717TIP3    H244109   1.505   5.620   6.440
14718TIP3   OH244110   3.124   5.878   6.157
14718TIP3    H144111   3.126   5.900   6.250
14718TIP3    H244112   3.034   5.848   6.141
14719TIP3   OH244113   4.010   6.915   6.187
14719TIP3    H144114   4.019   6.854   6.114
14719TIP3    H244115   4.043   6.867   6.263
14720TIP3   OH244116   4.846   3.995   4.419
14720TIP3    H144117   4.941   3.984   4.413
14720TIP3    H244118   4.833   4.047   4.498
14721TIP3   OH244119   3.535   0.275   5.550
14721TIP3    H144120   3.525   0.367   5.572
14721TIP3    H244121   3.572   0.276   5.462
14722TIP3   OH244122   6.185   2.446   4.703
14722TIP3    H144123   6.204   2.435   4.610
14722TIP3    H244124   6.271   2.448   4.745
14723TIP3   OH244125   4.832   5.365   4.666
14723TIP3    H144126   4.889   5.292   4.645
14723TIP3    H244127   4.800   5.396   4.581
14724TIP3   OH244128   3.365   2.574   1.323
14724TIP3    H144129   3.390   2.543   1.410
14724TIP3    H244130   3.447   2.610   1.287
14725TIP3   OH244131   0.300   0.203   1.619
14725TIP3    H144132   0.285   0.164   1.533
14725TIP3    H244133   0.237   0.161   1.676
14726TIP3   OH244134   4.998   4.432   0.127
14726TIP3    H144135   5.075   4.441   0.182
14726TIP3    H244136   5.026   4.374   0.055
14727TIP3   OH244137   1.809   6.827   2.943
14727TIP3    H144138   1.840   6.773   3.016
14727TIP3    H244139   1.789   6.764   2.874
14728TIP3   OH244140   7.414   0.996   5.251
14728TIP3    H144141   7.483   1.048   5.292
14728TIP3    H244142   7.417   1.021   5.158
14729TIP3   OH244143   2.874   6.615   5.081
14729TIP3    H144144   2.785   6.633   5.051
14729TIP3    H244145   2.892   6.527   5.047
14730TIP3   OH244146   1.104   1.253   1.675
14730TIP3    H144147   1.018   1.237   1.714
14730TIP3    H244148   1.106   1.347   1.659
14731TIP3   OH244149   3.024   2.949   3.425
14731TIP3    H144150   3.083   3.012   3.466
14731TIP3    H244151   2.937   2.982   3.444
14732TIP3   OH244152   4.572   1.882   4.689
14732TIP3    H144153   4.597   1.971   4.663
14732TIP3    H244154   4.638   1.857   4.753
14733TIP3   OH244155   5.653   0.379   2.010
14733TIP3    H144156   5.600   0.307   1.975
14733TIP3    H244157   5.595   0.454   2.011
14734TIP3   OH244158   7.500   2.280   0.732
14734TIP3    H144159   7.585   2.324   0.738
14734TIP3    H244160   7.462   2.288   0.819
14735TIP3   OH244161   1.618   6.001   0.991
14735TIP3    H144162   1.673   6.079   0.986
14735TIP3    H244163   1.612   5.981   1.084
14736TIP3   OH244164   0.575   3.039   2.680
14736TIP3    H144165   0.646   3.032   2.743
14736TIP3    H244166   0.501   3.073   2.731
14737TIP3   OH244167   1.510   7.635   6.522
14737TIP3    H144168   1.524   7.596   6.435
14737TIP3    H244169   1.597   7.638   6.561
14738TIP3   OH244170   3.041   3.135   4.959
14738TIP3    H144171   3.108   3.186   5.006
14738TIP3    H244172   2.959   3.157   5.004
14739TIP3   OH244173   8.127   2.000   0.632
14739TIP3    H144174   8.070   1.979   0.558
14739TIP3    H244175   8.199   1.936   0.625
14740TIP3   OH244176   6.239   1.018   6.326
14740TIP3    H144177   6.179   0.946   6.308
14740TIP3    H244178   6.219   1.044   6.416
14741TIP3   OH244179   0.963   4.834   2.899
14741TIP3    H144180   1.048   4.815   2.860
14741TIP3    H244181   0.965   4.928   2.915
14742TIP3   OH244182   6.120   7.551   3.434
14742TIP3    H144183   6.162   7.625   3.477
14742TIP3    H244184   6.074   7.505   3.504
14743TIP3   OH244185   4.478   2.784   2.752
14743TIP3    H144186   4.562   2.738   2.741
14743TIP3    H244187   4.442   2.749   2.833
14744TIP3   OH244188   4.886   3.705   6.388
14744TIP3    H144189   4.930   3.755   6.456
14744TIP3    H244190   4.880   3.616   6.424
14745TIP3   OH244191   7.860   7.504   0.608
14745TIP3    H144192   7.840   7.585   0.561
14745TIP3    H244193   7.784   7.490   0.665
14746TIP3   OH244194   2.936   4.613   4.939
14746TIP3    H144195   2.991   4.630   5.015
14746TIP3    H244196   2.951   4.689   4.882
14747TIP3   OH244197   2.936   1.197   1.046
14747TIP3    H144198   2.981   1.212   0.963
14747TIP3    H244199   3.006   1.190   1.110
14748TIP3   OH244200   2.768   4.214   2.836
14748TIP3    H144201   2.694   4.268   2.807
14748TIP3    H244202   2.766   4.138   2.778
14749TIP3   OH244203   6.402   2.464   2.083
14749TIP3    H144204   6.491   2.435   2.061
14749TIP3    H244205   6.379   2.414   2.161
14750TIP3   OH244206   2.817   3.656   3.876
14750TIP3    H144207   2.912   3.651   3.872
14750TIP3    H244208   2.794   3.729   3.818
14751TIP3   OH244209   3.097   3.054   1.815
14751TIP3    H144210   3.031   2.985   1.825
14751TIP3    H244211   3.110   3.088   1.903
14752TIP3   OH244212   6.538   7.481   3.440
14752TIP3    H144213   6.623   7.438   3.453
14752TIP3    H244214   6.546   7.564   3.487
14753TIP3   OH244215   3.039   6.846   5.036
14753TIP3    H144216   3.037   6.765   4.985
14753TIP3    H244217   2.947   6.865   5.053
14754TIP3   OH244218   3.569   1.867   4.298
14754TIP3    H144219   3.607   1.789   4.337
14754TIP3    H244220   3.622   1.884   4.221
14755TIP3   OH244221   3.060   7.135   3.344
14755TIP3    H144222   3.037   7.172   3.429
14755TIP3    H244223   3.003   7.180   3.282
14756TIP3   OH244224   7.658   5.854   4.239
14756TIP3    H144225   7.750   5.877   4.222
14756TIP3    H244226   7.618   5.936   4.267
14757TIP3   OH244227   0.520   7.040   2.008
14757TIP3    H144228   0.460   6.985   2.058
14757TIP3    H244229   0.526   6.997   1.922
14758TIP3   OH244230   5.493   5.794   1.811
14758TIP3    H144231   5.449   5.719   1.853
14758TIP3    H244232   5.482   5.778   1.717
14759TIP3   OH244233   4.670   4.986   4.877
14759TIP3    H144234   4.630   5.064   4.838
14759TIP3    H244235   4.635   4.913   4.826
14760TIP3   OH244236   6.868   0.773   3.226
14760TIP3    H144237   6.839   0.684   3.209
14760TIP3    H244238   6.799   0.811   3.281
14761TIP3   OH244239   4.099   5.540   4.216
14761TIP3    H144240   4.119   5.625   4.256
14761TIP3    H244241   4.007   5.524   4.239
14762TIP3   OH244242   7.366   5.648   1.885
14762TIP3    H144243   7.325   5.623   1.967
14762TIP3    H244244   7.370   5.744   1.888
14763TIP3   OH244245   1.919   5.239   4.392
14763TIP3    H144246   1.946   5.328   4.413
14763TIP3    H244247   1.925   5.191   4.474
14764TIP3   OH244248   5.053   1.241   2.809
14764TIP3    H144249   5.040   1.280   2.722
14764TIP3    H244250   5.010   1.156   2.804
14765TIP3   OH244251   3.856   7.400   2.584
14765TIP3    H144252   3.948   7.419   2.599
14765TIP3    H244253   3.810   7.452   2.650
14766TIP3   OH244254   3.905   7.215   4.810
14766TIP3    H144255   3.997   7.206   4.784
14766TIP3    H244256   3.877   7.297   4.769
14767TIP3   OH244257   3.468   5.108   3.682
14767TIP3    H144258   3.481   5.024   3.638
14767TIP3    H244259   3.511   5.096   3.767
14768TIP3   OH244260   4.677   6.402   4.702
14768TIP3    H144261   4.741   6.380   4.770
14768TIP3    H244262   4.730   6.421   4.625
14769TIP3   OH244263   2.522   1.878   4.230
14769TIP3    H144264   2.510   1.784   4.245
14769TIP3    H244265   2.602   1.883   4.178
14770TIP3   OH244266   4.155   3.871   3.965
14770TIP3    H144267   4.141   3.896   4.056
14770TIP3    H244268   4.080   3.907   3.917
14771TIP3   OH244269   3.953   2.070   1.455
14771TIP3    H144270   3.873   2.105   1.415
14771TIP3    H244271   3.942   1.975   1.452
14772TIP3   OH244272   7.738   0.976   0.920
14772TIP3    H144273   7.666   0.976   0.857
14772TIP3    H244274   7.796   1.046   0.889
14773TIP3   OH244275   1.975   7.469   1.423
14773TIP3    H144276   1.924   7.460   1.342
14773TIP3    H244277   1.914   7.509   1.485
14774TIP3   OH244278   6.023   4.400   6.372
14774TIP3    H144279   5.929   4.418   6.368
14774TIP3    H244280   6.060   4.453   6.300
14775TIP3   OH244281   6.027   5.024   0.758
14775TIP3    H144282   6.094   5.020   0.690
14775TIP3    H244283   5.966   5.091   0.727
14776TIP3   OH244284   5.350   5.194   4.644
14776TIP3    H144285   5.391   5.135   4.707
14776TIP3    H244286   5.402   5.274   4.648
14777TIP3   OH244287   0.867   5.400   4.318
14777TIP3    H144288   0.778   5.379   4.288
14777TIP3    H244289   0.922   5.377   4.244
14778TIP3   OH244290   4.441   6.563   2.148
14778TIP3    H144291   4.387   6.515   2.085
14778TIP3    H244292   4.510   6.501   2.172
14779TIP3   OH244293   8.091   5.880   0.842
14779TIP3    H144294   8.100   5.877   0.746
14779TIP3    H244295   7.998   5.895   0.857
14780TIP3   OH244296   3.710   5.944   5.637
14780TIP3    H144297   3.738   5.865   5.685
14780TIP3    H244298   3.792   5.986   5.610
14781TIP3   OH244299   2.176   4.496   6.497
14781TIP3    H144300   2.232   4.419   6.485
14781TIP3    H244301   2.140   4.512   6.410
14782TIP3   OH244302   0.213   5.373   6.100
14782TIP3    H144303   0.165   5.424   6.165
14782TIP3    H244304   0.146   5.321   6.055
14783TIP3   OH244305   5.390   2.870   0.330
14783TIP3    H144306   5.436   2.875   0.414
14783TIP3    H244307   5.454   2.901   0.266
14784TIP3   OH244308   4.443   6.296   6.244
14784TIP3    H144309   4.469   6.315   6.154
14784TIP3    H244310   4.364   6.243   6.235
14785TIP3   OH244311   6.459   0.358   1.653
14785TIP3    H144312   6.436   0.451   1.654
14785TIP3    H244313   6.377   0.312   1.669
14786TIP3   OH244314   2.009   1.585   2.092
14786TIP3    H144315   2.085   1.541   2.129
14786TIP3    H244316   2.037   1.675   2.076
14787TIP3   OH244317   4.602   4.675   2.233
14787TIP3    H144318   4.620   4.746   2.295
14787TIP3    H244319   4.648   4.700   2.153
14788TIP3   OH244320   5.969   4.846   0.371
14788TIP3    H144321   5.904   4.801   0.425
14788TIP3    H244322   6.039   4.867   0.432
14789TIP3   OH244323   8.007   2.907   0.808
14789TIP3    H144324   8.005   2.811   0.811
14789TIP3    H244325   8.017   2.934   0.899
14790TIP3   OH244326   2.577   3.588   5.545
14790TIP3    H144327   2.635   3.511   5.541
14790TIP3    H244328   2.513   3.566   5.613
14791TIP3   OH244329   5.348   6.159   1.552
14791TIP3    H144330   5.418   6.127   1.608
14791TIP3    H244331   5.267   6.137   1.599
14792TIP3   OH244332   2.048   5.411   4.617
14792TIP3    H144333   2.138   5.382   4.601
14792TIP3    H244334   2.030   5.473   4.547
14793TIP3   OH244335   5.799   3.664   1.555
14793TIP3    H144336   5.809   3.722   1.479
14793TIP3    H244337   5.880   3.675   1.605
14794TIP3   OH244338   5.862   6.264   1.425
14794TIP3    H144339   5.812   6.216   1.491
14794TIP3    H244340   5.798   6.321   1.382
14795TIP3   OH244341   1.603   2.420   3.274
14795TIP3    H144342   1.556   2.503   3.266
14795TIP3    H244343   1.617   2.391   3.184
14796TIP3   OH244344   5.190   7.696   3.034
14796TIP3    H144345   5.238   7.618   3.062
14796TIP3    H244346   5.154   7.673   2.949
14797TIP3   OH244347   3.217   3.886   3.628
14797TIP3    H144348   3.206   3.902   3.534
14797TIP3    H244349   3.299   3.839   3.636
14798TIP3   OH244350   4.208   4.612   0.357
14798TIP3    H144351   4.136   4.554   0.331
14798TIP3    H244352   4.169   4.700   0.355
14799TIP3   OH244353   4.153   3.357   4.040
14799TIP3    H144354   4.209   3.316   3.974
14799TIP3    H244355   4.109   3.428   3.993
14800TIP3   OH244356   1.446   6.571   3.118
14800TIP3    H144357   1.388   6.545   3.189
14800TIP3    H244358   1.484   6.490   3.087
14801TIP3   OH244359   3.544   6.282   5.280
14801TIP3    H144360   3.502   6.351   5.228
14801TIP3    H244361   3.530   6.202   5.230
14802TIP3   OH244362   6.781   0.950   0.679
14802TIP3    H144363   6.847   0.911   0.736
14802TIP3    H244364   6.698   0.910   0.707
14803TIP3   OH244365   2.138   6.689   5.721
14803TIP3    H144366   2.179   6.709   5.804
14803TIP3    H244367   2.046   6.711   5.733
14804TIP3   OH244368   7.317   3.805   1.423
14804TIP3    H144369   7.233   3.797   1.467
14804TIP3    H244370   7.300   3.775   1.333
14805TIP3   OH244371   8.201   5.301   0.715
14805TIP3    H144372   8.197   5.206   0.725
14805TIP3    H244373   8.273   5.329   0.772
14806TIP3   OH244374   1.129   6.655   4.456
14806TIP3    H144375   1.053   6.714   4.452
14806TIP3    H244376   1.109   6.595   4.528
14807TIP3   OH244377   4.577   3.238   0.368
14807TIP3    H144378   4.519   3.178   0.414
14807TIP3    H244379   4.569   3.215   0.276
14808TIP3   OH244380   7.729   3.702   0.917
14808TIP3    H144381   7.812   3.718   0.873
14808TIP3    H244382   7.664   3.749   0.865
14809TIP3   OH244383   8.089   6.365   0.238
14809TIP3    H144384   8.005   6.321   0.247
14809TIP3    H244385   8.095   6.387   0.145
14810TIP3   OH244386   6.446   1.509   3.117
14810TIP3    H144387   6.433   1.514   3.022
14810TIP3    H244388   6.403   1.428   3.143
14811TIP3   OH244389   0.665   7.161   3.137
14811TIP3    H144390   0.664   7.071   3.169
14811TIP3    H244391   0.580   7.173   3.095
14812TIP3   OH244392   6.608   3.350   4.517
14812TIP3    H144393   6.640   3.400   4.593
14812TIP3    H244394   6.619   3.409   4.443
14813TIP3   OH244395   1.875   6.055   6.100
14813TIP3    H144396   1.926   5.995   6.155
14813TIP3    H244397   1.928   6.068   6.022
14814TIP3   OH244398   2.340   4.537   0.972
14814TIP3    H144399   2.304   4.583   0.897
14814TIP3    H244400   2.355   4.606   1.037
14815TIP3   OH244401   2.884   0.108   4.296
14815TIP3    H144402   2.950   0.148   4.240
14815TIP3    H244403   2.801   0.132   4.255
14816TIP3   OH244404   4.254   0.606   1.542
14816TIP3    H144405   4.274   0.680   1.599
14816TIP3    H244406   4.163   0.620   1.516
14817TIP3   OH244407   7.649   6.523   2.831
14817TIP3    H144408   7.608   6.527   2.745
14817TIP3    H244409   7.697   6.441   2.832
14818TIP3   OH244410   3.164   7.575   5.591
14818TIP3    H144411   3.091   7.636   5.605
14818TIP3    H244412   3.156   7.549   5.499
14819TIP3   OH244413   7.368   5.177   0.046
14819TIP3    H144414   7.300   5.113   0.064
14819TIP3    H244415   7.351   5.248   0.108
14820TIP3   OH244416   7.988   2.851   4.750
14820TIP3    H144417   7.987   2.755   4.742
14820TIP3    H244418   8.028   2.866   4.836
14821TIP3   OH244419   5.759   3.835   3.583
14821TIP3    H144420   5.798   3.753   3.555
14821TIP3    H244421   5.668   3.812   3.605
14822TIP3   OH244422   6.929   0.943   1.955
14822TIP3    H144423   6.853   0.948   1.897
14822TIP3    H244424   6.904   0.994   2.032
14823TIP3   OH244425   0.691   6.219   1.046
14823TIP3    H144426   0.621   6.154   1.051
14823TIP3    H244427   0.772   6.168   1.056
14824TIP3   OH244428   8.045   1.393   4.721
14824TIP3    H144429   8.023   1.486   4.719
14824TIP3    H244430   8.124   1.388   4.775
14825TIP3   OH244431   7.424   2.654   1.161
14825TIP3    H144432   7.441   2.748   1.155
14825TIP3    H244433   7.407   2.639   1.254
14826TIP3   OH244434   4.238   2.770   5.587
14826TIP3    H144435   4.229   2.680   5.558
14826TIP3    H244436   4.150   2.796   5.614
14827TIP3   OH244437   6.930   3.403   0.242
14827TIP3    H144438   6.928   3.475   0.179
14827TIP3    H244439   6.842   3.403   0.281
14828TIP3   OH244440   0.109   0.267   3.885
14828TIP3    H144441   0.200   0.275   3.914
14828TIP3    H244442   0.062   0.234   3.962
14829TIP3   OH244443   8.283   1.579   4.410
14829TIP3    H144444   8.192   1.593   4.435
14829TIP3    H244445   8.282   1.578   4.314
14830TIP3   OH244446   7.204   0.686   1.771
14830TIP3    H144447   7.164   0.662   1.855
14830TIP3    H244448   7.256   0.763   1.790
14831TIP3   OH244449   8.226   7.343   4.009
14831TIP3    H144450   8.204   7.429   4.045
14831TIP3    H244451   8.143   7.311   3.973
14832TIP3   OH244452   3.244   6.216   6.644
14832TIP3    H144453   3.213   6.150   6.706
14832TIP3    H244454   3.284   6.166   6.573
14833TIP3   OH244455   2.647   4.933   2.441
14833TIP3    H144456   2.597   4.985   2.378
14833TIP3    H244457   2.668   4.994   2.511
14834TIP3   OH244458   1.648   5.548   4.344
14834TIP3    H144459   1.585   5.524   4.276
14834TIP3    H244460   1.720   5.589   4.296
14835TIP3   OH244461   4.169   5.491   2.419
14835TIP3    H144462   4.195   5.438   2.344
14835TIP3    H244463   4.075   5.506   2.406
14836TIP3   OH244464   0.190   3.474   5.343
14836TIP3    H144465   0.112   3.419   5.347
14836TIP3    H244466   0.243   3.436   5.273
14837TIP3   OH244467   6.042   6.529   2.006
14837TIP3    H144468   5.992   6.558   2.083
14837TIP3    H244469   5.997   6.569   1.932
   8.30321   7.82834   6.77954   0.00000   0.00000  -2.76773   0.00000  -2.76773  -3.91417
