Title t= 435.00000 step= 217500
44389
    1GLY      N    1   5.860   4.341   1.726
    1GLY    HT1    2   5.959   4.371   1.711
    1GLY    HT2    3   5.868   4.272   1.803
    1GLY    HT3    4   5.802   4.425   1.748
    1GLY     CA    5   5.818   4.279   1.597
    1GLY    HA1    6   5.888   4.207   1.558
    1GLY    HA2    7   5.796   4.349   1.517
    1GLY      C    8   5.699   4.189   1.617
    1GLY      O    9   5.728   4.072   1.651
    2PRO      N   10   5.575   4.232   1.607
    2PRO     CD   11   5.544   4.378   1.592
    2PRO    HD1   12   5.592   4.410   1.497
    2PRO    HD2   13   5.591   4.440   1.671
    2PRO     CA   14   5.456   4.154   1.606
    2PRO     HA   15   5.427   4.129   1.707
    2PRO     CB   16   5.356   4.250   1.538
    2PRO    HB1   17   5.249   4.224   1.550
    2PRO    HB2   18   5.389   4.250   1.432
    2PRO     CG   19   5.394   4.386   1.588
    2PRO    HG1   20   5.351   4.466   1.524
    2PRO    HG2   21   5.357   4.411   1.689
    2PRO      C   22   5.458   4.014   1.551
    2PRO      O   23   5.513   3.987   1.444
    3GLY      N   24   5.395   3.923   1.625
    3GLY     HN   25   5.334   3.956   1.697
    3GLY     CA   26   5.405   3.781   1.601
    3GLY    HA1   27   5.371   3.763   1.500
    3GLY    HA2   28   5.352   3.728   1.679
    3GLY      C   29   5.544   3.716   1.627
    3GLY      O   30   5.650   3.776   1.628
    4ASP      N   31   5.547   3.583   1.650
    4ASP     HN   32   5.466   3.525   1.643
    4ASP     CA   33   5.682   3.527   1.669
    4ASP     HA   34   5.755   3.591   1.717
    4ASP     CB   35   5.662   3.391   1.752
    4ASP    HB1   36   5.753   3.326   1.750
    4ASP    HB2   37   5.581   3.329   1.709
    4ASP     CG   38   5.632   3.423   1.901
    4ASP    OD1   39   5.641   3.540   1.944
    4ASP    OD2   40   5.615   3.323   1.977
    4ASP      C   41   5.740   3.489   1.531
    4ASP      O   42   5.661   3.471   1.436
    5PRO      N   43   5.872   3.474   1.500
    5PRO     CD   44   5.973   3.483   1.600
    5PRO    HD1   45   5.931   3.461   1.701
    5PRO    HD2   46   6.020   3.584   1.592
    5PRO     CA   47   5.923   3.396   1.386
    5PRO     HA   48   5.906   3.459   1.299
    5PRO     CB   49   6.069   3.366   1.419
    5PRO    HB1   50   6.132   3.451   1.383
    5PRO    HB2   51   6.103   3.267   1.381
    5PRO     CG   52   6.071   3.370   1.567
    5PRO    HG1   53   6.016   3.280   1.603
    5PRO    HG2   54   6.173   3.373   1.610
    5PRO      C   55   5.846   3.270   1.354
    5PRO      O   56   5.830   3.186   1.446
    6GLY      N   57   5.799   3.255   1.233
    6GLY     HN   58   5.811   3.324   1.162
    6GLY     CA   59   5.707   3.147   1.188
    6GLY    HA1   60   5.650   3.108   1.271
    6GLY    HA2   61   5.754   3.079   1.119
    6GLY      C   62   5.592   3.202   1.099
    6GLY      O   63   5.548   3.311   1.119
    7SER      N   64   5.542   3.117   1.014
    7SER     HN   65   5.586   3.033   0.983
    7SER     CA   66   5.417   3.143   0.945
    7SER     HA   67   5.429   3.238   0.894
    7SER     CB   68   5.403   3.027   0.844
    7SER    HB1   69   5.308   3.049   0.790
    7SER    HB2   70   5.379   2.928   0.890
    7SER     OG   71   5.507   3.020   0.749
    7SER    HG1   72   5.480   3.062   0.667
    7SER      C   73   5.291   3.135   1.032
    7SER      O   74   5.249   3.025   1.062
    8GLY      N   75   5.229   3.247   1.067
    8GLY     HN   76   5.257   3.342   1.052
    8GLY     CA   77   5.102   3.243   1.140
    8GLY    HA1   78   5.066   3.344   1.153
    8GLY    HA2   79   5.119   3.204   1.239
    8GLY      C   80   4.993   3.155   1.083
    8GLY      O   81   4.977   3.147   0.961
    9ASN      N   82   4.909   3.087   1.164
    9ASN     HN   83   4.926   3.088   1.263
    9ASN     CA   84   4.807   2.996   1.123
    9ASN     HA   85   4.816   2.965   1.020
    9ASN     CB   86   4.819   2.869   1.204
    9ASN    HB1   87   4.796   2.887   1.311
    9ASN    HB2   88   4.921   2.826   1.196
    9ASN     CG   89   4.723   2.764   1.156
    9ASN    OD1   90   4.709   2.749   1.031
    9ASN    ND2   91   4.643   2.698   1.244
    9ASN   HD21   92   4.549   2.679   1.216
    9ASN   HD22   93   4.651   2.713   1.343
    9ASN      C   94   4.673   3.077   1.155
    9ASN      O   95   4.651   3.112   1.271
   10PRO      N   96   4.583   3.104   1.059
   10PRO     CD   97   4.598   3.064   0.916
   10PRO    HD1   98   4.591   2.953   0.912
   10PRO    HD2   99   4.696   3.091   0.871
   10PRO     CA  100   4.444   3.147   1.082
   10PRO     HA  101   4.447   3.251   1.113
   10PRO     CB  102   4.370   3.123   0.944
   10PRO    HB1  103   4.283   3.187   0.918
   10PRO    HB2  104   4.331   3.019   0.938
   10PRO     CG  105   4.486   3.134   0.843
   10PRO    HG1  106   4.470   3.079   0.749
   10PRO    HG2  107   4.499   3.243   0.823
   10PRO      C  108   4.371   3.058   1.189
   10PRO      O  109   4.384   2.934   1.185
   11GLY      N  110   4.297   3.123   1.279
   11GLY     HN  111   4.293   3.223   1.279
   11GLY     CA  112   4.217   3.049   1.374
   11GLY    HA1  113   4.208   3.120   1.456
   11GLY    HA2  114   4.268   2.960   1.409
   11GLY      C  115   4.086   3.009   1.317
   11GLY      O  116   4.042   3.056   1.211
   12SER      N  117   4.014   2.940   1.403
   12SER     HN  118   4.060   2.921   1.490
   12SER     CA  119   3.875   2.904   1.376
   12SER     HA  120   3.846   2.918   1.273
   12SER     CB  121   3.848   2.750   1.394
   12SER    HB1  122   3.917   2.694   1.327
   12SER    HB2  123   3.744   2.723   1.367
   12SER     OG  124   3.880   2.710   1.531
   12SER    HG1  125   3.940   2.635   1.522
   12SER      C  126   3.776   2.961   1.471
   12SER      O  127   3.657   2.963   1.455
   13GLY      N  128   3.833   3.032   1.573
   13GLY     HN  129   3.931   3.050   1.579
   13GLY     CA  130   3.753   3.093   1.688
   13GLY    HA1  131   3.718   3.191   1.658
   13GLY    HA2  132   3.831   3.105   1.761
   13GLY      C  133   3.640   3.015   1.754
   13GLY      O  134   3.643   2.896   1.768
   14ASP      N  135   3.547   3.096   1.807
   14ASP     HN  136   3.559   3.195   1.801
   14ASP     CA  137   3.425   3.044   1.872
   14ASP     HA  138   3.453   2.971   1.946
   14ASP     CB  139   3.345   3.158   1.951
   14ASP    HB1  140   3.247   3.122   1.990
   14ASP    HB2  141   3.322   3.244   1.884
   14ASP     CG  142   3.423   3.203   2.073
   14ASP    OD1  143   3.420   3.331   2.104
   14ASP    OD2  144   3.466   3.117   2.153
   14ASP      C  145   3.332   2.981   1.766
   14ASP      O  146   3.311   3.044   1.660
   15PRO      N  147   3.270   2.866   1.794
   15PRO     CD  148   3.323   2.763   1.880
   15PRO    HD1  149   3.329   2.794   1.987
   15PRO    HD2  150   3.429   2.744   1.852
   15PRO     CA  151   3.164   2.818   1.708
   15PRO     HA  152   3.171   2.836   1.601
   15PRO     CB  153   3.159   2.667   1.725
   15PRO    HB1  154   3.208   2.612   1.642
   15PRO    HB2  155   3.055   2.628   1.733
   15PRO     CG  156   3.242   2.638   1.853
   15PRO    HG1  157   3.159   2.631   1.928
   15PRO    HG2  158   3.297   2.541   1.845
   15PRO      C  159   3.027   2.884   1.736
   15PRO    OT1  160   2.983   2.880   1.854
   15PRO    OT2  161   2.963   2.942   1.646
   16SOD    SOD  162   3.893   5.143   0.552
   17SOD    SOD  163   1.010   3.026   1.048
   18SOD    SOD  164   3.380   6.794   3.706
   19SOD    SOD  165   7.281   5.398   4.019
   20SOD    SOD  166   2.058   1.926   3.365
   21SOD    SOD  167   6.513   0.858   5.323
   22SOD    SOD  168   4.185   4.917   4.215
   23SOD    SOD  169   2.148   7.463   4.269
   24SOD    SOD  170   6.669   2.403   6.731
   25SOD    SOD  171   5.633   6.677   5.880
   26SOD    SOD  172   2.321   3.780   4.852
   27SOD    SOD  173   0.153   4.554   2.339
   28SOD    SOD  174   7.239   0.639   4.607
   29SOD    SOD  175   4.449   0.310   2.063
   30SOD    SOD  176   7.604   7.748   5.840
   31SOD    SOD  177   3.732   2.690   1.733
   32SOD    SOD  178   5.482   2.281   4.466
   33SOD    SOD  179   8.018   5.273   2.001
   34SOD    SOD  180   8.020   5.405   6.040
   35SOD    SOD  181   7.797   5.541   1.239
   36SOD    SOD  182   5.854   1.875   6.732
   37SOD    SOD  183   1.599   4.251   3.875
   38SOD    SOD  184   7.449   3.146   4.789
   39SOD    SOD  185   5.087   3.710   4.082
   40SOD    SOD  186   6.135   6.996   0.818
   41SOD    SOD  187   3.017   6.541   2.081
   42SOD    SOD  188   6.602   5.660   3.344
   43SOD    SOD  189   6.279   3.804   4.546
   44SOD    SOD  190   8.279   2.125   6.351
   45SOD    SOD  191   2.594   2.879   1.106
   46SOD    SOD  192   4.778   7.270   0.066
   47SOD    SOD  193   4.106   4.602   2.658
   48SOD    SOD  194   1.986   0.586   4.053
   49SOD    SOD  195   7.912   1.389   0.933
   50SOD    SOD  196   5.359   4.770   2.839
   51SOD    SOD  197   5.895   3.670   0.895
   52SOD    SOD  198   5.319   7.201   0.490
   53SOD    SOD  199   5.175   1.503   1.122
   54SOD    SOD  200   0.081   6.314   2.027
   55SOD    SOD  201   0.808   7.347   3.488
   56SOD    SOD  202   1.521   2.645   5.665
   57SOD    SOD  203   7.725   0.688   5.826
   58SOD    SOD  204   4.778   3.062   6.149
   59SOD    SOD  205   3.099   4.341   3.202
   60CLA    CLA  206   3.251   1.386   3.342
   61CLA    CLA  207   2.462   7.352   3.828
   62CLA    CLA  208   8.104   2.463   6.647
   63CLA    CLA  209   3.253   1.745   1.798
   64CLA    CLA  210   0.806   6.584   0.146
   65CLA    CLA  211   8.232   4.780   4.765
   66CLA    CLA  212   0.353   7.133   1.265
   67CLA    CLA  213   3.860   6.924   3.560
   68CLA    CLA  214   5.014   4.782   4.456
   69CLA    CLA  215   1.391   5.198   1.168
   70CLA    CLA  216   1.018   2.664   4.725
   71CLA    CLA  217   3.356   6.590   5.822
   72CLA    CLA  218   6.714   0.830   6.388
   73CLA    CLA  219   7.838   5.091   1.580
   74CLA    CLA  220   7.759   5.164   5.391
   75CLA    CLA  221   7.614   4.179   0.731
   76CLA    CLA  222   3.455   0.591   5.261
   77CLA    CLA  223   5.838   7.481   1.759
   78CLA    CLA  224   2.949   1.974   5.522
   79CLA    CLA  225   4.068   3.500   0.276
   80CLA    CLA  226   1.843   1.357   1.114
   81CLA    CLA  227   3.835   0.987   3.688
   82CLA    CLA  228   0.621   3.513   4.437
   83CLA    CLA  229   7.430   5.820   6.699
   84CLA    CLA  230   7.040   5.453   4.458
   85CLA    CLA  231   5.863   4.689   2.035
   86CLA    CLA  232   6.850   7.599   4.541
   87CLA    CLA  233   1.904   6.950   1.745
   88CLA    CLA  234   7.837   5.103   3.038
   89CLA    CLA  235   4.774   0.050   3.955
   90CLA    CLA  236   7.319   5.688   3.559
   91CLA    CLA  237   7.378   5.227   1.663
   92CLA    CLA  238   1.757   1.796   3.020
   93CLA    CLA  239   7.384   3.908   1.557
   94CLA    CLA  240   3.477   2.561   3.681
   95CLA    CLA  241   3.927   4.865   4.135
   96CLA    CLA  242   5.839   0.866   4.939
   97CLA    CLA  243   7.640   1.475   1.348
   98CLA    CLA  244   5.878   3.559   2.659
   99CLA    CLA  245   3.073   5.676   4.954
  100CLA    CLA  246   3.128   5.206   5.173
  101CLA    CLA  247   5.158   2.461   4.878
  102TIP3   OH2  248   1.871   3.592   4.728
  102TIP3    H1  249   1.778   3.609   4.738
  102TIP3    H2  250   1.880   3.498   4.746
  103TIP3   OH2  251   6.267   3.411   5.127
  103TIP3    H1  252   6.264   3.316   5.123
  103TIP3    H2  253   6.176   3.437   5.142
  104TIP3   OH2  254   7.704   0.477   6.356
  104TIP3    H1  255   7.783   0.529   6.340
  104TIP3    H2  256   7.727   0.421   6.431
  105TIP3   OH2  257   2.488   4.981   5.430
  105TIP3    H1  258   2.546   4.965   5.355
  105TIP3    H2  259   2.454   5.069   5.414
  106TIP3   OH2  260   5.009   3.763   1.280
  106TIP3    H1  261   5.017   3.706   1.356
  106TIP3    H2  262   5.043   3.712   1.206
  107TIP3   OH2  263   3.991   6.351   1.600
  107TIP3    H1  264   4.020   6.344   1.691
  107TIP3    H2  265   4.070   6.334   1.548
  108TIP3   OH2  266   0.102   2.896   5.040
  108TIP3    H1  267   0.086   2.931   4.953
  108TIP3    H2  268   0.082   2.969   5.099
  109TIP3   OH2  269   1.786   3.902   0.029
  109TIP3    H1  270   1.836   3.944   0.099
  109TIP3    H2  271   1.781   3.810   0.054
  110TIP3   OH2  272   2.721   0.326   3.568
  110TIP3    H1  273   2.655   0.385   3.605
  110TIP3    H2  274   2.684   0.296   3.486
  111TIP3   OH2  275   2.278   3.800   0.861
  111TIP3    H1  276   2.269   3.798   0.766
  111TIP3    H2  277   2.199   3.758   0.894
  112TIP3   OH2  278   5.827   0.558   2.936
  112TIP3    H1  279   5.852   0.509   3.014
  112TIP3    H2  280   5.738   0.527   2.916
  113TIP3   OH2  281   7.949   1.520   5.181
  113TIP3    H1  282   7.974   1.560   5.264
  113TIP3    H2  283   7.979   1.430   5.187
  114TIP3   OH2  284   6.781   3.752   5.055
  114TIP3    H1  285   6.744   3.666   5.073
  114TIP3    H2  286   6.853   3.734   4.993
  115TIP3   OH2  287   1.929   4.250   0.477
  115TIP3    H1  288   1.834   4.241   0.471
  115TIP3    H2  289   1.944   4.345   0.476
  116TIP3   OH2  290   6.796   3.423   5.368
  116TIP3    H1  291   6.825   3.334   5.385
  116TIP3    H2  292   6.704   3.425   5.394
  117TIP3   OH2  293   3.336   1.535   3.864
  117TIP3    H1  294   3.320   1.536   3.770
  117TIP3    H2  295   3.248   1.532   3.903
  118TIP3   OH2  296   5.465   0.829   4.153
  118TIP3    H1  297   5.533   0.893   4.132
  118TIP3    H2  298   5.490   0.751   4.104
  119TIP3   OH2  299   7.794   6.853   3.198
  119TIP3    H1  300   7.881   6.857   3.160
  119TIP3    H2  301   7.798   6.781   3.261
  120TIP3   OH2  302   4.149   4.085   2.190
  120TIP3    H1  303   4.116   3.995   2.193
  120TIP3    H2  304   4.231   4.082   2.239
  121TIP3   OH2  305   2.365   6.617   1.050
  121TIP3    H1  306   2.338   6.673   1.122
  121TIP3    H2  307   2.455   6.643   1.031
  122TIP3   OH2  308   0.031   5.977   0.638
  122TIP3    H1  309   0.026   6.072   0.648
  122TIP3    H2  310   0.098   5.950   0.700
  123TIP3   OH2  311   4.319   0.790   2.756
  123TIP3    H1  312   4.355   0.794   2.667
  123TIP3    H2  313   4.352   0.707   2.791
  124TIP3   OH2  314   1.510   4.427   0.412
  124TIP3    H1  315   1.422   4.449   0.384
  124TIP3    H2  316   1.549   4.380   0.339
  125TIP3   OH2  317   3.478   4.331   3.519
  125TIP3    H1  318   3.543   4.399   3.504
  125TIP3    H2  319   3.394   4.375   3.510
  126TIP3   OH2  320   5.618   6.964   6.782
  126TIP3    H1  321   5.660   7.000   6.860
  126TIP3    H2  322   5.681   6.980   6.711
  127TIP3   OH2  323   7.122   4.837   1.089
  127TIP3    H1  324   7.192   4.822   1.025
  127TIP3    H2  325   7.112   4.753   1.134
  128TIP3   OH2  326   1.608   7.033   2.838
  128TIP3    H1  327   1.525   7.065   2.873
  128TIP3    H2  328   1.592   6.941   2.817
  129TIP3   OH2  329   0.907   7.173   6.385
  129TIP3    H1  330   0.992   7.190   6.426
  129TIP3    H2  331   0.926   7.113   6.313
  130TIP3   OH2  332   1.092   2.376   0.083
  130TIP3    H1  333   1.014   2.394   0.030
  130TIP3    H2  334   1.164   2.374   0.020
  131TIP3   OH2  335   4.698   6.236   6.423
  131TIP3    H1  336   4.662   6.215   6.510
  131TIP3    H2  337   4.707   6.151   6.380
  132TIP3   OH2  338   7.180   2.154   5.824
  132TIP3    H1  339   7.253   2.110   5.869
  132TIP3    H2  340   7.222   2.219   5.768
  133TIP3   OH2  341   7.745   1.478   6.466
  133TIP3    H1  342   7.809   1.425   6.513
  133TIP3    H2  343   7.779   1.567   6.473
  134TIP3   OH2  344   3.818   1.969   3.349
  134TIP3    H1  345   3.903   1.939   3.381
  134TIP3    H2  346   3.840   2.040   3.289
  135TIP3   OH2  347   2.876   6.667   0.405
  135TIP3    H1  348   2.874   6.759   0.431
  135TIP3    H2  349   2.806   6.659   0.341
  136TIP3   OH2  350   0.337   7.057   1.998
  136TIP3    H1  351   0.357   7.094   1.912
  136TIP3    H2  352   0.276   7.120   2.037
  137TIP3   OH2  353   5.324   4.741   5.890
  137TIP3    H1  354   5.404   4.764   5.843
  137TIP3    H2  355   5.254   4.781   5.838
  138TIP3   OH2  356   8.004   7.562   5.239
  138TIP3    H1  357   7.963   7.479   5.215
  138TIP3    H2  358   7.931   7.617   5.266
  139TIP3   OH2  359   6.041   3.950   1.254
  139TIP3    H1  360   5.999   3.888   1.314
  139TIP3    H2  361   6.129   3.962   1.291
  140TIP3   OH2  362   6.906   4.777   2.193
  140TIP3    H1  363   6.839   4.775   2.262
  140TIP3    H2  364   6.989   4.782   2.240
  141TIP3   OH2  365   5.732   0.897   0.591
  141TIP3    H1  366   5.703   0.899   0.500
  141TIP3    H2  367   5.748   0.989   0.612
  142TIP3   OH2  368   1.745   3.129   1.371
  142TIP3    H1  369   1.756   3.208   1.319
  142TIP3    H2  370   1.720   3.160   1.458
  143TIP3   OH2  371   0.037   1.767   4.153
  143TIP3    H1  372   0.071   1.815   4.078
  143TIP3    H2  373   0.109   1.769   4.216
  144TIP3   OH2  374   2.157   0.437   4.616
  144TIP3    H1  375   2.250   0.436   4.642
  144TIP3    H2  376   2.127   0.348   4.635
  145TIP3   OH2  377   6.224   3.539   0.538
  145TIP3    H1  378   6.307   3.539   0.490
  145TIP3    H2  379   6.196   3.630   0.538
  146TIP3   OH2  380   4.853   5.601   3.747
  146TIP3    H1  381   4.838   5.647   3.664
  146TIP3    H2  382   4.768   5.563   3.768
  147TIP3   OH2  383   3.679   7.755   5.509
  147TIP3    H1  384   3.658   7.782   5.599
  147TIP3    H2  385   3.757   7.701   5.518
  148TIP3   OH2  386   0.183   2.990   3.223
  148TIP3    H1  387   0.142   2.930   3.160
  148TIP3    H2  388   0.241   2.934   3.275
  149TIP3   OH2  389   7.026   3.123   5.494
  149TIP3    H1  390   6.939   3.113   5.455
  149TIP3    H2  391   7.077   3.169   5.428
  150TIP3   OH2  392   1.887   1.320   3.313
  150TIP3    H1  393   1.907   1.288   3.225
  150TIP3    H2  394   1.824   1.256   3.347
  151TIP3   OH2  395   6.524   0.260   3.506
  151TIP3    H1  396   6.602   0.206   3.495
  151TIP3    H2  397   6.469   0.240   3.430
  152TIP3   OH2  398   5.504   1.893   4.831
  152TIP3    H1  399   5.583   1.876   4.882
  152TIP3    H2  400   5.447   1.942   4.889
  153TIP3   OH2  401   3.429   5.626   6.272
  153TIP3    H1  402   3.427   5.593   6.183
  153TIP3    H2  403   3.408   5.719   6.264
  154TIP3   OH2  404   4.074   5.431   5.040
  154TIP3    H1  405   4.005   5.497   5.052
  154TIP3    H2  406   4.123   5.461   4.964
  155TIP3   OH2  407   3.725   6.733   5.230
  155TIP3    H1  408   3.782   6.681   5.173
  155TIP3    H2  409   3.646   6.680   5.240
  156TIP3   OH2  410   8.321   6.428   6.616
  156TIP3    H1  411   8.333   6.401   6.707
  156TIP3    H2  412   8.309   6.346   6.568
  157TIP3   OH2  413   1.015   7.332   3.568
  157TIP3    H1  414   1.054   7.284   3.642
  157TIP3    H2  415   1.076   7.319   3.496
  158TIP3   OH2  416   6.732   4.151   5.636
  158TIP3    H1  417   6.667   4.221   5.628
  158TIP3    H2  418   6.778   4.170   5.718
  159TIP3   OH2  419   3.663   7.472   0.558
  159TIP3    H1  420   3.674   7.482   0.652
  159TIP3    H2  421   3.570   7.492   0.542
  160TIP3   OH2  422   2.928   6.225   0.484
  160TIP3    H1  423   2.866   6.298   0.482
  160TIP3    H2  424   3.002   6.258   0.536
  161TIP3   OH2  425   3.855   1.199   0.684
  161TIP3    H1  426   3.895   1.185   0.597
  161TIP3    H2  427   3.830   1.291   0.684
  162TIP3   OH2  428   2.354   2.024   0.082
  162TIP3    H1  429   2.437   1.977   0.079
  162TIP3    H2  430   2.370   2.105   0.034
  163TIP3   OH2  431   5.861   6.598   2.424
  163TIP3    H1  432   5.885   6.689   2.404
  163TIP3    H2  433   5.881   6.551   2.343
  164TIP3   OH2  434   0.261   5.698   5.024
  164TIP3    H1  435   0.334   5.720   5.081
  164TIP3    H2  436   0.212   5.780   5.015
  165TIP3   OH2  437   5.143   2.703   3.178
  165TIP3    H1  438   5.111   2.673   3.263
  165TIP3    H2  439   5.151   2.798   3.188
  166TIP3   OH2  440   7.469   6.778   3.335
  166TIP3    H1  441   7.425   6.817   3.412
  166TIP3    H2  442   7.550   6.828   3.326
  167TIP3   OH2  443   2.160   3.505   5.029
  167TIP3    H1  444   2.237   3.509   5.086
  167TIP3    H2  445   2.110   3.583   5.052
  168TIP3   OH2  446   0.832   2.159   2.123
  168TIP3    H1  447   0.816   2.101   2.049
  168TIP3    H2  448   0.890   2.227   2.088
  169TIP3   OH2  449   7.699   0.024   2.771
  169TIP3    H1  450   7.678   0.082   2.698
  169TIP3    H2  451   7.648  -0.055   2.755
  170TIP3   OH2  452   4.174   2.254   1.866
  170TIP3    H1  453   4.079   2.245   1.866
  170TIP3    H2  454   4.197   2.274   1.957
  171TIP3   OH2  455   6.167   1.696   6.089
  171TIP3    H1  456   6.130   1.720   6.004
  171TIP3    H2  457   6.207   1.777   6.122
  172TIP3   OH2  458   5.452   4.441   3.378
  172TIP3    H1  459   5.486   4.351   3.376
  172TIP3    H2  460   5.359   4.431   3.358
  173TIP3   OH2  461   0.061   5.163   1.837
  173TIP3    H1  462   0.119   5.094   1.869
  173TIP3    H2  463   0.097   5.187   1.751
  174TIP3   OH2  464   1.600   2.059   6.571
  174TIP3    H1  465   1.567   2.140   6.610
  174TIP3    H2  466   1.673   2.088   6.515
  175TIP3   OH2  467   2.299   0.432   4.933
  175TIP3    H1  468   2.281   0.339   4.924
  175TIP3    H2  469   2.378   0.447   4.881
  176TIP3   OH2  470   0.575   1.768   1.470
  176TIP3    H1  471   0.620   1.791   1.389
  176TIP3    H2  472   0.492   1.729   1.442
  177TIP3   OH2  473   2.827   2.422   6.091
  177TIP3    H1  474   2.773   2.403   6.168
  177TIP3    H2  475   2.765   2.457   6.027
  178TIP3   OH2  476   5.495   3.362   3.957
  178TIP3    H1  477   5.449   3.279   3.952
  178TIP3    H2  478   5.485   3.400   3.870
  179TIP3   OH2  479   3.644   6.958   0.615
  179TIP3    H1  480   3.578   6.944   0.548
  179TIP3    H2  481   3.718   6.904   0.588
  180TIP3   OH2  482   5.723   2.754   0.397
  180TIP3    H1  483   5.650   2.694   0.382
  180TIP3    H2  484   5.786   2.704   0.447
  181TIP3   OH2  485   4.640   5.204   2.340
  181TIP3    H1  486   4.657   5.296   2.319
  181TIP3    H2  487   4.679   5.155   2.268
  182TIP3   OH2  488   4.960   1.542   1.200
  182TIP3    H1  489   4.896   1.588   1.254
  182TIP3    H2  490   4.926   1.550   1.110
  183TIP3   OH2  491   1.644   0.680   0.222
  183TIP3    H1  492   1.615   0.771   0.222
  183TIP3    H2  493   1.563   0.629   0.221
  184TIP3   OH2  494   0.674   5.509   2.365
  184TIP3    H1  495   0.582   5.526   2.345
  184TIP3    H2  496   0.708   5.594   2.393
  185TIP3   OH2  497   3.450   4.072   1.103
  185TIP3    H1  498   3.545   4.069   1.111
  185TIP3    H2  499   3.421   3.986   1.136
  186TIP3   OH2  500   3.136   7.111   2.810
  186TIP3    H1  501   3.092   7.032   2.842
  186TIP3    H2  502   3.069   7.178   2.809
  187TIP3   OH2  503   0.099   7.310   3.384
  187TIP3    H1  504   0.095   7.354   3.469
  187TIP3    H2  505   0.017   7.335   3.341
  188TIP3   OH2  506   4.065   4.971   2.967
  188TIP3    H1  507   4.132   5.037   2.985
  188TIP3    H2  508   4.006   4.976   3.042
  189TIP3   OH2  509   3.912   5.198   4.079
  189TIP3    H1  510   3.952   5.113   4.060
  189TIP3    H2  511   3.857   5.182   4.155
  190TIP3   OH2  512   6.734   5.956   6.254
  190TIP3    H1  513   6.654   5.950   6.201
  190TIP3    H2  514   6.805   5.953   6.191
  191TIP3   OH2  515   2.093   5.530   0.561
  191TIP3    H1  516   2.010   5.552   0.604
  191TIP3    H2  517   2.100   5.435   0.569
  192TIP3   OH2  518   3.357   2.366   1.557
  192TIP3    H1  519   3.358   2.298   1.624
  192TIP3    H2  520   3.447   2.366   1.522
  193TIP3   OH2  521   6.272   5.898   5.269
  193TIP3    H1  522   6.282   5.991   5.288
  193TIP3    H2  523   6.352   5.873   5.222
  194TIP3   OH2  524   7.404   3.819   3.065
  194TIP3    H1  525   7.310   3.823   3.048
  194TIP3    H2  526   7.444   3.837   2.980
  195TIP3   OH2  527   2.410   3.219   0.958
  195TIP3    H1  528   2.413   3.152   1.026
  195TIP3    H2  529   2.501   3.226   0.928
  196TIP3   OH2  530   5.671   6.572   1.472
  196TIP3    H1  531   5.654   6.525   1.554
  196TIP3    H2  532   5.766   6.569   1.461
  197TIP3   OH2  533   4.559   0.526   4.477
  197TIP3    H1  534   4.639   0.501   4.432
  197TIP3    H2  535   4.535   0.448   4.528
  198TIP3   OH2  536   6.728   0.583   3.929
  198TIP3    H1  537   6.816   0.568   3.962
  198TIP3    H2  538   6.714   0.514   3.864
  199TIP3   OH2  539   6.120   6.039   1.021
  199TIP3    H1  540   6.148   6.033   0.930
  199TIP3    H2  541   6.030   6.071   1.017
  200TIP3   OH2  542   5.916   3.642   1.901
  200TIP3    H1  543   5.827   3.630   1.937
  200TIP3    H2  544   5.965   3.567   1.936
  201TIP3   OH2  545   1.827   2.011   5.882
  201TIP3    H1  546   1.798   2.092   5.923
  201TIP3    H2  547   1.895   1.977   5.941
  202TIP3   OH2  548   1.254   6.529   0.436
  202TIP3    H1  549   1.250   6.575   0.520
  202TIP3    H2  550   1.347   6.532   0.412
  203TIP3   OH2  551   6.400   6.487   3.417
  203TIP3    H1  552   6.443   6.450   3.493
  203TIP3    H2  553   6.457   6.464   3.343
  204TIP3   OH2  554   1.952   6.080   6.600
  204TIP3    H1  555   1.871   6.055   6.554
  204TIP3    H2  556   1.947   6.034   6.684
  205TIP3   OH2  557   2.556   5.747   6.201
  205TIP3    H1  558   2.525   5.657   6.191
  205TIP3    H2  559   2.477   5.800   6.200
  206TIP3   OH2  560   8.161   6.267   5.547
  206TIP3    H1  561   8.187   6.311   5.628
  206TIP3    H2  562   8.224   6.299   5.481
  207TIP3   OH2  563   5.096   1.855   5.141
  207TIP3    H1  564   5.058   1.907   5.212
  207TIP3    H2  565   5.022   1.809   5.103
  208TIP3   OH2  566   0.945   7.192   0.420
  208TIP3    H1  567   1.032   7.202   0.459
  208TIP3    H2  568   0.932   7.273   0.371
  209TIP3   OH2  569   2.321   6.866   4.674
  209TIP3    H1  570   2.381   6.940   4.681
  209TIP3    H2  571   2.290   6.869   4.584
  210TIP3   OH2  572   0.752   6.939   2.415
  210TIP3    H1  573   0.766   7.027   2.381
  210TIP3    H2  574   0.828   6.889   2.384
  211TIP3   OH2  575   4.050   4.881   1.987
  211TIP3    H1  576   4.075   4.812   2.049
  211TIP3    H2  577   4.073   4.962   2.032
  212TIP3   OH2  578   5.566   6.653   4.798
  212TIP3    H1  579   5.583   6.585   4.863
  212TIP3    H2  580   5.479   6.631   4.763
  213TIP3   OH2  581   0.999   3.806   5.841
  213TIP3    H1  582   0.922   3.860   5.862
  213TIP3    H2  583   1.024   3.766   5.924
  214TIP3   OH2  584   5.197   6.536   0.545
  214TIP3    H1  585   5.269   6.574   0.495
  214TIP3    H2  586   5.240   6.492   0.619
  215TIP3   OH2  587   0.869   2.634   2.554
  215TIP3    H1  588   0.813   2.556   2.558
  215TIP3    H2  589   0.809   2.708   2.561
  216TIP3   OH2  590   6.839   2.272   5.189
  216TIP3    H1  591   6.848   2.341   5.124
  216TIP3    H2  592   6.925   2.265   5.230
  217TIP3   OH2  593   2.044   6.169   1.366
  217TIP3    H1  594   2.131   6.132   1.353
  217TIP3    H2  595   2.043   6.247   1.311
  218TIP3   OH2  596   6.746   3.260   2.050
  218TIP3    H1  597   6.780   3.236   2.135
  218TIP3    H2  598   6.767   3.186   1.993
  219TIP3   OH2  599   5.590   5.689   1.702
  219TIP3    H1  600   5.641   5.770   1.713
  219TIP3    H2  601   5.538   5.705   1.623
  220TIP3   OH2  602   6.756   1.742   5.779
  220TIP3    H1  603   6.846   1.750   5.747
  220TIP3    H2  604   6.703   1.786   5.712
  221TIP3   OH2  605   3.253   3.623   2.362
  221TIP3    H1  606   3.261   3.531   2.336
  221TIP3    H2  607   3.164   3.632   2.394
  222TIP3   OH2  608   2.807   2.550   0.227
  222TIP3    H1  609   2.835   2.472   0.179
  222TIP3    H2  610   2.824   2.622   0.167
  223TIP3   OH2  611   2.538   0.650   6.669
  223TIP3    H1  612   2.483   0.589   6.718
  223TIP3    H2  613   2.606   0.595   6.630
  224TIP3   OH2  614   3.740   5.227   1.800
  224TIP3    H1  615   3.690   5.240   1.720
  224TIP3    H2  616   3.739   5.313   1.843
  225TIP3   OH2  617   3.185   6.591   6.409
  225TIP3    H1  618   3.234   6.615   6.330
  225TIP3    H2  619   3.183   6.672   6.461
  226TIP3   OH2  620   1.566   7.819   6.260
  226TIP3    H1  621   1.525   7.734   6.280
  226TIP3    H2  622   1.618   7.802   6.182
  227TIP3   OH2  623   0.706   0.205   3.119
  227TIP3    H1  624   0.710   0.178   3.027
  227TIP3    H2  625   0.716   0.124   3.169
  228TIP3   OH2  626   0.376   6.429   0.965
  228TIP3    H1  627   0.402   6.457   1.052
  228TIP3    H2  628   0.457   6.423   0.915
  229TIP3   OH2  629   1.824   0.884   1.929
  229TIP3    H1  630   1.824   0.790   1.945
  229TIP3    H2  631   1.913   0.904   1.899
  230TIP3   OH2  632   7.799   4.398   1.522
  230TIP3    H1  633   7.744   4.373   1.448
  230TIP3    H2  634   7.809   4.318   1.574
  231TIP3   OH2  635   3.498   5.684   3.320
  231TIP3    H1  636   3.475   5.716   3.407
  231TIP3    H2  637   3.441   5.609   3.306
  232TIP3   OH2  638   6.381   1.672   4.525
  232TIP3    H1  639   6.391   1.634   4.612
  232TIP3    H2  640   6.397   1.599   4.465
  233TIP3   OH2  641   0.878   5.808   1.370
  233TIP3    H1  642   0.936   5.741   1.407
  233TIP3    H2  643   0.920   5.891   1.394
  234TIP3   OH2  644   2.511   6.904   6.137
  234TIP3    H1  645   2.442   6.854   6.095
  234TIP3    H2  646   2.467   6.980   6.173
  235TIP3   OH2  647   2.135   4.184   4.982
  235TIP3    H1  648   2.099   4.150   4.900
  235TIP3    H2  649   2.184   4.262   4.957
  236TIP3   OH2  650   0.091   1.677   2.755
  236TIP3    H1  651   0.025   1.622   2.712
  236TIP3    H2  652   0.040   1.740   2.805
  237TIP3   OH2  653   2.915   5.383   3.065
  237TIP3    H1  654   2.858   5.437   3.119
  237TIP3    H2  655   2.975   5.342   3.127
  238TIP3   OH2  656   0.338   6.121   5.182
  238TIP3    H1  657   0.319   6.088   5.094
  238TIP3    H2  658   0.260   6.098   5.232
  239TIP3   OH2  659   1.294   4.571   1.799
  239TIP3    H1  660   1.233   4.631   1.843
  239TIP3    H2  661   1.245   4.490   1.788
  240TIP3   OH2  662   4.308   5.641   6.385
  240TIP3    H1  663   4.347   5.709   6.440
  240TIP3    H2  664   4.241   5.601   6.441
  241TIP3   OH2  665   5.563   6.053   6.437
  241TIP3    H1  666   5.631   5.997   6.400
  241TIP3    H2  667   5.491   5.994   6.459
  242TIP3   OH2  668   3.408   6.331   3.830
  242TIP3    H1  669   3.456   6.395   3.778
  242TIP3    H2  670   3.316   6.352   3.816
  243TIP3   OH2  671   1.249   1.376   4.485
  243TIP3    H1  672   1.253   1.448   4.548
  243TIP3    H2  673   1.335   1.373   4.445
  244TIP3   OH2  674   0.769   1.398   6.480
  244TIP3    H1  675   0.775   1.363   6.569
  244TIP3    H2  676   0.860   1.409   6.453
  245TIP3   OH2  677   6.737   3.380   0.242
  245TIP3    H1  678   6.709   3.466   0.272
  245TIP3    H2  679   6.824   3.368   0.281
  246TIP3   OH2  680   7.531   6.740   0.518
  246TIP3    H1  681   7.568   6.653   0.505
  246TIP3    H2  682   7.538   6.755   0.612
  247TIP3   OH2  683   5.758   0.404   4.051
  247TIP3    H1  684   5.808   0.331   4.086
  247TIP3    H2  685   5.820   0.452   3.996
  248TIP3   OH2  686   3.411   3.182   6.283
  248TIP3    H1  687   3.402   3.141   6.369
  248TIP3    H2  688   3.387   3.114   6.220
  249TIP3   OH2  689   3.291   2.402   3.046
  249TIP3    H1  690   3.227   2.433   3.109
  249TIP3    H2  691   3.240   2.375   2.970
  250TIP3   OH2  692   4.833   7.570   6.185
  250TIP3    H1  693   4.772   7.497   6.180
  250TIP3    H2  694   4.885   7.553   6.263
  251TIP3   OH2  695   5.705   6.251   5.109
  251TIP3    H1  696   5.711   6.232   5.203
  251TIP3    H2  697   5.770   6.194   5.069
  252TIP3   OH2  698   1.840   0.684   1.400
  252TIP3    H1  699   1.813   0.708   1.489
  252TIP3    H2  700   1.779   0.730   1.343
  253TIP3   OH2  701   6.107   6.936   4.330
  253TIP3    H1  702   6.140   7.005   4.272
  253TIP3    H2  703   6.177   6.871   4.333
  254TIP3   OH2  704   4.192   4.670   3.614
  254TIP3    H1  705   4.284   4.645   3.621
  254TIP3    H2  706   4.169   4.703   3.701
  255TIP3   OH2  707   7.652   1.117   4.068
  255TIP3    H1  708   7.673   1.205   4.101
  255TIP3    H2  709   7.643   1.128   3.974
  256TIP3   OH2  710   2.021   0.455   1.357
  256TIP3    H1  711   1.940   0.505   1.359
  256TIP3    H2  712   2.066   0.480   1.438
  257TIP3   OH2  713   3.015   2.719   5.381
  257TIP3    H1  714   3.102   2.690   5.408
  257TIP3    H2  715   2.993   2.662   5.306
  258TIP3   OH2  716   3.728   5.460   1.954
  258TIP3    H1  717   3.664   5.527   1.977
  258TIP3    H2  718   3.811   5.507   1.951
  259TIP3   OH2  719   5.082   3.157   2.113
  259TIP3    H1  720   5.084   3.248   2.144
  259TIP3    H2  721   5.174   3.130   2.114
  260TIP3   OH2  722   2.374   1.504   3.356
  260TIP3    H1  723   2.438   1.454   3.305
  260TIP3    H2  724   2.292   1.494   3.308
  261TIP3   OH2  725   3.973   2.228   3.862
  261TIP3    H1  726   3.974   2.279   3.780
  261TIP3    H2  727   3.933   2.145   3.838
  262TIP3   OH2  728   4.888   6.621   4.291
  262TIP3    H1  729   4.818   6.644   4.352
  262TIP3    H2  730   4.860   6.537   4.253
  263TIP3   OH2  731   0.361   2.862   4.715
  263TIP3    H1  732   0.431   2.857   4.650
  263TIP3    H2  733   0.280   2.849   4.665
  264TIP3   OH2  734   7.928   0.567   1.957
  264TIP3    H1  735   7.979   0.486   1.963
  264TIP3    H2  736   7.890   0.578   2.044
  265TIP3   OH2  737   2.458   5.558   5.575
  265TIP3    H1  738   2.539   5.514   5.549
  265TIP3    H2  739   2.421   5.503   5.644
  266TIP3   OH2  740   6.786   0.985   6.645
  266TIP3    H1  741   6.874   1.003   6.613
  266TIP3    H2  742   6.745   0.933   6.576
  267TIP3   OH2  743   6.377   1.164   3.858
  267TIP3    H1  744   6.419   1.125   3.935
  267TIP3    H2  745   6.290   1.124   3.855
  268TIP3   OH2  746   7.868   2.039   3.758
  268TIP3    H1  747   7.963   2.052   3.761
  268TIP3    H2  748   7.839   2.053   3.848
  269TIP3   OH2  749   3.108   4.855   0.059
  269TIP3    H1  750   3.071   4.866   0.146
  269TIP3    H2  751   3.182   4.795   0.071
  270TIP3   OH2  752   1.590   7.272   3.897
  270TIP3    H1  753   1.531   7.290   3.823
  270TIP3    H2  754   1.622   7.183   3.882
  271TIP3   OH2  755   3.161   3.912   3.630
  271TIP3    H1  756   3.082   3.923   3.683
  271TIP3    H2  757   3.218   3.985   3.657
  272TIP3   OH2  758   4.478   6.826   5.770
  272TIP3    H1  759   4.509   6.905   5.815
  272TIP3    H2  760   4.451   6.857   5.684
  273TIP3   OH2  761   7.782   0.301   2.290
  273TIP3    H1  762   7.723   0.352   2.346
  273TIP3    H2  763   7.844   0.365   2.256
  274TIP3   OH2  764   6.382   2.621   0.201
  274TIP3    H1  765   6.421   2.586   0.282
  274TIP3    H2  766   6.395   2.552   0.137
  275TIP3   OH2  767   3.181   6.192   0.221
  275TIP3    H1  768   3.184   6.191   0.316
  275TIP3    H2  769   3.273   6.204   0.194
  276TIP3   OH2  770   1.636   6.440   2.195
  276TIP3    H1  771   1.678   6.359   2.164
  276TIP3    H2  772   1.612   6.421   2.286
  277TIP3   OH2  773   7.038   7.230   4.380
  277TIP3    H1  774   7.078   7.154   4.421
  277TIP3    H2  775   6.994   7.195   4.303
  278TIP3   OH2  776   7.643   6.394   0.928
  278TIP3    H1  777   7.581   6.326   0.903
  278TIP3    H2  778   7.700   6.352   0.993
  279TIP3   OH2  779   2.525   5.827   6.675
  279TIP3    H1  780   2.615   5.837   6.706
  279TIP3    H2  781   2.525   5.864   6.587
  280TIP3   OH2  782   3.362   1.855   6.761
  280TIP3    H1  783   3.425   1.852   6.689
  280TIP3    H2  784   3.278   1.833   6.721
  281TIP3   OH2  785   2.026   4.660   6.103
  281TIP3    H1  786   2.063   4.573   6.084
  281TIP3    H2  787   2.084   4.696   6.170
  282TIP3   OH2  788   7.114   6.530   6.203
  282TIP3    H1  789   7.048   6.532   6.273
  282TIP3    H2  790   7.185   6.585   6.236
  283TIP3   OH2  791   5.532   4.276   3.752
  283TIP3    H1  792   5.539   4.355   3.805
  283TIP3    H2  793   5.440   4.270   3.729
  284TIP3   OH2  794   0.283   3.558   3.914
  284TIP3    H1  795   0.235   3.528   3.836
  284TIP3    H2  796   0.217   3.605   3.965
  285TIP3   OH2  797   1.375   7.646   3.949
  285TIP3    H1  798   1.358   7.737   3.974
  285TIP3    H2  799   1.307   7.626   3.886
  286TIP3   OH2  800   2.362   5.390   3.132
  286TIP3    H1  801   2.425   5.353   3.194
  286TIP3    H2  802   2.298   5.321   3.118
  287TIP3   OH2  803   0.686  -0.017   5.487
  287TIP3    H1  804   0.621   0.050   5.508
  287TIP3    H2  805   0.662  -0.092   5.541
  288TIP3   OH2  806   8.144   7.327   6.548
  288TIP3    H1  807   8.068   7.382   6.526
  288TIP3    H2  808   8.177   7.363   6.630
  289TIP3   OH2  809   1.333   1.688   2.625
  289TIP3    H1  810   1.371   1.647   2.548
  289TIP3    H2  811   1.372   1.776   2.627
  290TIP3   OH2  812   0.853   3.824   2.678
  290TIP3    H1  813   0.847   3.829   2.583
  290TIP3    H2  814   0.946   3.809   2.695
  291TIP3   OH2  815   2.784   5.354   1.071
  291TIP3    H1  816   2.837   5.339   1.150
  291TIP3    H2  817   2.741   5.438   1.088
  292TIP3   OH2  818   1.199   7.320   5.268
  292TIP3    H1  819   1.211   7.357   5.355
  292TIP3    H2  820   1.283   7.333   5.224
  293TIP3   OH2  821   8.174   5.863   0.297
  293TIP3    H1  822   8.126   5.865   0.213
  293TIP3    H2  823   8.189   5.955   0.318
  294TIP3   OH2  824   1.204  -0.024   4.120
  294TIP3    H1  825   1.238   0.003   4.205
  294TIP3    H2  826   1.273   0.001   4.058
  295TIP3   OH2  827   3.531   6.244   3.515
  295TIP3    H1  828   3.448   6.288   3.496
  295TIP3    H2  829   3.533   6.169   3.455
  296TIP3   OH2  830   6.478   4.343   3.881
  296TIP3    H1  831   6.490   4.392   3.800
  296TIP3    H2  832   6.565   4.344   3.922
  297TIP3   OH2  833   5.828   6.584   4.046
  297TIP3    H1  834   5.785   6.595   3.962
  297TIP3    H2  835   5.898   6.650   4.045
  298TIP3   OH2  836   3.791   4.092   3.624
  298TIP3    H1  837   3.868   4.037   3.638
  298TIP3    H2  838   3.791   4.112   3.531
  299TIP3   OH2  839   1.869   3.024   3.973
  299TIP3    H1  840   1.906   2.999   3.889
  299TIP3    H2  841   1.942   3.018   4.035
  300TIP3   OH2  842   6.472   2.153   1.491
  300TIP3    H1  843   6.431   2.101   1.559
  300TIP3    H2  844   6.535   2.094   1.450
  301TIP3   OH2  845   0.853   1.955   3.749
  301TIP3    H1  846   0.932   1.974   3.800
  301TIP3    H2  847   0.881   1.965   3.658
  302TIP3   OH2  848   7.474   4.062   1.843
  302TIP3    H1  849   7.386   4.080   1.875
  302TIP3    H2  850   7.463   3.988   1.783
  303TIP3   OH2  851   6.280   2.651   1.371
  303TIP3    H1  852   6.322   2.692   1.296
  303TIP3    H2  853   6.196   2.618   1.336
  304TIP3   OH2  854   3.030   2.557   6.674
  304TIP3    H1  855   3.117   2.564   6.712
  304TIP3    H2  856   3.044   2.511   6.591
  305TIP3   OH2  857   6.500   6.252   5.410
  305TIP3    H1  858   6.555   6.197   5.466
  305TIP3    H2  859   6.561   6.313   5.369
  306TIP3   OH2  860   2.958   1.045   0.482
  306TIP3    H1  861   2.961   0.956   0.516
  306TIP3    H2  862   2.865   1.066   0.477
  307TIP3   OH2  863   3.983   2.201   4.736
  307TIP3    H1  864   4.059   2.257   4.716
  307TIP3    H2  865   3.967   2.152   4.656
  308TIP3   OH2  866   4.284   7.552   3.633
  308TIP3    H1  867   4.373   7.518   3.622
  308TIP3    H2  868   4.258   7.524   3.721
  309TIP3   OH2  869   7.800   1.414   3.582
  309TIP3    H1  870   7.846   1.331   3.577
  309TIP3    H2  871   7.707   1.391   3.583
  310TIP3   OH2  872   7.531   6.799   5.376
  310TIP3    H1  873   7.440   6.791   5.406
  310TIP3    H2  874   7.525   6.807   5.281
  311TIP3   OH2  875   6.228   6.493   0.735
  311TIP3    H1  876   6.247   6.542   0.656
  311TIP3    H2  877   6.313   6.477   0.775
  312TIP3   OH2  878   3.290   0.096   2.664
  312TIP3    H1  879   3.271   0.086   2.571
  312TIP3    H2  880   3.318   0.187   2.673
  313TIP3   OH2  881   0.788   5.722   3.751
  313TIP3    H1  882   0.759   5.678   3.830
  313TIP3    H2  883   0.710   5.768   3.719
  314TIP3   OH2  884   2.212   7.180   3.765
  314TIP3    H1  885   2.205   7.217   3.677
  314TIP3    H2  886   2.300   7.204   3.794
  315TIP3   OH2  887   3.141   3.595   4.806
  315TIP3    H1  888   3.189   3.675   4.826
  315TIP3    H2  889   3.209   3.528   4.794
  316TIP3   OH2  890   2.827   0.340   5.307
  316TIP3    H1  891   2.799   0.276   5.242
  316TIP3    H2  892   2.753   0.400   5.316
  317TIP3   OH2  893   3.130   5.972   4.985
  317TIP3    H1  894   3.100   6.003   4.900
  317TIP3    H2  895   3.128   5.877   4.978
  318TIP3   OH2  896   7.846   5.363   6.455
  318TIP3    H1  897   7.766   5.370   6.507
  318TIP3    H2  898   7.850   5.272   6.428
  319TIP3   OH2  899   1.032   0.516   2.274
  319TIP3    H1  900   1.126   0.525   2.288
  319TIP3    H2  901   0.999   0.478   2.355
  320TIP3   OH2  902   0.097   0.616   2.603
  320TIP3    H1  903   0.113   0.708   2.623
  320TIP3    H2  904   0.002   0.607   2.602
  321TIP3   OH2  905   6.807   5.618   0.846
  321TIP3    H1  906   6.770   5.535   0.817
  321TIP3    H2  907   6.799   5.676   0.770
  322TIP3   OH2  908   2.295   1.647   4.867
  322TIP3    H1  909   2.310   1.694   4.785
  322TIP3    H2  910   2.343   1.565   4.857
  323TIP3   OH2  911   0.646   6.124   3.817
  323TIP3    H1  912   0.573   6.108   3.756
  323TIP3    H2  913   0.722   6.085   3.773
  324TIP3   OH2  914   4.767   2.073   5.407
  324TIP3    H1  915   4.803   2.066   5.319
  324TIP3    H2  916   4.840   2.054   5.465
  325TIP3   OH2  917   4.960   6.137   1.669
  325TIP3    H1  918   4.934   6.173   1.584
  325TIP3    H2  919   5.054   6.153   1.675
  326TIP3   OH2  920   0.358   2.831   3.343
  326TIP3    H1  921   0.403   2.834   3.427
  326TIP3    H2  922   0.387   2.748   3.304
  327TIP3   OH2  923   6.440   2.318   4.467
  327TIP3    H1  924   6.377   2.389   4.455
  327TIP3    H2  925   6.426   2.261   4.392
  328TIP3   OH2  926   1.595   6.975   4.385
  328TIP3    H1  927   1.652   7.040   4.427
  328TIP3    H2  928   1.640   6.892   4.399
  329TIP3   OH2  929   2.297   3.658   2.565
  329TIP3    H1  930   2.312   3.588   2.628
  329TIP3    H2  931   2.373   3.715   2.575
  330TIP3   OH2  932   1.607   1.605   4.515
  330TIP3    H1  933   1.660   1.580   4.439
  330TIP3    H2  934   1.667   1.603   4.589
  331TIP3   OH2  935   4.540   2.405   1.559
  331TIP3    H1  936   4.519   2.449   1.641
  331TIP3    H2  937   4.608   2.342   1.582
  332TIP3   OH2  938   2.817   4.767  -0.030
  332TIP3    H1  939   2.890   4.821  -0.061
  332TIP3    H2  940   2.747   4.829  -0.013
  333TIP3   OH2  941   4.685   6.454   0.629
  333TIP3    H1  942   4.640   6.538   0.628
  333TIP3    H2  943   4.778   6.476   0.640
  334TIP3   OH2  944   3.268   2.124   3.692
  334TIP3    H1  945   3.223   2.149   3.773
  334TIP3    H2  946   3.278   2.029   3.698
  335TIP3   OH2  947   7.004   6.422   5.981
  335TIP3    H1  948   6.912   6.415   6.003
  335TIP3    H2  949   7.043   6.470   6.055
  336TIP3   OH2  950   5.848   7.531   2.954
  336TIP3    H1  951   5.815   7.535   3.044
  336TIP3    H2  952   5.849   7.438   2.932
  337TIP3   OH2  953   0.729   5.573   3.011
  337TIP3    H1  954   0.729   5.668   3.021
  337TIP3    H2  955   0.690   5.557   2.925
  338TIP3   OH2  956   6.204   1.501   3.380
  338TIP3    H1  957   6.298   1.515   3.393
  338TIP3    H2  958   6.198   1.416   3.337
  339TIP3   OH2  959   6.529   5.347   2.108
  339TIP3    H1  960   6.517   5.319   2.199
  339TIP3    H2  961   6.497   5.273   2.056
  340TIP3   OH2  962   3.291   2.666   6.385
  340TIP3    H1  963   3.210   2.705   6.352
  340TIP3    H2  964   3.301   2.702   6.473
  341TIP3   OH2  965   1.216   4.494   2.729
  341TIP3    H1  966   1.272   4.561   2.767
  341TIP3    H2  967   1.253   4.478   2.642
  342TIP3   OH2  968   1.857   0.131   4.132
  342TIP3    H1  969   1.802   0.142   4.054
  342TIP3    H2  970   1.851   0.215   4.177
  343TIP3   OH2  971   2.928   2.542   3.439
  343TIP3    H1  972   2.858   2.550   3.504
  343TIP3    H2  973   2.908   2.460   3.393
  344TIP3   OH2  974   5.500   2.413   6.637
  344TIP3    H1  975   5.495   2.318   6.651
  344TIP3    H2  976   5.490   2.450   6.725
  345TIP3   OH2  977   5.799   4.602   4.465
  345TIP3    H1  978   5.706   4.591   4.442
  345TIP3    H2  979   5.839   4.519   4.439
  346TIP3   OH2  980   6.337   0.090   4.992
  346TIP3    H1  981   6.374   0.142   4.921
  346TIP3    H2  982   6.246   0.121   5.000
  347TIP3   OH2  983   4.474   2.034   4.942
  347TIP3    H1  984   4.392   1.989   4.922
  347TIP3    H2  985   4.536   1.964   4.961
  348TIP3   OH2  986   7.947   0.971   1.726
  348TIP3    H1  987   7.905   0.889   1.701
  348TIP3    H2  988   7.875   1.027   1.756
  349TIP3   OH2  989   0.345   6.593   2.743
  349TIP3    H1  990   0.320   6.505   2.716
  349TIP3    H2  991   0.345   6.644   2.661
  350TIP3   OH2  992   0.427   6.007   1.994
  350TIP3    H1  993   0.396   5.917   1.989
  350TIP3    H2  994   0.508   6.008   1.942
  351TIP3   OH2  995   4.208   3.331   6.442
  351TIP3    H1  996   4.125   3.376   6.432
  351TIP3    H2  997   4.255   3.382   6.508
  352TIP3   OH2  998   5.264   4.849   6.148
  352TIP3    H1  999   5.262   4.802   6.064
  352TIP3    H2 1000   5.262   4.942   6.123
  353TIP3   OH2 1001   6.896   4.537   0.199
  353TIP3    H1 1002   6.955   4.505   0.131
  353TIP3    H2 1003   6.822   4.476   0.198
  354TIP3   OH2 1004   0.750   7.346   1.654
  354TIP3    H1 1005   0.794   7.262   1.671
  354TIP3    H2 1006   0.685   7.353   1.724
  355TIP3   OH2 1007   5.066   5.839   6.575
  355TIP3    H1 1008   5.103   5.764   6.621
  355TIP3    H2 1009   4.994   5.869   6.631
  356TIP3   OH2 1010   6.178   3.409   2.562
  356TIP3    H1 1011   6.159   3.345   2.493
  356TIP3    H2 1012   6.093   3.441   2.590
  357TIP3   OH2 1013   3.338   2.877   5.871
  357TIP3    H1 1014   3.333   2.799   5.926
  357TIP3    H2 1015   3.288   2.855   5.792
  358TIP3   OH2 1016   7.155   2.771   6.493
  358TIP3    H1 1017   7.106   2.820   6.428
  358TIP3    H2 1018   7.106   2.783   6.574
  359TIP3   OH2 1019   4.347   2.122   5.675
  359TIP3    H1 1020   4.271   2.065   5.690
  359TIP3    H2 1021   4.405   2.103   5.749
  360TIP3   OH2 1022   4.447   6.419   4.020
  360TIP3    H1 1023   4.539   6.413   3.995
  360TIP3    H2 1024   4.405   6.462   3.946
  361TIP3   OH2 1025   2.127   6.379   2.159
  361TIP3    H1 1026   2.209   6.332   2.143
  361TIP3    H2 1027   2.085   6.330   2.229
  362TIP3   OH2 1028   1.013   0.896   2.069
  362TIP3    H1 1029   1.013   0.930   1.979
  362TIP3    H2 1030   0.988   0.971   2.123
  363TIP3   OH2 1031   7.648   2.809   1.812
  363TIP3    H1 1032   7.706   2.749   1.859
  363TIP3    H2 1033   7.565   2.805   1.860
  364TIP3   OH2 1034   7.508   6.212   3.176
  364TIP3    H1 1035   7.454   6.237   3.251
  364TIP3    H2 1036   7.562   6.140   3.208
  365TIP3   OH2 1037   3.242   0.937   4.722
  365TIP3    H1 1038   3.169   0.882   4.748
  365TIP3    H2 1039   3.319   0.896   4.762
  366TIP3   OH2 1040   2.916   5.559   1.795
  366TIP3    H1 1041   2.912   5.608   1.713
  366TIP3    H2 1042   2.858   5.484   1.782
  367TIP3   OH2 1043   7.754   7.680   1.596
  367TIP3    H1 1044   7.714   7.725   1.521
  367TIP3    H2 1045   7.848   7.687   1.580
  368TIP3   OH2 1046   4.537   1.246   3.476
  368TIP3    H1 1047   4.616   1.218   3.523
  368TIP3    H2 1048   4.549   1.213   3.387
  369TIP3   OH2 1049   6.209   4.253   4.327
  369TIP3    H1 1050   6.179   4.344   4.330
  369TIP3    H2 1051   6.288   4.252   4.381
  370TIP3   OH2 1052   7.306   5.640   3.062
  370TIP3    H1 1053   7.368   5.683   3.122
  370TIP3    H2 1054   7.355   5.629   2.981
  371TIP3   OH2 1055   5.351   7.505   6.573
  371TIP3    H1 1056   5.264   7.483   6.606
  371TIP3    H2 1057   5.409   7.442   6.615
  372TIP3   OH2 1058   2.440   1.517   3.740
  372TIP3    H1 1059   2.439   1.507   3.835
  372TIP3    H2 1060   2.465   1.431   3.707
  373TIP3   OH2 1061   4.161   1.095   0.718
  373TIP3    H1 1062   4.220   1.168   0.702
  373TIP3    H2 1063   4.084   1.134   0.759
  374TIP3   OH2 1064   5.746   5.233   4.305
  374TIP3    H1 1065   5.743   5.211   4.212
  374TIP3    H2 1066   5.727   5.150   4.350
  375TIP3   OH2 1067   7.202   5.706   4.765
  375TIP3    H1 1068   7.145   5.783   4.756
  375TIP3    H2 1069   7.282   5.740   4.805
  376TIP3   OH2 1070   6.220   4.978   0.759
  376TIP3    H1 1071   6.174   4.955   0.678
  376TIP3    H2 1072   6.181   4.920   0.825
  377TIP3   OH2 1073   7.893   0.468   2.606
  377TIP3    H1 1074   7.833   0.475   2.680
  377TIP3    H2 1075   7.838   0.436   2.534
  378TIP3   OH2 1076   3.369   7.294   0.478
  378TIP3    H1 1077   3.336   7.219   0.527
  378TIP3    H2 1078   3.446   7.261   0.433
  379TIP3   OH2 1079   1.474   0.673   1.321
  379TIP3    H1 1080   1.536   0.726   1.271
  379TIP3    H2 1081   1.388   0.697   1.286
  380TIP3   OH2 1082   2.528   7.536   1.780
  380TIP3    H1 1083   2.520   7.630   1.795
  380TIP3    H2 1084   2.440   7.501   1.791
  381TIP3   OH2 1085   5.388   2.475   2.013
  381TIP3    H1 1086   5.376   2.542   2.080
  381TIP3    H2 1087   5.479   2.450   2.021
  382TIP3   OH2 1088   2.673   4.719   5.784
  382TIP3    H1 1089   2.604   4.739   5.720
  382TIP3    H2 1090   2.684   4.624   5.777
  383TIP3   OH2 1091   2.493   0.537   3.540
  383TIP3    H1 1092   2.412   0.552   3.492
  383TIP3    H2 1093   2.554   0.603   3.507
  384TIP3   OH2 1094   0.815   3.201   1.470
  384TIP3    H1 1095   0.721   3.199   1.449
  384TIP3    H2 1096   0.823   3.273   1.533
  385TIP3   OH2 1097   7.790   2.984   6.521
  385TIP3    H1 1098   7.767   3.003   6.612
  385TIP3    H2 1099   7.736   3.043   6.469
  386TIP3   OH2 1100   7.724   1.280   3.032
  386TIP3    H1 1101   7.710   1.372   3.053
  386TIP3    H2 1102   7.703   1.233   3.113
  387TIP3   OH2 1103   0.237   7.637   5.582
  387TIP3    H1 1104   0.187   7.671   5.657
  387TIP3    H2 1105   0.320   7.607   5.620
  388TIP3   OH2 1106   4.870   0.180   4.234
  388TIP3    H1 1107   4.841   0.139   4.152
  388TIP3    H2 1108   4.791   0.187   4.286
  389TIP3   OH2 1109   1.646   0.938   3.858
  389TIP3    H1 1110   1.631   0.892   3.775
  389TIP3    H2 1111   1.721   0.893   3.897
  390TIP3   OH2 1112   0.082   3.046   4.526
  390TIP3    H1 1113   0.094   2.951   4.523
  390TIP3    H2 1114   0.165   3.082   4.494
  391TIP3   OH2 1115   2.458   1.238   6.729
  391TIP3    H1 1116   2.486   1.329   6.718
  391TIP3    H2 1117   2.416   1.216   6.646
  392TIP3   OH2 1118   6.189   1.418   6.556
  392TIP3    H1 1119   6.235   1.338   6.532
  392TIP3    H2 1120   6.204   1.477   6.483
  393TIP3   OH2 1121   6.243   6.276   6.077
  393TIP3    H1 1122   6.153   6.255   6.103
  393TIP3    H2 1123   6.283   6.310   6.156
  394TIP3   OH2 1124   6.620   5.418   0.840
  394TIP3    H1 1125   6.562   5.373   0.902
  394TIP3    H2 1126   6.661   5.347   0.791
  395TIP3   OH2 1127   4.308   3.546   3.445
  395TIP3    H1 1128   4.263   3.512   3.368
  395TIP3    H2 1129   4.343   3.468   3.488
  396TIP3   OH2 1130   1.863   6.751   1.497
  396TIP3    H1 1131   1.768   6.739   1.494
  396TIP3    H2 1132   1.877   6.813   1.569
  397TIP3   OH2 1133   8.202   5.482   1.589
  397TIP3    H1 1134   8.211   5.411   1.526
  397TIP3    H2 1135   8.280   5.535   1.578
  398TIP3   OH2 1136   3.446   7.571   6.614
  398TIP3    H1 1137   3.400   7.588   6.531
  398TIP3    H2 1138   3.494   7.490   6.598
  399TIP3   OH2 1139   1.134   2.319   1.755
  399TIP3    H1 1140   1.123   2.405   1.795
  399TIP3    H2 1141   1.214   2.284   1.795
  400TIP3   OH2 1142   6.202   4.206   1.093
  400TIP3    H1 1143   6.265   4.245   1.153
  400TIP3    H2 1144   6.238   4.120   1.072
  401TIP3   OH2 1145   7.191   6.611   5.550
  401TIP3    H1 1146   7.156   6.552   5.618
  401TIP3    H2 1147   7.116   6.627   5.493
  402TIP3   OH2 1148   5.671   5.895   4.075
  402TIP3    H1 1149   5.737   5.840   4.117
  402TIP3    H2 1150   5.688   5.885   3.981
  403TIP3   OH2 1151   0.775   6.580   1.726
  403TIP3    H1 1152   0.708   6.647   1.713
  403TIP3    H2 1153   0.851   6.612   1.677
  404TIP3   OH2 1154   3.965   6.296   2.167
  404TIP3    H1 1155   3.954   6.335   2.253
  404TIP3    H2 1156   4.057   6.271   2.164
  405TIP3   OH2 1157   5.564   3.352   5.116
  405TIP3    H1 1158   5.550   3.265   5.078
  405TIP3    H2 1159   5.659   3.362   5.117
  406TIP3   OH2 1160   5.121   1.304   0.726
  406TIP3    H1 1161   5.138   1.350   0.643
  406TIP3    H2 1162   5.073   1.226   0.701
  407TIP3   OH2 1163   5.311   1.994   5.012
  407TIP3    H1 1164   5.231   1.943   5.001
  407TIP3    H2 1165   5.327   1.993   5.107
  408TIP3   OH2 1166   0.090   6.931   2.271
  408TIP3    H1 1167   0.088   6.895   2.182
  408TIP3    H2 1168   0.029   7.005   2.269
  409TIP3   OH2 1169   6.838   7.524   6.282
  409TIP3    H1 1170   6.826   7.455   6.218
  409TIP3    H2 1171   6.875   7.479   6.359
  410TIP3   OH2 1172   4.780   2.399   0.496
  410TIP3    H1 1173   4.780   2.353   0.580
  410TIP3    H2 1174   4.769   2.492   0.520
  411TIP3   OH2 1175   2.840   6.769   5.506
  411TIP3    H1 1176   2.785   6.753   5.583
  411TIP3    H2 1177   2.886   6.850   5.525
  412TIP3   OH2 1178   2.925   5.391   0.763
  412TIP3    H1 1179   3.019   5.396   0.784
  412TIP3    H2 1180   2.899   5.482   0.750
  413TIP3   OH2 1181   6.261   7.216   1.647
  413TIP3    H1 1182   6.192   7.271   1.684
  413TIP3    H2 1183   6.267   7.242   1.555
  414TIP3   OH2 1184   7.340   2.745   5.344
  414TIP3    H1 1185   7.276   2.684   5.306
  414TIP3    H2 1186   7.331   2.733   5.438
  415TIP3   OH2 1187   3.379   7.449   3.286
  415TIP3    H1 1188   3.349   7.425   3.373
  415TIP3    H2 1189   3.472   7.468   3.296
  416TIP3   OH2 1190   1.989   2.682   3.203
  416TIP3    H1 1191   1.899   2.651   3.213
  416TIP3    H2 1192   1.999   2.748   3.272
  417TIP3   OH2 1193   6.841   2.241   6.377
  417TIP3    H1 1194   6.786   2.315   6.349
  417TIP3    H2 1195   6.859   2.193   6.296
  418TIP3   OH2 1196   3.925   7.774   1.439
  418TIP3    H1 1197   3.970   7.822   1.508
  418TIP3    H2 1198   3.975   7.693   1.430
  419TIP3   OH2 1199   7.969   4.246   5.118
  419TIP3    H1 1200   8.048   4.226   5.068
  419TIP3    H2 1201   7.977   4.194   5.198
  420TIP3   OH2 1202   1.775   6.463   2.559
  420TIP3    H1 1203   1.806   6.440   2.646
  420TIP3    H2 1204   1.708   6.397   2.540
  421TIP3   OH2 1205   4.389   2.106   1.185
  421TIP3    H1 1206   4.407   2.180   1.243
  421TIP3    H2 1207   4.364   2.145   1.102
  422TIP3   OH2 1208   8.042   1.691   3.350
  422TIP3    H1 1209   8.039   1.751   3.424
  422TIP3    H2 1210   8.135   1.689   3.324
  423TIP3   OH2 1211   7.241   3.365   0.751
  423TIP3    H1 1212   7.313   3.384   0.692
  423TIP3    H2 1213   7.284   3.342   0.834
  424TIP3   OH2 1214   4.966   1.069   1.652
  424TIP3    H1 1215   4.898   1.001   1.659
  424TIP3    H2 1216   4.990   1.088   1.743
  425TIP3   OH2 1217   3.758   4.787   1.088
  425TIP3    H1 1218   3.752   4.866   1.142
  425TIP3    H2 1219   3.673   4.779   1.046
  426TIP3   OH2 1220   1.144   7.442   5.863
  426TIP3    H1 1221   1.217   7.398   5.819
  426TIP3    H2 1222   1.079   7.455   5.794
  427TIP3   OH2 1223   3.890   6.393   0.839
  427TIP3    H1 1224   3.929   6.306   0.837
  427TIP3    H2 1225   3.816   6.388   0.779
  428TIP3   OH2 1226   3.832   2.404   2.787
  428TIP3    H1 1227   3.759   2.459   2.816
  428TIP3    H2 1228   3.910   2.458   2.803
  429TIP3   OH2 1229   6.805   0.720   3.602
  429TIP3    H1 1230   6.759   0.682   3.527
  429TIP3    H2 1231   6.897   0.694   3.590
  430TIP3   OH2 1232   3.270   4.328   3.830
  430TIP3    H1 1233   3.204   4.353   3.765
  430TIP3    H2 1234   3.230   4.351   3.914
  431TIP3   OH2 1235   4.433   6.892   0.858
  431TIP3    H1 1236   4.451   6.798   0.853
  431TIP3    H2 1237   4.458   6.916   0.947
  432TIP3   OH2 1238   7.712   4.358   2.607
  432TIP3    H1 1239   7.728   4.383   2.698
  432TIP3    H2 1240   7.671   4.271   2.614
  433TIP3   OH2 1241   2.022   4.144   4.731
  433TIP3    H1 1242   1.929   4.142   4.754
  433TIP3    H2 1243   2.026   4.198   4.652
  434TIP3   OH2 1244   5.298   6.110   2.957
  434TIP3    H1 1245   5.215   6.073   2.925
  434TIP3    H2 1246   5.344   6.036   2.996
  435TIP3   OH2 1247   5.889   6.066   3.943
  435TIP3    H1 1248   5.938   6.147   3.957
  435TIP3    H2 1249   5.803   6.082   3.982
  436TIP3   OH2 1250   0.260   6.756   3.340
  436TIP3    H1 1251   0.339   6.808   3.356
  436TIP3    H2 1252   0.262   6.737   3.246
  437TIP3   OH2 1253   3.656   5.401   4.050
  437TIP3    H1 1254   3.656   5.315   4.006
  437TIP3    H2 1255   3.685   5.382   4.139
  438TIP3   OH2 1256   7.306   4.322   5.769
  438TIP3    H1 1257   7.211   4.316   5.762
  438TIP3    H2 1258   7.322   4.376   5.846
  439TIP3   OH2 1259   6.025   4.096   0.640
  439TIP3    H1 1260   6.002   4.188   0.628
  439TIP3    H2 1261   6.118   4.097   0.663
  440TIP3   OH2 1262   5.106   2.056   1.160
  440TIP3    H1 1263   5.094   2.147   1.188
  440TIP3    H2 1264   5.047   2.046   1.086
  441TIP3   OH2 1265   5.293   7.305   1.684
  441TIP3    H1 1266   5.329   7.384   1.725
  441TIP3    H2 1267   5.366   7.267   1.636
  442TIP3   OH2 1268   2.045   4.101   0.887
  442TIP3    H1 1269   1.970   4.071   0.938
  442TIP3    H2 1270   2.063   4.189   0.919
  443TIP3   OH2 1271   4.185   6.953   2.290
  443TIP3    H1 1272   4.252   6.885   2.302
  443TIP3    H2 1273   4.166   6.984   2.379
  444TIP3   OH2 1274   7.638   0.950   6.618
  444TIP3    H1 1275   7.623   0.863   6.581
  444TIP3    H2 1276   7.552   0.979   6.648
  445TIP3   OH2 1277   0.390   4.047   3.489
  445TIP3    H1 1278   0.373   4.023   3.580
  445TIP3    H2 1279   0.303   4.052   3.449
  446TIP3   OH2 1280   3.430   2.942   2.531
  446TIP3    H1 1281   3.415   3.029   2.494
  446TIP3    H2 1282   3.518   2.947   2.568
  447TIP3   OH2 1283   0.416   6.811   6.421
  447TIP3    H1 1284   0.405   6.769   6.506
  447TIP3    H2 1285   0.364   6.758   6.361
  448TIP3   OH2 1286   1.545   2.035   4.450
  448TIP3    H1 1287   1.562   1.958   4.396
  448TIP3    H2 1288   1.497   2.095   4.392
  449TIP3   OH2 1289   8.134   4.138   4.870
  449TIP3    H1 1290   8.166   4.226   4.891
  449TIP3    H2 1291   8.082   4.149   4.790
  450TIP3   OH2 1292   0.624   4.609   3.367
  450TIP3    H1 1293   0.535   4.577   3.380
  450TIP3    H2 1294   0.619   4.703   3.384
  451TIP3   OH2 1295   6.724   5.168   0.796
  451TIP3    H1 1296   6.773   5.182   0.878
  451TIP3    H2 1297   6.660   5.100   0.818
  452TIP3   OH2 1298   2.446   5.288   1.434
  452TIP3    H1 1299   2.498   5.368   1.437
  452TIP3    H2 1300   2.377   5.303   1.499
  453TIP3   OH2 1301   2.908   2.329   0.122
  453TIP3    H1 1302   2.852   2.252   0.119
  453TIP3    H2 1303   2.934   2.343   0.031
  454TIP3   OH2 1304   7.231   6.238   6.729
  454TIP3    H1 1305   7.320   6.207   6.745
  454TIP3    H2 1306   7.224   6.246   6.634
  455TIP3   OH2 1307   0.620   2.257   2.289
  455TIP3    H1 1308   0.650   2.170   2.315
  455TIP3    H2 1309   0.671   2.278   2.211
  456TIP3   OH2 1310   5.379   2.285   3.725
  456TIP3    H1 1311   5.319   2.210   3.723
  456TIP3    H2 1312   5.432   2.275   3.647
  457TIP3   OH2 1313   5.219   5.133   5.793
  457TIP3    H1 1314   5.220   5.123   5.888
  457TIP3    H2 1315   5.216   5.228   5.779
  458TIP3   OH2 1316   7.689   4.730   0.358
  458TIP3    H1 1317   7.691   4.815   0.402
  458TIP3    H2 1318   7.733   4.746   0.275
  459TIP3   OH2 1319   2.240   2.688   3.077
  459TIP3    H1 1320   2.150   2.674   3.108
  459TIP3    H2 1321   2.233   2.756   3.011
  460TIP3   OH2 1322   0.444   6.469   4.261
  460TIP3    H1 1323   0.492   6.513   4.331
  460TIP3    H2 1324   0.460   6.523   4.183
  461TIP3   OH2 1325   7.975   7.645   6.758
  461TIP3    H1 1326   7.983   7.694   6.840
  461TIP3    H2 1327   7.895   7.680   6.718
  462TIP3   OH2 1328   1.060   3.816   4.396
  462TIP3    H1 1329   1.052   3.887   4.332
  462TIP3    H2 1330   1.063   3.736   4.344
  463TIP3   OH2 1331   4.704   0.362   5.866
  463TIP3    H1 1332   4.689   0.291   5.928
  463TIP3    H2 1333   4.662   0.332   5.785
  464TIP3   OH2 1334   6.505   5.243   6.482
  464TIP3    H1 1335   6.522   5.162   6.432
  464TIP3    H2 1336   6.592   5.273   6.508
  465TIP3   OH2 1337   1.716   2.928   0.637
  465TIP3    H1 1338   1.631   2.885   0.639
  465TIP3    H2 1339   1.766   2.878   0.573
  466TIP3   OH2 1340   6.261   3.532   4.352
  466TIP3    H1 1341   6.173   3.494   4.344
  466TIP3    H2 1342   6.286   3.516   4.442
  467TIP3   OH2 1343   1.987   5.204   4.895
  467TIP3    H1 1344   1.934   5.270   4.941
  467TIP3    H2 1345   1.924   5.135   4.875
  468TIP3   OH2 1346   4.663   6.818   3.882
  468TIP3    H1 1347   4.607   6.878   3.834
  468TIP3    H2 1348   4.678   6.745   3.822
  469TIP3   OH2 1349   3.771   6.331   5.796
  469TIP3    H1 1350   3.807   6.417   5.777
  469TIP3    H2 1351   3.688   6.348   5.840
  470TIP3   OH2 1352   3.205   2.624   4.553
  470TIP3    H1 1353   3.230   2.533   4.566
  470TIP3    H2 1354   3.276   2.661   4.501
  471TIP3   OH2 1355   7.642   3.925   6.767
  471TIP3    H1 1356   7.677   4.004   6.725
  471TIP3    H2 1357   7.571   3.897   6.709
  472TIP3   OH2 1358   3.611   4.599   1.425
  472TIP3    H1 1359   3.613   4.507   1.450
  472TIP3    H2 1360   3.554   4.641   1.490
  473TIP3   OH2 1361   0.309   1.825   4.842
  473TIP3    H1 1362   0.352   1.784   4.917
  473TIP3    H2 1363   0.268   1.753   4.794
  474TIP3   OH2 1364   6.618   0.749   6.065
  474TIP3    H1 1365   6.621   0.654   6.076
  474TIP3    H2 1366   6.607   0.783   6.153
  475TIP3   OH2 1367   7.882   0.498   3.792
  475TIP3    H1 1368   7.887   0.588   3.824
  475TIP3    H2 1369   7.957   0.454   3.831
  476TIP3   OH2 1370   2.949   2.255   2.073
  476TIP3    H1 1371   2.881   2.316   2.044
  476TIP3    H2 1372   2.996   2.302   2.142
  477TIP3   OH2 1373   4.614   5.017   5.208
  477TIP3    H1 1374   4.708   5.005   5.200
  477TIP3    H2 1375   4.583   4.937   5.249
  478TIP3   OH2 1376   1.706   0.533   2.565
  478TIP3    H1 1377   1.671   0.444   2.573
  478TIP3    H2 1378   1.736   0.539   2.474
  479TIP3   OH2 1379   5.540   1.188   5.734
  479TIP3    H1 1380   5.548   1.273   5.692
  479TIP3    H2 1381   5.564   1.203   5.825
  480TIP3   OH2 1382   2.442   7.085   1.538
  480TIP3    H1 1383   2.498   7.121   1.607
  480TIP3    H2 1384   2.374   7.151   1.526
  481TIP3   OH2 1385   5.010   4.758   5.523
  481TIP3    H1 1386   4.962   4.798   5.596
  481TIP3    H2 1387   5.101   4.783   5.538
  482TIP3   OH2 1388   5.812   7.079   6.191
  482TIP3    H1 1389   5.870   7.051   6.120
  482TIP3    H2 1390   5.869   7.126   6.252
  483TIP3   OH2 1391   1.189   3.759   6.518
  483TIP3    H1 1392   1.125   3.761   6.589
  483TIP3    H2 1393   1.263   3.811   6.551
  484TIP3   OH2 1394   5.170   0.312   6.713
  484TIP3    H1 1395   5.248   0.277   6.669
  484TIP3    H2 1396   5.202   0.389   6.760
  485TIP3   OH2 1397   6.586   3.616   6.304
  485TIP3    H1 1398   6.603   3.691   6.361
  485TIP3    H2 1399   6.589   3.541   6.363
  486TIP3   OH2 1400   7.597   0.363   5.243
  486TIP3    H1 1401   7.672   0.325   5.288
  486TIP3    H2 1402   7.528   0.365   5.309
  487TIP3   OH2 1403   3.779   4.179   3.361
  487TIP3    H1 1404   3.831   4.183   3.280
  487TIP3    H2 1405   3.693   4.148   3.333
  488TIP3   OH2 1406   0.553   2.992   0.863
  488TIP3    H1 1407   0.530   3.026   0.777
  488TIP3    H2 1408   0.469   2.971   0.904
  489TIP3   OH2 1409   2.260   7.245   3.501
  489TIP3    H1 1410   2.355   7.238   3.489
  489TIP3    H2 1411   2.237   7.328   3.458
  490TIP3   OH2 1412   2.493   4.717   5.478
  490TIP3    H1 1413   2.422   4.688   5.421
  490TIP3    H2 1414   2.490   4.812   5.475
  491TIP3   OH2 1415   6.795   4.781   1.554
  491TIP3    H1 1416   6.715   4.731   1.543
  491TIP3    H2 1417   6.805   4.789   1.649
  492TIP3   OH2 1418   0.121   6.053   2.630
  492TIP3    H1 1419   0.045   6.083   2.581
  492TIP3    H2 1420   0.085   5.995   2.697
  493TIP3   OH2 1421   1.438   6.119   0.689
  493TIP3    H1 1422   1.434   6.193   0.628
  493TIP3    H2 1423   1.426   6.159   0.775
  494TIP3   OH2 1424   6.851   6.214   5.434
  494TIP3    H1 1425   6.790   6.152   5.394
  494TIP3    H2 1426   6.805   6.246   5.512
  495TIP3   OH2 1427   0.739   6.003   0.081
  495TIP3    H1 1428   0.756   6.056   0.158
  495TIP3    H2 1429   0.650   6.028   0.054
  496TIP3   OH2 1430   2.397   2.256   3.123
  496TIP3    H1 1431   2.469   2.310   3.157
  496TIP3    H2 1432   2.435   2.208   3.050
  497TIP3   OH2 1433   7.256   0.482   5.686
  497TIP3    H1 1434   7.254   0.393   5.720
  497TIP3    H2 1435   7.174   0.521   5.717
  498TIP3   OH2 1436   4.863   2.736   3.685
  498TIP3    H1 1437   4.772   2.764   3.673
  498TIP3    H2 1438   4.870   2.656   3.633
  499TIP3   OH2 1439   0.974   2.319   1.087
  499TIP3    H1 1440   1.008   2.288   1.171
  499TIP3    H2 1441   1.008   2.256   1.023
  500TIP3   OH2 1442   0.598   6.402   1.415
  500TIP3    H1 1443   0.562   6.346   1.346
  500TIP3    H2 1444   0.586   6.491   1.384
  501TIP3   OH2 1445   2.864   6.765   2.599
  501TIP3    H1 1446   2.794   6.829   2.593
  501TIP3    H2 1447   2.852   6.724   2.685
  502TIP3   OH2 1448   4.179   3.927   6.708
  502TIP3    H1 1449   4.256   3.885   6.672
  502TIP3    H2 1450   4.105   3.887   6.661
  503TIP3   OH2 1451   2.730   5.084   1.386
  503TIP3    H1 1452   2.663   5.129   1.333
  503TIP3    H2 1453   2.760   5.012   1.330
  504TIP3   OH2 1454   5.378   3.874   5.560
  504TIP3    H1 1455   5.459   3.874   5.508
  504TIP3    H2 1456   5.409   3.887   5.650
  505TIP3   OH2 1457   5.618   7.637   5.256
  505TIP3    H1 1458   5.579   7.661   5.341
  505TIP3    H2 1459   5.701   7.596   5.279
  506TIP3   OH2 1460   7.926   4.619   2.929
  506TIP3    H1 1461   7.907   4.702   2.886
  506TIP3    H2 1462   7.840   4.577   2.938
  507TIP3   OH2 1463   1.943   6.401   3.555
  507TIP3    H1 1464   1.895   6.462   3.499
  507TIP3    H2 1465   1.955   6.323   3.502
  508TIP3   OH2 1466   7.689   2.042   5.802
  508TIP3    H1 1467   7.764   1.986   5.822
  508TIP3    H2 1468   7.719   2.097   5.730
  509TIP3   OH2 1469   2.414   2.293   4.137
  509TIP3    H1 1470   2.341   2.237   4.161
  509TIP3    H2 1471   2.453   2.250   4.060
  510TIP3   OH2 1472   8.044   1.690   5.781
  510TIP3    H1 1473   8.129   1.729   5.761
  510TIP3    H2 1474   8.065   1.611   5.831
  511TIP3   OH2 1475   5.917   7.799   3.280
  511TIP3    H1 1476   5.887   7.715   3.246
  511TIP3    H2 1477   5.860   7.818   3.354
  512TIP3   OH2 1478   5.354   7.731   5.734
  512TIP3    H1 1479   5.293   7.799   5.762
  512TIP3    H2 1480   5.304   7.649   5.740
  513TIP3   OH2 1481   0.763   6.346   5.911
  513TIP3    H1 1482   0.857   6.357   5.924
  513TIP3    H2 1483   0.723   6.369   5.995
  514TIP3   OH2 1484   1.789   1.916   5.296
  514TIP3    H1 1485   1.788   1.923   5.391
  514TIP3    H2 1486   1.714   1.968   5.267
  515TIP3   OH2 1487   7.217   0.681   2.648
  515TIP3    H1 1488   7.231   0.708   2.738
  515TIP3    H2 1489   7.291   0.624   2.628
  516TIP3   OH2 1490   6.412   1.598   4.228
  516TIP3    H1 1491   6.484   1.618   4.168
  516TIP3    H2 1492   6.337   1.645   4.192
  517TIP3   OH2 1493   4.511   3.819   1.392
  517TIP3    H1 1494   4.440   3.832   1.329
  517TIP3    H2 1495   4.587   3.860   1.351
  518TIP3   OH2 1496   3.712   2.093   4.085
  518TIP3    H1 1497   3.718   2.020   4.023
  518TIP3    H2 1498   3.631   2.138   4.061
  519TIP3   OH2 1499   6.181   3.197   2.393
  519TIP3    H1 1500   6.260   3.198   2.338
  519TIP3    H2 1501   6.173   3.105   2.420
  520TIP3   OH2 1502   1.569   2.619   1.413
  520TIP3    H1 1503   1.505   2.577   1.356
  520TIP3    H2 1504   1.624   2.670   1.353
  521TIP3   OH2 1505   3.838   5.458   6.415
  521TIP3    H1 1506   3.805   5.382   6.463
  521TIP3    H2 1507   3.800   5.449   6.327
  522TIP3   OH2 1508   5.695   4.829   4.682
  522TIP3    H1 1509   5.764   4.890   4.708
  522TIP3    H2 1510   5.703   4.823   4.587
  523TIP3   OH2 1511   2.902   6.687   1.333
  523TIP3    H1 1512   2.932   6.611   1.283
  523TIP3    H2 1513   2.914   6.661   1.425
  524TIP3   OH2 1514   0.816   0.939   6.103
  524TIP3    H1 1515   0.856   1.013   6.149
  524TIP3    H2 1516   0.881   0.870   6.108
  525TIP3   OH2 1517   0.827   7.826   5.902
  525TIP3    H1 1518   0.844   7.841   5.995
  525TIP3    H2 1519   0.742   7.867   5.886
  526TIP3   OH2 1520   4.693   7.422   5.670
  526TIP3    H1 1521   4.712   7.402   5.578
  526TIP3    H2 1522   4.768   7.388   5.718
  527TIP3   OH2 1523   4.242   4.149   1.385
  527TIP3    H1 1524   4.190   4.072   1.365
  527TIP3    H2 1525   4.178   4.219   1.401
  528TIP3   OH2 1526   4.959   4.002   3.785
  528TIP3    H1 1527   4.921   4.058   3.853
  528TIP3    H2 1528   4.895   4.005   3.714
  529TIP3   OH2 1529   2.355   5.919   4.989
  529TIP3    H1 1530   2.354   5.885   4.900
  529TIP3    H2 1531   2.272   5.967   4.997
  530TIP3   OH2 1532   3.793   0.694   3.406
  530TIP3    H1 1533   3.721   0.753   3.383
  530TIP3    H2 1534   3.868   0.726   3.356
  531TIP3   OH2 1535   5.295   2.412   1.005
  531TIP3    H1 1536   5.313   2.405   1.098
  531TIP3    H2 1537   5.363   2.471   0.971
  532TIP3   OH2 1538   4.772   5.488   0.691
  532TIP3    H1 1539   4.734   5.568   0.654
  532TIP3    H2 1540   4.736   5.483   0.780
  533TIP3   OH2 1541   6.303   6.753   4.326
  533TIP3    H1 1542   6.262   6.692   4.265
  533TIP3    H2 1543   6.385   6.709   4.351
  534TIP3   OH2 1544   5.540   2.455   5.225
  534TIP3    H1 1545   5.541   2.551   5.230
  534TIP3    H2 1546   5.628   2.429   5.250
  535TIP3   OH2 1547   7.297   0.450   1.987
  535TIP3    H1 1548   7.303   0.455   1.891
  535TIP3    H2 1549   7.204   0.434   2.004
  536TIP3   OH2 1550   0.578   6.640   5.544
  536TIP3    H1 1551   0.627   6.558   5.531
  536TIP3    H2 1552   0.517   6.619   5.614
  537TIP3   OH2 1553   3.792   6.031   0.547
  537TIP3    H1 1554   3.881   6.014   0.578
  537TIP3    H2 1555   3.743   5.952   0.570
  538TIP3   OH2 1556   0.725   7.696   4.897
  538TIP3    H1 1557   0.785   7.721   4.968
  538TIP3    H2 1558   0.639   7.727   4.926
  539TIP3   OH2 1559   2.140   7.331   2.008
  539TIP3    H1 1560   2.046   7.336   2.028
  539TIP3    H2 1561   2.148   7.252   1.955
  540TIP3   OH2 1562   2.762   3.342   5.089
  540TIP3    H1 1563   2.784   3.400   5.162
  540TIP3    H2 1564   2.836   3.351   5.028
  541TIP3   OH2 1565   3.681   7.434   0.839
  541TIP3    H1 1566   3.666   7.494   0.913
  541TIP3    H2 1567   3.692   7.348   0.880
  542TIP3   OH2 1568   5.154   6.115   6.604
  542TIP3    H1 1569   5.088   6.154   6.661
  542TIP3    H2 1570   5.113   6.115   6.517
  543TIP3   OH2 1571   4.275   3.636   2.132
  543TIP3    H1 1572   4.240   3.548   2.118
  543TIP3    H2 1573   4.326   3.654   2.053
  544TIP3   OH2 1574   6.968   4.340   6.544
  544TIP3    H1 1575   6.995   4.359   6.634
  544TIP3    H2 1576   7.012   4.258   6.522
  545TIP3   OH2 1577   2.945   4.703   1.091
  545TIP3    H1 1578   2.938   4.610   1.114
  545TIP3    H2 1579   2.917   4.707   1.000
  546TIP3   OH2 1580   0.866   1.140   2.737
  546TIP3    H1 1581   0.815   1.076   2.687
  546TIP3    H2 1582   0.916   1.087   2.799
  547TIP3   OH2 1583   7.486   7.145   0.656
  547TIP3    H1 1584   7.431   7.110   0.726
  547TIP3    H2 1585   7.425   7.191   0.598
  548TIP3   OH2 1586   8.148   1.412   0.807
  548TIP3    H1 1587   8.227   1.360   0.801
  548TIP3    H2 1588   8.119   1.424   0.716
  549TIP3   OH2 1589   1.799   5.464   3.411
  549TIP3    H1 1590   1.800   5.483   3.505
  549TIP3    H2 1591   1.863   5.523   3.374
  550TIP3   OH2 1592   0.867   0.286   6.656
  550TIP3    H1 1593   0.878   0.290   6.751
  550TIP3    H2 1594   0.943   0.236   6.625
  551TIP3   OH2 1595   1.307   3.446   2.114
  551TIP3    H1 1596   1.346   3.509   2.176
  551TIP3    H2 1597   1.218   3.434   2.146
  552TIP3   OH2 1598   2.751   6.947   5.245
  552TIP3    H1 1599   2.823   6.966   5.185
  552TIP3    H2 1600   2.754   6.852   5.257
  553TIP3   OH2 1601   5.752   5.492   2.058
  553TIP3    H1 1602   5.844   5.514   2.073
  553TIP3    H2 1603   5.706   5.576   2.066
  554TIP3   OH2 1604   0.748   0.678   5.954
  554TIP3    H1 1605   0.766   0.647   5.865
  554TIP3    H2 1606   0.834   0.705   5.987
  555TIP3   OH2 1607   7.355   0.524   3.714
  555TIP3    H1 1608   7.315   0.610   3.710
  555TIP3    H2 1609   7.328   0.488   3.799
  556TIP3   OH2 1610   2.480   2.332   0.489
  556TIP3    H1 1611   2.498   2.376   0.406
  556TIP3    H2 1612   2.481   2.239   0.468
  557TIP3   OH2 1613   2.371   1.482  -0.023
  557TIP3    H1 1614   2.433   1.416  -0.054
  557TIP3    H2 1615   2.286   1.436  -0.020
  558TIP3   OH2 1616   5.215   2.080   3.714
  558TIP3    H1 1617   5.149   2.142   3.684
  558TIP3    H2 1618   5.209   2.007   3.653
  559TIP3   OH2 1619   6.359   0.850   4.267
  559TIP3    H1 1620   6.304   0.832   4.191
  559TIP3    H2 1621   6.298   0.850   4.342
  560TIP3   OH2 1622   2.617   7.023   3.415
  560TIP3    H1 1623   2.603   7.017   3.320
  560TIP3    H2 1624   2.556   7.091   3.444
  561TIP3   OH2 1625   0.023   0.861   2.286
  561TIP3    H1 1626   0.107   0.832   2.321
  561TIP3    H2 1627  -0.020   0.904   2.360
  562TIP3   OH2 1628   5.522   7.479   1.721
  562TIP3    H1 1629   5.614   7.462   1.740
  562TIP3    H2 1630   5.508   7.570   1.747
  563TIP3   OH2 1631   5.390   1.551   5.326
  563TIP3    H1 1632   5.429   1.524   5.243
  563TIP3    H2 1633   5.464   1.565   5.385
  564TIP3   OH2 1634   7.617   4.505   5.124
  564TIP3    H1 1635   7.601   4.493   5.031
  564TIP3    H2 1636   7.533   4.534   5.160
  565TIP3   OH2 1637   6.749   4.564   1.851
  565TIP3    H1 1638   6.672   4.515   1.881
  565TIP3    H2 1639   6.721   4.655   1.851
  566TIP3   OH2 1640   2.902   1.985   6.596
  566TIP3    H1 1641   2.879   1.915   6.535
  566TIP3    H2 1642   2.846   2.059   6.572
  567TIP3   OH2 1643   1.864   5.190   0.017
  567TIP3    H1 1644   1.938   5.161   0.070
  567TIP3    H2 1645   1.900   5.203  -0.071
  568TIP3   OH2 1646   3.585   5.333   1.591
  568TIP3    H1 1647   3.523   5.272   1.552
  568TIP3    H2 1648   3.536   5.415   1.599
  569TIP3   OH2 1649   2.062   7.001   3.103
  569TIP3    H1 1650   2.048   6.906   3.105
  569TIP3    H2 1651   2.154   7.013   3.127
  570TIP3   OH2 1652   5.127   5.651   3.811
  570TIP3    H1 1653   5.113   5.730   3.863
  570TIP3    H2 1654   5.046   5.601   3.822
  571TIP3   OH2 1655   0.798   4.236   0.831
  571TIP3    H1 1656   0.830   4.160   0.781
  571TIP3    H2 1657   0.877   4.287   0.849
  572TIP3   OH2 1658   6.386   2.745   3.282
  572TIP3    H1 1659   6.472   2.708   3.301
  572TIP3    H2 1660   6.342   2.679   3.228
  573TIP3   OH2 1661   7.340   4.053   0.434
  573TIP3    H1 1662   7.426   4.020   0.461
  573TIP3    H2 1663   7.360   4.133   0.386
  574TIP3   OH2 1664   0.332   3.963   3.737
  574TIP3    H1 1665   0.272   4.018   3.787
  574TIP3    H2 1666   0.401   3.939   3.799
  575TIP3   OH2 1667   5.655   1.465   4.771
  575TIP3    H1 1668   5.573   1.515   4.777
  575TIP3    H2 1669   5.719   1.518   4.819
  576TIP3   OH2 1670   4.148   7.265   0.758
  576TIP3    H1 1671   4.066   7.284   0.713
  576TIP3    H2 1672   4.154   7.169   0.757
  577TIP3   OH2 1673   7.720   7.505   2.044
  577TIP3    H1 1674   7.809   7.487   2.014
  577TIP3    H2 1675   7.732   7.559   2.122
  578TIP3   OH2 1676   6.729   4.887   4.161
  578TIP3    H1 1677   6.711   4.818   4.225
  578TIP3    H2 1678   6.703   4.968   4.205
  579TIP3   OH2 1679   0.964   7.696   1.465
  579TIP3    H1 1680   0.907   7.621   1.477
  579TIP3    H2 1681   0.953   7.748   1.544
  580TIP3   OH2 1682   4.340   4.859   0.999
  580TIP3    H1 1683   4.265   4.896   0.953
  580TIP3    H2 1684   4.337   4.766   0.980
  581TIP3   OH2 1685   2.900   2.516   5.030
  581TIP3    H1 1686   2.893   2.470   5.113
  581TIP3    H2 1687   2.965   2.465   4.980
  582TIP3   OH2 1688   1.643   2.497   3.660
  582TIP3    H1 1689   1.658   2.417   3.611
  582TIP3    H2 1690   1.595   2.468   3.739
  583TIP3   OH2 1691   6.328   3.251   3.376
  583TIP3    H1 1692   6.238   3.257   3.408
  583TIP3    H2 1693   6.324   3.189   3.303
  584TIP3   OH2 1694   1.494   3.532   4.018
  584TIP3    H1 1695   1.489   3.580   4.100
  584TIP3    H2 1696   1.487   3.600   3.950
  585TIP3   OH2 1697   1.609   4.713   2.991
  585TIP3    H1 1698   1.524   4.733   2.953
  585TIP3    H2 1699   1.669   4.709   2.916
  586TIP3   OH2 1700   7.548   1.964   1.446
  586TIP3    H1 1701   7.573   1.986   1.536
  586TIP3    H2 1702   7.624   1.916   1.412
  587TIP3   OH2 1703   1.728   1.664   4.044
  587TIP3    H1 1704   1.787   1.679   3.970
  587TIP3    H2 1705   1.665   1.600   4.012
  588TIP3   OH2 1706   0.312   4.272   5.476
  588TIP3    H1 1707   0.359   4.210   5.533
  588TIP3    H2 1708   0.295   4.222   5.396
  589TIP3   OH2 1709   1.044   0.129   4.534
  589TIP3    H1 1710   0.977   0.063   4.553
  589TIP3    H2 1711   1.011   0.210   4.573
  590TIP3   OH2 1712   5.646   2.167   6.401
  590TIP3    H1 1713   5.585   2.230   6.363
  590TIP3    H2 1714   5.694   2.132   6.326
  591TIP3   OH2 1715   2.488   4.722   3.754
  591TIP3    H1 1716   2.438   4.791   3.799
  591TIP3    H2 1717   2.576   4.758   3.745
  592TIP3   OH2 1718   8.036   2.860   3.129
  592TIP3    H1 1719   8.048   2.819   3.043
  592TIP3    H2 1720   8.040   2.954   3.112
  593TIP3   OH2 1721   3.026   7.791   3.876
  593TIP3    H1 1722   3.077   7.835   3.807
  593TIP3    H2 1723   2.939   7.781   3.837
  594TIP3   OH2 1724   3.514   1.741   6.007
  594TIP3    H1 1725   3.488   1.667   5.951
  594TIP3    H2 1726   3.438   1.800   6.004
  595TIP3   OH2 1727   7.743   0.893   0.158
  595TIP3    H1 1728   7.801   0.842   0.101
  595TIP3    H2 1729   7.700   0.955   0.099
  596TIP3   OH2 1730   7.275   4.799   0.452
  596TIP3    H1 1731   7.200   4.756   0.493
  596TIP3    H2 1732   7.341   4.802   0.521
  597TIP3   OH2 1733   3.884   7.482   1.157
  597TIP3    H1 1734   3.843   7.410   1.204
  597TIP3    H2 1735   3.948   7.440   1.099
  598TIP3   OH2 1736   6.890   6.956   5.791
  598TIP3    H1 1737   6.886   6.861   5.779
  598TIP3    H2 1738   6.826   6.975   5.859
  599TIP3   OH2 1739   3.764   7.433   5.747
  599TIP3    H1 1740   3.804   7.350   5.720
  599TIP3    H2 1741   3.675   7.409   5.772
  600TIP3   OH2 1742   5.882   6.102   0.902
  600TIP3    H1 1743   5.906   6.068   0.816
  600TIP3    H2 1744   5.796   6.142   0.889
  601TIP3   OH2 1745   3.828   2.673   2.347
  601TIP3    H1 1746   3.874   2.754   2.371
  601TIP3    H2 1747   3.742   2.703   2.316
  602TIP3   OH2 1748   7.880   5.293   0.351
  602TIP3    H1 1749   7.878   5.207   0.311
  602TIP3    H2 1750   7.873   5.354   0.277
  603TIP3   OH2 1751   0.398   7.516   4.521
  603TIP3    H1 1752   0.491   7.531   4.506
  603TIP3    H2 1753   0.392   7.499   4.615
  604TIP3   OH2 1754   6.137   5.767   2.987
  604TIP3    H1 1755   6.113   5.859   2.996
  604TIP3    H2 1756   6.143   5.735   3.077
  605TIP3   OH2 1757   1.843   6.275   3.023
  605TIP3    H1 1758   1.807   6.299   3.108
  605TIP3    H2 1759   1.816   6.345   2.964
  606TIP3   OH2 1760   2.368   4.817   3.527
  606TIP3    H1 1761   2.383   4.768   3.446
  606TIP3    H2 1762   2.405   4.761   3.596
  607TIP3   OH2 1763   2.155   0.734   3.965
  607TIP3    H1 1764   2.221   0.772   4.023
  607TIP3    H2 1765   2.195   0.739   3.878
  608TIP3   OH2 1766   1.592   2.044   4.862
  608TIP3    H1 1767   1.593   2.134   4.894
  608TIP3    H2 1768   1.683   2.015   4.867
  609TIP3   OH2 1769   4.999   3.569   5.596
  609TIP3    H1 1770   5.060   3.501   5.566
  609TIP3    H2 1771   4.999   3.562   5.691
  610TIP3   OH2 1772   5.893   1.129   4.345
  610TIP3    H1 1773   5.945   1.123   4.426
  610TIP3    H2 1774   5.804   1.106   4.371
  611TIP3   OH2 1775   1.113   1.795   4.829
  611TIP3    H1 1776   1.200   1.814   4.795
  611TIP3    H2 1777   1.124   1.714   4.879
  612TIP3   OH2 1778   2.639   6.324   3.134
  612TIP3    H1 1779   2.569   6.342   3.197
  612TIP3    H2 1780   2.658   6.231   3.147
  613TIP3   OH2 1781   0.066   4.232   4.237
  613TIP3    H1 1782  -0.017   4.249   4.282
  613TIP3    H2 1783   0.044   4.241   4.144
  614TIP3   OH2 1784   2.812   7.438   2.008
  614TIP3    H1 1785   2.798   7.351   2.044
  614TIP3    H2 1786   2.785   7.430   1.916
  615TIP3   OH2 1787   2.914   0.625   5.495
  615TIP3    H1 1788   2.951   0.673   5.570
  615TIP3    H2 1789   2.990   0.600   5.443
  616TIP3   OH2 1790   5.314   1.320   4.367
  616TIP3    H1 1791   5.366   1.400   4.352
  616TIP3    H2 1792   5.230   1.352   4.399
  617TIP3   OH2 1793   0.814   0.633   3.820
  617TIP3    H1 1794   0.796   0.727   3.814
  617TIP3    H2 1795   0.739   0.592   3.776
  618TIP3   OH2 1796   6.101   5.298   5.244
  618TIP3    H1 1797   6.076   5.384   5.211
  618TIP3    H2 1798   6.100   5.308   5.340
  619TIP3   OH2 1799   4.164   4.496   5.372
  619TIP3    H1 1800   4.170   4.587   5.403
  619TIP3    H2 1801   4.184   4.501   5.279
  620TIP3   OH2 1802   0.296  -0.040   2.072
  620TIP3    H1 1803   0.232   0.030   2.065
  620TIP3    H2 1804   0.245  -0.121   2.072
  621TIP3   OH2 1805   3.324   3.417   0.526
  621TIP3    H1 1806   3.307   3.482   0.595
  621TIP3    H2 1807   3.419   3.424   0.510
  622TIP3   OH2 1808   1.407   5.611   4.147
  622TIP3    H1 1809   1.462   5.631   4.071
  622TIP3    H2 1810   1.454   5.540   4.192
  623TIP3   OH2 1811   2.170   5.683   2.824
  623TIP3    H1 1812   2.228   5.607   2.820
  623TIP3    H2 1813   2.195   5.729   2.904
  624TIP3   OH2 1814   0.550   7.404   1.834
  624TIP3    H1 1815   0.512   7.492   1.831
  624TIP3    H2 1816   0.511   7.364   1.912
  625TIP3   OH2 1817   1.388   5.853   0.935
  625TIP3    H1 1818   1.472   5.874   0.976
  625TIP3    H2 1819   1.412   5.809   0.853
  626TIP3   OH2 1820   6.030   2.555   1.311
  626TIP3    H1 1821   5.979   2.497   1.255
  626TIP3    H2 1822   5.979   2.636   1.315
  627TIP3   OH2 1823   1.974   3.668   6.384
  627TIP3    H1 1824   1.899   3.662   6.443
  627TIP3    H2 1825   1.994   3.761   6.378
  628TIP3   OH2 1826   1.207   4.082   6.640
  628TIP3    H1 1827   1.117   4.064   6.665
  628TIP3    H2 1828   1.250   4.109   6.721
  629TIP3   OH2 1829   2.066   4.386   6.640
  629TIP3    H1 1830   2.068   4.370   6.546
  629TIP3    H2 1831   2.157   4.409   6.661
  630TIP3   OH2 1832   5.598   1.670   5.942
  630TIP3    H1 1833   5.512   1.632   5.921
  630TIP3    H2 1834   5.582   1.726   6.017
  631TIP3   OH2 1835   0.005   5.635   2.005
  631TIP3    H1 1836  -0.023   5.673   1.921
  631TIP3    H2 1837  -0.036   5.548   2.007
  632TIP3   OH2 1838   6.396   4.726   3.007
  632TIP3    H1 1839   6.462   4.759   3.068
  632TIP3    H2 1840   6.336   4.676   3.062
  633TIP3   OH2 1841   8.211   1.644   1.349
  633TIP3    H1 1842   8.128   1.599   1.334
  633TIP3    H2 1843   8.230   1.630   1.442
  634TIP3   OH2 1844   1.985   3.544   2.360
  634TIP3    H1 1845   1.988   3.570   2.268
  634TIP3    H2 1846   1.982   3.627   2.408
  635TIP3   OH2 1847   2.578   1.220   1.476
  635TIP3    H1 1848   2.619   1.294   1.520
  635TIP3    H2 1849   2.495   1.206   1.522
  636TIP3   OH2 1850   1.270   3.332   5.337
  636TIP3    H1 1851   1.290   3.254   5.285
  636TIP3    H2 1852   1.194   3.306   5.390
  637TIP3   OH2 1853   3.723   7.521   2.883
  637TIP3    H1 1854   3.792   7.562   2.831
  637TIP3    H2 1855   3.666   7.479   2.818
  638TIP3   OH2 1856   2.419   6.023   5.541
  638TIP3    H1 1857   2.380   5.958   5.600
  638TIP3    H2 1858   2.421   5.980   5.456
  639TIP3   OH2 1859   2.440   3.465   5.189
  639TIP3    H1 1860   2.441   3.513   5.271
  639TIP3    H2 1861   2.457   3.374   5.215
  640TIP3   OH2 1862   2.871   0.107   3.249
  640TIP3    H1 1863   2.958   0.102   3.209
  640TIP3    H2 1864   2.881   0.167   3.323
  641TIP3   OH2 1865   0.256   1.164   4.197
  641TIP3    H1 1866   0.254   1.251   4.158
  641TIP3    H2 1867   0.204   1.172   4.277
  642TIP3   OH2 1868   2.030   7.588   4.448
  642TIP3    H1 1869   2.061   7.653   4.511
  642TIP3    H2 1870   1.939   7.612   4.432
  643TIP3   OH2 1871   7.769   4.865   6.119
  643TIP3    H1 1872   7.744   4.926   6.050
  643TIP3    H2 1873   7.858   4.891   6.143
  644TIP3   OH2 1874   6.736   7.019   2.541
  644TIP3    H1 1875   6.735   6.937   2.590
  644TIP3    H2 1876   6.645   7.047   2.538
  645TIP3   OH2 1877   4.438   7.344   1.902
  645TIP3    H1 1878   4.519   7.380   1.940
  645TIP3    H2 1879   4.469   7.278   1.841
  646TIP3   OH2 1880   1.968   0.437   6.246
  646TIP3    H1 1881   2.001   0.358   6.290
  646TIP3    H2 1882   1.876   0.441   6.270
  647TIP3   OH2 1883   4.259   2.464   0.990
  647TIP3    H1 1884   4.302   2.529   1.046
  647TIP3    H2 1885   4.165   2.480   1.002
  648TIP3   OH2 1886   4.894   7.702   5.922
  648TIP3    H1 1887   4.825   7.696   5.856
  648TIP3    H2 1888   4.861   7.652   5.996
  649TIP3   OH2 1889   7.647   4.680   1.466
  649TIP3    H1 1890   7.641   4.628   1.386
  649TIP3    H2 1891   7.628   4.770   1.437
  650TIP3   OH2 1892   4.418   5.066   2.440
  650TIP3    H1 1893   4.461   5.147   2.413
  650TIP3    H2 1894   4.467   4.997   2.396
  651TIP3   OH2 1895   1.347   1.073   3.577
  651TIP3    H1 1896   1.291   1.148   3.594
  651TIP3    H2 1897   1.286   0.999   3.569
  652TIP3   OH2 1898   6.218   0.919   3.822
  652TIP3    H1 1899   6.216   0.901   3.916
  652TIP3    H2 1900   6.305   0.892   3.794
  653TIP3   OH2 1901   2.522   5.646   0.754
  653TIP3    H1 1902   2.430   5.665   0.772
  653TIP3    H2 1903   2.554   5.724   0.710
  654TIP3   OH2 1904   6.471   0.415   5.025
  654TIP3    H1 1905   6.485   0.380   4.937
  654TIP3    H2 1906   6.386   0.379   5.052
  655TIP3   OH2 1907   7.601   7.518   5.834
  655TIP3    H1 1908   7.592   7.481   5.746
  655TIP3    H2 1909   7.554   7.458   5.891
  656TIP3   OH2 1910   6.005   7.529   1.509
  656TIP3    H1 1911   5.961   7.531   1.595
  656TIP3    H2 1912   5.979   7.445   1.472
  657TIP3   OH2 1913   0.105   7.796   2.388
  657TIP3    H1 1914   0.046   7.859   2.347
  657TIP3    H2 1915   0.152   7.756   2.315
  658TIP3   OH2 1916   5.853  -0.042   4.618
  658TIP3    H1 1917   5.947  -0.047   4.601
  658TIP3    H2 1918   5.843  -0.077   4.707
  659TIP3   OH2 1919   7.340   4.656   4.118
  659TIP3    H1 1920   7.246   4.641   4.122
  659TIP3    H2 1921   7.352   4.713   4.042
  660TIP3   OH2 1922   3.203   0.126   6.449
  660TIP3    H1 1923   3.188   0.214   6.482
  660TIP3    H2 1924   3.146   0.119   6.372
  661TIP3   OH2 1925   1.224   1.524   0.877
  661TIP3    H1 1926   1.263   1.448   0.921
  661TIP3    H2 1927   1.160   1.558   0.940
  662TIP3   OH2 1928   5.710   4.953   5.622
  662TIP3    H1 1929   5.615   4.965   5.627
  662TIP3    H2 1930   5.739   4.956   5.713
  663TIP3   OH2 1931   4.909   2.763   6.528
  663TIP3    H1 1932   4.859   2.711   6.590
  663TIP3    H2 1933   4.972   2.702   6.489
  664TIP3   OH2 1934   3.229   3.464   2.954
  664TIP3    H1 1935   3.217   3.433   2.864
  664TIP3    H2 1936   3.181   3.401   3.008
  665TIP3   OH2 1937   3.387   5.662   5.512
  665TIP3    H1 1938   3.400   5.658   5.417
  665TIP3    H2 1939   3.302   5.622   5.527
  666TIP3   OH2 1940   7.399   5.303   4.439
  666TIP3    H1 1941   7.479   5.321   4.389
  666TIP3    H2 1942   7.363   5.389   4.459
  667TIP3   OH2 1943   8.078   2.644   1.303
  667TIP3    H1 1944   8.007   2.708   1.314
  667TIP3    H2 1945   8.149   2.678   1.357
  668TIP3   OH2 1946   4.561   0.999   4.403
  668TIP3    H1 1947   4.548   0.922   4.457
  668TIP3    H2 1948   4.472   1.028   4.380
  669TIP3   OH2 1949   6.598   2.491   3.995
  669TIP3    H1 1950   6.642   2.447   4.067
  669TIP3    H2 1951   6.565   2.572   4.033
  670TIP3   OH2 1952   6.561   2.913   1.500
  670TIP3    H1 1953   6.641   2.950   1.463
  670TIP3    H2 1954   6.491   2.947   1.444
  671TIP3   OH2 1955   2.076   5.262   1.803
  671TIP3    H1 1956   2.060   5.169   1.787
  671TIP3    H2 1957   2.109   5.266   1.893
  672TIP3   OH2 1958   2.981   0.674   1.638
  672TIP3    H1 1959   2.903   0.670   1.694
  672TIP3    H2 1960   2.961   0.615   1.565
  673TIP3   OH2 1961   6.336   7.580   0.802
  673TIP3    H1 1962   6.385   7.502   0.828
  673TIP3    H2 1963   6.400   7.651   0.805
  674TIP3   OH2 1964   1.658   1.471   1.823
  674TIP3    H1 1965   1.732   1.524   1.796
  674TIP3    H2 1966   1.671   1.387   1.779
  675TIP3   OH2 1967   7.936   3.612   4.979
  675TIP3    H1 1968   7.907   3.696   5.015
  675TIP3    H2 1969   7.964   3.633   4.890
  676TIP3   OH2 1970   6.720   0.382   6.092
  676TIP3    H1 1971   6.764   0.467   6.100
  676TIP3    H2 1972   6.788   0.322   6.061
  677TIP3   OH2 1973   0.312   2.266   0.661
  677TIP3    H1 1974   0.386   2.266   0.720
  677TIP3    H2 1975   0.254   2.336   0.693
  678TIP3   OH2 1976   7.887   2.261   3.993
  678TIP3    H1 1977   7.866   2.172   4.023
  678TIP3    H2 1978   7.827   2.317   4.042
  679TIP3   OH2 1979   4.571   0.948   5.497
  679TIP3    H1 1980   4.498   0.948   5.435
  679TIP3    H2 1981   4.532   0.920   5.580
  680TIP3   OH2 1982   8.151   4.331   6.797
  680TIP3    H1 1983   8.070   4.305   6.754
  680TIP3    H2 1984   8.201   4.250   6.807
  681TIP3   OH2 1985   4.802   7.376   3.204
  681TIP3    H1 1986   4.836   7.314   3.139
  681TIP3    H2 1987   4.809   7.461   3.161
  682TIP3   OH2 1988   2.915   5.286   5.568
  682TIP3    H1 1989   3.004   5.270   5.597
  682TIP3    H2 1990   2.862   5.285   5.648
  683TIP3   OH2 1991   6.283   3.119   1.158
  683TIP3    H1 1992   6.304   3.083   1.072
  683TIP3    H2 1993   6.327   3.204   1.159
  684TIP3   OH2 1994   3.221   0.850   0.568
  684TIP3    H1 1995   3.211   0.827   0.476
  684TIP3    H2 1996   3.164   0.789   0.615
  685TIP3   OH2 1997   0.879   5.991   3.205
  685TIP3    H1 1998   0.956   6.019   3.155
  685TIP3    H2 1999   0.911   5.984   3.295
  686TIP3   OH2 2000   5.014   0.939   0.945
  686TIP3    H1 2001   5.071   0.887   0.889
  686TIP3    H2 2002   4.936   0.885   0.957
  687TIP3   OH2 2003   7.151   5.156   1.424
  687TIP3    H1 2004   7.101   5.224   1.467
  687TIP3    H2 2005   7.232   5.150   1.474
  688TIP3   OH2 2006   2.214   1.243   3.096
  688TIP3    H1 2007   2.307   1.242   3.121
  688TIP3    H2 2008   2.210   1.305   3.023
  689TIP3   OH2 2009   8.229   4.228   0.413
  689TIP3    H1 2010   8.197   4.224   0.323
  689TIP3    H2 2011   8.286   4.151   0.421
  690TIP3   OH2 2012   0.212   2.949   5.766
  690TIP3    H1 2013   0.189   2.860   5.791
  690TIP3    H2 2014   0.162   2.966   5.686
  691TIP3   OH2 2015   6.211   7.847   3.326
  691TIP3    H1 2016   6.119   7.823   3.335
  691TIP3    H2 2017   6.253   7.771   3.287
  692TIP3   OH2 2018   6.846   4.489   0.673
  692TIP3    H1 2019   6.783   4.495   0.602
  692TIP3    H2 2020   6.870   4.580   0.692
  693TIP3   OH2 2021   3.745   4.677   3.763
  693TIP3    H1 2022   3.749   4.741   3.834
  693TIP3    H2 2023   3.788   4.599   3.798
  694TIP3   OH2 2024   7.753   7.141   6.359
  694TIP3    H1 2025   7.845   7.145   6.331
  694TIP3    H2 2026   7.753   7.177   6.447
  695TIP3   OH2 2027   3.113   7.826   6.337
  695TIP3    H1 2028   3.164   7.875   6.402
  695TIP3    H2 2029   3.025   7.862   6.343
  696TIP3   OH2 2030   5.087   5.437   0.252
  696TIP3    H1 2031   5.180   5.418   0.261
  696TIP3    H2 2032   5.046   5.398   0.329
  697TIP3   OH2 2033   7.950   6.891   2.871
  697TIP3    H1 2034   8.030   6.906   2.819
  697TIP3    H2 2035   7.981   6.889   2.961
  698TIP3   OH2 2036   1.049   5.395   5.579
  698TIP3    H1 2037   1.139   5.422   5.599
  698TIP3    H2 2038   0.995   5.442   5.643
  699TIP3   OH2 2039   5.653   2.066   2.516
  699TIP3    H1 2040   5.672   2.135   2.580
  699TIP3    H2 2041   5.560   2.077   2.496
  700TIP3   OH2 2042   5.409   0.118   2.776
  700TIP3    H1 2043   5.456   0.170   2.841
  700TIP3    H2 2044   5.408   0.172   2.697
  701TIP3   OH2 2045   0.021   4.951   5.347
  701TIP3    H1 2046  -0.071   4.961   5.371
  701TIP3    H2 2047   0.033   4.856   5.335
  702TIP3   OH2 2048   0.047   5.791   6.793
  702TIP3    H1 2049   0.025   5.852   6.722
  702TIP3    H2 2050   0.034   5.704   6.755
  703TIP3   OH2 2051   1.087   1.335   1.121
  703TIP3    H1 2052   0.996   1.360   1.104
  703TIP3    H2 2053   1.107   1.270   1.054
  704TIP3   OH2 2054   5.124   1.680   4.619
  704TIP3    H1 2055   5.099   1.701   4.529
  704TIP3    H2 2056   5.117   1.585   4.625
  705TIP3   OH2 2057   2.645   5.709   5.784
  705TIP3    H1 2058   2.714   5.745   5.728
  705TIP3    H2 2059   2.611   5.634   5.735
  706TIP3   OH2 2060   4.249   4.029   0.655
  706TIP3    H1 2061   4.221   4.013   0.745
  706TIP3    H2 2062   4.176   4.077   0.615
  707TIP3   OH2 2063   7.368   6.098   1.689
  707TIP3    H1 2064   7.453   6.139   1.673
  707TIP3    H2 2065   7.322   6.107   1.606
  708TIP3   OH2 2066   2.052   4.251   5.470
  708TIP3    H1 2067   2.127   4.286   5.423
  708TIP3    H2 2068   1.983   4.245   5.405
  709TIP3   OH2 2069   1.830   6.849   6.198
  709TIP3    H1 2070   1.802   6.867   6.288
  709TIP3    H2 2071   1.856   6.935   6.164
  710TIP3   OH2 2072   6.882   4.890   0.614
  710TIP3    H1 2073   6.841   4.934   0.539
  710TIP3    H2 2074   6.922   4.811   0.576
  711TIP3   OH2 2075   6.077   2.980   6.244
  711TIP3    H1 2076   6.074   2.908   6.306
  711TIP3    H2 2077   5.986   2.998   6.223
  712TIP3   OH2 2078   7.115   3.770   5.996
  712TIP3    H1 2079   7.195   3.824   5.997
  712TIP3    H2 2080   7.072   3.789   6.080
  713TIP3   OH2 2081   5.446   7.203   3.292
  713TIP3    H1 2082   5.423   7.208   3.199
  713TIP3    H2 2083   5.401   7.277   3.332
  714TIP3   OH2 2084   7.056   1.007   3.073
  714TIP3    H1 2085   7.118   0.944   3.109
  714TIP3    H2 2086   7.023   0.965   2.993
  715TIP3   OH2 2087   1.577   1.619   5.986
  715TIP3    H1 2088   1.564   1.669   5.905
  715TIP3    H2 2089   1.633   1.546   5.960
  716TIP3   OH2 2090   6.680   5.305   5.161
  716TIP3    H1 2091   6.714   5.333   5.077
  716TIP3    H2 2092   6.633   5.223   5.142
  717TIP3   OH2 2093   2.869   5.021   5.437
  717TIP3    H1 2094   2.876   5.116   5.433
  717TIP3    H2 2095   2.854   5.002   5.530
  718TIP3   OH2 2096   0.136   6.196   5.975
  718TIP3    H1 2097   0.110   6.254   6.047
  718TIP3    H2 2098   0.053   6.168   5.936
  719TIP3   OH2 2099   2.593   2.195   0.984
  719TIP3    H1 2100   2.566   2.260   1.048
  719TIP3    H2 2101   2.627   2.246   0.911
  720TIP3   OH2 2102   2.853   2.924   2.904
  720TIP3    H1 2103   2.827   2.894   2.817
  720TIP3    H2 2104   2.946   2.902   2.910
  721TIP3   OH2 2105   7.977   7.711   2.718
  721TIP3    H1 2106   8.061   7.750   2.742
  721TIP3    H2 2107   7.946   7.765   2.645
  722TIP3   OH2 2108   7.005   4.402   3.436
  722TIP3    H1 2109   6.938   4.362   3.381
  722TIP3    H2 2110   7.067   4.441   3.375
  723TIP3   OH2 2111   1.155   2.095   4.061
  723TIP3    H1 2112   1.110   2.167   4.103
  723TIP3    H2 2113   1.228   2.074   4.119
  724TIP3   OH2 2114   7.037   7.761   3.203
  724TIP3    H1 2115   7.023   7.712   3.122
  724TIP3    H2 2116   6.978   7.720   3.267
  725TIP3   OH2 2117   5.203   4.612   5.093
  725TIP3    H1 2118   5.208   4.618   5.188
  725TIP3    H2 2119   5.288   4.645   5.062
  726TIP3   OH2 2120   5.187   2.860   4.761
  726TIP3    H1 2121   5.223   2.801   4.827
  726TIP3    H2 2122   5.139   2.926   4.810
  727TIP3   OH2 2123   3.545   3.004   0.273
  727TIP3    H1 2124   3.469   2.950   0.252
  727TIP3    H2 2125   3.515   3.061   0.344
  728TIP3   OH2 2126   4.564   5.851   1.874
  728TIP3    H1 2127   4.622   5.922   1.844
  728TIP3    H2 2128   4.585   5.839   1.966
  729TIP3   OH2 2129   2.316   4.269   1.196
  729TIP3    H1 2130   2.293   4.180   1.170
  729TIP3    H2 2131   2.268   4.283   1.278
  730TIP3   OH2 2132   0.911   3.240   3.339
  730TIP3    H1 2133   0.985   3.179   3.337
  730TIP3    H2 2134   0.944   3.320   3.298
  731TIP3   OH2 2135   2.359   5.137   0.277
  731TIP3    H1 2136   2.425   5.189   0.232
  731TIP3    H2 2137   2.401   5.052   0.290
  732TIP3   OH2 2138   6.861   7.273   4.595
  732TIP3    H1 2139   6.846   7.368   4.601
  732TIP3    H2 2140   6.925   7.263   4.525
  733TIP3   OH2 2141   3.934   0.586   4.252
  733TIP3    H1 2142   4.018   0.630   4.238
  733TIP3    H2 2143   3.943   0.543   4.336
  734TIP3   OH2 2144   2.589   7.796   5.860
  734TIP3    H1 2145   2.583   7.891   5.859
  734TIP3    H2 2146   2.668   7.776   5.811
  735TIP3   OH2 2147   4.481   0.435   4.973
  735TIP3    H1 2148   4.538   0.418   4.898
  735TIP3    H2 2149   4.539   0.462   5.043
  736TIP3   OH2 2150   0.426   5.681   4.791
  736TIP3    H1 2151   0.373   5.682   4.871
  736TIP3    H2 2152   0.508   5.722   4.816
  737TIP3   OH2 2153   0.422   0.093   1.456
  737TIP3    H1 2154   0.422   0.031   1.529
  737TIP3    H2 2155   0.377   0.170   1.491
  738TIP3   OH2 2156   0.481   1.271   5.165
  738TIP3    H1 2157   0.465   1.215   5.089
  738TIP3    H2 2158   0.529   1.215   5.227
  739TIP3   OH2 2159   8.099   5.286   0.076
  739TIP3    H1 2160   8.191   5.267   0.058
  739TIP3    H2 2161   8.081   5.365   0.025
  740TIP3   OH2 2162   5.806   2.072   6.208
  740TIP3    H1 2163   5.897   2.060   6.233
  740TIP3    H2 2164   5.810   2.111   6.121
  741TIP3   OH2 2165   7.157   2.362   1.512
  741TIP3    H1 2166   7.247   2.332   1.522
  741TIP3    H2 2167   7.108   2.284   1.486
  742TIP3   OH2 2168   3.443   5.368   4.553
  742TIP3    H1 2169   3.363   5.390   4.601
  742TIP3    H2 2170   3.470   5.451   4.513
  743TIP3   OH2 2171   5.076   0.041   4.395
  743TIP3    H1 2172   5.083   0.110   4.461
  743TIP3    H2 2173   5.018   0.078   4.328
  744TIP3   OH2 2174   7.024   5.146   3.284
  744TIP3    H1 2175   7.104   5.101   3.311
  744TIP3    H2 2176   6.956   5.079   3.287
  745TIP3   OH2 2177   1.740   0.118   6.427
  745TIP3    H1 2178   1.673   0.064   6.470
  745TIP3    H2 2179   1.690   0.180   6.374
  746TIP3   OH2 2180   5.899   4.069   5.049
  746TIP3    H1 2181   5.922   4.124   4.975
  746TIP3    H2 2182   5.894   4.129   5.123
  747TIP3   OH2 2183   0.693   1.720   1.751
  747TIP3    H1 2184   0.621   1.690   1.695
  747TIP3    H2 2185   0.650   1.749   1.832
  748TIP3   OH2 2186   5.432   0.195   6.691
  748TIP3    H1 2187   5.519   0.234   6.694
  748TIP3    H2 2188   5.434   0.135   6.616
  749TIP3   OH2 2189   1.616   1.727   6.235
  749TIP3    H1 2190   1.615   1.719   6.140
  749TIP3    H2 2191   1.641   1.640   6.266
  750TIP3   OH2 2192   3.074   5.324   2.687
  750TIP3    H1 2193   3.108   5.264   2.620
  750TIP3    H2 2194   3.082   5.275   2.769
  751TIP3   OH2 2195   3.311   2.229   2.034
  751TIP3    H1 2196   3.388   2.211   2.087
  751TIP3    H2 2197   3.268   2.302   2.078
  752TIP3   OH2 2198   6.939   2.147   3.977
  752TIP3    H1 2199   6.912   2.141   3.886
  752TIP3    H2 2200   6.929   2.240   3.999
  753TIP3   OH2 2201   7.334   5.773   1.485
  753TIP3    H1 2202   7.354   5.852   1.434
  753TIP3    H2 2203   7.333   5.703   1.420
  754TIP3   OH2 2204   7.845   5.958   1.439
  754TIP3    H1 2205   7.767   5.944   1.493
  754TIP3    H2 2206   7.816   6.020   1.372
  755TIP3   OH2 2207   2.800   7.331   1.460
  755TIP3    H1 2208   2.890   7.298   1.465
  755TIP3    H2 2209   2.800   7.407   1.520
  756TIP3   OH2 2210   1.004   3.009   4.335
  756TIP3    H1 2211   1.064   3.016   4.261
  756TIP3    H2 2212   1.058   3.026   4.412
  757TIP3   OH2 2213   6.575   2.883   2.165
  757TIP3    H1 2214   6.510   2.845   2.106
  757TIP3    H2 2215   6.601   2.811   2.222
  758TIP3   OH2 2216   4.656   5.646   4.893
  758TIP3    H1 2217   4.594   5.717   4.880
  758TIP3    H2 2218   4.683   5.620   4.805
  759TIP3   OH2 2219   1.542   2.486   0.468
  759TIP3    H1 2220   1.610   2.424   0.494
  759TIP3    H2 2221   1.467   2.463   0.522
  760TIP3   OH2 2222   5.757   4.624   1.739
  760TIP3    H1 2223   5.775   4.638   1.832
  760TIP3    H2 2224   5.709   4.702   1.713
  761TIP3   OH2 2225   5.250   4.418   2.548
  761TIP3    H1 2226   5.179   4.354   2.547
  761TIP3    H2 2227   5.329   4.367   2.564
  762TIP3   OH2 2228   3.742   3.160   6.473
  762TIP3    H1 2229   3.742   3.067   6.496
  762TIP3    H2 2230   3.698   3.202   6.547
  763TIP3   OH2 2231   3.992   6.051   1.761
  763TIP3    H1 2232   4.086   6.045   1.743
  763TIP3    H2 2233   3.952   6.076   1.678
  764TIP3   OH2 2234   7.222   7.508   3.796
  764TIP3    H1 2235   7.222   7.536   3.704
  764TIP3    H2 2236   7.135   7.533   3.828
  765TIP3   OH2 2237   6.696   1.165   3.116
  765TIP3    H1 2238   6.611   1.128   3.094
  765TIP3    H2 2239   6.759   1.101   3.083
  766TIP3   OH2 2240   1.160   1.256   0.632
  766TIP3    H1 2241   1.186   1.334   0.584
  766TIP3    H2 2242   1.184   1.274   0.723
  767TIP3   OH2 2243   0.203   6.843   4.404
  767TIP3    H1 2244   0.271   6.889   4.353
  767TIP3    H2 2245   0.223   6.750   4.391
  768TIP3   OH2 2246   4.985   0.322   1.481
  768TIP3    H1 2247   4.967   0.387   1.549
  768TIP3    H2 2248   5.063   0.276   1.512
  769TIP3   OH2 2249   4.801   7.180   4.112
  769TIP3    H1 2250   4.819   7.108   4.173
  769TIP3    H2 2251   4.825   7.145   4.026
  770TIP3   OH2 2252   3.828   1.837   2.949
  770TIP3    H1 2253   3.785   1.923   2.950
  770TIP3    H2 2254   3.906   1.849   3.003
  771TIP3   OH2 2255   2.138   6.713   3.166
  771TIP3    H1 2256   2.104   6.723   3.255
  771TIP3    H2 2257   2.216   6.768   3.164
  772TIP3   OH2 2258   4.542   1.823   2.892
  772TIP3    H1 2259   4.479   1.813   2.820
  772TIP3    H2 2260   4.605   1.753   2.877
  773TIP3   OH2 2261   0.098   4.666   6.142
  773TIP3    H1 2262   0.193   4.660   6.126
  773TIP3    H2 2263   0.091   4.672   6.237
  774TIP3   OH2 2264   4.183   2.469   1.323
  774TIP3    H1 2265   4.132   2.437   1.248
  774TIP3    H2 2266   4.122   2.463   1.397
  775TIP3   OH2 2267   1.476   1.294   4.352
  775TIP3    H1 2268   1.472   1.273   4.259
  775TIP3    H2 2269   1.473   1.209   4.396
  776TIP3   OH2 2270   4.425   5.855   5.359
  776TIP3    H1 2271   4.336   5.830   5.334
  776TIP3    H2 2272   4.443   5.805   5.439
  777TIP3   OH2 2273   2.575   7.277   5.199
  777TIP3    H1 2274   2.608   7.269   5.110
  777TIP3    H2 2275   2.524   7.358   5.199
  778TIP3   OH2 2276   5.231   6.398   6.329
  778TIP3    H1 2277   5.162   6.451   6.289
  778TIP3    H2 2278   5.188   6.316   6.353
  779TIP3   OH2 2279   2.271   1.413   2.892
  779TIP3    H1 2280   2.273   1.389   2.799
  779TIP3    H2 2281   2.363   1.427   2.915
  780TIP3   OH2 2282   0.574   2.609   3.242
  780TIP3    H1 2283   0.618   2.577   3.321
  780TIP3    H2 2284   0.621   2.690   3.220
  781TIP3   OH2 2285   3.276   1.163   3.970
  781TIP3    H1 2286   3.231   1.086   4.005
  781TIP3    H2 2287   3.222   1.237   3.996
  782TIP3   OH2 2288   1.971   4.607   3.086
  782TIP3    H1 2289   2.041   4.594   3.023
  782TIP3    H2 2290   1.939   4.696   3.070
  783TIP3   OH2 2291   0.600   5.835   1.508
  783TIP3    H1 2292   0.605   5.896   1.582
  783TIP3    H2 2293   0.679   5.853   1.458
  784TIP3   OH2 2294   1.279   1.384   1.315
  784TIP3    H1 2295   1.244   1.349   1.233
  784TIP3    H2 2296   1.353   1.439   1.288
  785TIP3   OH2 2297   2.423   4.690  -0.017
  785TIP3    H1 2298   2.395   4.626   0.048
  785TIP3    H2 2299   2.516   4.705   0.002
  786TIP3   OH2 2300   3.341   0.350   2.777
  786TIP3    H1 2301   3.308   0.391   2.857
  786TIP3    H2 2302   3.284   0.383   2.708
  787TIP3   OH2 2303   1.722   3.737   4.002
  787TIP3    H1 2304   1.643   3.769   3.960
  787TIP3    H2 2305   1.723   3.643   3.981
  788TIP3   OH2 2306   2.845   5.968   5.031
  788TIP3    H1 2307   2.934   5.961   5.067
  788TIP3    H2 2308   2.788   5.962   5.107
  789TIP3   OH2 2309   3.685   3.582   6.540
  789TIP3    H1 2310   3.722   3.634   6.468
  789TIP3    H2 2311   3.699   3.636   6.618
  790TIP3   OH2 2312   7.386   6.629   3.695
  790TIP3    H1 2313   7.319   6.692   3.669
  790TIP3    H2 2314   7.412   6.586   3.613
  791TIP3   OH2 2315   5.412   5.163   5.035
  791TIP3    H1 2316   5.383   5.202   4.953
  791TIP3    H2 2317   5.376   5.074   5.033
  792TIP3   OH2 2318   7.500   0.905   4.164
  792TIP3    H1 2319   7.416   0.919   4.120
  792TIP3    H2 2320   7.548   0.987   4.151
  793TIP3   OH2 2321   3.890   1.290   0.208
  793TIP3    H1 2322   3.974   1.324   0.237
  793TIP3    H2 2323   3.911   1.226   0.140
  794TIP3   OH2 2324   2.018   2.705   4.543
  794TIP3    H1 2325   2.109   2.720   4.567
  794TIP3    H2 2326   1.976   2.791   4.550
  795TIP3   OH2 2327   1.139   4.548   0.043
  795TIP3    H1 2328   1.058   4.519   0.084
  795TIP3    H2 2329   1.133   4.516  -0.047
  796TIP3   OH2 2330   0.242   7.667   6.712
  796TIP3    H1 2331   0.206   7.631   6.793
  796TIP3    H2 2332   0.250   7.591   6.654
  797TIP3   OH2 2333   6.581   4.186   2.064
  797TIP3    H1 2334   6.585   4.118   2.132
  797TIP3    H2 2335   6.540   4.143   1.989
  798TIP3   OH2 2336   0.573   1.616   2.452
  798TIP3    H1 2337   0.632   1.675   2.499
  798TIP3    H2 2338   0.629   1.571   2.389
  799TIP3   OH2 2339   7.374   5.455   6.219
  799TIP3    H1 2340   7.283   5.483   6.229
  799TIP3    H2 2341   7.383   5.435   6.126
  800TIP3   OH2 2342   4.311   6.505   0.419
  800TIP3    H1 2343   4.248   6.454   0.369
  800TIP3    H2 2344   4.357   6.558   0.353
  801TIP3   OH2 2345   2.170   3.918   2.159
  801TIP3    H1 2346   2.230   3.844   2.169
  801TIP3    H2 2347   2.091   3.891   2.206
  802TIP3   OH2 2348   2.227   2.991   2.545
  802TIP3    H1 2349   2.268   3.040   2.616
  802TIP3    H2 2350   2.209   2.905   2.582
  803TIP3   OH2 2351   5.044   1.194   1.900
  803TIP3    H1 2352   5.089   1.125   1.949
  803TIP3    H2 2353   4.978   1.227   1.960
  804TIP3   OH2 2354   4.058   2.342   4.995
  804TIP3    H1 2355   4.052   2.333   4.900
  804TIP3    H2 2356   4.148   2.317   5.016
  805TIP3   OH2 2357   5.992   0.100   2.795
  805TIP3    H1 2358   6.006   0.007   2.812
  805TIP3    H2 2359   5.995   0.141   2.881
  806TIP3   OH2 2360   6.860   1.737   0.788
  806TIP3    H1 2361   6.776   1.697   0.765
  806TIP3    H2 2362   6.914   1.724   0.711
  807TIP3   OH2 2363   0.927   2.047   0.244
  807TIP3    H1 2364   0.987   1.989   0.290
  807TIP3    H2 2365   0.913   2.006   0.159
  808TIP3   OH2 2366   5.135   6.494   1.629
  808TIP3    H1 2367   5.131   6.399   1.625
  808TIP3    H2 2368   5.189   6.513   1.706
  809TIP3   OH2 2369   2.362   0.521   2.641
  809TIP3    H1 2370   2.323   0.592   2.691
  809TIP3    H2 2371   2.410   0.470   2.707
  810TIP3   OH2 2372   6.157   3.357   3.996
  810TIP3    H1 2373   6.071   3.368   4.036
  810TIP3    H2 2374   6.199   3.443   4.006
  811TIP3   OH2 2375   4.572   0.428   1.189
  811TIP3    H1 2376   4.599   0.354   1.135
  811TIP3    H2 2377   4.646   0.489   1.186
  812TIP3   OH2 2378   7.244   7.319   3.184
  812TIP3    H1 2379   7.223   7.262   3.110
  812TIP3    H2 2380   7.321   7.278   3.224
  813TIP3   OH2 2381   4.115   3.224   1.943
  813TIP3    H1 2382   4.030   3.266   1.938
  813TIP3    H2 2383   4.178   3.295   1.930
  814TIP3   OH2 2384   0.700   2.854   5.353
  814TIP3    H1 2385   0.766   2.821   5.293
  814TIP3    H2 2386   0.720   2.947   5.362
  815TIP3   OH2 2387   1.503   7.263   2.062
  815TIP3    H1 2388   1.546   7.185   2.095
  815TIP3    H2 2389   1.526   7.267   1.969
  816TIP3   OH2 2390   0.640   3.347   2.469
  816TIP3    H1 2391   0.732   3.319   2.463
  816TIP3    H2 2392   0.645   3.437   2.499
  817TIP3   OH2 2393   1.133   1.325   4.918
  817TIP3    H1 2394   1.065   1.283   4.970
  817TIP3    H2 2395   1.143   1.269   4.841
  818TIP3   OH2 2396   7.976   3.187   1.587
  818TIP3    H1 2397   7.969   3.096   1.561
  818TIP3    H2 2398   7.972   3.185   1.683
  819TIP3   OH2 2399   5.490   1.714   3.464
  819TIP3    H1 2400   5.450   1.626   3.465
  819TIP3    H2 2401   5.523   1.726   3.552
  820TIP3   OH2 2402   5.822   1.293   4.016
  820TIP3    H1 2403   5.880   1.305   3.942
  820TIP3    H2 2404   5.866   1.230   4.072
  821TIP3   OH2 2405   7.335   2.633   3.588
  821TIP3    H1 2406   7.274   2.679   3.645
  821TIP3    H2 2407   7.422   2.666   3.613
  822TIP3   OH2 2408   6.223   0.806   4.495
  822TIP3    H1 2409   6.206   0.720   4.534
  822TIP3    H2 2410   6.229   0.865   4.570
  823TIP3   OH2 2411   5.462   6.773   2.239
  823TIP3    H1 2412   5.484   6.706   2.175
  823TIP3    H2 2413   5.545   6.816   2.258
  824TIP3   OH2 2414   1.783   6.906   5.138
  824TIP3    H1 2415   1.849   6.845   5.170
  824TIP3    H2 2416   1.731   6.855   5.077
  825TIP3   OH2 2417   5.372   0.999   2.430
  825TIP3    H1 2418   5.433   0.991   2.503
  825TIP3    H2 2419   5.289   0.965   2.464
  826TIP3   OH2 2420   8.190   6.905   4.272
  826TIP3    H1 2421   8.285   6.917   4.274
  826TIP3    H2 2422   8.165   6.929   4.183
  827TIP3   OH2 2423   8.032   6.521   5.608
  827TIP3    H1 2424   8.098   6.508   5.540
  827TIP3    H2 2425   8.065   6.593   5.661
  828TIP3   OH2 2426   7.892   0.534   5.106
  828TIP3    H1 2427   7.972   0.543   5.158
  828TIP3    H2 2428   7.909   0.459   5.049
  829TIP3   OH2 2429   0.678   2.609   6.430
  829TIP3    H1 2430   0.675   2.654   6.514
  829TIP3    H2 2431   0.712   2.674   6.369
  830TIP3   OH2 2432   2.121   7.354   5.591
  830TIP3    H1 2433   2.082   7.439   5.569
  830TIP3    H2 2434   2.072   7.291   5.538
  831TIP3   OH2 2435   4.554   5.678   0.690
  831TIP3    H1 2436   4.500   5.603   0.714
  831TIP3    H2 2437   4.514   5.711   0.610
  832TIP3   OH2 2438   2.329   4.231   5.377
  832TIP3    H1 2439   2.381   4.273   5.309
  832TIP3    H2 2440   2.376   4.150   5.397
  833TIP3   OH2 2441   1.469   3.067   3.442
  833TIP3    H1 2442   1.518   2.995   3.403
  833TIP3    H2 2443   1.453   3.127   3.370
  834TIP3   OH2 2444   2.729   1.884   4.840
  834TIP3    H1 2445   2.679   1.813   4.799
  834TIP3    H2 2446   2.746   1.945   4.768
  835TIP3   OH2 2447   6.082   7.701   6.332
  835TIP3    H1 2448   5.999   7.749   6.327
  835TIP3    H2 2449   6.079   7.640   6.259
  836TIP3   OH2 2450   6.189   2.069   4.385
  836TIP3    H1 2451   6.249   2.087   4.312
  836TIP3    H2 2452   6.157   2.155   4.412
  837TIP3   OH2 2453   2.363   2.158   6.332
  837TIP3    H1 2454   2.301   2.231   6.324
  837TIP3    H2 2455   2.388   2.137   6.242
  838TIP3   OH2 2456   4.326   3.999   3.788
  838TIP3    H1 2457   4.296   4.030   3.873
  838TIP3    H2 2458   4.420   3.987   3.798
  839TIP3   OH2 2459   7.576   0.989   4.724
  839TIP3    H1 2460   7.569   0.936   4.804
  839TIP3    H2 2461   7.597   0.926   4.655
  840TIP3   OH2 2462   6.102   2.838   1.032
  840TIP3    H1 2463   6.056   2.841   1.116
  840TIP3    H2 2464   6.142   2.752   1.029
  841TIP3   OH2 2465   7.056   1.378   0.438
  841TIP3    H1 2466   6.988   1.424   0.389
  841TIP3    H2 2467   7.011   1.304   0.479
  842TIP3   OH2 2468   7.656   6.090   1.994
  842TIP3    H1 2469   7.710   6.033   1.940
  842TIP3    H2 2470   7.573   6.043   2.004
  843TIP3   OH2 2471   0.907   7.061   5.160
  843TIP3    H1 2472   0.834   7.118   5.182
  843TIP3    H2 2473   0.920   7.073   5.066
  844TIP3   OH2 2474   1.122   1.052   1.413
  844TIP3    H1 2475   1.091   1.139   1.438
  844TIP3    H2 2476   1.211   1.047   1.447
  845TIP3   OH2 2477   6.924   5.669   6.299
  845TIP3    H1 2478   6.847   5.695   6.248
  845TIP3    H2 2479   6.907   5.701   6.387
  846TIP3   OH2 2480   0.712   6.248   6.222
  846TIP3    H1 2481   0.648   6.176   6.224
  846TIP3    H2 2482   0.792   6.208   6.187
  847TIP3   OH2 2483   3.822   5.122   3.628
  847TIP3    H1 2484   3.810   5.180   3.703
  847TIP3    H2 2485   3.873   5.049   3.662
  848TIP3   OH2 2486   3.891   1.569   6.753
  848TIP3    H1 2487   3.824   1.593   6.817
  848TIP3    H2 2488   3.907   1.650   6.704
  849TIP3   OH2 2489   0.362   7.658   2.524
  849TIP3    H1 2490   0.337   7.751   2.531
  849TIP3    H2 2491   0.443   7.659   2.474
  850TIP3   OH2 2492   6.246   0.590   3.234
  850TIP3    H1 2493   6.325   0.592   3.288
  850TIP3    H2 2494   6.196   0.515   3.265
  851TIP3   OH2 2495   3.785   2.451   4.010
  851TIP3    H1 2496   3.713   2.403   3.969
  851TIP3    H2 2497   3.847   2.384   4.038
  852TIP3   OH2 2498   1.049   5.205   1.041
  852TIP3    H1 2499   1.087   5.268   0.980
  852TIP3    H2 2500   1.117   5.191   1.107
  853TIP3   OH2 2501   2.659   3.690   6.516
  853TIP3    H1 2502   2.727   3.752   6.542
  853TIP3    H2 2503   2.651   3.702   6.421
  854TIP3   OH2 2504   4.805   6.994   5.616
  854TIP3    H1 2505   4.710   6.987   5.604
  854TIP3    H2 2506   4.842   6.956   5.536
  855TIP3   OH2 2507   7.235   7.006   4.612
  855TIP3    H1 2508   7.324   6.984   4.640
  855TIP3    H2 2509   7.243   7.021   4.518
  856TIP3   OH2 2510   0.340   0.673   4.536
  856TIP3    H1 2511   0.244   0.671   4.530
  856TIP3    H2 2512   0.369   0.669   4.445
  857TIP3   OH2 2513   5.286   1.546   0.088
  857TIP3    H1 2514   5.353   1.544   0.155
  857TIP3    H2 2515   5.331   1.577   0.009
  858TIP3   OH2 2516   5.179   4.573   2.307
  858TIP3    H1 2517   5.180   4.546   2.215
  858TIP3    H2 2518   5.207   4.495   2.355
  859TIP3   OH2 2519   7.380   4.666   6.554
  859TIP3    H1 2520   7.433   4.688   6.631
  859TIP3    H2 2521   7.427   4.706   6.481
  860TIP3   OH2 2522   6.711   6.605   3.352
  860TIP3    H1 2523   6.672   6.690   3.332
  860TIP3    H2 2524   6.765   6.621   3.430
  861TIP3   OH2 2525   6.287   3.711   5.057
  861TIP3    H1 2526   6.284   3.617   5.076
  861TIP3    H2 2527   6.347   3.747   5.122
  862TIP3   OH2 2528   4.892   2.061   5.176
  862TIP3    H1 2529   4.940   2.143   5.166
  862TIP3    H2 2530   4.887   2.025   5.087
  863TIP3   OH2 2531   3.779   6.182   4.674
  863TIP3    H1 2532   3.854   6.241   4.667
  863TIP3    H2 2533   3.704   6.236   4.651
  864TIP3   OH2 2534   3.404   4.116   5.611
  864TIP3    H1 2535   3.455   4.095   5.533
  864TIP3    H2 2536   3.439   4.200   5.641
  865TIP3   OH2 2537   8.038   4.876   0.480
  865TIP3    H1 2538   8.110   4.936   0.496
  865TIP3    H2 2539   7.978   4.924   0.422
  866TIP3   OH2 2540   0.491   3.230   2.229
  866TIP3    H1 2541   0.500   3.324   2.247
  866TIP3    H2 2542   0.396   3.215   2.229
  867TIP3   OH2 2543   6.562   3.439   4.204
  867TIP3    H1 2544   6.499   3.511   4.209
  867TIP3    H2 2545   6.638   3.470   4.253
  868TIP3   OH2 2546   2.483   4.834   5.143
  868TIP3    H1 2547   2.471   4.929   5.146
  868TIP3    H2 2548   2.576   4.821   5.162
  869TIP3   OH2 2549   3.912   4.223   1.514
  869TIP3    H1 2550   3.866   4.264   1.587
  869TIP3    H2 2551   3.897   4.129   1.526
  870TIP3   OH2 2552   2.463   4.405   4.298
  870TIP3    H1 2553   2.544   4.355   4.307
  870TIP3    H2 2554   2.484   4.492   4.332
  871TIP3   OH2 2555   8.113   6.086   1.208
  871TIP3    H1 2556   8.140   6.100   1.299
  871TIP3    H2 2557   8.161   6.153   1.159
  872TIP3   OH2 2558   5.854   4.063   1.096
  872TIP3    H1 2559   5.933   4.012   1.115
  872TIP3    H2 2560   5.822   4.027   1.013
  873TIP3   OH2 2561   6.425   3.994   5.015
  873TIP3    H1 2562   6.500   4.000   5.074
  873TIP3    H2 2563   6.367   4.064   5.044
  874TIP3   OH2 2564   2.537   7.484  -0.017
  874TIP3    H1 2565   2.468   7.510   0.044
  874TIP3    H2 2566   2.619   7.500   0.031
  875TIP3   OH2 2567   0.718   6.231   3.150
  875TIP3    H1 2568   0.721   6.262   3.059
  875TIP3    H2 2569   0.760   6.145   3.147
  876TIP3   OH2 2570   3.018   5.109   4.040
  876TIP3    H1 2571   3.102   5.074   4.010
  876TIP3    H2 2572   2.973   5.033   4.077
  877TIP3   OH2 2573   4.069   7.414   0.973
  877TIP3    H1 2574   4.067   7.497   0.925
  877TIP3    H2 2575   4.100   7.350   0.910
  878TIP3   OH2 2576   4.547   2.777   1.798
  878TIP3    H1 2577   4.559   2.683   1.808
  878TIP3    H2 2578   4.542   2.810   1.888
  879TIP3   OH2 2579   7.717   5.065   5.934
  879TIP3    H1 2580   7.764   5.149   5.930
  879TIP3    H2 2581   7.624   5.090   5.937
  880TIP3   OH2 2582   0.548   3.349   1.526
  880TIP3    H1 2583   0.579   3.420   1.581
  880TIP3    H2 2584   0.517   3.282   1.587
  881TIP3   OH2 2585   2.005   7.278   0.089
  881TIP3    H1 2586   1.960   7.198   0.115
  881TIP3    H2 2587   2.052   7.306   0.168
  882TIP3   OH2 2588   3.925   2.690   4.963
  882TIP3    H1 2589   3.960   2.692   5.052
  882TIP3    H2 2590   3.833   2.716   4.972
  883TIP3   OH2 2591   3.715   1.924   5.941
  883TIP3    H1 2592   3.767   1.927   6.021
  883TIP3    H2 2593   3.628   1.897   5.970
  884TIP3   OH2 2594   0.610   4.139   4.559
  884TIP3    H1 2595   0.528   4.090   4.554
  884TIP3    H2 2596   0.679   4.073   4.553
  885TIP3   OH2 2597   4.607   0.493   3.040
  885TIP3    H1 2598   4.689   0.489   3.089
  885TIP3    H2 2599   4.629   0.462   2.952
  886TIP3   OH2 2600   7.829   4.321   2.910
  886TIP3    H1 2601   7.770   4.387   2.945
  886TIP3    H2 2602   7.775   4.243   2.897
  887TIP3   OH2 2603   3.050   4.405   5.290
  887TIP3    H1 2604   2.986   4.457   5.242
  887TIP3    H2 2605   3.037   4.429   5.382
  888TIP3   OH2 2606   5.993   2.662   0.352
  888TIP3    H1 2607   6.067   2.619   0.394
  888TIP3    H2 2608   5.998   2.634   0.260
  889TIP3   OH2 2609   7.211   0.960   6.126
  889TIP3    H1 2610   7.131   0.974   6.175
  889TIP3    H2 2611   7.185   0.905   6.052
  890TIP3   OH2 2612   6.248   2.099   1.168
  890TIP3    H1 2613   6.311   2.171   1.180
  890TIP3    H2 2614   6.171   2.140   1.130
  891TIP3   OH2 2615   6.322   2.259   6.194
  891TIP3    H1 2616   6.355   2.278   6.282
  891TIP3    H2 2617   6.360   2.174   6.172
  892TIP3   OH2 2618   5.280   3.371   6.257
  892TIP3    H1 2619   5.343   3.301   6.239
  892TIP3    H2 2620   5.218   3.367   6.185
  893TIP3   OH2 2621   0.664   2.001   2.398
  893TIP3    H1 2622   0.619   1.951   2.465
  893TIP3    H2 2623   0.659   1.947   2.319
  894TIP3   OH2 2624   7.368   2.948   4.191
  894TIP3    H1 2625   7.342   2.952   4.283
  894TIP3    H2 2626   7.367   2.854   4.170
  895TIP3   OH2 2627   6.781   5.785   2.908
  895TIP3    H1 2628   6.751   5.819   2.823
  895TIP3    H2 2629   6.813   5.698   2.888
  896TIP3   OH2 2630   7.376   7.324   0.460
  896TIP3    H1 2631   7.307   7.389   0.469
  896TIP3    H2 2632   7.352   7.274   0.382
  897TIP3   OH2 2633   1.020   1.203   5.803
  897TIP3    H1 2634   1.004   1.109   5.793
  897TIP3    H2 2635   1.071   1.210   5.883
  898TIP3   OH2 2636   6.571   1.527   3.181
  898TIP3    H1 2637   6.562   1.503   3.273
  898TIP3    H2 2638   6.548   1.620   3.177
  899TIP3   OH2 2639   4.693   7.862   1.270
  899TIP3    H1 2640   4.682   7.822   1.356
  899TIP3    H2 2641   4.692   7.788   1.208
  900TIP3   OH2 2642   7.350   2.281   4.831
  900TIP3    H1 2643   7.370   2.363   4.786
  900TIP3    H2 2644   7.408   2.216   4.790
  901TIP3   OH2 2645   2.259   4.058   1.943
  901TIP3    H1 2646   2.226   3.999   2.011
  901TIP3    H2 2647   2.244   4.145   1.978
  902TIP3   OH2 2648   4.697   6.388   3.936
  902TIP3    H1 2649   4.764   6.320   3.942
  902TIP3    H2 2650   4.714   6.431   3.852
  903TIP3   OH2 2651   4.931   3.896   0.732
  903TIP3    H1 2652   5.003   3.864   0.787
  903TIP3    H2 2653   4.864   3.925   0.794
  904TIP3   OH2 2654   4.339   6.512   4.521
  904TIP3    H1 2655   4.366   6.510   4.429
  904TIP3    H2 2656   4.244   6.518   4.518
  905TIP3   OH2 2657   0.572   4.816   4.209
  905TIP3    H1 2658   0.502   4.752   4.221
  905TIP3    H2 2659   0.645   4.765   4.174
  906TIP3   OH2 2660   4.844   3.076   3.630
  906TIP3    H1 2661   4.908   3.049   3.696
  906TIP3    H2 2662   4.772   3.013   3.641
  907TIP3   OH2 2663   4.609   5.208   3.809
  907TIP3    H1 2664   4.516   5.191   3.823
  907TIP3    H2 2665   4.622   5.195   3.715
  908TIP3   OH2 2666   4.514   0.907   2.050
  908TIP3    H1 2667   4.432   0.910   2.002
  908TIP3    H2 2668   4.570   0.849   1.999
  909TIP3   OH2 2669   6.668   6.042   0.926
  909TIP3    H1 2670   6.624   5.957   0.937
  909TIP3    H2 2671   6.742   6.038   0.987
  910TIP3   OH2 2672   1.679   2.062   3.187
  910TIP3    H1 2673   1.703   1.996   3.122
  910TIP3    H2 2674   1.725   2.141   3.159
  911TIP3   OH2 2675   5.662   1.613   4.136
  911TIP3    H1 2676   5.584   1.557   4.142
  911TIP3    H2 2677   5.662   1.662   4.218
  912TIP3   OH2 2678   4.853   0.960   4.266
  912TIP3    H1 2679   4.897   1.001   4.341
  912TIP3    H2 2680   4.861   1.025   4.196
  913TIP3   OH2 2681   1.216   0.591   1.018
  913TIP3    H1 2682   1.307   0.612   0.995
  913TIP3    H2 2683   1.179   0.674   1.048
  914TIP3   OH2 2684   4.807   1.119   3.939
  914TIP3    H1 2685   4.741   1.103   3.871
  914TIP3    H2 2686   4.852   1.035   3.948
  915TIP3   OH2 2687   0.382   3.814   4.227
  915TIP3    H1 2688   0.471   3.839   4.250
  915TIP3    H2 2689   0.331   3.894   4.238
  916TIP3   OH2 2690   7.205   5.169   3.914
  916TIP3    H1 2691   7.139   5.169   3.846
  916TIP3    H2 2692   7.196   5.084   3.957
  917TIP3   OH2 2693   4.361   4.396   2.142
  917TIP3    H1 2694   4.357   4.330   2.073
  917TIP3    H2 2695   4.350   4.346   2.223
  918TIP3   OH2 2696   3.285   3.714   3.510
  918TIP3    H1 2697   3.226   3.641   3.531
  918TIP3    H2 2698   3.238   3.792   3.540
  919TIP3   OH2 2699   1.969   2.300   4.704
  919TIP3    H1 2700   1.994   2.281   4.614
  919TIP3    H2 2701   2.021   2.240   4.757
  920TIP3   OH2 2702   3.980   6.059   4.429
  920TIP3    H1 2703   3.990   6.137   4.374
  920TIP3    H2 2704   4.037   5.994   4.388
  921TIP3   OH2 2705   2.009   2.349   6.167
  921TIP3    H1 2706   1.947   2.413   6.201
  921TIP3    H2 2707   1.956   2.273   6.145
  922TIP3   OH2 2708   7.127   0.515   5.373
  922TIP3    H1 2709   7.127   0.460   5.451
  922TIP3    H2 2710   7.060   0.478   5.316
  923TIP3   OH2 2711   1.139   2.079   3.047
  923TIP3    H1 2712   1.202   2.041   2.987
  923TIP3    H2 2713   1.183   2.157   3.082
  924TIP3   OH2 2714   0.155   6.546   3.473
  924TIP3    H1 2715   0.219   6.486   3.512
  924TIP3    H2 2716   0.208   6.606   3.421
  925TIP3   OH2 2717   4.904   6.862   6.322
  925TIP3    H1 2718   4.888   6.805   6.247
  925TIP3    H2 2719   4.837   6.838   6.386
  926TIP3   OH2 2720   7.352   6.606   4.674
  926TIP3    H1 2721   7.435   6.632   4.636
  926TIP3    H2 2722   7.359   6.511   4.685
  927TIP3   OH2 2723   5.827   3.183   3.839
  927TIP3    H1 2724   5.819   3.241   3.763
  927TIP3    H2 2725   5.866   3.103   3.804
  928TIP3   OH2 2726   0.977   3.088   5.731
  928TIP3    H1 2727   0.902   3.029   5.725
  928TIP3    H2 2728   0.992   3.098   5.825
  929TIP3   OH2 2729   3.611   3.898   1.546
  929TIP3    H1 2730   3.706   3.899   1.559
  929TIP3    H2 2731   3.580   3.828   1.604
  930TIP3   OH2 2732   7.211   0.295   0.236
  930TIP3    H1 2733   7.275   0.357   0.201
  930TIP3    H2 2734   7.183   0.334   0.320
  931TIP3   OH2 2735   0.610   1.834   3.844
  931TIP3    H1 2736   0.586   1.792   3.762
  931TIP3    H2 2737   0.691   1.882   3.824
  932TIP3   OH2 2738   1.261   3.537   1.478
  932TIP3    H1 2739   1.187   3.596   1.494
  932TIP3    H2 2740   1.320   3.553   1.552
  933TIP3   OH2 2741   4.001   3.109   3.779
  933TIP3    H1 2742   4.026   3.022   3.810
  933TIP3    H2 2743   4.055   3.124   3.701
  934TIP3   OH2 2744   1.628   7.018   2.022
  934TIP3    H1 2745   1.600   6.980   2.105
  934TIP3    H2 2746   1.680   6.950   1.981
  935TIP3   OH2 2747   6.953   4.331   1.234
  935TIP3    H1 2748   7.003   4.317   1.315
  935TIP3    H2 2749   6.992   4.269   1.172
  936TIP3   OH2 2750   4.055   2.425   5.638
  936TIP3    H1 2751   3.981   2.368   5.615
  936TIP3    H2 2752   4.046   2.501   5.580
  937TIP3   OH2 2753   0.686   7.714   1.750
  937TIP3    H1 2754   0.595   7.696   1.727
  937TIP3    H2 2755   0.721   7.631   1.781
  938TIP3   OH2 2756   2.249   6.766   6.040
  938TIP3    H1 2757   2.232   6.678   6.007
  938TIP3    H2 2758   2.240   6.823   5.964
  939TIP3   OH2 2759   6.768   0.535   4.286
  939TIP3    H1 2760   6.721   0.601   4.337
  939TIP3    H2 2761   6.796   0.471   4.351
  940TIP3   OH2 2762   8.110   7.255   1.413
  940TIP3    H1 2763   8.019   7.269   1.385
  940TIP3    H2 2764   8.157   7.236   1.332
  941TIP3   OH2 2765   7.497   6.470   6.512
  941TIP3    H1 2766   7.444   6.539   6.552
  941TIP3    H2 2767   7.554   6.517   6.450
  942TIP3   OH2 2768   6.090   4.473   2.372
  942TIP3    H1 2769   6.107   4.504   2.283
  942TIP3    H2 2770   6.011   4.520   2.399
  943TIP3   OH2 2771   1.347   4.848   4.805
  943TIP3    H1 2772   1.433   4.868   4.767
  943TIP3    H2 2773   1.366   4.787   4.876
  944TIP3   OH2 2774   1.331   3.272   4.299
  944TIP3    H1 2775   1.326   3.210   4.227
  944TIP3    H2 2776   1.321   3.218   4.378
  945TIP3   OH2 2777   6.953   3.342   5.077
  945TIP3    H1 2778   6.882   3.377   5.132
  945TIP3    H2 2779   6.970   3.255   5.113
  946TIP3   OH2 2780   6.265   0.918   2.292
  946TIP3    H1 2781   6.231   0.987   2.235
  946TIP3    H2 2782   6.298   0.852   2.232
  947TIP3   OH2 2783   1.169   1.610   5.017
  947TIP3    H1 2784   1.179   1.545   5.086
  947TIP3    H2 2785   1.206   1.690   5.053
  948TIP3   OH2 2786   2.205   3.270   2.919
  948TIP3    H1 2787   2.112   3.268   2.899
  948TIP3    H2 2788   2.230   3.361   2.904
  949TIP3   OH2 2789   5.412   0.241   3.459
  949TIP3    H1 2790   5.337   0.207   3.409
  949TIP3    H2 2791   5.480   0.256   3.393
  950TIP3   OH2 2792   2.215   4.127   2.491
  950TIP3    H1 2793   2.282   4.081   2.440
  950TIP3    H2 2794   2.161   4.057   2.529
  951TIP3   OH2 2795   3.515   5.207   1.099
  951TIP3    H1 2796   3.456   5.168   1.035
  951TIP3    H2 2797   3.477   5.293   1.117
  952TIP3   OH2 2798   6.142   0.821   0.813
  952TIP3    H1 2799   6.176   0.748   0.866
  952TIP3    H2 2800   6.056   0.791   0.784
  953TIP3   OH2 2801   4.941   3.500   5.861
  953TIP3    H1 2802   4.930   3.407   5.878
  953TIP3    H2 2803   4.854   3.538   5.878
  954TIP3   OH2 2804   1.619   5.025   4.206
  954TIP3    H1 2805   1.593   5.021   4.114
  954TIP3    H2 2806   1.699   5.078   4.206
  955TIP3   OH2 2807   1.163   6.882   4.159
  955TIP3    H1 2808   1.254   6.850   4.156
  955TIP3    H2 2809   1.118   6.830   4.093
  956TIP3   OH2 2810   2.635   4.064   0.324
  956TIP3    H1 2811   2.641   4.146   0.274
  956TIP3    H2 2812   2.542   4.049   0.335
  957TIP3   OH2 2813   7.402   2.448   1.766
  957TIP3    H1 2814   7.452   2.481   1.692
  957TIP3    H2 2815   7.459   2.461   1.841
  958TIP3   OH2 2816   3.363   6.017   5.407
  958TIP3    H1 2817   3.357   6.111   5.422
  958TIP3    H2 2818   3.376   5.979   5.494
  959TIP3   OH2 2819   8.186   7.581   4.801
  959TIP3    H1 2820   8.139   7.650   4.753
  959TIP3    H2 2821   8.248   7.546   4.737
  960TIP3   OH2 2822   2.590   3.065   2.933
  960TIP3    H1 2823   2.574   2.998   3.000
  960TIP3    H2 2824   2.681   3.052   2.907
  961TIP3   OH2 2825   1.758   7.303   6.602
  961TIP3    H1 2826   1.806   7.277   6.523
  961TIP3    H2 2827   1.801   7.254   6.672
  962TIP3   OH2 2828   3.119   6.994   0.597
  962TIP3    H1 2829   3.211   6.993   0.623
  962TIP3    H2 2830   3.102   7.086   0.575
  963TIP3   OH2 2831   1.883   7.083   0.446
  963TIP3    H1 2832   1.815   7.138   0.407
  963TIP3    H2 2833   1.839   7.035   0.515
  964TIP3   OH2 2834   4.475   0.615   0.169
  964TIP3    H1 2835   4.479   0.710   0.175
  964TIP3    H2 2836   4.562   0.585   0.194
  965TIP3   OH2 2837   2.153   7.696   6.279
  965TIP3    H1 2838   2.170   7.609   6.242
  965TIP3    H2 2839   2.187   7.756   6.213
  966TIP3   OH2 2840   1.410   4.879   5.488
  966TIP3    H1 2841   1.353   4.836   5.552
  966TIP3    H2 2842   1.419   4.969   5.522
  967TIP3   OH2 2843   2.269   4.635   0.719
  967TIP3    H1 2844   2.237   4.678   0.798
  967TIP3    H2 2845   2.260   4.701   0.651
  968TIP3   OH2 2846   1.443   1.113   2.007
  968TIP3    H1 2847   1.387   1.035   2.017
  968TIP3    H2 2848   1.401   1.179   2.063
  969TIP3   OH2 2849   5.030   4.555   6.531
  969TIP3    H1 2850   5.125   4.560   6.542
  969TIP3    H2 2851   5.014   4.595   6.445
  970TIP3   OH2 2852   0.568   3.818   0.956
  970TIP3    H1 2853   0.567   3.876   1.032
  970TIP3    H2 2854   0.497   3.850   0.900
  971TIP3   OH2 2855   4.539   4.563   4.555
  971TIP3    H1 2856   4.534   4.652   4.591
  971TIP3    H2 2857   4.620   4.527   4.589
  972TIP3   OH2 2858   2.981   6.505   4.289
  972TIP3    H1 2859   2.920   6.432   4.303
  972TIP3    H2 2860   2.928   6.574   4.251
  973TIP3   OH2 2861   0.940   3.982   5.647
  973TIP3    H1 2862   0.847   3.964   5.664
  973TIP3    H2 2863   0.986   3.911   5.690
  974TIP3   OH2 2864   2.393   1.072   2.316
  974TIP3    H1 2865   2.410   1.161   2.345
  974TIP3    H2 2866   2.398   1.077   2.220
  975TIP3   OH2 2867   0.688   0.251   1.639
  975TIP3    H1 2868   0.596   0.231   1.619
  975TIP3    H2 2869   0.684   0.316   1.709
  976TIP3   OH2 2870   5.465   2.547   4.502
  976TIP3    H1 2871   5.392   2.547   4.564
  976TIP3    H2 2872   5.466   2.637   4.467
  977TIP3   OH2 2873   0.244   7.538   3.092
  977TIP3    H1 2874   0.281   7.453   3.111
  977TIP3    H2 2875   0.319   7.596   3.083
  978TIP3   OH2 2876   2.543   3.342   3.030
  978TIP3    H1 2877   2.627   3.376   3.062
  978TIP3    H2 2878   2.563   3.255   2.997
  979TIP3   OH2 2879   2.867   4.704   0.529
  979TIP3    H1 2880   2.817   4.660   0.461
  979TIP3    H2 2881   2.845   4.797   0.519
  980TIP3   OH2 2882   1.242   3.535   2.635
  980TIP3    H1 2883   1.200   3.620   2.649
  980TIP3    H2 2884   1.317   3.536   2.694
  981TIP3   OH2 2885   4.221   7.234   6.138
  981TIP3    H1 2886   4.215   7.240   6.233
  981TIP3    H2 2887   4.133   7.209   6.110
  982TIP3   OH2 2888   4.878   0.628   2.771
  982TIP3    H1 2889   4.870   0.645   2.677
  982TIP3    H2 2890   4.800   0.576   2.793
  983TIP3   OH2 2891   5.899   4.677   6.353
  983TIP3    H1 2892   5.862   4.603   6.305
  983TIP3    H2 2893   5.930   4.639   6.436
  984TIP3   OH2 2894   2.322   5.528   5.339
  984TIP3    H1 2895   2.363   5.572   5.414
  984TIP3    H2 2896   2.248   5.584   5.317
  985TIP3   OH2 2897   3.063   5.369   0.340
  985TIP3    H1 2898   2.974   5.344   0.315
  985TIP3    H2 2899   3.097   5.416   0.264
  986TIP3   OH2 2900   2.938   3.090   0.623
  986TIP3    H1 2901   2.878   3.120   0.692
  986TIP3    H2 2902   2.888   3.097   0.542
  987TIP3   OH2 2903   4.522   0.981   0.143
  987TIP3    H1 2904   4.572   0.977   0.224
  987TIP3    H2 2905   4.439   1.021   0.168
  988TIP3   OH2 2906   5.389   3.394   4.597
  988TIP3    H1 2907   5.414   3.389   4.690
  988TIP3    H2 2908   5.302   3.354   4.593
  989TIP3   OH2 2909   8.229   3.454   2.384
  989TIP3    H1 2910   8.138   3.427   2.374
  989TIP3    H2 2911   8.227   3.525   2.448
  990TIP3   OH2 2912   5.302   2.480   1.754
  990TIP3    H1 2913   5.262   2.396   1.777
  990TIP3    H2 2914   5.355   2.504   1.830
  991TIP3   OH2 2915   4.128   6.993   2.549
  991TIP3    H1 2916   4.035   6.979   2.531
  991TIP3    H2 2917   4.155   6.915   2.597
  992TIP3   OH2 2918   1.598   4.824   4.403
  992TIP3    H1 2919   1.543   4.778   4.340
  992TIP3    H2 2920   1.614   4.909   4.363
  993TIP3   OH2 2921   2.630   5.401   3.905
  993TIP3    H1 2922   2.608   5.354   3.825
  993TIP3    H2 2923   2.577   5.360   3.973
  994TIP3   OH2 2924   2.125   7.306   1.636
  994TIP3    H1 2925   2.185   7.372   1.601
  994TIP3    H2 2926   2.048   7.312   1.581
  995TIP3   OH2 2927   3.710   7.214   0.987
  995TIP3    H1 2928   3.743   7.134   0.945
  995TIP3    H2 2929   3.755   7.217   1.072
  996TIP3   OH2 2930   0.425   3.712   6.570
  996TIP3    H1 2931   0.474   3.665   6.503
  996TIP3    H2 2932   0.431   3.657   6.648
  997TIP3   OH2 2933   7.766   3.502   1.764
  997TIP3    H1 2934   7.705   3.512   1.691
  997TIP3    H2 2935   7.807   3.588   1.773
  998TIP3   OH2 2936   2.225   6.901   6.546
  998TIP3    H1 2937   2.186   6.831   6.598
  998TIP3    H2 2938   2.318   6.877   6.540
  999TIP3   OH2 2939   6.470   5.304   4.609
  999TIP3    H1 2940   6.513   5.219   4.612
  999TIP3    H2 2941   6.396   5.291   4.549
 1000TIP3   OH2 2942   7.701   1.949   6.630
 1000TIP3    H1 2943   7.692   2.011   6.558
 1000TIP3    H2 2944   7.746   1.999   6.699
 1001TIP3   OH2 2945   0.455   1.566   6.133
 1001TIP3    H1 2946   0.513   1.612   6.072
 1001TIP3    H2 2947   0.513   1.507   6.181
 1002TIP3   OH2 2948   7.673   5.590   1.434
 1002TIP3    H1 2949   7.590   5.549   1.409
 1002TIP3    H2 2950   7.663   5.611   1.527
 1003TIP3   OH2 2951   0.176   6.427   3.818
 1003TIP3    H1 2952   0.269   6.411   3.801
 1003TIP3    H2 2953   0.164   6.406   3.911
 1004TIP3   OH2 2954   2.181   0.306   6.361
 1004TIP3    H1 2955   2.190   0.271   6.272
 1004TIP3    H2 2956   2.242   0.380   6.363
 1005TIP3   OH2 2957   4.473   7.080   1.820
 1005TIP3    H1 2958   4.482   7.043   1.907
 1005TIP3    H2 2959   4.537   7.032   1.766
 1006TIP3   OH2 2960   1.559   0.552   1.702
 1006TIP3    H1 2961   1.543   0.647   1.703
 1006TIP3    H2 2962   1.558   0.528   1.610
 1007TIP3   OH2 2963   6.723   6.609   2.464
 1007TIP3    H1 2964   6.664   6.652   2.402
 1007TIP3    H2 2965   6.718   6.663   2.543
 1008TIP3   OH2 2966   5.987   4.932   1.365
 1008TIP3    H1 2967   5.905   4.963   1.329
 1008TIP3    H2 2968   5.976   4.837   1.371
 1009TIP3   OH2 2969   2.340   2.835   0.704
 1009TIP3    H1 2970   2.287   2.771   0.657
 1009TIP3    H2 2971   2.383   2.886   0.635
 1010TIP3   OH2 2972   6.364   5.417   5.650
 1010TIP3    H1 2973   6.346   5.323   5.642
 1010TIP3    H2 2974   6.369   5.448   5.560
 1011TIP3   OH2 2975   3.113   0.966   5.104
 1011TIP3    H1 2976   3.165   0.892   5.072
 1011TIP3    H2 2977   3.091   0.943   5.194
 1012TIP3   OH2 2978   6.358   6.125   0.033
 1012TIP3    H1 2979   6.273   6.124  -0.010
 1012TIP3    H2 2980   6.403   6.048  -0.001
 1013TIP3   OH2 2981   3.790   0.817   6.696
 1013TIP3    H1 2982   3.740   0.899   6.694
 1013TIP3    H2 2983   3.818   0.803   6.606
 1014TIP3   OH2 2984   7.423   0.331   4.625
 1014TIP3    H1 2985   7.336   0.345   4.663
 1014TIP3    H2 2986   7.446   0.416   4.586
 1015TIP3   OH2 2987   4.662   0.899   5.821
 1015TIP3    H1 2988   4.616   0.820   5.792
 1015TIP3    H2 2989   4.731   0.911   5.756
 1016TIP3   OH2 2990   1.423   5.955   2.915
 1016TIP3    H1 2991   1.463   6.009   2.984
 1016TIP3    H2 2992   1.479   5.878   2.909
 1017TIP3   OH2 2993   3.605   6.421   0.967
 1017TIP3    H1 2994   3.614   6.473   1.047
 1017TIP3    H2 2995   3.660   6.466   0.903
 1018TIP3   OH2 2996   0.117   3.634   6.018
 1018TIP3    H1 2997   0.081   3.574   6.083
 1018TIP3    H2 2998   0.134   3.579   5.941
 1019TIP3   OH2 2999   2.658   2.910   0.338
 1019TIP3    H1 3000   2.624   2.906   0.249
 1019TIP3    H2 3001   2.583   2.935   0.392
 1020TIP3   OH2 3002   7.349   5.074   5.473
 1020TIP3    H1 3003   7.355   5.157   5.426
 1020TIP3    H2 3004   7.439   5.040   5.473
 1021TIP3   OH2 3005   1.753   2.470   6.291
 1021TIP3    H1 3006   1.745   2.375   6.299
 1021TIP3    H2 3007   1.685   2.505   6.349
 1022TIP3   OH2 3008   4.021   7.411   4.019
 1022TIP3    H1 3009   4.039   7.461   4.099
 1022TIP3    H2 3010   3.946   7.357   4.041
 1023TIP3   OH2 3011   5.199   3.456   0.533
 1023TIP3    H1 3012   5.201   3.424   0.442
 1023TIP3    H2 3013   5.290   3.448   0.562
 1024TIP3   OH2 3014   6.766   3.748   0.117
 1024TIP3    H1 3015   6.819   3.681   0.073
 1024TIP3    H2 3016   6.829   3.815   0.142
 1025TIP3   OH2 3017   1.297   2.906   3.196
 1025TIP3    H1 3018   1.275   2.994   3.164
 1025TIP3    H2 3019   1.247   2.847   3.139
 1026TIP3   OH2 3020   6.593   7.368   6.399
 1026TIP3    H1 3021   6.531   7.429   6.439
 1026TIP3    H2 3022   6.662   7.423   6.363
 1027TIP3   OH2 3023   4.121   0.580   6.035
 1027TIP3    H1 3024   4.155   0.655   6.084
 1027TIP3    H2 3025   4.107   0.614   5.946
 1028TIP3   OH2 3026   4.934   1.448   4.789
 1028TIP3    H1 3027   5.005   1.387   4.768
 1028TIP3    H2 3028   4.860   1.391   4.810
 1029TIP3   OH2 3029   4.206   7.633   4.534
 1029TIP3    H1 3030   4.133   7.638   4.596
 1029TIP3    H2 3031   4.198   7.546   4.495
 1030TIP3   OH2 3032   5.680   3.457   4.680
 1030TIP3    H1 3033   5.613   3.431   4.618
 1030TIP3    H2 3034   5.650   3.421   4.764
 1031TIP3   OH2 3035   2.879   0.790   1.348
 1031TIP3    H1 3036   2.810   0.846   1.383
 1031TIP3    H2 3037   2.952   0.849   1.329
 1032TIP3   OH2 3038   4.343   7.002   0.521
 1032TIP3    H1 3039   4.407   6.931   0.514
 1032TIP3    H2 3040   4.380   7.062   0.587
 1033TIP3   OH2 3041   4.965   1.100   3.528
 1033TIP3    H1 3042   4.882   1.055   3.538
 1033TIP3    H2 3043   5.030   1.040   3.566
 1034TIP3   OH2 3044   6.271   0.353   5.729
 1034TIP3    H1 3045   6.299   0.324   5.816
 1034TIP3    H2 3046   6.260   0.447   5.738
 1035TIP3   OH2 3047   5.474   2.487   2.446
 1035TIP3    H1 3048   5.454   2.501   2.539
 1035TIP3    H2 3049   5.431   2.560   2.402
 1036TIP3   OH2 3050   0.361   4.246   2.647
 1036TIP3    H1 3051   0.451   4.214   2.656
 1036TIP3    H2 3052   0.319   4.182   2.590
 1037TIP3   OH2 3053   5.168   3.623   3.152
 1037TIP3    H1 3054   5.083   3.579   3.158
 1037TIP3    H2 3055   5.230   3.563   3.193
 1038TIP3   OH2 3056   0.278   1.100   2.164
 1038TIP3    H1 3057   0.206   1.041   2.139
 1038TIP3    H2 3058   0.237   1.165   2.220
 1039TIP3   OH2 3059   6.753   2.443   0.190
 1039TIP3    H1 3060   6.824   2.500   0.161
 1039TIP3    H2 3061   6.674   2.483   0.154
 1040TIP3   OH2 3062   0.526   3.320   2.747
 1040TIP3    H1 3063   0.574   3.257   2.802
 1040TIP3    H2 3064   0.544   3.292   2.657
 1041TIP3   OH2 3065   1.361   2.071   0.137
 1041TIP3    H1 3066   1.438   2.022   0.165
 1041TIP3    H2 3067   1.305   2.007   0.093
 1042TIP3   OH2 3068   1.783   6.640   4.228
 1042TIP3    H1 3069   1.793   6.582   4.152
 1042TIP3    H2 3070   1.691   6.634   4.251
 1043TIP3   OH2 3071   4.587   2.023   3.083
 1043TIP3    H1 3072   4.604   1.930   3.069
 1043TIP3    H2 3073   4.528   2.025   3.159
 1044TIP3   OH2 3074   4.095   2.804   4.524
 1044TIP3    H1 3075   4.130   2.809   4.613
 1044TIP3    H2 3076   4.073   2.894   4.502
 1045TIP3   OH2 3077   3.302   4.072   5.331
 1045TIP3    H1 3078   3.368   4.008   5.360
 1045TIP3    H2 3079   3.352   4.136   5.280
 1046TIP3   OH2 3080   1.953   3.324   1.232
 1046TIP3    H1 3081   1.961   3.312   1.327
 1046TIP3    H2 3082   1.999   3.406   1.214
 1047TIP3   OH2 3083   4.702   0.879   1.252
 1047TIP3    H1 3084   4.754   0.921   1.184
 1047TIP3    H2 3085   4.617   0.922   1.248
 1048TIP3   OH2 3086   5.209   0.928   4.248
 1048TIP3    H1 3087   5.268   0.911   4.175
 1048TIP3    H2 3088   5.147   0.855   4.248
 1049TIP3   OH2 3089   6.289   6.986   1.776
 1049TIP3    H1 3090   6.296   7.075   1.740
 1049TIP3    H2 3091   6.365   6.940   1.740
 1050TIP3   OH2 3092   1.006   4.803   2.754
 1050TIP3    H1 3093   1.077   4.788   2.816
 1050TIP3    H2 3094   0.941   4.852   2.803
 1051TIP3   OH2 3095   0.490   4.683   6.566
 1051TIP3    H1 3096   0.486   4.699   6.661
 1051TIP3    H2 3097   0.552   4.611   6.557
 1052TIP3   OH2 3098   5.874   3.042   4.156
 1052TIP3    H1 3099   5.965   3.046   4.125
 1052TIP3    H2 3100   5.844   3.133   4.156
 1053TIP3   OH2 3101   8.233   2.893   5.957
 1053TIP3    H1 3102   8.205   2.944   5.881
 1053TIP3    H2 3103   8.206   2.803   5.937
 1054TIP3   OH2 3104   7.373   4.757   1.308
 1054TIP3    H1 3105   7.413   4.844   1.301
 1054TIP3    H2 3106   7.285   4.774   1.341
 1055TIP3   OH2 3107   1.222   2.932   4.984
 1055TIP3    H1 3108   1.263   2.964   4.904
 1055TIP3    H2 3109   1.266   2.848   5.001
 1056TIP3   OH2 3110   1.372   1.856   0.376
 1056TIP3    H1 3111   1.442   1.885   0.317
 1056TIP3    H2 3112   1.391   1.763   0.391
 1057TIP3   OH2 3113   6.541   5.490   0.269
 1057TIP3    H1 3114   6.558   5.506   0.361
 1057TIP3    H2 3115   6.453   5.527   0.254
 1058TIP3   OH2 3116   3.071   2.373   6.405
 1058TIP3    H1 3117   3.121   2.342   6.329
 1058TIP3    H2 3118   3.009   2.303   6.424
 1059TIP3   OH2 3119   6.170   2.364   1.437
 1059TIP3    H1 3120   6.247   2.333   1.390
 1059TIP3    H2 3121   6.118   2.411   1.371
 1060TIP3   OH2 3122   8.034   5.834   2.699
 1060TIP3    H1 3123   8.070   5.920   2.677
 1060TIP3    H2 3124   8.036   5.830   2.794
 1061TIP3   OH2 3125   6.329   4.644   1.881
 1061TIP3    H1 3126   6.373   4.718   1.840
 1061TIP3    H2 3127   6.399   4.584   1.906
 1062TIP3   OH2 3128   7.782   5.886   4.095
 1062TIP3    H1 3129   7.829   5.967   4.074
 1062TIP3    H2 3130   7.706   5.915   4.145
 1063TIP3   OH2 3131   3.332   1.967   4.846
 1063TIP3    H1 3132   3.264   1.901   4.835
 1063TIP3    H2 3133   3.392   1.930   4.911
 1064TIP3   OH2 3134   6.388   0.814   6.584
 1064TIP3    H1 3135   6.477   0.847   6.598
 1064TIP3    H2 3136   6.339   0.842   6.661
 1065TIP3   OH2 3137   2.949   4.970   5.082
 1065TIP3    H1 3138   2.974   4.960   4.991
 1065TIP3    H2 3139   3.005   5.040   5.115
 1066TIP3   OH2 3140   2.561   0.241   3.361
 1066TIP3    H1 3141   2.502   0.316   3.367
 1066TIP3    H2 3142   2.597   0.246   3.272
 1067TIP3   OH2 3143   2.726   2.679   2.168
 1067TIP3    H1 3144   2.794   2.741   2.194
 1067TIP3    H2 3145   2.736   2.670   2.073
 1068TIP3   OH2 3146   8.098   7.445   5.979
 1068TIP3    H1 3147   8.080   7.432   6.072
 1068TIP3    H2 3148   8.153   7.524   5.976
 1069TIP3   OH2 3149   1.546   6.221   3.383
 1069TIP3    H1 3150   1.542   6.130   3.412
 1069TIP3    H2 3151   1.491   6.269   3.445
 1070TIP3   OH2 3152   1.538   7.504   5.162
 1070TIP3    H1 3153   1.565   7.413   5.149
 1070TIP3    H2 3154   1.539   7.517   5.256
 1071TIP3   OH2 3155   6.624   6.705   0.801
 1071TIP3    H1 3156   6.567   6.629   0.794
 1071TIP3    H2 3157   6.566   6.775   0.832
 1072TIP3   OH2 3158   8.151   0.993   6.394
 1072TIP3    H1 3159   8.160   1.086   6.415
 1072TIP3    H2 3160   8.056   0.978   6.397
 1073TIP3   OH2 3161   0.423   6.588   0.071
 1073TIP3    H1 3162   0.432   6.630   0.157
 1073TIP3    H2 3163   0.329   6.584   0.055
 1074TIP3   OH2 3164   4.569   0.805   0.876
 1074TIP3    H1 3165   4.541   0.726   0.922
 1074TIP3    H2 3166   4.501   0.821   0.811
 1075TIP3   OH2 3167   7.117   4.544   2.936
 1075TIP3    H1 3168   7.046   4.480   2.943
 1075TIP3    H2 3169   7.174   4.509   2.867
 1076TIP3   OH2 3170   8.286   5.087   1.017
 1076TIP3    H1 3171   8.325   5.003   0.996
 1076TIP3    H2 3172   8.191   5.070   1.017
 1077TIP3   OH2 3173   8.103   1.037   5.366
 1077TIP3    H1 3174   8.142   1.063   5.449
 1077TIP3    H2 3175   8.176   1.032   5.305
 1078TIP3   OH2 3176   2.097   1.880   5.761
 1078TIP3    H1 3177   2.020   1.823   5.763
 1078TIP3    H2 3178   2.094   1.927   5.844
 1079TIP3   OH2 3179   3.882   3.935   1.524
 1079TIP3    H1 3180   3.955   3.922   1.585
 1079TIP3    H2 3181   3.901   3.875   1.452
 1080TIP3   OH2 3182   4.139   6.816   6.166
 1080TIP3    H1 3183   4.062   6.828   6.111
 1080TIP3    H2 3184   4.118   6.858   6.249
 1081TIP3   OH2 3185   6.613   0.458   0.751
 1081TIP3    H1 3186   6.679   0.401   0.790
 1081TIP3    H2 3187   6.652   0.487   0.669
 1082TIP3   OH2 3188   1.047   2.021   5.341
 1082TIP3    H1 3189   0.962   2.041   5.381
 1082TIP3    H2 3190   1.025   1.995   5.252
 1083TIP3   OH2 3191   5.419   0.161   0.414
 1083TIP3    H1 3192   5.409   0.085   0.356
 1083TIP3    H2 3193   5.428   0.123   0.501
 1084TIP3   OH2 3194   0.673   7.866   0.952
 1084TIP3    H1 3195   0.660   7.778   0.918
 1084TIP3    H2 3196   0.702   7.917   0.876
 1085TIP3   OH2 3197   4.886   7.086   0.462
 1085TIP3    H1 3198   4.874   7.028   0.537
 1085TIP3    H2 3199   4.810   7.070   0.407
 1086TIP3   OH2 3200   2.281   4.703   5.266
 1086TIP3    H1 3201   2.242   4.646   5.200
 1086TIP3    H2 3202   2.343   4.757   5.217
 1087TIP3   OH2 3203   2.839   4.092   5.485
 1087TIP3    H1 3204   2.931   4.097   5.511
 1087TIP3    H2 3205   2.840   4.041   5.404
 1088TIP3   OH2 3206   3.286   7.714   3.252
 1088TIP3    H1 3207   3.364   7.762   3.279
 1088TIP3    H2 3208   3.314   7.622   3.252
 1089TIP3   OH2 3209   2.441   0.378   1.205
 1089TIP3    H1 3210   2.402   0.394   1.291
 1089TIP3    H2 3211   2.446   0.464   1.164
 1090TIP3   OH2 3212   0.475   5.437   0.973
 1090TIP3    H1 3213   0.404   5.380   0.945
 1090TIP3    H2 3214   0.546   5.376   0.997
 1091TIP3   OH2 3215   0.534   2.851   3.572
 1091TIP3    H1 3216   0.579   2.842   3.657
 1091TIP3    H2 3217   0.594   2.904   3.519
 1092TIP3   OH2 3218   7.212   3.985   3.646
 1092TIP3    H1 3219   7.266   3.907   3.632
 1092TIP3    H2 3220   7.219   4.035   3.565
 1093TIP3   OH2 3221   5.556   1.411   1.312
 1093TIP3    H1 3222   5.469   1.400   1.275
 1093TIP3    H2 3223   5.562   1.346   1.382
 1094TIP3   OH2 3224   7.190   7.785   4.774
 1094TIP3    H1 3225   7.199   7.718   4.706
 1094TIP3    H2 3226   7.096   7.796   4.785
 1095TIP3   OH2 3227   3.439   3.194   2.414
 1095TIP3    H1 3228   3.443   3.189   2.319
 1095TIP3    H2 3229   3.509   3.254   2.439
 1096TIP3   OH2 3230   2.914   4.428   2.779
 1096TIP3    H1 3231   2.826   4.454   2.749
 1096TIP3    H2 3232   2.970   4.439   2.702
 1097TIP3   OH2 3233   4.774   5.699   4.139
 1097TIP3    H1 3234   4.710   5.627   4.137
 1097TIP3    H2 3235   4.855   5.657   4.168
 1098TIP3   OH2 3236   5.108   5.297   6.266
 1098TIP3    H1 3237   5.123   5.390   6.278
 1098TIP3    H2 3238   5.016   5.291   6.239
 1099TIP3   OH2 3239   2.028   2.152   5.542
 1099TIP3    H1 3240   2.055   2.227   5.489
 1099TIP3    H2 3241   2.100   2.090   5.534
 1100TIP3   OH2 3242   7.156   0.577   1.412
 1100TIP3    H1 3243   7.066   0.610   1.409
 1100TIP3    H2 3244   7.174   0.546   1.323
 1101TIP3   OH2 3245   1.271   4.478   6.565
 1101TIP3    H1 3246   1.330   4.465   6.639
 1101TIP3    H2 3247   1.328   4.481   6.488
 1102TIP3   OH2 3248   4.317   6.856   6.636
 1102TIP3    H1 3249   4.405   6.881   6.608
 1102TIP3    H2 3250   4.327   6.832   6.728
 1103TIP3   OH2 3251   4.146   3.798   2.553
 1103TIP3    H1 3252   4.226   3.761   2.515
 1103TIP3    H2 3253   4.139   3.755   2.638
 1104TIP3   OH2 3254   5.616   3.688   3.795
 1104TIP3    H1 3255   5.542   3.629   3.803
 1104TIP3    H2 3256   5.623   3.707   3.702
 1105TIP3   OH2 3257   5.863   1.641   4.419
 1105TIP3    H1 3258   5.881   1.572   4.356
 1105TIP3    H2 3259   5.933   1.633   4.484
 1106TIP3   OH2 3260   6.337   4.483   0.999
 1106TIP3    H1 3261   6.420   4.473   1.046
 1106TIP3    H2 3262   6.361   4.480   0.906
 1107TIP3   OH2 3263   5.857   6.173   2.210
 1107TIP3    H1 3264   5.774   6.130   2.230
 1107TIP3    H2 3265   5.900   6.114   2.148
 1108TIP3   OH2 3266   2.529   5.507   6.342
 1108TIP3    H1 3267   2.488   5.475   6.262
 1108TIP3    H2 3268   2.457   5.518   6.404
 1109TIP3   OH2 3269   0.995   7.028   2.282
 1109TIP3    H1 3270   1.006   7.045   2.189
 1109TIP3    H2 3271   1.013   7.113   2.324
 1110TIP3   OH2 3272   4.528   5.481   0.116
 1110TIP3    H1 3273   4.537   5.386   0.114
 1110TIP3    H2 3274   4.590   5.510   0.183
 1111TIP3   OH2 3275   3.828   5.189   3.352
 1111TIP3    H1 3276   3.851   5.281   3.367
 1111TIP3    H2 3277   3.806   5.157   3.440
 1112TIP3   OH2 3278   6.065   6.376   6.670
 1112TIP3    H1 3279   6.093   6.341   6.585
 1112TIP3    H2 3280   6.044   6.299   6.722
 1113TIP3   OH2 3281   5.341   5.959   1.715
 1113TIP3    H1 3282   5.286   5.915   1.650
 1113TIP3    H2 3283   5.430   5.943   1.686
 1114TIP3   OH2 3284   4.602   4.801   6.212
 1114TIP3    H1 3285   4.612   4.757   6.128
 1114TIP3    H2 3286   4.546   4.743   6.263
 1115TIP3   OH2 3287   2.682   6.095   2.577
 1115TIP3    H1 3288   2.742   6.162   2.544
 1115TIP3    H2 3289   2.635   6.138   2.648
 1116TIP3   OH2 3290   6.368   3.542   6.157
 1116TIP3    H1 3291   6.440   3.583   6.204
 1116TIP3    H2 3292   6.299   3.531   6.222
 1117TIP3   OH2 3293   4.450   0.707   5.632
 1117TIP3    H1 3294   4.414   0.676   5.549
 1117TIP3    H2 3295   4.450   0.629   5.688
 1118TIP3   OH2 3296   6.280   3.607   2.995
 1118TIP3    H1 3297   6.231   3.525   2.998
 1118TIP3    H2 3298   6.236   3.659   2.929
 1119TIP3   OH2 3299   5.576   6.069   3.328
 1119TIP3    H1 3300   5.516   6.138   3.302
 1119TIP3    H2 3301   5.655   6.115   3.357
 1120TIP3   OH2 3302   8.006   5.251   6.213
 1120TIP3    H1 3303   7.939   5.225   6.277
 1120TIP3    H2 3304   8.089   5.236   6.259
 1121TIP3   OH2 3305   4.631   5.691   1.157
 1121TIP3    H1 3306   4.726   5.698   1.165
 1121TIP3    H2 3307   4.605   5.768   1.107
 1122TIP3   OH2 3308   0.129   7.509   0.213
 1122TIP3    H1 3309   0.150   7.577   0.150
 1122TIP3    H2 3310   0.207   7.453   0.216
 1123TIP3   OH2 3311   2.092   6.505   1.014
 1123TIP3    H1 3312   2.126   6.517   0.926
 1123TIP3    H2 3313   2.051   6.419   1.013
 1124TIP3   OH2 3314   3.655   2.363   6.127
 1124TIP3    H1 3315   3.651   2.439   6.184
 1124TIP3    H2 3316   3.729   2.312   6.159
 1125TIP3   OH2 3317   0.302   0.335   4.516
 1125TIP3    H1 3318   0.340   0.281   4.585
 1125TIP3    H2 3319   0.354   0.416   4.518
 1126TIP3   OH2 3320   4.149   6.859   4.535
 1126TIP3    H1 3321   4.100   6.874   4.454
 1126TIP3    H2 3322   4.164   6.946   4.571
 1127TIP3   OH2 3323   0.937   3.506   3.261
 1127TIP3    H1 3324   0.906   3.556   3.184
 1127TIP3    H2 3325   0.858   3.489   3.311
 1128TIP3   OH2 3326   5.813   7.761   5.062
 1128TIP3    H1 3327   5.806   7.736   4.970
 1128TIP3    H2 3328   5.728   7.801   5.083
 1129TIP3   OH2 3329   5.354   4.870   3.796
 1129TIP3    H1 3330   5.393   4.947   3.754
 1129TIP3    H2 3331   5.303   4.828   3.728
 1130TIP3   OH2 3332   3.383   6.356   2.434
 1130TIP3    H1 3333   3.411   6.329   2.521
 1130TIP3    H2 3334   3.299   6.312   2.420
 1131TIP3   OH2 3335   7.551   5.729   5.545
 1131TIP3    H1 3336   7.557   5.819   5.512
 1131TIP3    H2 3337   7.501   5.737   5.626
 1132TIP3   OH2 3338   4.632   6.297   1.953
 1132TIP3    H1 3339   4.705   6.246   1.988
 1132TIP3    H2 3340   4.561   6.233   1.942
 1133TIP3   OH2 3341   5.550   4.635   2.131
 1133TIP3    H1 3342   5.569   4.601   2.218
 1133TIP3    H2 3343   5.635   4.646   2.090
 1134TIP3   OH2 3344   5.137   7.168   0.344
 1134TIP3    H1 3345   5.162   7.205   0.259
 1134TIP3    H2 3346   5.043   7.156   0.338
 1135TIP3   OH2 3347   7.207   3.146   4.728
 1135TIP3    H1 3348   7.177   3.085   4.661
 1135TIP3    H2 3349   7.128   3.188   4.761
 1136TIP3   OH2 3350   7.254   6.820   3.557
 1136TIP3    H1 3351   7.193   6.779   3.496
 1136TIP3    H2 3352   7.259   6.911   3.529
 1137TIP3   OH2 3353   1.246   1.238   1.824
 1137TIP3    H1 3354   1.268   1.266   1.735
 1137TIP3    H2 3355   1.322   1.187   1.853
 1138TIP3   OH2 3356   7.010   0.709   6.457
 1138TIP3    H1 3357   6.914   0.711   6.457
 1138TIP3    H2 3358   7.032   0.626   6.500
 1139TIP3   OH2 3359   2.182   2.411   0.465
 1139TIP3    H1 3360   2.199   2.343   0.400
 1139TIP3    H2 3361   2.103   2.454   0.433
 1140TIP3   OH2 3362   3.120   7.660   2.599
 1140TIP3    H1 3363   3.125   7.642   2.693
 1140TIP3    H2 3364   3.057   7.596   2.566
 1141TIP3   OH2 3365   4.732   3.385   4.369
 1141TIP3    H1 3366   4.762   3.345   4.288
 1141TIP3    H2 3367   4.650   3.429   4.345
 1142TIP3   OH2 3368   2.858   6.601   3.748
 1142TIP3    H1 3369   2.916   6.634   3.816
 1142TIP3    H2 3370   2.828   6.679   3.700
 1143TIP3   OH2 3371   7.965   7.063   6.136
 1143TIP3    H1 3372   8.000   7.016   6.061
 1143TIP3    H2 3373   7.873   7.037   6.140
 1144TIP3   OH2 3374   4.783   3.709   5.605
 1144TIP3    H1 3375   4.708   3.651   5.589
 1144TIP3    H2 3376   4.859   3.655   5.585
 1145TIP3   OH2 3377   4.588   6.213   4.310
 1145TIP3    H1 3378   4.495   6.218   4.330
 1145TIP3    H2 3379   4.608   6.119   4.307
 1146TIP3   OH2 3380   4.209   2.411   4.695
 1146TIP3    H1 3381   4.183   2.364   4.616
 1146TIP3    H2 3382   4.304   2.420   4.687
 1147TIP3   OH2 3383   4.128   0.764   4.912
 1147TIP3    H1 3384   4.081   0.736   4.833
 1147TIP3    H2 3385   4.080   0.723   4.984
 1148TIP3   OH2 3386   1.674   2.295   0.664
 1148TIP3    H1 3387   1.653   2.235   0.592
 1148TIP3    H2 3388   1.593   2.302   0.713
 1149TIP3   OH2 3389   1.828   4.607   6.386
 1149TIP3    H1 3390   1.754   4.664   6.366
 1149TIP3    H2 3391   1.810   4.526   6.339
 1150TIP3   OH2 3392   6.024   7.291   2.603
 1150TIP3    H1 3393   6.035   7.232   2.678
 1150TIP3    H2 3394   5.949   7.346   2.626
 1151TIP3   OH2 3395   3.186   3.405   3.999
 1151TIP3    H1 3396   3.174   3.360   3.915
 1151TIP3    H2 3397   3.141   3.349   4.063
 1152TIP3   OH2 3398   6.929   3.689   5.464
 1152TIP3    H1 3399   7.024   3.674   5.466
 1152TIP3    H2 3400   6.894   3.610   5.424
 1153TIP3   OH2 3401   5.223   4.275   5.163
 1153TIP3    H1 3402   5.183   4.306   5.082
 1153TIP3    H2 3403   5.178   4.324   5.232
 1154TIP3   OH2 3404   0.787   7.488   1.439
 1154TIP3    H1 3405   0.782   7.459   1.530
 1154TIP3    H2 3406   0.719   7.437   1.395
 1155TIP3   OH2 3407   0.890   7.288   2.103
 1155TIP3    H1 3408   0.918   7.215   2.048
 1155TIP3    H2 3409   0.962   7.301   2.164
 1156TIP3   OH2 3410   7.178   6.033   4.023
 1156TIP3    H1 3411   7.264   6.045   3.982
 1156TIP3    H2 3412   7.193   6.051   4.116
 1157TIP3   OH2 3413   1.517   3.900   5.038
 1157TIP3    H1 3414   1.448   3.965   5.029
 1157TIP3    H2 3415   1.551   3.886   4.950
 1158TIP3   OH2 3416   7.950   4.649   2.556
 1158TIP3    H1 3417   7.874   4.696   2.590
 1158TIP3    H2 3418   7.916   4.564   2.529
 1159TIP3   OH2 3419   6.264   4.796   5.679
 1159TIP3    H1 3420   6.327   4.833   5.740
 1159TIP3    H2 3421   6.181   4.838   5.702
 1160TIP3   OH2 3422   7.360   3.198   1.363
 1160TIP3    H1 3423   7.395   3.172   1.449
 1160TIP3    H2 3424   7.310   3.278   1.381
 1161TIP3   OH2 3425   5.192   7.761   6.061
 1161TIP3    H1 3426   5.100   7.755   6.084
 1161TIP3    H2 3427   5.222   7.844   6.098
 1162TIP3   OH2 3428   0.556   0.038   1.078
 1162TIP3    H1 3429   0.498   0.006   1.147
 1162TIP3    H2 3430   0.562   0.132   1.093
 1163TIP3   OH2 3431   5.137   2.772   2.423
 1163TIP3    H1 3432   5.064   2.802   2.476
 1163TIP3    H2 3433   5.156   2.684   2.455
 1164TIP3   OH2 3434   5.498   3.962   1.020
 1164TIP3    H1 3435   5.583   3.920   1.030
 1164TIP3    H2 3436   5.509   4.022   0.946
 1165TIP3   OH2 3437   1.147   5.943   4.840
 1165TIP3    H1 3438   1.136   6.037   4.855
 1165TIP3    H2 3439   1.210   5.938   4.768
 1166TIP3   OH2 3440   6.021   0.413   4.475
 1166TIP3    H1 3441   5.962   0.338   4.480
 1166TIP3    H2 3442   6.011   0.446   4.386
 1167TIP3   OH2 3443   2.550   1.787   2.067
 1167TIP3    H1 3444   2.528   1.829   1.984
 1167TIP3    H2 3445   2.539   1.857   2.132
 1168TIP3   OH2 3446   3.034   3.871   1.221
 1168TIP3    H1 3447   2.986   3.905   1.146
 1168TIP3    H2 3448   3.021   3.937   1.289
 1169TIP3   OH2 3449   5.655   4.136   4.057
 1169TIP3    H1 3450   5.736   4.141   4.006
 1169TIP3    H2 3451   5.597   4.081   4.006
 1170TIP3   OH2 3452   1.288   2.907   1.378
 1170TIP3    H1 3453   1.224   2.978   1.380
 1170TIP3    H2 3454   1.278   2.869   1.291
 1171TIP3   OH2 3455   1.178   0.077   3.561
 1171TIP3    H1 3456   1.243   0.040   3.502
 1171TIP3    H2 3457   1.106   0.104   3.505
 1172TIP3   OH2 3458   6.626   7.242   3.131
 1172TIP3    H1 3459   6.667   7.271   3.213
 1172TIP3    H2 3460   6.559   7.308   3.113
 1173TIP3   OH2 3461   5.854   3.969   2.825
 1173TIP3    H1 3462   5.819   3.882   2.842
 1173TIP3    H2 3463   5.921   3.981   2.892
 1174TIP3   OH2 3464   3.836   7.235   1.252
 1174TIP3    H1 3465   3.930   7.219   1.262
 1174TIP3    H2 3466   3.803   7.245   1.341
 1175TIP3   OH2 3467   4.609   6.611   3.235
 1175TIP3    H1 3468   4.701   6.633   3.251
 1175TIP3    H2 3469   4.611   6.552   3.160
 1176TIP3   OH2 3470   6.822   5.695   2.229
 1176TIP3    H1 3471   6.839   5.615   2.179
 1176TIP3    H2 3472   6.879   5.761   2.189
 1177TIP3   OH2 3473   3.006   1.613   3.244
 1177TIP3    H1 3474   2.977   1.669   3.315
 1177TIP3    H2 3475   3.090   1.577   3.274
 1178TIP3   OH2 3476   1.540   5.173   3.367
 1178TIP3    H1 3477   1.609   5.137   3.310
 1178TIP3    H2 3478   1.508   5.097   3.416
 1179TIP3   OH2 3479   2.690   6.904   4.050
 1179TIP3    H1 3480   2.694   6.964   3.977
 1179TIP3    H2 3481   2.653   6.823   4.014
 1180TIP3   OH2 3482   6.483   4.420   3.629
 1180TIP3    H1 3483   6.553   4.462   3.580
 1180TIP3    H2 3484   6.500   4.326   3.619
 1181TIP3   OH2 3485   1.293   4.241   5.765
 1181TIP3    H1 3486   1.285   4.151   5.797
 1181TIP3    H2 3487   1.202   4.267   5.747
 1182TIP3   OH2 3488   3.627   2.544   4.254
 1182TIP3    H1 3489   3.647   2.455   4.282
 1182TIP3    H2 3490   3.689   2.561   4.183
 1183TIP3   OH2 3491   3.074   2.767   0.130
 1183TIP3    H1 3492   3.126   2.787   0.053
 1183TIP3    H2 3493   2.984   2.763   0.098
 1184TIP3   OH2 3494   5.328   0.868   1.313
 1184TIP3    H1 3495   5.292   0.785   1.344
 1184TIP3    H2 3496   5.421   0.851   1.301
 1185TIP3   OH2 3497   1.005   6.406   3.291
 1185TIP3    H1 3498   0.956   6.449   3.221
 1185TIP3    H2 3499   0.944   6.341   3.327
 1186TIP3   OH2 3500   3.377   1.653   3.226
 1186TIP3    H1 3501   3.366   1.564   3.261
 1186TIP3    H2 3502   3.458   1.649   3.176
 1187TIP3   OH2 3503   2.893   5.108   6.470
 1187TIP3    H1 3504   2.886   5.119   6.375
 1187TIP3    H2 3505   2.937   5.187   6.500
 1188TIP3   OH2 3506   5.161   3.028   3.571
 1188TIP3    H1 3507   5.200   3.104   3.529
 1188TIP3    H2 3508   5.156   2.962   3.502
 1189TIP3   OH2 3509   7.277   3.954   0.124
 1189TIP3    H1 3510   7.311   3.971   0.212
 1189TIP3    H2 3511   7.262   3.860   0.122
 1190TIP3   OH2 3512   3.929   5.963   4.069
 1190TIP3    H1 3513   3.966   5.875   4.074
 1190TIP3    H2 3514   4.005   6.021   4.070
 1191TIP3   OH2 3515   0.811   3.585   3.615
 1191TIP3    H1 3516   0.784   3.677   3.618
 1191TIP3    H2 3517   0.736   3.537   3.650
 1192TIP3   OH2 3518   6.110   7.599   2.096
 1192TIP3    H1 3519   6.028   7.596   2.144
 1192TIP3    H2 3520   6.160   7.669   2.140
 1193TIP3   OH2 3521   4.475   0.589   4.210
 1193TIP3    H1 3522   4.490   0.601   4.304
 1193TIP3    H2 3523   4.562   0.575   4.173
 1194TIP3   OH2 3524   5.471   0.184   6.227
 1194TIP3    H1 3525   5.479   0.097   6.189
 1194TIP3    H2 3526   5.556   0.225   6.211
 1195TIP3   OH2 3527   3.555   4.576   5.181
 1195TIP3    H1 3528   3.460   4.590   5.180
 1195TIP3    H2 3529   3.574   4.539   5.095
 1196TIP3   OH2 3530   0.216   6.907   4.035
 1196TIP3    H1 3531   0.310   6.887   4.028
 1196TIP3    H2 3532   0.200   6.970   3.965
 1197TIP3   OH2 3533   2.103   4.650   6.436
 1197TIP3    H1 3534   2.142   4.563   6.424
 1197TIP3    H2 3535   2.009   4.636   6.421
 1198TIP3   OH2 3536   6.330   7.168   2.951
 1198TIP3    H1 3537   6.415   7.127   2.936
 1198TIP3    H2 3538   6.311   7.151   3.043
 1199TIP3   OH2 3539   6.296   0.782   0.026
 1199TIP3    H1 3540   6.301   0.762   0.119
 1199TIP3    H2 3541   6.209   0.754  -0.001
 1200TIP3   OH2 3542   5.823   7.030   4.021
 1200TIP3    H1 3543   5.774   7.111   4.036
 1200TIP3    H2 3544   5.795   6.972   4.092
 1201TIP3   OH2 3545   5.827   2.455   5.169
 1201TIP3    H1 3546   5.893   2.468   5.237
 1201TIP3    H2 3547   5.864   2.387   5.113
 1202TIP3   OH2 3548   3.108   0.775   2.722
 1202TIP3    H1 3549   3.034   0.753   2.780
 1202TIP3    H2 3550   3.135   0.863   2.750
 1203TIP3   OH2 3551   0.041   0.746   5.835
 1203TIP3    H1 3552   0.103   0.680   5.866
 1203TIP3    H2 3553   0.068   0.827   5.878
 1204TIP3   OH2 3554   0.758   6.191   4.478
 1204TIP3    H1 3555   0.756   6.279   4.516
 1204TIP3    H2 3556   0.705   6.138   4.538
 1205TIP3   OH2 3557   0.162   5.913   1.786
 1205TIP3    H1 3558   0.216   5.956   1.720
 1205TIP3    H2 3559   0.218   5.844   1.821
 1206TIP3   OH2 3560   4.531   0.946   6.675
 1206TIP3    H1 3561   4.575   0.861   6.676
 1206TIP3    H2 3562   4.438   0.924   6.681
 1207TIP3   OH2 3563   2.434   6.085   6.099
 1207TIP3    H1 3564   2.489   6.159   6.076
 1207TIP3    H2 3565   2.359   6.124   6.144
 1208TIP3   OH2 3566   3.585   7.803   6.572
 1208TIP3    H1 3567   3.673   7.765   6.575
 1208TIP3    H2 3568   3.530   7.739   6.618
 1209TIP3   OH2 3569   3.399   0.826   3.626
 1209TIP3    H1 3570   3.408   0.753   3.565
 1209TIP3    H2 3571   3.310   0.818   3.660
 1210TIP3   OH2 3572   1.132   3.497   2.967
 1210TIP3    H1 3573   1.044   3.517   2.935
 1210TIP3    H2 3574   1.189   3.509   2.891
 1211TIP3   OH2 3575   6.123   2.779   4.507
 1211TIP3    H1 3576   6.143   2.803   4.416
 1211TIP3    H2 3577   6.042   2.728   4.501
 1212TIP3   OH2 3578   7.264   0.968   4.024
 1212TIP3    H1 3579   7.187   0.990   3.971
 1212TIP3    H2 3580   7.326   1.039   4.007
 1213TIP3   OH2 3581   2.334   5.011   2.012
 1213TIP3    H1 3582   2.288   4.930   2.034
 1213TIP3    H2 3583   2.419   5.003   2.056
 1214TIP3   OH2 3584   6.694   3.805   4.386
 1214TIP3    H1 3585   6.706   3.842   4.473
 1214TIP3    H2 3586   6.723   3.874   4.326
 1215TIP3   OH2 3587   1.901   3.198   0.177
 1215TIP3    H1 3588   1.830   3.224   0.118
 1215TIP3    H2 3589   1.963   3.152   0.120
 1216TIP3   OH2 3590   3.929   2.846   0.475
 1216TIP3    H1 3591   3.938   2.931   0.519
 1216TIP3    H2 3592   4.016   2.828   0.440
 1217TIP3   OH2 3593   0.148   1.375   3.815
 1217TIP3    H1 3594   0.109   1.425   3.744
 1217TIP3    H2 3595   0.220   1.327   3.774
 1218TIP3   OH2 3596   6.693   5.544   0.499
 1218TIP3    H1 3597   6.776   5.565   0.542
 1218TIP3    H2 3598   6.629   5.602   0.541
 1219TIP3   OH2 3599   7.584   6.020   2.336
 1219TIP3    H1 3600   7.641   6.091   2.307
 1219TIP3    H2 3601   7.605   6.009   2.429
 1220TIP3   OH2 3602   2.360   6.866   3.184
 1220TIP3    H1 3603   2.397   6.950   3.157
 1220TIP3    H2 3604   2.436   6.808   3.193
 1221TIP3   OH2 3605   5.836   0.454   0.700
 1221TIP3    H1 3606   5.794   0.456   0.614
 1221TIP3    H2 3607   5.798   0.378   0.743
 1222TIP3   OH2 3608   1.943   3.442   0.842
 1222TIP3    H1 3609   1.958   3.525   0.796
 1222TIP3    H2 3610   2.030   3.404   0.851
 1223TIP3   OH2 3611   7.637   5.309   1.181
 1223TIP3    H1 3612   7.560   5.284   1.130
 1223TIP3    H2 3613   7.610   5.297   1.272
 1224TIP3   OH2 3614   7.605   6.415   2.888
 1224TIP3    H1 3615   7.632   6.331   2.923
 1224TIP3    H2 3616   7.668   6.478   2.924
 1225TIP3   OH2 3617   0.784   6.121   4.199
 1225TIP3    H1 3618   0.791   6.026   4.207
 1225TIP3    H2 3619   0.753   6.151   4.285
 1226TIP3   OH2 3620   4.125   5.020   4.405
 1226TIP3    H1 3621   4.196   5.081   4.427
 1226TIP3    H2 3622   4.046   5.060   4.441
 1227TIP3   OH2 3623   8.163   1.795   0.352
 1227TIP3    H1 3624   8.183   1.708   0.317
 1227TIP3    H2 3625   8.122   1.778   0.436
 1228TIP3   OH2 3626   6.627   4.989   2.399
 1228TIP3    H1 3627   6.678   4.996   2.318
 1228TIP3    H2 3628   6.571   5.067   2.399
 1229TIP3   OH2 3629   2.119   3.371   4.092
 1229TIP3    H1 3630   2.077   3.339   4.172
 1229TIP3    H2 3631   2.058   3.436   4.057
 1230TIP3   OH2 3632   7.006   0.489   6.628
 1230TIP3    H1 3633   6.974   0.497   6.717
 1230TIP3    H2 3634   7.000   0.395   6.609
 1231TIP3   OH2 3635   4.358   5.477   0.753
 1231TIP3    H1 3636   4.402   5.396   0.725
 1231TIP3    H2 3637   4.373   5.481   0.847
 1232TIP3   OH2 3638   2.618   1.943   0.060
 1232TIP3    H1 3639   2.658   1.894   0.132
 1232TIP3    H2 3640   2.634   2.035   0.083
 1233TIP3   OH2 3641   5.538   4.267   4.924
 1233TIP3    H1 3642   5.621   4.264   4.876
 1233TIP3    H2 3643   5.476   4.307   4.863
 1234TIP3   OH2 3644   6.668   2.494   6.360
 1234TIP3    H1 3645   6.702   2.580   6.336
 1234TIP3    H2 3646   6.598   2.512   6.423
 1235TIP3   OH2 3647   4.863   2.764   3.012
 1235TIP3    H1 3648   4.942   2.816   2.999
 1235TIP3    H2 3649   4.847   2.768   3.106
 1236TIP3   OH2 3650   0.250   7.070   2.726
 1236TIP3    H1 3651   0.323   7.128   2.703
 1236TIP3    H2 3652   0.172   7.125   2.716
 1237TIP3   OH2 3653   4.107   1.687   5.124
 1237TIP3    H1 3654   4.082   1.657   5.211
 1237TIP3    H2 3655   4.068   1.774   5.115
 1238TIP3   OH2 3656   2.923   6.383   5.410
 1238TIP3    H1 3657   2.975   6.360   5.333
 1238TIP3    H2 3658   2.972   6.346   5.484
 1239TIP3   OH2 3659   3.534   2.751   5.420
 1239TIP3    H1 3660   3.609   2.793   5.379
 1239TIP3    H2 3661   3.466   2.818   5.422
 1240TIP3   OH2 3662   4.282   4.919   0.170
 1240TIP3    H1 3663   4.275   4.986   0.102
 1240TIP3    H2 3664   4.366   4.936   0.212
 1241TIP3   OH2 3665   0.738   0.863   5.678
 1241TIP3    H1 3666   0.834   0.864   5.669
 1241TIP3    H2 3667   0.708   0.932   5.619
 1242TIP3   OH2 3668   1.490   6.188   6.086
 1242TIP3    H1 3669   1.570   6.138   6.065
 1242TIP3    H2 3670   1.425   6.121   6.105
 1243TIP3   OH2 3671   2.695   2.339   6.607
 1243TIP3    H1 3672   2.609   2.308   6.637
 1243TIP3    H2 3673   2.729   2.266   6.555
 1244TIP3   OH2 3674   5.742   0.245   6.106
 1244TIP3    H1 3675   5.790   0.244   6.190
 1244TIP3    H2 3676   5.806   0.214   6.042
 1245TIP3   OH2 3677   4.187   5.775   1.912
 1245TIP3    H1 3678   4.211   5.762   1.820
 1245TIP3    H2 3679   4.234   5.854   1.938
 1246TIP3   OH2 3680   8.258   7.790   5.284
 1246TIP3    H1 3681   8.185   7.851   5.273
 1246TIP3    H2 3682   8.225   7.724   5.345
 1247TIP3   OH2 3683   7.397   2.253   1.532
 1247TIP3    H1 3684   7.470   2.255   1.470
 1247TIP3    H2 3685   7.438   2.265   1.617
 1248TIP3   OH2 3686   6.066   7.647   3.574
 1248TIP3    H1 3687   6.118   7.728   3.571
 1248TIP3    H2 3688   6.076   7.615   3.663
 1249TIP3   OH2 3689   3.898   7.090   5.404
 1249TIP3    H1 3690   3.941   7.076   5.320
 1249TIP3    H2 3691   3.830   7.022   5.409
 1250TIP3   OH2 3692   3.523   6.066   4.050
 1250TIP3    H1 3693   3.525   6.036   3.959
 1250TIP3    H2 3694   3.454   6.014   4.091
 1251TIP3   OH2 3695   3.848   0.824   0.646
 1251TIP3    H1 3696   3.939   0.795   0.654
 1251TIP3    H2 3697   3.824   0.850   0.735
 1252TIP3   OH2 3698   4.629   3.807   6.505
 1252TIP3    H1 3699   4.708   3.792   6.557
 1252TIP3    H2 3700   4.647   3.889   6.458
 1253TIP3   OH2 3701   1.055   2.112   6.470
 1253TIP3    H1 3702   1.122   2.066   6.421
 1253TIP3    H2 3703   1.100   2.144   6.548
 1254TIP3   OH2 3704   7.545   4.596   6.149
 1254TIP3    H1 3705   7.574   4.661   6.213
 1254TIP3    H2 3706   7.587   4.514   6.177
 1255TIP3   OH2 3707   2.571   7.063   3.848
 1255TIP3    H1 3708   2.511   7.033   3.917
 1255TIP3    H2 3709   2.545   7.154   3.832
 1256TIP3   OH2 3710   4.737   2.335   0.236
 1256TIP3    H1 3711   4.760   2.425   0.212
 1256TIP3    H2 3712   4.748   2.331   0.331
 1257TIP3   OH2 3713   3.167   5.912   0.599
 1257TIP3    H1 3714   3.083   5.922   0.555
 1257TIP3    H2 3715   3.145   5.905   0.692
 1258TIP3   OH2 3716   7.583   0.705   6.484
 1258TIP3    H1 3717   7.611   0.635   6.425
 1258TIP3    H2 3718   7.492   0.721   6.461
 1259TIP3   OH2 3719   4.482   2.179   6.413
 1259TIP3    H1 3720   4.546   2.140   6.472
 1259TIP3    H2 3721   4.405   2.196   6.468
 1260TIP3   OH2 3722   5.434   2.279   0.315
 1260TIP3    H1 3723   5.473   2.199   0.278
 1260TIP3    H2 3724   5.376   2.247   0.385
 1261TIP3   OH2 3725   0.204   3.395   6.744
 1261TIP3    H1 3726   0.161   3.439   6.671
 1261TIP3    H2 3727   0.159   3.311   6.751
 1262TIP3   OH2 3728   5.886   5.899   6.568
 1262TIP3    H1 3729   5.874   5.956   6.644
 1262TIP3    H2 3730   5.907   5.813   6.604
 1263TIP3   OH2 3731   2.063   4.301   5.753
 1263TIP3    H1 3732   2.070   4.289   5.658
 1263TIP3    H2 3733   1.970   4.284   5.772
 1264TIP3   OH2 3734   7.562   6.951   4.263
 1264TIP3    H1 3735   7.545   6.882   4.199
 1264TIP3    H2 3736   7.577   7.029   4.210
 1265TIP3   OH2 3737   7.878   6.152   0.990
 1265TIP3    H1 3738   7.935   6.221   1.025
 1265TIP3    H2 3739   7.909   6.072   1.031
 1266TIP3   OH2 3740   7.328   1.870   4.104
 1266TIP3    H1 3741   7.248   1.828   4.073
 1266TIP3    H2 3742   7.308   1.963   4.105
 1267TIP3   OH2 3743   5.641   5.326   3.928
 1267TIP3    H1 3744   5.650   5.346   3.835
 1267TIP3    H2 3745   5.563   5.375   3.955
 1268TIP3   OH2 3746   1.217   4.093   4.850
 1268TIP3    H1 3747   1.276   4.156   4.891
 1268TIP3    H2 3748   1.156   4.068   4.920
 1269TIP3   OH2 3749   7.381   0.198   4.974
 1269TIP3    H1 3750   7.367   0.292   4.983
 1269TIP3    H2 3751   7.473   0.185   4.999
 1270TIP3   OH2 3752   2.661   6.666   4.530
 1270TIP3    H1 3753   2.582   6.613   4.539
 1270TIP3    H2 3754   2.692   6.677   4.620
 1271TIP3   OH2 3755   7.727   3.072   1.929
 1271TIP3    H1 3756   7.746   3.023   2.009
 1271TIP3    H2 3757   7.654   3.025   1.889
 1272TIP3   OH2 3758   4.746   1.878   6.212
 1272TIP3    H1 3759   4.787   1.893   6.128
 1272TIP3    H2 3760   4.656   1.910   6.202
 1273TIP3   OH2 3761   0.436   0.677   4.267
 1273TIP3    H1 3762   0.452   0.762   4.227
 1273TIP3    H2 3763   0.513   0.625   4.244
 1274TIP3   OH2 3764   3.266   0.994   4.329
 1274TIP3    H1 3765   3.348   0.948   4.307
 1274TIP3    H2 3766   3.216   0.929   4.378
 1275TIP3   OH2 3767   3.645   4.450   6.738
 1275TIP3    H1 3768   3.602   4.443   6.823
 1275TIP3    H2 3769   3.727   4.402   6.749
 1276TIP3   OH2 3770   2.698   4.202   0.093
 1276TIP3    H1 3771   2.783   4.158   0.092
 1276TIP3    H2 3772   2.716   4.290   0.126
 1277TIP3   OH2 3773   7.384   1.221   5.113
 1277TIP3    H1 3774   7.425   1.228   5.027
 1277TIP3    H2 3775   7.446   1.263   5.173
 1278TIP3   OH2 3776   4.747   4.245   1.168
 1278TIP3    H1 3777   4.784   4.162   1.139
 1278TIP3    H2 3778   4.660   4.223   1.201
 1279TIP3   OH2 3779   2.522   5.971   1.606
 1279TIP3    H1 3780   2.532   5.898   1.546
 1279TIP3    H2 3781   2.486   5.933   1.686
 1280TIP3   OH2 3782   7.215   4.199   3.119
 1280TIP3    H1 3783   7.162   4.176   3.042
 1280TIP3    H2 3784   7.155   4.188   3.193
 1281TIP3   OH2 3785   1.066   1.790   6.132
 1281TIP3    H1 3786   1.099   1.855   6.193
 1281TIP3    H2 3787   0.972   1.810   6.124
 1282TIP3   OH2 3788   5.619   6.163   0.857
 1282TIP3    H1 3789   5.564   6.087   0.878
 1282TIP3    H2 3790   5.562   6.238   0.875
 1283TIP3   OH2 3791   2.367   7.230   0.806
 1283TIP3    H1 3792   2.414   7.179   0.740
 1283TIP3    H2 3793   2.418   7.219   0.886
 1284TIP3   OH2 3794   0.969   6.473   0.984
 1284TIP3    H1 3795   0.975   6.491   0.891
 1284TIP3    H2 3796   1.011   6.387   0.995
 1285TIP3   OH2 3797   2.851   2.931   6.067
 1285TIP3    H1 3798   2.881   2.866   6.003
 1285TIP3    H2 3799   2.797   2.880   6.128
 1286TIP3   OH2 3800   3.863   0.957   2.622
 1286TIP3    H1 3801   3.949   0.993   2.598
 1286TIP3    H2 3802   3.832   1.015   2.692
 1287TIP3   OH2 3803   6.230   3.235   2.759
 1287TIP3    H1 3804   6.227   3.278   2.674
 1287TIP3    H2 3805   6.251   3.144   2.739
 1288TIP3   OH2 3806   1.782   3.361   2.322
 1288TIP3    H1 3807   1.854   3.422   2.333
 1288TIP3    H2 3808   1.807   3.307   2.247
 1289TIP3   OH2 3809   3.053   5.262   2.174
 1289TIP3    H1 3810   3.074   5.284   2.084
 1289TIP3    H2 3811   3.047   5.166   2.174
 1290TIP3   OH2 3812   6.275   1.486   3.853
 1290TIP3    H1 3813   6.344   1.521   3.908
 1290TIP3    H2 3814   6.318   1.471   3.768
 1291TIP3   OH2 3815   6.701   1.120   1.623
 1291TIP3    H1 3816   6.668   1.100   1.535
 1291TIP3    H2 3817   6.731   1.210   1.618
 1292TIP3   OH2 3818   6.713   0.116   1.692
 1292TIP3    H1 3819   6.704   0.196   1.744
 1292TIP3    H2 3820   6.665   0.050   1.742
 1293TIP3   OH2 3821   5.396   6.979   4.896
 1293TIP3    H1 3822   5.333   6.907   4.885
 1293TIP3    H2 3823   5.386   7.006   4.987
 1294TIP3   OH2 3824   5.227   0.822   2.675
 1294TIP3    H1 3825   5.135   0.839   2.659
 1294TIP3    H2 3826   5.232   0.800   2.768
 1295TIP3   OH2 3827   2.666   2.445   5.360
 1295TIP3    H1 3828   2.630   2.472   5.275
 1295TIP3    H2 3829   2.633   2.510   5.421
 1296TIP3   OH2 3830   1.890   5.602   2.382
 1296TIP3    H1 3831   1.833   5.552   2.441
 1296TIP3    H2 3832   1.933   5.537   2.328
 1297TIP3   OH2 3833   1.010   5.348   2.505
 1297TIP3    H1 3834   0.936   5.299   2.470
 1297TIP3    H2 3835   0.977   5.388   2.585
 1298TIP3   OH2 3836   4.584   5.196   4.639
 1298TIP3    H1 3837   4.589   5.126   4.703
 1298TIP3    H2 3838   4.563   5.274   4.690
 1299TIP3   OH2 3839   3.181   2.152   4.176
 1299TIP3    H1 3840   3.277   2.154   4.171
 1299TIP3    H2 3841   3.155   2.243   4.162
 1300TIP3   OH2 3842   4.403   2.011   3.300
 1300TIP3    H1 3843   4.385   1.926   3.260
 1300TIP3    H2 3844   4.327   2.028   3.355
 1301TIP3   OH2 3845   4.324   3.837   5.658
 1301TIP3    H1 3846   4.285   3.924   5.655
 1301TIP3    H2 3847   4.383   3.834   5.582
 1302TIP3   OH2 3848   1.919   5.418   5.091
 1302TIP3    H1 3849   1.850   5.461   5.041
 1302TIP3    H2 3850   1.893   5.429   5.183
 1303TIP3   OH2 3851   8.286   4.269   4.638
 1303TIP3    H1 3852   8.280   4.360   4.667
 1303TIP3    H2 3853   8.201   4.250   4.600
 1304TIP3   OH2 3854   2.599   1.134   3.446
 1304TIP3    H1 3855   2.663   1.077   3.489
 1304TIP3    H2 3856   2.611   1.219   3.488
 1305TIP3   OH2 3857   3.666   4.073   3.859
 1305TIP3    H1 3858   3.700   4.079   3.770
 1305TIP3    H2 3859   3.587   4.019   3.851
 1306TIP3   OH2 3860   7.226   6.091   5.118
 1306TIP3    H1 3861   7.309   6.048   5.136
 1306TIP3    H2 3862   7.226   6.168   5.175
 1307TIP3   OH2 3863   3.302   4.872   4.778
 1307TIP3    H1 3864   3.342   4.798   4.733
 1307TIP3    H2 3865   3.332   4.949   4.729
 1308TIP3   OH2 3866   6.965   3.866   0.358
 1308TIP3    H1 3867   7.038   3.881   0.299
 1308TIP3    H2 3868   6.897   3.927   0.329
 1309TIP3   OH2 3869   1.800   1.577   4.327
 1309TIP3    H1 3870   1.835   1.662   4.356
 1309TIP3    H2 3871   1.769   1.594   4.238
 1310TIP3   OH2 3872   3.341   6.337   0.919
 1310TIP3    H1 3873   3.311   6.337   1.010
 1310TIP3    H2 3874   3.430   6.372   0.923
 1311TIP3   OH2 3875   6.476   4.084   2.387
 1311TIP3    H1 3876   6.457   4.175   2.410
 1311TIP3    H2 3877   6.390   4.043   2.378
 1312TIP3   OH2 3878   3.982   2.595   6.195
 1312TIP3    H1 3879   3.891   2.602   6.167
 1312TIP3    H2 3880   3.986   2.512   6.243
 1313TIP3   OH2 3881   1.333   1.563   2.031
 1313TIP3    H1 3882   1.399   1.606   1.977
 1313TIP3    H2 3883   1.283   1.635   2.069
 1314TIP3   OH2 3884   1.747   7.237   6.217
 1314TIP3    H1 3885   1.784   7.200   6.136
 1314TIP3    H2 3886   1.652   7.225   6.208
 1315TIP3   OH2 3887   3.364   6.420   1.436
 1315TIP3    H1 3888   3.390   6.385   1.521
 1315TIP3    H2 3889   3.334   6.509   1.454
 1316TIP3   OH2 3890   6.073   2.604   6.226
 1316TIP3    H1 3891   6.007   2.639   6.166
 1316TIP3    H2 3892   6.049   2.639   6.312
 1317TIP3   OH2 3893   1.069   7.297   1.614
 1317TIP3    H1 3894   0.981   7.267   1.634
 1317TIP3    H2 3895   1.127   7.239   1.664
 1318TIP3   OH2 3896   1.429   4.395   5.594
 1318TIP3    H1 3897   1.382   4.337   5.653
 1318TIP3    H2 3898   1.483   4.450   5.651
 1319TIP3   OH2 3899   3.921   5.358   5.301
 1319TIP3    H1 3900   3.969   5.420   5.247
 1319TIP3    H2 3901   3.834   5.353   5.261
 1320TIP3   OH2 3902   2.974   6.546   6.690
 1320TIP3    H1 3903   2.949   6.463   6.731
 1320TIP3    H2 3904   3.040   6.583   6.749
 1321TIP3   OH2 3905   4.140   6.227   5.077
 1321TIP3    H1 3906   4.193   6.307   5.072
 1321TIP3    H2 3907   4.132   6.199   4.986
 1322TIP3   OH2 3908   7.323   3.366   4.414
 1322TIP3    H1 3909   7.256   3.328   4.471
 1322TIP3    H2 3910   7.398   3.308   4.424
 1323TIP3   OH2 3911   1.396   6.514   2.701
 1323TIP3    H1 3912   1.304   6.527   2.724
 1323TIP3    H2 3913   1.399   6.425   2.666
 1324TIP3   OH2 3914   6.895   3.131   5.962
 1324TIP3    H1 3915   6.830   3.200   5.965
 1324TIP3    H2 3916   6.911   3.108   6.053
 1325TIP3   OH2 3917   3.726   5.768   0.607
 1325TIP3    H1 3918   3.794   5.766   0.675
 1325TIP3    H2 3919   3.657   5.712   0.642
 1326TIP3   OH2 3920   8.054   6.937   3.119
 1326TIP3    H1 3921   8.145   6.907   3.124
 1326TIP3    H2 3922   8.055   7.023   3.161
 1327TIP3   OH2 3923   4.289   0.042   5.711
 1327TIP3    H1 3924   4.248   0.056   5.796
 1327TIP3    H2 3925   4.358   0.109   5.707
 1328TIP3   OH2 3926   1.881   7.572   6.260
 1328TIP3    H1 3927   1.958   7.515   6.264
 1328TIP3    H2 3928   1.883   7.608   6.172
 1329TIP3   OH2 3929   5.011   7.620   1.965
 1329TIP3    H1 3930   5.086   7.665   1.927
 1329TIP3    H2 3931   4.936   7.674   1.941
 1330TIP3   OH2 3932   4.573   5.207   0.659
 1330TIP3    H1 3933   4.614   5.251   0.734
 1330TIP3    H2 3934   4.625   5.127   0.648
 1331TIP3   OH2 3935   6.208   0.542   4.615
 1331TIP3    H1 3936   6.133   0.508   4.566
 1331TIP3    H2 3937   6.170   0.578   4.696
 1332TIP3   OH2 3938   3.429   0.255   4.357
 1332TIP3    H1 3939   3.513   0.226   4.322
 1332TIP3    H2 3940   3.403   0.327   4.300
 1333TIP3   OH2 3941   7.514   4.168   1.131
 1333TIP3    H1 3942   7.499   4.219   1.052
 1333TIP3    H2 3943   7.426   4.140   1.158
 1334TIP3   OH2 3944   0.578   3.193   3.880
 1334TIP3    H1 3945   0.529   3.266   3.919
 1334TIP3    H2 3946   0.519   3.159   3.813
 1335TIP3   OH2 3947   4.925   2.643   4.923
 1335TIP3    H1 3948   4.998   2.583   4.910
 1335TIP3    H2 3949   4.883   2.650   4.837
 1336TIP3   OH2 3950   5.779   1.305   4.590
 1336TIP3    H1 3951   5.724   1.338   4.661
 1336TIP3    H2 3952   5.720   1.294   4.516
 1337TIP3   OH2 3953   3.468   5.856   6.491
 1337TIP3    H1 3954   3.389   5.885   6.445
 1337TIP3    H2 3955   3.539   5.880   6.432
 1338TIP3   OH2 3956   4.415   5.186   6.287
 1338TIP3    H1 3957   4.333   5.205   6.240
 1338TIP3    H2 3958   4.446   5.272   6.315
 1339TIP3   OH2 3959   2.173   0.638   5.467
 1339TIP3    H1 3960   2.146   0.722   5.504
 1339TIP3    H2 3961   2.267   0.633   5.486
 1340TIP3   OH2 3962   8.014   6.717   3.350
 1340TIP3    H1 3963   8.044   6.659   3.420
 1340TIP3    H2 3964   8.018   6.804   3.388
 1341TIP3   OH2 3965   4.363   3.579   5.367
 1341TIP3    H1 3966   4.388   3.668   5.341
 1341TIP3    H2 3967   4.333   3.538   5.286
 1342TIP3   OH2 3968   8.085   1.098   2.204
 1342TIP3    H1 3969   8.090   1.062   2.293
 1342TIP3    H2 3970   8.017   1.046   2.161
 1343TIP3   OH2 3971   4.563   1.320   6.211
 1343TIP3    H1 3972   4.593   1.269   6.136
 1343TIP3    H2 3973   4.634   1.313   6.275
 1344TIP3   OH2 3974   6.813   3.113   5.307
 1344TIP3    H1 3975   6.748   3.158   5.253
 1344TIP3    H2 3976   6.873   3.073   5.244
 1345TIP3   OH2 3977   3.460   0.887   6.656
 1345TIP3    H1 3978   3.392   0.820   6.664
 1345TIP3    H2 3979   3.528   0.846   6.603
 1346TIP3   OH2 3980   2.418   4.565   1.661
 1346TIP3    H1 3981   2.381   4.650   1.684
 1346TIP3    H2 3982   2.453   4.577   1.573
 1347TIP3   OH2 3983   0.273   6.120   5.752
 1347TIP3    H1 3984   0.210   6.144   5.820
 1347TIP3    H2 3985   0.350   6.175   5.769
 1348TIP3   OH2 3986   5.231   2.706   3.461
 1348TIP3    H1 3987   5.252   2.612   3.466
 1348TIP3    H2 3988   5.203   2.729   3.550
 1349TIP3   OH2 3989   1.652   4.423   2.073
 1349TIP3    H1 3990   1.743   4.404   2.050
 1349TIP3    H2 3991   1.615   4.461   1.993
 1350TIP3   OH2 3992   6.931   6.471   2.364
 1350TIP3    H1 3993   6.889   6.496   2.282
 1350TIP3    H2 3994   6.899   6.534   2.428
 1351TIP3   OH2 3995   2.042   6.062   4.662
 1351TIP3    H1 3996   2.031   6.146   4.617
 1351TIP3    H2 3997   2.070   6.085   4.750
 1352TIP3   OH2 3998   6.543   1.579   1.880
 1352TIP3    H1 3999   6.539   1.606   1.788
 1352TIP3    H2 4000   6.615   1.630   1.916
 1353TIP3   OH2 4001   6.001   1.470   1.510
 1353TIP3    H1 4002   6.070   1.497   1.450
 1353TIP3    H2 4003   5.919   1.490   1.464
 1354TIP3   OH2 4004   7.271   2.536   6.429
 1354TIP3    H1 4005   7.225   2.620   6.431
 1354TIP3    H2 4006   7.218   2.481   6.371
 1355TIP3   OH2 4007   7.253   4.447   5.430
 1355TIP3    H1 4008   7.340   4.482   5.413
 1355TIP3    H2 4009   7.259   4.355   5.404
 1356TIP3   OH2 4010   6.233   6.591   0.434
 1356TIP3    H1 4011   6.198   6.502   0.433
 1356TIP3    H2 4012   6.234   6.617   0.341
 1357TIP3   OH2 4013   7.552   3.177   6.113
 1357TIP3    H1 4014   7.575   3.269   6.109
 1357TIP3    H2 4015   7.585   3.141   6.030
 1358TIP3   OH2 4016   0.332   1.697   3.642
 1358TIP3    H1 4017   0.320   1.782   3.684
 1358TIP3    H2 4018   0.395   1.714   3.571
 1359TIP3   OH2 4019   7.592   5.083   5.074
 1359TIP3    H1 4020   7.604   5.093   5.169
 1359TIP3    H2 4021   7.509   5.036   5.065
 1360TIP3   OH2 4022   6.172   3.417   1.084
 1360TIP3    H1 4023   6.242   3.374   1.133
 1360TIP3    H2 4024   6.151   3.356   1.013
 1361TIP3   OH2 4025   2.656   2.636   3.576
 1361TIP3    H1 4026   2.627   2.667   3.662
 1361TIP3    H2 4027   2.582   2.586   3.542
 1362TIP3   OH2 4028   0.011   3.264   4.678
 1362TIP3    H1 4029  -0.050   3.319   4.629
 1362TIP3    H2 4030   0.019   3.184   4.625
 1363TIP3   OH2 4031   3.743   4.885   4.379
 1363TIP3    H1 4032   3.713   4.795   4.389
 1363TIP3    H2 4033   3.813   4.880   4.314
 1364TIP3   OH2 4034   3.858   6.535   3.369
 1364TIP3    H1 4035   3.866   6.510   3.461
 1364TIP3    H2 4036   3.818   6.460   3.327
 1365TIP3   OH2 4037   5.173   1.273   3.497
 1365TIP3    H1 4038   5.100   1.224   3.535
 1365TIP3    H2 4039   5.134   1.327   3.429
 1366TIP3   OH2 4040   1.462   3.757   3.838
 1366TIP3    H1 4041   1.458   3.726   3.748
 1366TIP3    H2 4042   1.380   3.806   3.850
 1367TIP3   OH2 4043   6.736   7.710   3.188
 1367TIP3    H1 4044   6.650   7.669   3.197
 1367TIP3    H2 4045   6.725   7.773   3.117
 1368TIP3   OH2 4046   3.820   2.112   6.141
 1368TIP3    H1 4047   3.864   2.154   6.067
 1368TIP3    H2 4048   3.891   2.083   6.198
 1369TIP3   OH2 4049   1.544   2.527   4.536
 1369TIP3    H1 4050   1.464   2.496   4.494
 1369TIP3    H2 4051   1.577   2.451   4.585
 1370TIP3   OH2 4052   7.585   1.839   1.966
 1370TIP3    H1 4053   7.635   1.776   1.913
 1370TIP3    H2 4054   7.541   1.786   2.032
 1371TIP3   OH2 4055   0.420   6.492   2.984
 1371TIP3    H1 4056   0.443   6.409   2.941
 1371TIP3    H2 4057   0.384   6.546   2.913
 1372TIP3   OH2 4058   8.091   3.508   0.637
 1372TIP3    H1 4059   8.001   3.524   0.665
 1372TIP3    H2 4060   8.134   3.474   0.715
 1373TIP3   OH2 4061   7.100   6.733   4.038
 1373TIP3    H1 4062   7.195   6.733   4.047
 1373TIP3    H2 4063   7.068   6.761   4.124
 1374TIP3   OH2 4064   5.967   7.800   1.712
 1374TIP3    H1 4065   5.919   7.721   1.738
 1374TIP3    H2 4066   6.004   7.833   1.794
 1375TIP3   OH2 4067   7.243   1.685   5.872
 1375TIP3    H1 4068   7.289   1.672   5.789
 1375TIP3    H2 4069   7.297   1.748   5.920
 1376TIP3   OH2 4070   3.640   4.853   4.643
 1376TIP3    H1 4071   3.680   4.891   4.565
 1376TIP3    H2 4072   3.616   4.929   4.696
 1377TIP3   OH2 4073   6.746   3.093   1.818
 1377TIP3    H1 4074   6.778   3.046   1.740
 1377TIP3    H2 4075   6.653   3.072   1.822
 1378TIP3   OH2 4076   7.064   1.928   4.384
 1378TIP3    H1 4077   7.005   1.965   4.318
 1378TIP3    H2 4078   7.079   1.838   4.354
 1379TIP3   OH2 4079   1.353   0.845   2.044
 1379TIP3    H1 4080   1.272   0.797   2.060
 1379TIP3    H2 4081   1.389   0.862   2.131
 1380TIP3   OH2 4082   5.803   1.249   0.923
 1380TIP3    H1 4083   5.781   1.238   0.830
 1380TIP3    H2 4084   5.815   1.343   0.934
 1381TIP3   OH2 4085   5.276   0.152   1.475
 1381TIP3    H1 4086   5.352   0.130   1.529
 1381TIP3    H2 4087   5.301   0.232   1.430
 1382TIP3   OH2 4088   3.395   4.475   2.488
 1382TIP3    H1 4089   3.441   4.559   2.488
 1382TIP3    H2 4090   3.418   4.435   2.404
 1383TIP3   OH2 4091   3.424   5.078   4.589
 1383TIP3    H1 4092   3.466   5.084   4.675
 1383TIP3    H2 4093   3.418   5.169   4.559
 1384TIP3   OH2 4094   6.998   2.535   6.090
 1384TIP3    H1 4095   6.968   2.490   6.011
 1384TIP3    H2 4096   7.052   2.470   6.136
 1385TIP3   OH2 4097   4.414   1.505   3.997
 1385TIP3    H1 4098   4.402   1.469   3.908
 1385TIP3    H2 4099   4.403   1.429   4.054
 1386TIP3   OH2 4100   0.787   3.482   1.235
 1386TIP3    H1 4101   0.848   3.503   1.306
 1386TIP3    H2 4102   0.703   3.517   1.264
 1387TIP3   OH2 4103   1.157   1.135   2.525
 1387TIP3    H1 4104   1.231   1.086   2.489
 1387TIP3    H2 4105   1.160   1.117   2.619
 1388TIP3   OH2 4106   5.485   5.153   2.563
 1388TIP3    H1 4107   5.491   5.092   2.637
 1388TIP3    H2 4108   5.429   5.224   2.595
 1389TIP3   OH2 4109   0.375   3.426   5.055
 1389TIP3    H1 4110   0.361   3.332   5.046
 1389TIP3    H2 4111   0.296   3.466   5.020
 1390TIP3   OH2 4112   4.330   2.905   1.987
 1390TIP3    H1 4113   4.372   2.933   2.068
 1390TIP3    H2 4114   4.364   2.965   1.920
 1391TIP3   OH2 4115   8.219   5.513   5.279
 1391TIP3    H1 4116   8.276   5.439   5.300
 1391TIP3    H2 4117   8.269   5.590   5.304
 1392TIP3   OH2 4118   4.961   0.264   5.895
 1392TIP3    H1 4119   4.887   0.323   5.878
 1392TIP3    H2 4120   4.920   0.180   5.914
 1393TIP3   OH2 4121   1.294   3.512   6.489
 1393TIP3    H1 4122   1.294   3.607   6.481
 1393TIP3    H2 4123   1.205   3.486   6.466
 1394TIP3   OH2 4124   8.154   7.380   4.373
 1394TIP3    H1 4125   8.113   7.355   4.291
 1394TIP3    H2 4126   8.244   7.346   4.366
 1395TIP3   OH2 4127   5.416   3.562   0.022
 1395TIP3    H1 4128   5.349   3.626   0.002
 1395TIP3    H2 4129   5.480   3.610   0.075
 1396TIP3   OH2 4130   5.171   3.883   0.893
 1396TIP3    H1 4131   5.147   3.925   0.975
 1396TIP3    H2 4132   5.209   3.799   0.919
 1397TIP3   OH2 4133   4.155   6.734   2.638
 1397TIP3    H1 4134   4.209   6.697   2.568
 1397TIP3    H2 4135   4.101   6.660   2.667
 1398TIP3   OH2 4136   3.776   2.084   4.349
 1398TIP3    H1 4137   3.689   2.082   4.389
 1398TIP3    H2 4138   3.759   2.109   4.258
 1399TIP3   OH2 4139   5.431   7.211   4.618
 1399TIP3    H1 4140   5.502   7.270   4.590
 1399TIP3    H2 4141   5.408   7.242   4.706
 1400TIP3   OH2 4142   7.640   1.786   3.662
 1400TIP3    H1 4143   7.608   1.846   3.729
 1400TIP3    H2 4144   7.695   1.724   3.709
 1401TIP3   OH2 4145   3.455   7.470   1.509
 1401TIP3    H1 4146   3.505   7.534   1.561
 1401TIP3    H2 4147   3.507   7.390   1.514
 1402TIP3   OH2 4148   5.615   6.007   2.095
 1402TIP3    H1 4149   5.638   5.964   2.012
 1402TIP3    H2 4150   5.520   6.020   2.090
 1403TIP3   OH2 4151   3.644   2.022   6.453
 1403TIP3    H1 4152   3.661   2.011   6.547
 1403TIP3    H2 4153   3.669   2.112   6.434
 1404TIP3   OH2 4154   3.103   1.514   6.681
 1404TIP3    H1 4155   3.089   1.532   6.774
 1404TIP3    H2 4156   3.116   1.600   6.642
 1405TIP3   OH2 4157   2.827   5.702   6.500
 1405TIP3    H1 4158   2.792   5.789   6.482
 1405TIP3    H2 4159   2.907   5.696   6.447
 1406TIP3   OH2 4160   5.496   0.017   0.675
 1406TIP3    H1 4161   5.457   0.052   0.755
 1406TIP3    H2 4162   5.575   0.071   0.662
 1407TIP3   OH2 4163   2.276   7.198   5.865
 1407TIP3    H1 4164   2.233   7.174   5.947
 1407TIP3    H2 4165   2.367   7.214   5.889
 1408TIP3   OH2 4166   7.030   7.673   4.208
 1408TIP3    H1 4167   7.034   7.585   4.244
 1408TIP3    H2 4168   7.083   7.726   4.268
 1409TIP3   OH2 4169   3.892   7.141   2.919
 1409TIP3    H1 4170   3.979   7.150   2.959
 1409TIP3    H2 4171   3.831   7.154   2.991
 1410TIP3   OH2 4172   6.964   2.272   4.282
 1410TIP3    H1 4173   6.908   2.208   4.324
 1410TIP3    H2 4174   7.007   2.319   4.354
 1411TIP3   OH2 4175   5.514   5.880   3.027
 1411TIP3    H1 4176   5.552   5.897   2.941
 1411TIP3    H2 4177   5.539   5.790   3.046
 1412TIP3   OH2 4178   4.570   6.535   0.282
 1412TIP3    H1 4179   4.592   6.562   0.192
 1412TIP3    H2 4180   4.654   6.513   0.322
 1413TIP3   OH2 4181   0.350   4.781   4.013
 1413TIP3    H1 4182   0.291   4.788   4.088
 1413TIP3    H2 4183   0.418   4.847   4.029
 1414TIP3   OH2 4184   3.219   2.127   5.531
 1414TIP3    H1 4185   3.215   2.193   5.462
 1414TIP3    H2 4186   3.133   2.086   5.531
 1415TIP3   OH2 4187   5.784   4.242   5.237
 1415TIP3    H1 4188   5.838   4.273   5.310
 1415TIP3    H2 4189   5.707   4.298   5.239
 1416TIP3   OH2 4190   0.658   6.682   2.963
 1416TIP3    H1 4191   0.583   6.737   2.940
 1416TIP3    H2 4192   0.623   6.618   3.025
 1417TIP3   OH2 4193   0.970   2.306   0.629
 1417TIP3    H1 4194   0.966   2.259   0.712
 1417TIP3    H2 4195   0.937   2.394   0.649
 1418TIP3   OH2 4196   1.868   2.250   1.891
 1418TIP3    H1 4197   1.877   2.339   1.857
 1418TIP3    H2 4198   1.944   2.239   1.948
 1419TIP3   OH2 4199   5.727   3.261   0.818
 1419TIP3    H1 4200   5.654   3.214   0.777
 1419TIP3    H2 4201   5.803   3.237   0.765
 1420TIP3   OH2 4202   5.590   4.949   3.916
 1420TIP3    H1 4203   5.655   4.977   3.852
 1420TIP3    H2 4204   5.515   4.921   3.864
 1421TIP3   OH2 4205   7.822   5.682   5.431
 1421TIP3    H1 4206   7.863   5.597   5.446
 1421TIP3    H2 4207   7.747   5.684   5.492
 1422TIP3   OH2 4208   5.386   0.824   3.410
 1422TIP3    H1 4209   5.406   0.820   3.504
 1422TIP3    H2 4210   5.456   0.774   3.368
 1423TIP3   OH2 4211   4.450   5.493   2.233
 1423TIP3    H1 4212   4.377   5.494   2.295
 1423TIP3    H2 4213   4.415   5.448   2.156
 1424TIP3   OH2 4214   3.589   7.196   0.316
 1424TIP3    H1 4215   3.583   7.101   0.316
 1424TIP3    H2 4216   3.565   7.222   0.227
 1425TIP3   OH2 4217   5.274   0.488   3.597
 1425TIP3    H1 4218   5.259   0.418   3.534
 1425TIP3    H2 4219   5.213   0.557   3.571
 1426TIP3   OH2 4220   6.671   0.249   2.085
 1426TIP3    H1 4221   6.587   0.294   2.090
 1426TIP3    H2 4222   6.684   0.213   2.173
 1427TIP3   OH2 4223   7.015   0.874   2.832
 1427TIP3    H1 4224   6.983   0.796   2.786
 1427TIP3    H2 4225   7.015   0.942   2.765
 1428TIP3   OH2 4226   0.967   6.679   6.664
 1428TIP3    H1 4227   0.883   6.640   6.687
 1428TIP3    H2 4228   0.996   6.628   6.588
 1429TIP3   OH2 4229   2.226   4.507   1.088
 1429TIP3    H1 4230   2.310   4.543   1.060
 1429TIP3    H2 4231   2.248   4.425   1.132
 1430TIP3   OH2 4232   0.604   2.526   4.027
 1430TIP3    H1 4233   0.692   2.491   4.017
 1430TIP3    H2 4234   0.613   2.599   4.089
 1431TIP3   OH2 4235   0.308   5.549   1.735
 1431TIP3    H1 4236   0.264   5.465   1.721
 1431TIP3    H2 4237   0.289   5.599   1.656
 1432TIP3   OH2 4238   1.518   5.081   5.657
 1432TIP3    H1 4239   1.581   5.070   5.729
 1432TIP3    H2 4240   1.448   5.135   5.695
 1433TIP3   OH2 4241   1.706   5.963   4.677
 1433TIP3    H1 4242   1.765   5.962   4.602
 1433TIP3    H2 4243   1.693   6.056   4.697
 1434TIP3   OH2 4244   8.079   0.125   4.204
 1434TIP3    H1 4245   8.050   0.216   4.209
 1434TIP3    H2 4246   8.005   0.079   4.164
 1435TIP3   OH2 4247   5.270   0.454   4.739
 1435TIP3    H1 4248   5.267   0.359   4.750
 1435TIP3    H2 4249   5.244   0.469   4.648
 1436TIP3   OH2 4250   6.309   7.105   0.429
 1436TIP3    H1 4251   6.217   7.099   0.404
 1436TIP3    H2 4252   6.320   7.040   0.498
 1437TIP3   OH2 4253   5.165   1.533   3.772
 1437TIP3    H1 4254   5.150   1.443   3.802
 1437TIP3    H2 4255   5.221   1.571   3.840
 1438TIP3   OH2 4256   1.455   3.479   3.342
 1438TIP3    H1 4257   1.489   3.398   3.304
 1438TIP3    H2 4258   1.363   3.462   3.357
 1439TIP3   OH2 4259  -0.012   4.562   3.297
 1439TIP3    H1 4260   0.047   4.487   3.292
 1439TIP3    H2 4261  -0.040   4.577   3.207
 1440TIP3   OH2 4262   6.206   3.714   6.643
 1440TIP3    H1 4263   6.120   3.707   6.603
 1440TIP3    H2 4264   6.243   3.795   6.607
 1441TIP3   OH2 4265   0.901   5.598   4.209
 1441TIP3    H1 4266   0.924   5.522   4.155
 1441TIP3    H2 4267   0.844   5.562   4.277
 1442TIP3   OH2 4268   4.352   3.428   2.728
 1442TIP3    H1 4269   4.393   3.411   2.643
 1442TIP3    H2 4270   4.311   3.345   2.752
 1443TIP3   OH2 4271   3.913   3.671   0.091
 1443TIP3    H1 4272   3.829   3.629   0.106
 1443TIP3    H2 4273   3.969   3.640   0.162
 1444TIP3   OH2 4274   7.232   2.064   4.529
 1444TIP3    H1 4275   7.296   2.011   4.577
 1444TIP3    H2 4276   7.198   2.006   4.462
 1445TIP3   OH2 4277   6.847   3.842   5.687
 1445TIP3    H1 4278   6.873   3.835   5.595
 1445TIP3    H2 4279   6.784   3.914   5.688
 1446TIP3   OH2 4280   0.659   4.861   1.644
 1446TIP3    H1 4281   0.595   4.930   1.661
 1446TIP3    H2 4282   0.640   4.832   1.555
 1447TIP3   OH2 4283   8.168   7.616   3.494
 1447TIP3    H1 4284   8.255   7.635   3.530
 1447TIP3    H2 4285   8.176   7.633   3.400
 1448TIP3   OH2 4286   6.868   5.512   0.241
 1448TIP3    H1 4287   6.797   5.517   0.177
 1448TIP3    H2 4288   6.825   5.519   0.326
 1449TIP3   OH2 4289   3.173   5.711   6.566
 1449TIP3    H1 4290   3.136   5.798   6.582
 1449TIP3    H2 4291   3.251   5.707   6.622
 1450TIP3   OH2 4292   2.426   3.683   4.111
 1450TIP3    H1 4293   2.504   3.685   4.166
 1450TIP3    H2 4294   2.442   3.750   4.044
 1451TIP3   OH2 4295   1.812  -0.008   6.709
 1451TIP3    H1 4296   1.889   0.024   6.757
 1451TIP3    H2 4297   1.749   0.064   6.714
 1452TIP3   OH2 4298   3.522   0.592   4.681
 1452TIP3    H1 4299   3.544   0.500   4.666
 1452TIP3    H2 4300   3.478   0.619   4.601
 1453TIP3   OH2 4301   0.537   2.899   6.036
 1453TIP3    H1 4302   0.557   2.809   6.011
 1453TIP3    H2 4303   0.542   2.899   6.131
 1454TIP3   OH2 4304   6.417   6.267   6.649
 1454TIP3    H1 4305   6.485   6.200   6.650
 1454TIP3    H2 4306   6.357   6.240   6.580
 1455TIP3   OH2 4307   2.038   5.280   6.573
 1455TIP3    H1 4308   2.020   5.273   6.667
 1455TIP3    H2 4309   1.982   5.351   6.543
 1456TIP3   OH2 4310   3.626   0.583   1.491
 1456TIP3    H1 4311   3.604   0.669   1.457
 1456TIP3    H2 4312   3.562   0.524   1.451
 1457TIP3   OH2 4313   1.189   3.617   3.305
 1457TIP3    H1 4314   1.168   3.708   3.283
 1457TIP3    H2 4315   1.104   3.575   3.318
 1458TIP3   OH2 4316   6.701   5.120   3.778
 1458TIP3    H1 4317   6.711   5.132   3.872
 1458TIP3    H2 4318   6.775   5.065   3.753
 1459TIP3   OH2 4319   2.842   4.198   5.767
 1459TIP3    H1 4320   2.821   4.157   5.683
 1459TIP3    H2 4321   2.855   4.290   5.747
 1460TIP3   OH2 4322   0.768   4.415   1.397
 1460TIP3    H1 4323   0.816   4.429   1.479
 1460TIP3    H2 4324   0.802   4.333   1.363
 1461TIP3   OH2 4325   4.970   3.390   0.854
 1461TIP3    H1 4326   5.004   3.305   0.882
 1461TIP3    H2 4327   4.913   3.418   0.926
 1462TIP3   OH2 4328   5.347   7.014   2.178
 1462TIP3    H1 4329   5.401   6.945   2.216
 1462TIP3    H2 4330   5.408   7.085   2.159
 1463TIP3   OH2 4331   0.947   0.094   0.082
 1463TIP3    H1 4332   0.877   0.159   0.077
 1463TIP3    H2 4333   0.913   0.019   0.033
 1464TIP3   OH2 4334   4.768   2.489   3.877
 1464TIP3    H1 4335   4.815   2.570   3.898
 1464TIP3    H2 4336   4.681   2.519   3.850
 1465TIP3   OH2 4337   5.155   0.490   4.985
 1465TIP3    H1 4338   5.206   0.493   4.904
 1465TIP3    H2 4339   5.217   0.464   5.053
 1466TIP3   OH2 4340   8.049   3.098   4.527
 1466TIP3    H1 4341   8.038   3.098   4.622
 1466TIP3    H2 4342   8.140   3.071   4.513
 1467TIP3   OH2 4343   6.388   1.809   3.156
 1467TIP3    H1 4344   6.480   1.784   3.164
 1467TIP3    H2 4345   6.388   1.886   3.100
 1468TIP3   OH2 4346   0.030   6.372   6.174
 1468TIP3    H1 4347   0.065   6.421   6.249
 1468TIP3    H2 4348  -0.007   6.293   6.212
 1469TIP3   OH2 4349   2.996   7.170   5.568
 1469TIP3    H1 4350   2.933   7.163   5.496
 1469TIP3    H2 4351   3.027   7.080   5.581
 1470TIP3   OH2 4352   7.542   2.478   4.264
 1470TIP3    H1 4353   7.556   2.457   4.171
 1470TIP3    H2 4354   7.588   2.409   4.311
 1471TIP3   OH2 4355   5.356   3.140   0.527
 1471TIP3    H1 4356   5.284   3.085   0.559
 1471TIP3    H2 4357   5.360   3.121   0.433
 1472TIP3   OH2 4358   1.113   3.499   5.815
 1472TIP3    H1 4359   1.078   3.588   5.823
 1472TIP3    H2 4360   1.037   3.446   5.791
 1473TIP3   OH2 4361   5.136   5.869   0.106
 1473TIP3    H1 4362   5.181   5.886   0.023
 1473TIP3    H2 4363   5.046   5.849   0.081
 1474TIP3   OH2 4364   6.282   6.949   6.470
 1474TIP3    H1 4365   6.272   6.854   6.472
 1474TIP3    H2 4366   6.304   6.968   6.379
 1475TIP3   OH2 4367   4.085   1.399   5.873
 1475TIP3    H1 4368   4.090   1.480   5.821
 1475TIP3    H2 4369   4.102   1.428   5.963
 1476TIP3   OH2 4370   3.519   4.069   3.407
 1476TIP3    H1 4371   3.540   4.156   3.440
 1476TIP3    H2 4372   3.486   4.084   3.319
 1477TIP3   OH2 4373   4.747   0.700   5.535
 1477TIP3    H1 4374   4.731   0.628   5.475
 1477TIP3    H2 4375   4.685   0.768   5.509
 1478TIP3   OH2 4376   5.176   6.885   0.275
 1478TIP3    H1 4377   5.163   6.953   0.209
 1478TIP3    H2 4378   5.178   6.803   0.224
 1479TIP3   OH2 4379   0.236   5.237   1.605
 1479TIP3    H1 4380   0.280   5.163   1.563
 1479TIP3    H2 4381   0.245   5.309   1.542
 1480TIP3   OH2 4382   4.654   1.863   2.073
 1480TIP3    H1 4383   4.659   1.768   2.063
 1480TIP3    H2 4384   4.576   1.877   2.127
 1481TIP3   OH2 4385   6.327   2.822   5.812
 1481TIP3    H1 4386   6.261   2.868   5.864
 1481TIP3    H2 4387   6.315   2.729   5.834
 1482TIP3   OH2 4388   1.146   6.055   4.316
 1482TIP3    H1 4389   1.209   5.983   4.319
 1482TIP3    H2 4390   1.157   6.093   4.229
 1483TIP3   OH2 4391   1.338   3.066   4.778
 1483TIP3    H1 4392   1.392   3.014   4.719
 1483TIP3    H2 4393   1.381   3.151   4.783
 1484TIP3   OH2 4394   7.694   7.149   3.608
 1484TIP3    H1 4395   7.699   7.241   3.583
 1484TIP3    H2 4396   7.774   7.134   3.658
 1485TIP3   OH2 4397   0.677   0.436   6.075
 1485TIP3    H1 4398   0.755   0.407   6.121
 1485TIP3    H2 4399   0.705   0.514   6.027
 1486TIP3   OH2 4400   1.549   3.880   4.534
 1486TIP3    H1 4401   1.476   3.917   4.585
 1486TIP3    H2 4402   1.515   3.873   4.445
 1487TIP3   OH2 4403   0.569   0.257   6.578
 1487TIP3    H1 4404   0.663   0.246   6.567
 1487TIP3    H2 4405   0.552   0.223   6.666
 1488TIP3   OH2 4406   6.404   6.018   4.327
 1488TIP3    H1 4407   6.322   6.027   4.376
 1488TIP3    H2 4408   6.378   5.986   4.241
 1489TIP3   OH2 4409   7.300   2.228   2.207
 1489TIP3    H1 4410   7.217   2.180   2.216
 1489TIP3    H2 4411   7.368   2.161   2.220
 1490TIP3   OH2 4412   3.853   1.087   1.475
 1490TIP3    H1 4413   3.815   1.100   1.562
 1490TIP3    H2 4414   3.782   1.111   1.415
 1491TIP3   OH2 4415   6.364   6.856   2.309
 1491TIP3    H1 4416   6.297   6.834   2.244
 1491TIP3    H2 4417   6.334   6.937   2.348
 1492TIP3   OH2 4418   3.543   6.788   1.474
 1492TIP3    H1 4419   3.623   6.834   1.499
 1492TIP3    H2 4420   3.552   6.775   1.379
 1493TIP3   OH2 4421   6.118   2.307   5.538
 1493TIP3    H1 4422   6.098   2.374   5.604
 1493TIP3    H2 4423   6.177   2.246   5.583
 1494TIP3   OH2 4424   0.853   5.065   1.560
 1494TIP3    H1 4425   0.808   5.145   1.586
 1494TIP3    H2 4426   0.795   4.994   1.588
 1495TIP3   OH2 4427   1.398   6.961   0.214
 1495TIP3    H1 4428   1.308   6.957   0.179
 1495TIP3    H2 4429   1.444   6.891   0.169
 1496TIP3   OH2 4430   5.429   2.852   3.983
 1496TIP3    H1 4431   5.488   2.922   4.009
 1496TIP3    H2 4432   5.484   2.791   3.933
 1497TIP3   OH2 4433   0.920   2.687   2.300
 1497TIP3    H1 4434   1.008   2.666   2.268
 1497TIP3    H2 4435   0.925   2.674   2.395
 1498TIP3   OH2 4436   4.806   7.381   5.423
 1498TIP3    H1 4437   4.864   7.306   5.409
 1498TIP3    H2 4438   4.798   7.421   5.336
 1499TIP3   OH2 4439   6.141   6.029   5.626
 1499TIP3    H1 4440   6.097   5.957   5.670
 1499TIP3    H2 4441   6.089   6.047   5.548
 1500TIP3   OH2 4442   3.639   2.291   0.965
 1500TIP3    H1 4443   3.589   2.336   0.897
 1500TIP3    H2 4444   3.627   2.198   0.946
 1501TIP3   OH2 4445   2.065   5.956   1.578
 1501TIP3    H1 4446   2.119   5.915   1.511
 1501TIP3    H2 4447   2.028   6.033   1.536
 1502TIP3   OH2 4448   0.363   1.645   1.774
 1502TIP3    H1 4449   0.284   1.594   1.753
 1502TIP3    H2 4450   0.435   1.582   1.765
 1503TIP3   OH2 4451   1.557   7.514   5.446
 1503TIP3    H1 4452   1.476   7.556   5.474
 1503TIP3    H2 4453   1.538   7.420   5.449
 1504TIP3   OH2 4454   4.326   6.212   0.163
 1504TIP3    H1 4455   4.348   6.172   0.247
 1504TIP3    H2 4456   4.250   6.267   0.181
 1505TIP3   OH2 4457   2.982   3.666   0.056
 1505TIP3    H1 4458   3.015   3.680  -0.033
 1505TIP3    H2 4459   2.949   3.752   0.083
 1506TIP3   OH2 4460   2.004   4.363   0.979
 1506TIP3    H1 4461   1.990   4.394   0.890
 1506TIP3    H2 4462   2.068   4.425   1.016
 1507TIP3   OH2 4463   8.101   6.479   4.520
 1507TIP3    H1 4464   8.091   6.500   4.427
 1507TIP3    H2 4465   8.184   6.520   4.545
 1508TIP3   OH2 4466   3.645   2.604   2.851
 1508TIP3    H1 4467   3.645   2.663   2.777
 1508TIP3    H2 4468   3.573   2.634   2.906
 1509TIP3   OH2 4469   6.504   1.078   1.394
 1509TIP3    H1 4470   6.474   1.025   1.468
 1509TIP3    H2 4471   6.430   1.078   1.333
 1510TIP3   OH2 4472   0.200   0.690   0.051
 1510TIP3    H1 4473   0.145   0.617   0.022
 1510TIP3    H2 4474   0.290   0.659   0.039
 1511TIP3   OH2 4475   1.034   7.561   1.720
 1511TIP3    H1 4476   1.027   7.472   1.683
 1511TIP3    H2 4477   0.948   7.577   1.759
 1512TIP3   OH2 4478   7.580   5.596   6.304
 1512TIP3    H1 4479   7.605   5.552   6.386
 1512TIP3    H2 4480   7.518   5.536   6.263
 1513TIP3   OH2 4481   3.464   1.608   6.259
 1513TIP3    H1 4482   3.516   1.528   6.250
 1513TIP3    H2 4483   3.469   1.650   6.173
 1514TIP3   OH2 4484   0.619   3.786   6.232
 1514TIP3    H1 4485   0.712   3.774   6.252
 1514TIP3    H2 4486   0.575   3.716   6.280
 1515TIP3   OH2 4487   6.385   2.853   0.368
 1515TIP3    H1 4488   6.376   2.784   0.304
 1515TIP3    H2 4489   6.477   2.880   0.362
 1516TIP3   OH2 4490   0.802   6.224   3.471
 1516TIP3    H1 4491   0.723   6.175   3.448
 1516TIP3    H2 4492   0.872   6.158   3.474
 1517TIP3   OH2 4493   3.445   5.026   5.576
 1517TIP3    H1 4494   3.363   5.072   5.559
 1517TIP3    H2 4495   3.498   5.041   5.498
 1518TIP3   OH2 4496   3.798   0.490   2.300
 1518TIP3    H1 4497   3.813   0.534   2.216
 1518TIP3    H2 4498   3.707   0.509   2.321
 1519TIP3   OH2 4499   1.634   5.350   5.815
 1519TIP3    H1 4500   1.550   5.363   5.858
 1519TIP3    H2 4501   1.640   5.421   5.751
 1520TIP3   OH2 4502   3.140   0.164   6.162
 1520TIP3    H1 4503   3.131   0.156   6.068
 1520TIP3    H2 4504   3.224   0.208   6.175
 1521TIP3   OH2 4505   5.929   1.336   0.451
 1521TIP3    H1 4506   5.968   1.423   0.450
 1521TIP3    H2 4507   5.897   1.323   0.362
 1522TIP3   OH2 4508   4.776   5.193   6.507
 1522TIP3    H1 4509   4.762   5.098   6.508
 1522TIP3    H2 4510   4.754   5.219   6.418
 1523TIP3   OH2 4511   1.147   6.905   0.109
 1523TIP3    H1 4512   1.111   6.980   0.062
 1523TIP3    H2 4513   1.080   6.882   0.173
 1524TIP3   OH2 4514   6.307   0.819   5.407
 1524TIP3    H1 4515   6.290   0.728   5.383
 1524TIP3    H2 4516   6.222   0.862   5.399
 1525TIP3   OH2 4517   1.153   2.358   2.157
 1525TIP3    H1 4518   1.072   2.389   2.116
 1525TIP3    H2 4519   1.169   2.419   2.229
 1526TIP3   OH2 4520   4.153   0.943   2.591
 1526TIP3    H1 4521   4.181   1.029   2.624
 1526TIP3    H2 4522   4.175   0.882   2.662
 1527TIP3   OH2 4523   5.597   4.656   6.423
 1527TIP3    H1 4524   5.554   4.728   6.468
 1527TIP3    H2 4525   5.687   4.658   6.454
 1528TIP3   OH2 4526   2.881   1.079   5.690
 1528TIP3    H1 4527   2.907   1.132   5.765
 1528TIP3    H2 4528   2.911   1.130   5.614
 1529TIP3   OH2 4529   3.807   1.773   6.242
 1529TIP3    H1 4530   3.847   1.840   6.297
 1529TIP3    H2 4531   3.754   1.721   6.302
 1530TIP3   OH2 4532   0.234   7.602   1.581
 1530TIP3    H1 4533   0.178   7.562   1.648
 1530TIP3    H2 4534   0.243   7.535   1.514
 1531TIP3   OH2 4535   7.408   2.965   6.489
 1531TIP3    H1 4536   7.329   2.971   6.436
 1531TIP3    H2 4537   7.413   3.050   6.534
 1532TIP3   OH2 4538   4.893   5.953   4.088
 1532TIP3    H1 4539   4.931   5.959   4.176
 1532TIP3    H2 4540   4.824   5.886   4.097
 1533TIP3   OH2 4541   4.205   3.438   5.185
 1533TIP3    H1 4542   4.111   3.449   5.196
 1533TIP3    H2 4543   4.216   3.409   5.095
 1534TIP3   OH2 4544   0.256   0.279   4.205
 1534TIP3    H1 4545   0.218   0.191   4.205
 1534TIP3    H2 4546   0.283   0.293   4.296
 1535TIP3   OH2 4547   0.962   7.392   3.900
 1535TIP3    H1 4548   0.969   7.442   3.981
 1535TIP3    H2 4549   0.937   7.304   3.929
 1536TIP3   OH2 4550   1.928   3.037   3.645
 1536TIP3    H1 4551   1.837   3.033   3.615
 1536TIP3    H2 4552   1.969   2.961   3.604
 1537TIP3   OH2 4553   0.745   6.328   3.972
 1537TIP3    H1 4554   0.734   6.300   4.063
 1537TIP3    H2 4555   0.713   6.254   3.920
 1538TIP3   OH2 4556   4.426   2.341   1.316
 1538TIP3    H1 4557   4.341   2.385   1.314
 1538TIP3    H2 4558   4.465   2.368   1.399
 1539TIP3   OH2 4559   1.199   3.093   0.584
 1539TIP3    H1 4560   1.168   3.007   0.612
 1539TIP3    H2 4561   1.234   3.133   0.664
 1540TIP3   OH2 4562   0.029   4.976   0.571
 1540TIP3    H1 4563   0.055   4.884   0.579
 1540TIP3    H2 4564   0.111   5.025   0.576
 1541TIP3   OH2 4565   5.335   0.687   0.497
 1541TIP3    H1 4566   5.350   0.600   0.458
 1541TIP3    H2 4567   5.409   0.699   0.556
 1542TIP3   OH2 4568   2.957   2.639   4.474
 1542TIP3    H1 4569   2.909   2.668   4.552
 1542TIP3    H2 4570   3.047   2.668   4.489
 1543TIP3   OH2 4571   0.891   0.298   2.831
 1543TIP3    H1 4572   0.916   0.371   2.887
 1543TIP3    H2 4573   0.823   0.252   2.879
 1544TIP3   OH2 4574   1.315   6.650   1.950
 1544TIP3    H1 4575   1.371   6.657   2.027
 1544TIP3    H2 4576   1.348   6.717   1.890
 1545TIP3   OH2 4577   7.881   4.140   5.709
 1545TIP3    H1 4578   7.874   4.203   5.781
 1545TIP3    H2 4579   7.910   4.193   5.635
 1546TIP3   OH2 4580   3.467   6.002   1.766
 1546TIP3    H1 4581   3.499   5.921   1.806
 1546TIP3    H2 4582   3.395   6.029   1.823
 1547TIP3   OH2 4583   6.670   4.091   2.615
 1547TIP3    H1 4584   6.735   4.149   2.576
 1547TIP3    H2 4585   6.600   4.086   2.550
 1548TIP3   OH2 4586   0.231   5.296   3.169
 1548TIP3    H1 4587   0.286   5.226   3.205
 1548TIP3    H2 4588   0.225   5.277   3.076
 1549TIP3   OH2 4589   3.121   6.394   5.225
 1549TIP3    H1 4590   3.064   6.349   5.162
 1549TIP3    H2 4591   3.179   6.447   5.170
 1550TIP3   OH2 4592   2.200   3.796   5.369
 1550TIP3    H1 4593   2.165   3.851   5.439
 1550TIP3    H2 4594   2.213   3.857   5.295
 1551TIP3   OH2 4595   4.671   0.702   6.782
 1551TIP3    H1 4596   4.755   0.731   6.746
 1551TIP3    H2 4597   4.686   0.699   6.876
 1552TIP3   OH2 4598   3.919   4.817   0.377
 1552TIP3    H1 4599   3.837   4.769   0.368
 1552TIP3    H2 4600   3.943   4.807   0.469
 1553TIP3   OH2 4601   2.797   1.601   6.769
 1553TIP3    H1 4602   2.846   1.574   6.692
 1553TIP3    H2 4603   2.705   1.601   6.741
 1554TIP3   OH2 4604   7.888   6.231   3.311
 1554TIP3    H1 4605   7.852   6.311   3.271
 1554TIP3    H2 4606   7.850   6.160   3.260
 1555TIP3   OH2 4607   2.939   7.057   4.957
 1555TIP3    H1 4608   2.934   7.039   4.864
 1555TIP3    H2 4609   2.932   6.970   4.999
 1556TIP3   OH2 4610   7.686   5.727   1.118
 1556TIP3    H1 4611   7.636   5.795   1.163
 1556TIP3    H2 4612   7.653   5.730   1.028
 1557TIP3   OH2 4613   3.122   1.871   0.710
 1557TIP3    H1 4614   3.057   1.808   0.677
 1557TIP3    H2 4615   3.101   1.880   0.803
 1558TIP3   OH2 4616   6.371   5.471   4.956
 1558TIP3    H1 4617   6.385   5.436   5.044
 1558TIP3    H2 4618   6.326   5.554   4.969
 1559TIP3   OH2 4619   0.467   4.379   0.274
 1559TIP3    H1 4620   0.447   4.443   0.205
 1559TIP3    H2 4621   0.538   4.420   0.324
 1560TIP3   OH2 4622   6.224   3.142   2.034
 1560TIP3    H1 4623   6.221   3.135   1.938
 1560TIP3    H2 4624   6.306   3.188   2.053
 1561TIP3   OH2 4625   6.671   6.879   3.155
 1561TIP3    H1 4626   6.629   6.921   3.230
 1561TIP3    H2 4627   6.610   6.810   3.129
 1562TIP3   OH2 4628   6.234   5.660   2.208
 1562TIP3    H1 4629   6.303   5.645   2.144
 1562TIP3    H2 4630   6.223   5.755   2.210
 1563TIP3   OH2 4631   5.974   2.299   0.190
 1563TIP3    H1 4632   5.892   2.252   0.178
 1563TIP3    H2 4633   6.015   2.258   0.266
 1564TIP3   OH2 4634   8.180   3.482   4.604
 1564TIP3    H1 4635   8.224   3.546   4.548
 1564TIP3    H2 4636   8.090   3.479   4.572
 1565TIP3   OH2 4637   8.155   0.732   0.813
 1565TIP3    H1 4638   8.154   0.637   0.806
 1565TIP3    H2 4639   8.122   0.750   0.901
 1566TIP3   OH2 4640   7.821   2.640   1.630
 1566TIP3    H1 4641   7.810   2.619   1.722
 1566TIP3    H2 4642   7.748   2.597   1.586
 1567TIP3   OH2 4643   2.411   6.491   3.541
 1567TIP3    H1 4644   2.407   6.490   3.446
 1567TIP3    H2 4645   2.376   6.577   3.565
 1568TIP3   OH2 4646   8.034   0.321   1.997
 1568TIP3    H1 4647   8.099   0.294   1.932
 1568TIP3    H2 4648   8.072   0.293   2.081
 1569TIP3   OH2 4649   6.531   1.141   0.857
 1569TIP3    H1 4650   6.622   1.145   0.827
 1569TIP3    H2 4651   6.489   1.076   0.801
 1570TIP3   OH2 4652   1.312   0.590   2.384
 1570TIP3    H1 4653   1.354   0.508   2.358
 1570TIP3    H2 4654   1.308   0.586   2.479
 1571TIP3   OH2 4655   2.690   4.862   3.185
 1571TIP3    H1 4656   2.729   4.948   3.202
 1571TIP3    H2 4657   2.644   4.873   3.101
 1572TIP3   OH2 4658   7.400   7.580   4.378
 1572TIP3    H1 4659   7.467   7.563   4.312
 1572TIP3    H2 4660   7.443   7.562   4.461
 1573TIP3   OH2 4661   3.854   5.525   0.988
 1573TIP3    H1 4662   3.758   5.523   0.998
 1573TIP3    H2 4663   3.883   5.441   1.022
 1574TIP3   OH2 4664   3.057   0.116   5.047
 1574TIP3    H1 4665   2.964   0.123   5.024
 1574TIP3    H2 4666   3.057   0.103   5.142
 1575TIP3   OH2 4667   5.742   2.742   3.285
 1575TIP3    H1 4668   5.664   2.687   3.287
 1575TIP3    H2 4669   5.767   2.753   3.377
 1576TIP3   OH2 4670   6.783   0.630   3.335
 1576TIP3    H1 4671   6.867   0.622   3.382
 1576TIP3    H2 4672   6.797   0.583   3.253
 1577TIP3   OH2 4673   3.301   0.399   0.395
 1577TIP3    H1 4674   3.294   0.449   0.314
 1577TIP3    H2 4675   3.265   0.313   0.373
 1578TIP3   OH2 4676   4.369   5.203   3.329
 1578TIP3    H1 4677   4.459   5.183   3.307
 1578TIP3    H2 4678   4.325   5.214   3.245
 1579TIP3   OH2 4679   4.477   1.204   3.218
 1579TIP3    H1 4680   4.395   1.251   3.230
 1579TIP3    H2 4681   4.452   1.112   3.216
 1580TIP3   OH2 4682   1.529   6.615  -0.032
 1580TIP3    H1 4683   1.552   6.648   0.054
 1580TIP3    H2 4684   1.600   6.555  -0.056
 1581TIP3   OH2 4685   7.549   6.666   3.097
 1581TIP3    H1 4686   7.475   6.662   3.038
 1581TIP3    H2 4687   7.514   6.705   3.177
 1582TIP3   OH2 4688   2.776   2.927   5.136
 1582TIP3    H1 4689   2.861   2.954   5.171
 1582TIP3    H2 4690   2.798   2.864   5.067
 1583TIP3   OH2 4691   2.487   5.189   2.764
 1583TIP3    H1 4692   2.524   5.276   2.784
 1583TIP3    H2 4693   2.393   5.202   2.767
 1584TIP3   OH2 4694   5.701   3.204   6.371
 1584TIP3    H1 4695   5.691   3.299   6.379
 1584TIP3    H2 4696   5.768   3.182   6.435
 1585TIP3   OH2 4697   5.048   0.687   4.280
 1585TIP3    H1 4698   5.020   0.597   4.296
 1585TIP3    H2 4699   4.968   0.734   4.258
 1586TIP3   OH2 4700   6.341   4.866   4.245
 1586TIP3    H1 4701   6.354   4.771   4.236
 1586TIP3    H2 4702   6.283   4.889   4.173
 1587TIP3   OH2 4703   2.870   5.783   0.360
 1587TIP3    H1 4704   2.869   5.877   0.382
 1587TIP3    H2 4705   2.962   5.763   0.345
 1588TIP3   OH2 4706   0.595   1.520   4.493
 1588TIP3    H1 4707   0.510   1.530   4.535
 1588TIP3    H2 4708   0.653   1.577   4.544
 1589TIP3   OH2 4709   2.185   0.847   6.037
 1589TIP3    H1 4710   2.169   0.803   6.121
 1589TIP3    H2 4711   2.200   0.775   5.976
 1590TIP3   OH2 4712   0.349  -0.030   4.473
 1590TIP3    H1 4713   0.443  -0.051   4.471
 1590TIP3    H2 4714   0.346   0.066   4.470
 1591TIP3   OH2 4715   7.226   7.371   2.221
 1591TIP3    H1 4716   7.284   7.296   2.205
 1591TIP3    H2 4717   7.139   7.340   2.195
 1592TIP3   OH2 4718   6.605   7.126   3.774
 1592TIP3    H1 4719   6.548   7.196   3.743
 1592TIP3    H2 4720   6.546   7.054   3.794
 1593TIP3   OH2 4721   3.453   2.515   4.971
 1593TIP3    H1 4722   3.481   2.437   5.019
 1593TIP3    H2 4723   3.529   2.573   4.973
 1594TIP3   OH2 4724   0.926   7.186   2.666
 1594TIP3    H1 4725   0.875   7.205   2.744
 1594TIP3    H2 4726   1.010   7.230   2.682
 1595TIP3   OH2 4727   3.024   1.273   2.164
 1595TIP3    H1 4728   2.949   1.304   2.214
 1595TIP3    H2 4729   3.100   1.308   2.210
 1596TIP3   OH2 4730   5.868   0.955   1.699
 1596TIP3    H1 4731   5.867   0.914   1.612
 1596TIP3    H2 4732   5.956   0.991   1.707
 1597TIP3   OH2 4733   3.443   6.363   1.893
 1597TIP3    H1 4734   3.525   6.313   1.887
 1597TIP3    H2 4735   3.414   6.372   1.803
 1598TIP3   OH2 4736   0.362   1.989   5.140
 1598TIP3    H1 4737   0.393   1.910   5.097
 1598TIP3    H2 4738   0.301   1.957   5.207
 1599TIP3   OH2 4739   0.878   0.969   2.955
 1599TIP3    H1 4740   0.785   0.991   2.957
 1599TIP3    H2 4741   0.881   0.877   2.983
 1600TIP3   OH2 4742   3.540   3.358   5.757
 1600TIP3    H1 4743   3.525   3.282   5.702
 1600TIP3    H2 4744   3.630   3.347   5.789
 1601TIP3   OH2 4745   1.892   1.858   2.755
 1601TIP3    H1 4746   1.984   1.834   2.765
 1601TIP3    H2 4747   1.851   1.833   2.837
 1602TIP3   OH2 4748   6.572   0.134   6.148
 1602TIP3    H1 4749   6.503   0.170   6.205
 1602TIP3    H2 4750   6.621   0.211   6.119
 1603TIP3   OH2 4751   1.874   7.367   1.540
 1603TIP3    H1 4752   1.825   7.330   1.467
 1603TIP3    H2 4753   1.863   7.461   1.532
 1604TIP3   OH2 4754   7.309   2.185   6.635
 1604TIP3    H1 4755   7.379   2.143   6.586
 1604TIP3    H2 4756   7.340   2.186   6.725
 1605TIP3   OH2 4757   3.895   3.647   4.055
 1605TIP3    H1 4758   3.820   3.612   4.008
 1605TIP3    H2 4759   3.918   3.579   4.118
 1606TIP3   OH2 4760   1.812   2.237   6.450
 1606TIP3    H1 4761   1.796   2.299   6.521
 1606TIP3    H2 4762   1.905   2.216   6.457
 1607TIP3   OH2 4763   1.322   0.895   6.209
 1607TIP3    H1 4764   1.259   0.967   6.213
 1607TIP3    H2 4765   1.275   0.825   6.163
 1608TIP3   OH2 4766   6.698   6.999   5.978
 1608TIP3    H1 4767   6.665   6.909   5.971
 1608TIP3    H2 4768   6.669   7.028   6.064
 1609TIP3   OH2 4769   0.324   0.048   5.326
 1609TIP3    H1 4770   0.246   0.087   5.286
 1609TIP3    H2 4771   0.306  -0.046   5.324
 1610TIP3   OH2 4772   0.200   5.769   2.175
 1610TIP3    H1 4773   0.138   5.734   2.112
 1610TIP3    H2 4774   0.161   5.750   2.260
 1611TIP3   OH2 4775   7.513   4.653   4.327
 1611TIP3    H1 4776   7.445   4.657   4.260
 1611TIP3    H2 4777   7.516   4.560   4.351
 1612TIP3   OH2 4778   1.602   1.708   1.043
 1612TIP3    H1 4779   1.666   1.770   1.078
 1612TIP3    H2 4780   1.523   1.761   1.028
 1613TIP3   OH2 4781   1.681   3.929   4.779
 1613TIP3    H1 4782   1.698   4.022   4.793
 1613TIP3    H2 4783   1.648   3.924   4.689
 1614TIP3   OH2 4784   5.628   1.195   5.357
 1614TIP3    H1 4785   5.696   1.169   5.295
 1614TIP3    H2 4786   5.548   1.157   5.323
 1615TIP3   OH2 4787   6.000   1.824   2.211
 1615TIP3    H1 4788   6.050   1.856   2.286
 1615TIP3    H2 4789   5.927   1.775   2.251
 1616TIP3   OH2 4790   5.420   6.187   5.069
 1616TIP3    H1 4791   5.508   6.182   5.107
 1616TIP3    H2 4792   5.399   6.280   5.073
 1617TIP3   OH2 4793   3.073   6.910   5.612
 1617TIP3    H1 4794   3.047   6.893   5.703
 1617TIP3    H2 4795   3.124   6.833   5.588
 1618TIP3   OH2 4796   4.128   6.393   0.224
 1618TIP3    H1 4797   4.035   6.374   0.213
 1618TIP3    H2 4798   4.136   6.487   0.206
 1619TIP3   OH2 4799   3.456   2.101   2.230
 1619TIP3    H1 4800   3.406   2.104   2.312
 1619TIP3    H2 4801   3.511   2.023   2.239
 1620TIP3   OH2 4802   1.546   1.136   2.762
 1620TIP3    H1 4803   1.457   1.167   2.777
 1620TIP3    H2 4804   1.573   1.102   2.848
 1621TIP3   OH2 4805   4.538   1.469   0.944
 1621TIP3    H1 4806   4.623   1.480   0.901
 1621TIP3    H2 4807   4.559   1.437   1.031
 1622TIP3   OH2 4808   8.093   7.048   0.273
 1622TIP3    H1 4809   8.144   7.057   0.192
 1622TIP3    H2 4810   8.002   7.066   0.246
 1623TIP3   OH2 4811   0.753   2.405   3.162
 1623TIP3    H1 4812   0.711   2.326   3.127
 1623TIP3    H2 4813   0.681   2.466   3.178
 1624TIP3   OH2 4814   0.358   6.676   6.704
 1624TIP3    H1 4815   0.297   6.652   6.773
 1624TIP3    H2 4816   0.400   6.594   6.679
 1625TIP3   OH2 4817   1.611   4.702   0.819
 1625TIP3    H1 4818   1.602   4.794   0.843
 1625TIP3    H2 4819   1.641   4.703   0.728
 1626TIP3   OH2 4820   7.081   2.201   4.773
 1626TIP3    H1 4821   7.051   2.218   4.683
 1626TIP3    H2 4822   7.173   2.227   4.772
 1627TIP3   OH2 4823   3.722   6.830   3.291
 1627TIP3    H1 4824   3.772   6.896   3.242
 1627TIP3    H2 4825   3.765   6.827   3.376
 1628TIP3   OH2 4826   7.121   1.944   6.606
 1628TIP3    H1 4827   7.049   1.969   6.664
 1628TIP3    H2 4828   7.180   2.020   6.607
 1629TIP3   OH2 4829   7.157   2.747   3.767
 1629TIP3    H1 4830   7.069   2.784   3.755
 1629TIP3    H2 4831   7.163   2.730   3.861
 1630TIP3   OH2 4832   6.208   2.831   6.686
 1630TIP3    H1 4833   6.252   2.771   6.746
 1630TIP3    H2 4834   6.124   2.851   6.728
 1631TIP3   OH2 4835   0.440   0.888   3.145
 1631TIP3    H1 4836   0.407   0.899   3.056
 1631TIP3    H2 4837   0.432   0.976   3.184
 1632TIP3   OH2 4838   4.263   3.154   5.267
 1632TIP3    H1 4839   4.220   3.234   5.235
 1632TIP3    H2 4840   4.356   3.178   5.272
 1633TIP3   OH2 4841   5.674   2.490   2.070
 1633TIP3    H1 4842   5.690   2.576   2.031
 1633TIP3    H2 4843   5.669   2.507   2.164
 1634TIP3   OH2 4844   7.728   4.595   3.910
 1634TIP3    H1 4845   7.654   4.538   3.933
 1634TIP3    H2 4846   7.797   4.569   3.971
 1635TIP3   OH2 4847   0.627   1.456   1.882
 1635TIP3    H1 4848   0.572   1.477   1.958
 1635TIP3    H2 4849   0.711   1.499   1.901
 1636TIP3   OH2 4850   6.091   4.171   2.830
 1636TIP3    H1 4851   6.121   4.261   2.831
 1636TIP3    H2 4852   6.013   4.173   2.774
 1637TIP3   OH2 4853   6.992   5.456   2.854
 1637TIP3    H1 4854   7.000   5.536   2.905
 1637TIP3    H2 4855   7.040   5.390   2.904
 1638TIP3   OH2 4856   8.185   2.651   5.795
 1638TIP3    H1 4857   8.123   2.702   5.741
 1638TIP3    H2 4858   8.182   2.563   5.757
 1639TIP3   OH2 4859   6.416   0.047   1.747
 1639TIP3    H1 4860   6.418  -0.048   1.761
 1639TIP3    H2 4861   6.435   0.057   1.653
 1640TIP3   OH2 4862   1.825   3.887   1.929
 1640TIP3    H1 4863   1.829   3.892   1.833
 1640TIP3    H2 4864   1.762   3.955   1.953
 1641TIP3   OH2 4865   5.778   2.749   6.555
 1641TIP3    H1 4866   5.745   2.756   6.465
 1641TIP3    H2 4867   5.712   2.696   6.600
 1642TIP3   OH2 4868   0.393   0.303   1.652
 1642TIP3    H1 4869   0.328   0.372   1.635
 1642TIP3    H2 4870   0.359   0.258   1.729
 1643TIP3   OH2 4871   2.469   6.193   0.093
 1643TIP3    H1 4872   2.501   6.226   0.008
 1643TIP3    H2 4873   2.547   6.154   0.133
 1644TIP3   OH2 4874   0.662   0.580   2.411
 1644TIP3    H1 4875   0.670   0.675   2.401
 1644TIP3    H2 4876   0.607   0.568   2.487
 1645TIP3   OH2 4877   3.354   4.476   6.199
 1645TIP3    H1 4878   3.284   4.533   6.229
 1645TIP3    H2 4879   3.431   4.533   6.194
 1646TIP3   OH2 4880   7.085   3.305   4.509
 1646TIP3    H1 4881   7.083   3.242   4.437
 1646TIP3    H2 4882   7.003   3.290   4.556
 1647TIP3   OH2 4883   5.681   1.522   3.069
 1647TIP3    H1 4884   5.676   1.524   3.164
 1647TIP3    H2 4885   5.722   1.439   3.049
 1648TIP3   OH2 4886   0.999   5.321   0.482
 1648TIP3    H1 4887   0.977   5.278   0.399
 1648TIP3    H2 4888   1.090   5.296   0.499
 1649TIP3   OH2 4889   1.446   7.071   2.481
 1649TIP3    H1 4890   1.427   7.021   2.560
 1649TIP3    H2 4891   1.452   7.004   2.412
 1650TIP3   OH2 4892   1.601   7.758   3.308
 1650TIP3    H1 4893   1.571   7.712   3.387
 1650TIP3    H2 4894   1.548   7.837   3.304
 1651TIP3   OH2 4895   1.250   4.490   5.922
 1651TIP3    H1 4896   1.255   4.432   5.998
 1651TIP3    H2 4897   1.296   4.443   5.852
 1652TIP3   OH2 4898   0.430   7.546   5.731
 1652TIP3    H1 4899   0.497   7.484   5.702
 1652TIP3    H2 4900   0.446   7.557   5.825
 1653TIP3   OH2 4901   1.095   5.377   6.132
 1653TIP3    H1 4902   1.021   5.350   6.186
 1653TIP3    H2 4903   1.070   5.463   6.098
 1654TIP3   OH2 4904   0.217   2.780   5.340
 1654TIP3    H1 4905   0.276   2.808   5.410
 1654TIP3    H2 4906   0.264   2.800   5.259
 1655TIP3   OH2 4907   5.753   3.691   0.716
 1655TIP3    H1 4908   5.768   3.680   0.622
 1655TIP3    H2 4909   5.662   3.662   0.729
 1656TIP3   OH2 4910   3.240   2.385   3.652
 1656TIP3    H1 4911   3.271   2.299   3.682
 1656TIP3    H2 4912   3.317   2.441   3.655
 1657TIP3   OH2 4913   7.028   4.848   1.894
 1657TIP3    H1 4914   7.065   4.895   1.968
 1657TIP3    H2 4915   7.076   4.881   1.818
 1658TIP3   OH2 4916   0.758   5.167   1.902
 1658TIP3    H1 4917   0.720   5.254   1.906
 1658TIP3    H2 4918   0.693   5.110   1.943
 1659TIP3   OH2 4919   5.813   1.873   5.609
 1659TIP3    H1 4920   5.838   1.878   5.516
 1659TIP3    H2 4921   5.838   1.959   5.644
 1660TIP3   OH2 4922   0.818   6.879   3.439
 1660TIP3    H1 4923   0.786   6.789   3.439
 1660TIP3    H2 4924   0.901   6.874   3.486
 1661TIP3   OH2 4925   8.259   4.457   1.523
 1661TIP3    H1 4926   8.195   4.388   1.541
 1661TIP3    H2 4927   8.310   4.423   1.449
 1662TIP3   OH2 4928   0.946   7.779   3.869
 1662TIP3    H1 4929   1.029   7.743   3.840
 1662TIP3    H2 4930   0.883   7.751   3.802
 1663TIP3   OH2 4931   3.980   1.364   1.735
 1663TIP3    H1 4932   3.995   1.391   1.644
 1663TIP3    H2 4933   4.053   1.305   1.755
 1664TIP3   OH2 4934   2.413   7.779   2.776
 1664TIP3    H1 4935   2.503   7.810   2.772
 1664TIP3    H2 4936   2.377   7.800   2.689
 1665TIP3   OH2 4937   0.724   1.743   0.231
 1665TIP3    H1 4938   0.746   1.777   0.317
 1665TIP3    H2 4939   0.808   1.730   0.187
 1666TIP3   OH2 4940   2.968   2.142   4.392
 1666TIP3    H1 4941   3.021   2.143   4.312
 1666TIP3    H2 4942   2.996   2.220   4.440
 1667TIP3   OH2 4943   1.542   3.399   1.061
 1667TIP3    H1 4944   1.536   3.468   1.128
 1667TIP3    H2 4945   1.508   3.321   1.104
 1668TIP3   OH2 4946   3.508   2.680   4.641
 1668TIP3    H1 4947   3.595   2.694   4.602
 1668TIP3    H2 4948   3.526   2.632   4.722
 1669TIP3   OH2 4949   7.693   3.383   4.188
 1669TIP3    H1 4950   7.603   3.389   4.158
 1669TIP3    H2 4951   7.738   3.331   4.122
 1670TIP3   OH2 4952   1.565   1.830   2.228
 1670TIP3    H1 4953   1.510   1.832   2.307
 1670TIP3    H2 4954   1.649   1.796   2.258
 1671TIP3   OH2 4955   2.412   3.540   2.900
 1671TIP3    H1 4956   2.444   3.491   2.976
 1671TIP3    H2 4957   2.323   3.567   2.925
 1672TIP3   OH2 4958   0.750   1.720   2.663
 1672TIP3    H1 4959   0.831   1.670   2.674
 1672TIP3    H2 4960   0.778   1.811   2.663
 1673TIP3   OH2 4961   6.540   4.663   1.465
 1673TIP3    H1 4962   6.452   4.667   1.503
 1673TIP3    H2 4963   6.525   4.663   1.370
 1674TIP3   OH2 4964   3.987   0.759   0.908
 1674TIP3    H1 4965   4.010   0.759   1.001
 1674TIP3    H2 4966   3.952   0.847   0.893
 1675TIP3   OH2 4967   4.795   7.060   2.964
 1675TIP3    H1 4968   4.844   7.141   2.977
 1675TIP3    H2 4969   4.753   7.043   3.048
 1676TIP3   OH2 4970   6.242   5.927   2.206
 1676TIP3    H1 4971   6.324   5.933   2.255
 1676TIP3    H2 4972   6.206   6.016   2.208
 1677TIP3   OH2 4973   5.643   2.306   5.859
 1677TIP3    H1 4974   5.654   2.326   5.766
 1677TIP3    H2 4975   5.702   2.232   5.875
 1678TIP3   OH2 4976   2.495   0.698   2.924
 1678TIP3    H1 4977   2.514   0.677   3.016
 1678TIP3    H2 4978   2.578   0.682   2.878
 1679TIP3   OH2 4979   1.011   5.520   6.367
 1679TIP3    H1 4980   1.011   5.516   6.463
 1679TIP3    H2 4981   0.918   5.514   6.343
 1680TIP3   OH2 4982   7.633   1.313   4.934
 1680TIP3    H1 4983   7.645   1.400   4.896
 1680TIP3    H2 4984   7.630   1.328   5.029
 1681TIP3   OH2 4985   5.657   0.749   0.181
 1681TIP3    H1 4986   5.568   0.742   0.146
 1681TIP3    H2 4987   5.707   0.683   0.133
 1682TIP3   OH2 4988   5.408   3.130   6.159
 1682TIP3    H1 4989   5.428   3.110   6.068
 1682TIP3    H2 4990   5.419   3.047   6.205
 1683TIP3   OH2 4991   0.561   0.553   0.660
 1683TIP3    H1 4992   0.570   0.539   0.754
 1683TIP3    H2 4993   0.497   0.624   0.652
 1684TIP3   OH2 4994   2.918   6.650   6.385
 1684TIP3    H1 4995   3.003   6.633   6.425
 1684TIP3    H2 4996   2.878   6.715   6.443
 1685TIP3   OH2 4997   3.587   0.162   0.757
 1685TIP3    H1 4998   3.565   0.114   0.677
 1685TIP3    H2 4999   3.618   0.247   0.727
 1686TIP3   OH2 5000   6.627   7.422   2.713
 1686TIP3    H1 5001   6.657   7.511   2.694
 1686TIP3    H2 5002   6.544   7.414   2.666
 1687TIP3   OH2 5003   4.316   6.900   0.223
 1687TIP3    H1 5004   4.349   6.886   0.134
 1687TIP3    H2 5005   4.303   6.995   0.229
 1688TIP3   OH2 5006   5.458   0.679   6.394
 1688TIP3    H1 5007   5.409   0.599   6.373
 1688TIP3    H2 5008   5.412   0.749   6.347
 1689TIP3   OH2 5009   4.274   4.602   0.951
 1689TIP3    H1 5010   4.225   4.527   0.986
 1689TIP3    H2 5011   4.288   4.580   0.859
 1690TIP3   OH2 5012   6.327   6.580   6.048
 1690TIP3    H1 5013   6.419   6.571   6.072
 1690TIP3    H2 5014   6.318   6.529   5.967
 1691TIP3   OH2 5015   7.512   3.597   0.149
 1691TIP3    H1 5016   7.534   3.689   0.162
 1691TIP3    H2 5017   7.595   3.550   0.165
 1692TIP3   OH2 5018   7.496   3.198   1.634
 1692TIP3    H1 5019   7.560   3.126   1.629
 1692TIP3    H2 5020   7.433   3.169   1.701
 1693TIP3   OH2 5021   5.203   0.443   3.870
 1693TIP3    H1 5022   5.115   0.453   3.834
 1693TIP3    H2 5023   5.204   0.353   3.905
 1694TIP3   OH2 5024   0.256   7.645   4.815
 1694TIP3    H1 5025   0.180   7.638   4.872
 1694TIP3    H2 5026   0.326   7.678   4.871
 1695TIP3   OH2 5027   6.302   4.614   0.255
 1695TIP3    H1 5028   6.326   4.545   0.317
 1695TIP3    H2 5029   6.335   4.583   0.171
 1696TIP3   OH2 5030   0.165   1.475   0.959
 1696TIP3    H1 5031   0.071   1.488   0.975
 1696TIP3    H2 5032   0.194   1.419   1.031
 1697TIP3   OH2 5033   1.437   4.183   6.794
 1697TIP3    H1 5034   1.495   4.178   6.718
 1697TIP3    H2 5035   1.478   4.128   6.860
 1698TIP3   OH2 5036   1.037   3.700   2.264
 1698TIP3    H1 5037   1.058   3.607   2.254
 1698TIP3    H2 5038   1.120   3.740   2.289
 1699TIP3   OH2 5039   0.032   0.024   1.608
 1699TIP3    H1 5040  -0.031  -0.048   1.617
 1699TIP3    H2 5041   0.011   0.063   1.524
 1700TIP3   OH2 5042   2.400   2.740   6.287
 1700TIP3    H1 5043   2.376   2.648   6.300
 1700TIP3    H2 5044   2.409   2.749   6.192
 1701TIP3   OH2 5045   7.010   7.306   3.876
 1701TIP3    H1 5046   7.004   7.397   3.905
 1701TIP3    H2 5047   6.965   7.256   3.944
 1702TIP3   OH2 5048   5.673   1.774   3.272
 1702TIP3    H1 5049   5.697   1.696   3.222
 1702TIP3    H2 5050   5.625   1.740   3.348
 1703TIP3   OH2 5051   5.720   3.128   5.949
 1703TIP3    H1 5052   5.704   3.123   5.855
 1703TIP3    H2 5053   5.668   3.202   5.979
 1704TIP3   OH2 5054   7.511   1.355   3.523
 1704TIP3    H1 5055   7.504   1.418   3.451
 1704TIP3    H2 5056   7.480   1.403   3.600
 1705TIP3   OH2 5057   1.157   5.819   2.659
 1705TIP3    H1 5058   1.139   5.761   2.733
 1705TIP3    H2 5059   1.097   5.893   2.672
 1706TIP3   OH2 5060   1.874   4.967   6.156
 1706TIP3    H1 5061   1.831   5.052   6.157
 1706TIP3    H2 5062   1.903   4.953   6.246
 1707TIP3   OH2 5063   2.313   7.730   2.265
 1707TIP3    H1 5064   2.398   7.687   2.258
 1707TIP3    H2 5065   2.250   7.658   2.273
 1708TIP3   OH2 5066   1.034   5.564   0.195
 1708TIP3    H1 5067   0.986   5.629   0.143
 1708TIP3    H2 5068   1.031   5.484   0.142
 1709TIP3   OH2 5069   8.373   1.949   2.508
 1709TIP3    H1 5070   8.289   1.928   2.549
 1709TIP3    H2 5071   8.383   1.884   2.438
 1710TIP3   OH2 5072   5.975   7.053   2.451
 1710TIP3    H1 5073   5.922   7.022   2.525
 1710TIP3    H2 5074   5.976   7.148   2.461
 1711TIP3   OH2 5075   2.066   1.225   1.707
 1711TIP3    H1 5076   2.129   1.209   1.777
 1711TIP3    H2 5077   2.103   1.179   1.631
 1712TIP3   OH2 5078   1.714   2.621   2.435
 1712TIP3    H1 5079   1.682   2.551   2.491
 1712TIP3    H2 5080   1.805   2.598   2.416
 1713TIP3   OH2 5081   5.001   3.073   3.098
 1713TIP3    H1 5082   5.083   3.029   3.120
 1713TIP3    H2 5083   4.984   3.130   3.174
 1714TIP3   OH2 5084   2.713   4.554   3.894
 1714TIP3    H1 5085   2.668   4.629   3.856
 1714TIP3    H2 5086   2.784   4.591   3.946
 1715TIP3   OH2 5087   4.976   3.111   1.444
 1715TIP3    H1 5088   5.068   3.096   1.467
 1715TIP3    H2 5089   4.927   3.073   1.517
 1716TIP3   OH2 5090   3.295   6.934   2.134
 1716TIP3    H1 5091   3.276   6.876   2.060
 1716TIP3    H2 5092   3.390   6.946   2.133
 1717TIP3   OH2 5093   0.070   1.945   3.167
 1717TIP3    H1 5094   0.080   2.038   3.146
 1717TIP3    H2 5095   0.053   1.943   3.261
 1718TIP3   OH2 5096   6.658   1.318   1.901
 1718TIP3    H1 5097   6.593   1.388   1.899
 1718TIP3    H2 5098   6.607   1.239   1.918
 1719TIP3   OH2 5099   3.049   1.056   1.304
 1719TIP3    H1 5100   3.011   1.046   1.216
 1719TIP3    H2 5101   2.991   1.119   1.347
 1720TIP3   OH2 5102   6.652   1.393   0.447
 1720TIP3    H1 5103   6.654   1.331   0.375
 1720TIP3    H2 5104   6.562   1.388   0.480
 1721TIP3   OH2 5105   5.779   0.232   4.598
 1721TIP3    H1 5106   5.750   0.211   4.509
 1721TIP3    H2 5107   5.802   0.148   4.637
 1722TIP3   OH2 5108   0.484   6.074   2.233
 1722TIP3    H1 5109   0.461   6.021   2.157
 1722TIP3    H2 5110   0.421   6.049   2.301
 1723TIP3   OH2 5111   6.435   2.906   6.570
 1723TIP3    H1 5112   6.403   2.962   6.498
 1723TIP3    H2 5113   6.356   2.879   6.616
 1724TIP3   OH2 5114   7.542   3.923   3.568
 1724TIP3    H1 5115   7.504   3.855   3.623
 1724TIP3    H2 5116   7.535   4.003   3.621
 1725TIP3   OH2 5117   0.507   6.873   4.307
 1725TIP3    H1 5118   0.517   6.856   4.213
 1725TIP3    H2 5119   0.553   6.955   4.322
 1726TIP3   OH2 5120   5.936   1.850   4.756
 1726TIP3    H1 5121   5.935   1.887   4.844
 1726TIP3    H2 5122   5.975   1.918   4.702
 1727TIP3   OH2 5123   5.577   2.460   2.988
 1727TIP3    H1 5124   5.483   2.439   2.988
 1727TIP3    H2 5125   5.621   2.375   2.983
 1728TIP3   OH2 5126   5.995   2.629   3.238
 1728TIP3    H1 5127   5.911   2.673   3.245
 1728TIP3    H2 5128   6.035   2.666   3.159
 1729TIP3   OH2 5129   1.143   5.302   2.264
 1729TIP3    H1 5130   1.084   5.340   2.330
 1729TIP3    H2 5131   1.140   5.365   2.191
 1730TIP3   OH2 5132   7.593   7.657   3.048
 1730TIP3    H1 5133   7.536   7.734   3.052
 1730TIP3    H2 5134   7.630   7.659   2.960
 1731TIP3   OH2 5135   1.133   5.997   2.975
 1731TIP3    H1 5136   1.219   5.957   2.987
 1731TIP3    H2 5137   1.143   6.086   3.008
 1732TIP3   OH2 5138   7.217   7.079   2.531
 1732TIP3    H1 5139   7.175   7.162   2.508
 1732TIP3    H2 5140   7.146   7.015   2.528
 1733TIP3   OH2 5141   3.887   0.306   4.297
 1733TIP3    H1 5142   3.865   0.362   4.371
 1733TIP3    H2 5143   3.805   0.259   4.277
 1734TIP3   OH2 5144   1.034   2.964   4.678
 1734TIP3    H1 5145   1.057   2.880   4.717
 1734TIP3    H2 5146   0.962   2.945   4.619
 1735TIP3   OH2 5147   6.728   2.618   2.220
 1735TIP3    H1 5148   6.751   2.547   2.280
 1735TIP3    H2 5149   6.736   2.580   2.133
 1736TIP3   OH2 5150   6.554   6.800   2.120
 1736TIP3    H1 5151   6.509   6.822   2.201
 1736TIP3    H2 5152   6.485   6.764   2.063
 1737TIP3   OH2 5153   4.008   5.190   1.887
 1737TIP3    H1 5154   4.040   5.140   1.812
 1737TIP3    H2 5155   3.913   5.189   1.878
 1738TIP3   OH2 5156   7.374   0.397   4.245
 1738TIP3    H1 5157   7.369   0.302   4.230
 1738TIP3    H2 5158   7.451   0.408   4.302
 1739TIP3   OH2 5159   4.049   0.073   4.008
 1739TIP3    H1 5160   4.052   0.092   4.102
 1739TIP3    H2 5161   3.973   0.121   3.976
 1740TIP3   OH2 5162   2.143   3.544   2.916
 1740TIP3    H1 5163   2.066   3.532   2.860
 1740TIP3    H2 5164   2.107   3.557   3.004
 1741TIP3   OH2 5165   3.050   5.000   2.269
 1741TIP3    H1 5166   3.050   5.007   2.365
 1741TIP3    H2 5167   3.110   4.928   2.251
 1742TIP3   OH2 5168   6.151   4.402   0.057
 1742TIP3    H1 5169   6.233   4.366   0.092
 1742TIP3    H2 5170   6.099   4.325   0.035
 1743TIP3   OH2 5171   5.160   3.363   3.820
 1743TIP3    H1 5172   5.085   3.315   3.857
 1743TIP3    H2 5173   5.127   3.399   3.737
 1744TIP3   OH2 5174   2.241   0.497   2.400
 1744TIP3    H1 5175   2.154   0.499   2.440
 1744TIP3    H2 5176   2.301   0.500   2.475
 1745TIP3   OH2 5177   6.134   6.274   2.931
 1745TIP3    H1 5178   6.131   6.267   2.836
 1745TIP3    H2 5179   6.212   6.224   2.957
 1746TIP3   OH2 5180   0.395   0.638   5.349
 1746TIP3    H1 5181   0.337   0.690   5.405
 1746TIP3    H2 5182   0.353   0.552   5.345
 1747TIP3   OH2 5183   1.806   0.434   4.051
 1747TIP3    H1 5184   1.802   0.407   3.960
 1747TIP3    H2 5185   1.722   0.479   4.066
 1748TIP3   OH2 5186   3.160   7.270   4.259
 1748TIP3    H1 5187   3.084   7.244   4.312
 1748TIP3    H2 5188   3.126   7.274   4.170
 1749TIP3   OH2 5189   5.068   2.663   1.659
 1749TIP3    H1 5190   5.140   2.600   1.662
 1749TIP3    H2 5191   4.990   2.610   1.644
 1750TIP3   OH2 5192   2.475   2.234   6.731
 1750TIP3    H1 5193   2.442   2.195   6.813
 1750TIP3    H2 5194   2.432   2.183   6.662
 1751TIP3   OH2 5195   7.899   0.647   0.193
 1751TIP3    H1 5196   7.826   0.586   0.200
 1751TIP3    H2 5197   7.933   0.655   0.282
 1752TIP3   OH2 5198   4.646   1.468   4.802
 1752TIP3    H1 5199   4.689   1.484   4.719
 1752TIP3    H2 5200   4.552   1.476   4.782
 1753TIP3   OH2 5201   3.507   7.263   2.954
 1753TIP3    H1 5202   3.575   7.298   3.011
 1753TIP3    H2 5203   3.485   7.179   2.992
 1754TIP3   OH2 5204   4.986   0.533   5.355
 1754TIP3    H1 5205   5.018   0.495   5.437
 1754TIP3    H2 5206   4.993   0.627   5.368
 1755TIP3   OH2 5207   0.042   6.873   3.787
 1755TIP3    H1 5208   0.075   6.956   3.752
 1755TIP3    H2 5209  -0.019   6.842   3.721
 1756TIP3   OH2 5210   6.219   6.647   0.167
 1756TIP3    H1 5211   6.234   6.555   0.148
 1756TIP3    H2 5212   6.269   6.694   0.100
 1757TIP3   OH2 5213   3.967   0.885   5.988
 1757TIP3    H1 5214   4.008   0.923   6.066
 1757TIP3    H2 5215   4.007   0.931   5.915
 1758TIP3   OH2 5216   0.979   7.745   4.132
 1758TIP3    H1 5217   0.953   7.660   4.096
 1758TIP3    H2 5218   0.998   7.799   4.056
 1759TIP3   OH2 5219   2.726   5.942   1.984
 1759TIP3    H1 5220   2.657   5.896   1.936
 1759TIP3    H2 5221   2.779   5.872   2.023
 1760TIP3   OH2 5222   7.498   7.665   1.898
 1760TIP3    H1 5223   7.572   7.615   1.931
 1760TIP3    H2 5224   7.537   7.731   1.841
 1761TIP3   OH2 5225   6.059   2.285   6.698
 1761TIP3    H1 5226   6.028   2.281   6.607
 1761TIP3    H2 5227   6.111   2.365   6.703
 1762TIP3   OH2 5228   2.396   5.982   3.608
 1762TIP3    H1 5229   2.340   6.000   3.683
 1762TIP3    H2 5230   2.470   6.042   3.619
 1763TIP3   OH2 5231   5.398   5.701   1.501
 1763TIP3    H1 5232   5.307   5.724   1.519
 1763TIP3    H2 5233   5.430   5.772   1.446
 1764TIP3   OH2 5234   5.427   6.784   1.316
 1764TIP3    H1 5235   5.464   6.698   1.332
 1764TIP3    H2 5236   5.493   6.829   1.262
 1765TIP3   OH2 5237   7.988   1.655   4.914
 1765TIP3    H1 5238   7.938   1.616   4.986
 1765TIP3    H2 5239   7.997   1.747   4.939
 1766TIP3   OH2 5240   5.841   5.969   4.451
 1766TIP3    H1 5241   5.844   6.025   4.373
 1766TIP3    H2 5242   5.841   6.031   4.525
 1767TIP3   OH2 5243   6.036   1.093   3.634
 1767TIP3    H1 5244   5.945   1.086   3.606
 1767TIP3    H2 5245   6.049   1.021   3.694
 1768TIP3   OH2 5246   2.660   0.432   4.827
 1768TIP3    H1 5247   2.744   0.388   4.810
 1768TIP3    H2 5248   2.682   0.502   4.889
 1769TIP3   OH2 5249   0.304   6.639   6.236
 1769TIP3    H1 5250   0.229   6.599   6.280
 1769TIP3    H2 5251   0.298   6.609   6.145
 1770TIP3   OH2 5252   5.097   7.488   6.708
 1770TIP3    H1 5253   5.022   7.529   6.665
 1770TIP3    H2 5254   5.072   7.484   6.801
 1771TIP3   OH2 5255   2.127   3.517   5.471
 1771TIP3    H1 5256   2.156   3.432   5.438
 1771TIP3    H2 5257   2.206   3.572   5.467
 1772TIP3   OH2 5258   2.439   0.562   6.026
 1772TIP3    H1 5259   2.466   0.589   6.114
 1772TIP3    H2 5260   2.505   0.498   5.999
 1773TIP3   OH2 5261   6.821   0.041   1.211
 1773TIP3    H1 5262   6.780  -0.014   1.277
 1773TIP3    H2 5263   6.752   0.060   1.148
 1774TIP3   OH2 5264   5.500   3.541   6.170
 1774TIP3    H1 5265   5.412   3.504   6.183
 1774TIP3    H2 5266   5.485   3.616   6.113
 1775TIP3   OH2 5267   8.057   0.154   3.814
 1775TIP3    H1 5268   7.965   0.126   3.816
 1775TIP3    H2 5269   8.100   0.090   3.758
 1776TIP3   OH2 5270   6.780   2.495   1.976
 1776TIP3    H1 5271   6.851   2.526   1.919
 1776TIP3    H2 5272   6.701   2.504   1.922
 1777TIP3   OH2 5273   2.625   1.125   5.406
 1777TIP3    H1 5274   2.613   1.031   5.420
 1777TIP3    H2 5275   2.611   1.138   5.312
 1778TIP3   OH2 5276   2.336   1.215   6.481
 1778TIP3    H1 5277   2.343   1.156   6.407
 1778TIP3    H2 5278   2.254   1.191   6.524
 1779TIP3   OH2 5279   1.791   7.271   1.063
 1779TIP3    H1 5280   1.733   7.262   1.139
 1779TIP3    H2 5281   1.878   7.251   1.097
 1780TIP3   OH2 5282   1.128   6.218   4.094
 1780TIP3    H1 5283   1.147   6.299   4.047
 1780TIP3    H2 5284   1.038   6.196   4.069
 1781TIP3   OH2 5285   1.548   3.945   5.323
 1781TIP3    H1 5286   1.469   3.969   5.371
 1781TIP3    H2 5287   1.521   3.943   5.231
 1782TIP3   OH2 5288   5.506   7.283   6.634
 1782TIP3    H1 5289   5.510   7.233   6.552
 1782TIP3    H2 5290   5.589   7.266   6.677
 1783TIP3   OH2 5291   7.465   5.615   2.820
 1783TIP3    H1 5292   7.502   5.541   2.772
 1783TIP3    H2 5293   7.419   5.666   2.753
 1784TIP3   OH2 5294   4.205   2.348   3.755
 1784TIP3    H1 5295   4.204   2.395   3.839
 1784TIP3    H2 5296   4.145   2.398   3.699
 1785TIP3   OH2 5297   4.718   3.074   2.986
 1785TIP3    H1 5298   4.676   3.115   3.062
 1785TIP3    H2 5299   4.801   3.040   3.020
 1786TIP3   OH2 5300   4.423   0.662   2.248
 1786TIP3    H1 5301   4.404   0.756   2.251
 1786TIP3    H2 5302   4.381   0.627   2.326
 1787TIP3   OH2 5303   3.224   7.322   1.744
 1787TIP3    H1 5304   3.211   7.277   1.827
 1787TIP3    H2 5305   3.305   7.285   1.709
 1788TIP3   OH2 5306   0.526   4.103   3.274
 1788TIP3    H1 5307   0.476   4.176   3.239
 1788TIP3    H2 5308   0.477   4.075   3.351
 1789TIP3   OH2 5309   1.458   7.393   0.772
 1789TIP3    H1 5310   1.473   7.302   0.798
 1789TIP3    H2 5311   1.525   7.443   0.819
 1790TIP3   OH2 5312   4.401   3.515   3.032
 1790TIP3    H1 5313   4.306   3.507   3.023
 1790TIP3    H2 5314   4.412   3.567   3.112
 1791TIP3   OH2 5315   5.425   2.636   5.509
 1791TIP3    H1 5316   5.385   2.723   5.517
 1791TIP3    H2 5317   5.473   2.640   5.426
 1792TIP3   OH2 5318   3.196   7.727   4.065
 1792TIP3    H1 5319   3.144   7.759   3.991
 1792TIP3    H2 5320   3.141   7.741   4.142
 1793TIP3   OH2 5321   2.035   2.223   1.341
 1793TIP3    H1 5322   2.121   2.196   1.309
 1793TIP3    H2 5323   2.051   2.306   1.386
 1794TIP3   OH2 5324   2.219   1.543   4.372
 1794TIP3    H1 5325   2.286   1.479   4.398
 1794TIP3    H2 5326   2.143   1.521   4.425
 1795TIP3   OH2 5327   5.073   3.099   4.309
 1795TIP3    H1 5328   4.982   3.070   4.314
 1795TIP3    H2 5329   5.118   3.047   4.375
 1796TIP3   OH2 5330   0.332   5.300   4.623
 1796TIP3    H1 5331   0.260   5.237   4.627
 1796TIP3    H2 5332   0.295   5.382   4.655
 1797TIP3   OH2 5333   5.461   6.388   0.882
 1797TIP3    H1 5334   5.435   6.432   0.801
 1797TIP3    H2 5335   5.379   6.376   0.931
 1798TIP3   OH2 5336   7.386   3.812   5.317
 1798TIP3    H1 5337   7.473   3.771   5.319
 1798TIP3    H2 5338   7.398   3.895   5.364
 1799TIP3   OH2 5339   1.639   6.814   5.728
 1799TIP3    H1 5340   1.635   6.807   5.823
 1799TIP3    H2 5341   1.561   6.769   5.697
 1800TIP3   OH2 5342   6.599   1.693   5.991
 1800TIP3    H1 5343   6.508   1.715   5.973
 1800TIP3    H2 5344   6.643   1.703   5.907
 1801TIP3   OH2 5345   1.605   6.039   2.294
 1801TIP3    H1 5346   1.681   5.984   2.310
 1801TIP3    H2 5347   1.535   5.978   2.269
 1802TIP3   OH2 5348   3.101   2.302   0.734
 1802TIP3    H1 5349   3.026   2.257   0.772
 1802TIP3    H2 5350   3.088   2.394   0.757
 1803TIP3   OH2 5351   5.588   2.025   5.942
 1803TIP3    H1 5352   5.657   1.974   5.985
 1803TIP3    H2 5353   5.518   2.030   6.007
 1804TIP3   OH2 5354   4.713   4.791   3.580
 1804TIP3    H1 5355   4.689   4.802   3.489
 1804TIP3    H2 5356   4.631   4.775   3.625
 1805TIP3   OH2 5357   2.992   3.682   2.456
 1805TIP3    H1 5358   2.938   3.603   2.462
 1805TIP3    H2 5359   2.930   3.750   2.429
 1806TIP3   OH2 5360   7.385   5.234   1.075
 1806TIP3    H1 5361   7.312   5.276   1.120
 1806TIP3    H2 5362   7.358   5.227   0.984
 1807TIP3   OH2 5363   6.369   4.778   0.580
 1807TIP3    H1 5364   6.354   4.783   0.675
 1807TIP3    H2 5365   6.317   4.850   0.544
 1808TIP3   OH2 5366   1.840   1.046   3.539
 1808TIP3    H1 5367   1.885   1.001   3.611
 1808TIP3    H2 5368   1.755   1.004   3.532
 1809TIP3   OH2 5369   2.939   5.528   2.514
 1809TIP3    H1 5370   3.027   5.494   2.528
 1809TIP3    H2 5371   2.900   5.469   2.450
 1810TIP3   OH2 5372   7.082   1.173   6.371
 1810TIP3    H1 5373   6.992   1.201   6.355
 1810TIP3    H2 5374   7.121   1.244   6.422
 1811TIP3   OH2 5375   6.245   0.631   2.716
 1811TIP3    H1 5376   6.284   0.706   2.762
 1811TIP3    H2 5377   6.250   0.560   2.779
 1812TIP3   OH2 5378   2.750   1.629   3.754
 1812TIP3    H1 5379   2.722   1.690   3.821
 1812TIP3    H2 5380   2.750   1.544   3.797
 1813TIP3   OH2 5381   4.908   3.591   2.821
 1813TIP3    H1 5382   4.817   3.570   2.844
 1813TIP3    H2 5383   4.901   3.649   2.745
 1814TIP3   OH2 5384   5.069   4.906   5.130
 1814TIP3    H1 5385   5.153   4.897   5.086
 1814TIP3    H2 5386   5.090   4.948   5.213
 1815TIP3   OH2 5387   2.030   5.611   6.415
 1815TIP3    H1 5388   2.081   5.642   6.340
 1815TIP3    H2 5389   1.941   5.598   6.380
 1816TIP3   OH2 5390   4.291   7.775   1.069
 1816TIP3    H1 5391   4.242   7.769   1.151
 1816TIP3    H2 5392   4.379   7.744   1.091
 1817TIP3   OH2 5393   2.323   6.727   3.679
 1817TIP3    H1 5394   2.309   6.707   3.771
 1817TIP3    H2 5395   2.269   6.805   3.663
 1818TIP3   OH2 5396   5.644   1.729   5.230
 1818TIP3    H1 5397   5.684   1.642   5.229
 1818TIP3    H2 5398   5.660   1.764   5.143
 1819TIP3   OH2 5399   8.219   0.641   5.091
 1819TIP3    H1 5400   8.311   0.655   5.069
 1819TIP3    H2 5401   8.171   0.691   5.025
 1820TIP3   OH2 5402   7.570   2.321   3.876
 1820TIP3    H1 5403   7.595   2.269   3.952
 1820TIP3    H2 5404   7.574   2.258   3.803
 1821TIP3   OH2 5405   4.185   2.073   6.093
 1821TIP3    H1 5406   4.201   2.166   6.076
 1821TIP3    H2 5407   4.167   2.069   6.187
 1822TIP3   OH2 5408   3.604   7.008   4.006
 1822TIP3    H1 5409   3.583   6.930   3.955
 1822TIP3    H2 5410   3.535   7.013   4.073
 1823TIP3   OH2 5411   2.979   2.541   2.364
 1823TIP3    H1 5412   3.006   2.625   2.327
 1823TIP3    H2 5413   3.004   2.547   2.456
 1824TIP3   OH2 5414   5.937   3.937   4.169
 1824TIP3    H1 5415   6.007   3.995   4.137
 1824TIP3    H2 5416   5.887   3.991   4.230
 1825TIP3   OH2 5417   0.888   6.499   3.059
 1825TIP3    H1 5418   0.830   6.573   3.039
 1825TIP3    H2 5419   0.829   6.424   3.061
 1826TIP3   OH2 5420   2.948   6.084   1.647
 1826TIP3    H1 5421   2.962   6.085   1.741
 1826TIP3    H2 5422   2.954   6.176   1.621
 1827TIP3   OH2 5423   6.787   2.513   2.657
 1827TIP3    H1 5424   6.750   2.600   2.643
 1827TIP3    H2 5425   6.710   2.457   2.672
 1828TIP3   OH2 5426   1.684   3.066   2.000
 1828TIP3    H1 5427   1.618   3.133   1.983
 1828TIP3    H2 5428   1.731   3.056   1.917
 1829TIP3   OH2 5429   6.932   0.237   0.437
 1829TIP3    H1 5430   6.889   0.169   0.489
 1829TIP3    H2 5431   7.016   0.249   0.479
 1830TIP3   OH2 5432   1.068   4.923   4.538
 1830TIP3    H1 5433   1.072   4.836   4.578
 1830TIP3    H2 5434   1.064   4.983   4.613
 1831TIP3   OH2 5435   1.355   0.203   2.596
 1831TIP3    H1 5436   1.356   0.242   2.683
 1831TIP3    H2 5437   1.281   0.142   2.598
 1832TIP3   OH2 5438   0.827   3.498   0.487
 1832TIP3    H1 5439   0.761   3.473   0.551
 1832TIP3    H2 5440   0.816   3.436   0.415
 1833TIP3   OH2 5441   1.825   0.838   2.423
 1833TIP3    H1 5442   1.772   0.764   2.395
 1833TIP3    H2 5443   1.859   0.876   2.342
 1834TIP3   OH2 5444   0.951   6.137   5.385
 1834TIP3    H1 5445   0.951   6.231   5.366
 1834TIP3    H2 5446   0.996   6.098   5.310
 1835TIP3   OH2 5447   6.828   0.582   2.305
 1835TIP3    H1 5448   6.897   0.538   2.256
 1835TIP3    H2 5449   6.799   0.653   2.248
 1836TIP3   OH2 5450   5.651   2.630   6.332
 1836TIP3    H1 5451   5.567   2.588   6.311
 1836TIP3    H2 5452   5.717   2.564   6.307
 1837TIP3   OH2 5453   1.396   3.628   3.096
 1837TIP3    H1 5454   1.472   3.599   3.147
 1837TIP3    H2 5455   1.321   3.614   3.154
 1838TIP3   OH2 5456   6.010   7.213   5.565
 1838TIP3    H1 5457   5.953   7.235   5.639
 1838TIP3    H2 5458   6.099   7.225   5.598
 1839TIP3   OH2 5459   3.980   4.951   0.154
 1839TIP3    H1 5460   4.075   4.947   0.153
 1839TIP3    H2 5461   3.953   4.895   0.227
 1840TIP3   OH2 5462   7.061   3.587   4.286
 1840TIP3    H1 5463   7.096   3.575   4.197
 1840TIP3    H2 5464   7.137   3.573   4.343
 1841TIP3   OH2 5465   0.365   1.079   3.322
 1841TIP3    H1 5466   0.278   1.102   3.355
 1841TIP3    H2 5467   0.424   1.140   3.368
 1842TIP3   OH2 5468   2.563   4.434   4.611
 1842TIP3    H1 5469   2.556   4.517   4.657
 1842TIP3    H2 5470   2.656   4.411   4.617
 1843TIP3   OH2 5471   1.398   7.736   2.798
 1843TIP3    H1 5472   1.412   7.642   2.799
 1843TIP3    H2 5473   1.328   7.752   2.862
 1844TIP3   OH2 5474   5.429   2.494   5.850
 1844TIP3    H1 5475   5.355   2.472   5.793
 1844TIP3    H2 5476   5.497   2.430   5.827
 1845TIP3   OH2 5477   2.730   2.111   0.462
 1845TIP3    H1 5478   2.724   2.090   0.555
 1845TIP3    H2 5479   2.811   2.070   0.434
 1846TIP3   OH2 5480   4.345   4.140   5.948
 1846TIP3    H1 5481   4.322   4.127   5.856
 1846TIP3    H2 5482   4.407   4.070   5.967
 1847TIP3   OH2 5483   1.004   4.381   4.959
 1847TIP3    H1 5484   0.979   4.470   4.934
 1847TIP3    H2 5485   0.977   4.327   4.884
 1848TIP3   OH2 5486   8.182   4.649   4.212
 1848TIP3    H1 5487   8.228   4.606   4.141
 1848TIP3    H2 5488   8.139   4.578   4.260
 1849TIP3   OH2 5489   5.925   5.032   0.944
 1849TIP3    H1 5490   5.951   4.941   0.960
 1849TIP3    H2 5491   5.947   5.048   0.852
 1850TIP3   OH2 5492   3.910   0.050   4.638
 1850TIP3    H1 5493   3.980   0.106   4.603
 1850TIP3    H2 5494   3.860   0.107   4.696
 1851TIP3   OH2 5495   5.348   1.238   4.083
 1851TIP3    H1 5496   5.334   1.258   4.175
 1851TIP3    H2 5497   5.261   1.238   4.044
 1852TIP3   OH2 5498   4.633   7.243   0.393
 1852TIP3    H1 5499   4.571   7.300   0.436
 1852TIP3    H2 5500   4.587   7.211   0.315
 1853TIP3   OH2 5501   7.937   2.912   1.648
 1853TIP3    H1 5502   8.020   2.865   1.638
 1853TIP3    H2 5503   7.939   2.944   1.738
 1854TIP3   OH2 5504   4.374   4.985   1.619
 1854TIP3    H1 5505   4.301   5.019   1.670
 1854TIP3    H2 5506   4.451   5.001   1.674
 1855TIP3   OH2 5507   0.319   5.099   2.136
 1855TIP3    H1 5508   0.269   5.080   2.216
 1855TIP3    H2 5509   0.269   5.058   2.066
 1856TIP3   OH2 5510   3.888   5.022   2.486
 1856TIP3    H1 5511   3.968   5.050   2.531
 1856TIP3    H2 5512   3.886   5.074   2.406
 1857TIP3   OH2 5513   1.493   7.065   4.798
 1857TIP3    H1 5514   1.457   7.143   4.841
 1857TIP3    H2 5515   1.519   7.008   4.870
 1858TIP3   OH2 5516   7.894   4.488   0.360
 1858TIP3    H1 5517   7.839   4.412   0.380
 1858TIP3    H2 5518   7.838   4.563   0.377
 1859TIP3   OH2 5519   3.338   0.952   5.404
 1859TIP3    H1 5520   3.417   0.929   5.355
 1859TIP3    H2 5521   3.354   0.917   5.492
 1860TIP3   OH2 5522   4.254   0.041   0.757
 1860TIP3    H1 5523   4.187   0.105   0.781
 1860TIP3    H2 5524   4.208  -0.021   0.699
 1861TIP3   OH2 5525   1.771   4.278   5.590
 1861TIP3    H1 5526   1.739   4.357   5.546
 1861TIP3    H2 5527   1.770   4.211   5.522
 1862TIP3   OH2 5528   4.276   7.175   5.110
 1862TIP3    H1 5529   4.326   7.234   5.055
 1862TIP3    H2 5530   4.291   7.088   5.073
 1863TIP3   OH2 5531   7.875   2.869   5.272
 1863TIP3    H1 5532   7.826   2.814   5.211
 1863TIP3    H2 5533   7.949   2.814   5.301
 1864TIP3   OH2 5534   3.120   1.232   5.068
 1864TIP3    H1 5535   3.107   1.137   5.072
 1864TIP3    H2 5536   3.169   1.246   4.987
 1865TIP3   OH2 5537   1.391   5.742   1.998
 1865TIP3    H1 5538   1.352   5.765   2.082
 1865TIP3    H2 5539   1.424   5.825   1.964
 1866TIP3   OH2 5540   2.541   3.771   5.984
 1866TIP3    H1 5541   2.497   3.841   5.935
 1866TIP3    H2 5542   2.633   3.780   5.962
 1867TIP3   OH2 5543   5.119   4.313   1.780
 1867TIP3    H1 5544   5.050   4.255   1.747
 1867TIP3    H2 5545   5.177   4.255   1.830
 1868TIP3   OH2 5546   0.246   1.939   5.632
 1868TIP3    H1 5547   0.227   1.942   5.538
 1868TIP3    H2 5548   0.341   1.944   5.637
 1869TIP3   OH2 5549   7.832   3.550   5.561
 1869TIP3    H1 5550   7.896   3.526   5.627
 1869TIP3    H2 5551   7.751   3.565   5.611
 1870TIP3   OH2 5552   0.795   2.811   6.298
 1870TIP3    H1 5553   0.729   2.878   6.279
 1870TIP3    H2 5554   0.862   2.824   6.231
 1871TIP3   OH2 5555   5.911   7.560   2.354
 1871TIP3    H1 5556   5.841   7.510   2.313
 1871TIP3    H2 5557   5.940   7.507   2.427
 1872TIP3   OH2 5558   4.069   0.645   6.640
 1872TIP3    H1 5559   4.122   0.571   6.669
 1872TIP3    H2 5560   4.120   0.722   6.664
 1873TIP3   OH2 5561   2.666   5.841   4.574
 1873TIP3    H1 5562   2.726   5.769   4.591
 1873TIP3    H2 5563   2.668   5.894   4.654
 1874TIP3   OH2 5564   6.478   7.697   4.002
 1874TIP3    H1 5565   6.455   7.785   4.032
 1874TIP3    H2 5566   6.565   7.682   4.037
 1875TIP3   OH2 5567   6.601   0.512   0.441
 1875TIP3    H1 5568   6.581   0.599   0.476
 1875TIP3    H2 5569   6.686   0.490   0.479
 1876TIP3   OH2 5570   5.776   1.163   0.607
 1876TIP3    H1 5571   5.719   1.174   0.531
 1876TIP3    H2 5572   5.846   1.227   0.594
 1877TIP3   OH2 5573   7.347   4.848   3.885
 1877TIP3    H1 5574   7.316   4.818   3.799
 1877TIP3    H2 5575   7.432   4.887   3.868
 1878TIP3   OH2 5576   8.217   4.878   3.813
 1878TIP3    H1 5577   8.290   4.938   3.828
 1878TIP3    H2 5578   8.159   4.891   3.888
 1879TIP3   OH2 5579   6.563   3.766   1.045
 1879TIP3    H1 5580   6.521   3.727   1.122
 1879TIP3    H2 5581   6.528   3.855   1.043
 1880TIP3   OH2 5582   7.828   2.543   0.456
 1880TIP3    H1 5583   7.831   2.460   0.409
 1880TIP3    H2 5584   7.772   2.526   0.532
 1881TIP3   OH2 5585   1.532   7.487   2.826
 1881TIP3    H1 5586   1.561   7.430   2.897
 1881TIP3    H2 5587   1.612   7.514   2.782
 1882TIP3   OH2 5588   1.923   4.640   2.028
 1882TIP3    H1 5589   1.884   4.607   2.109
 1882TIP3    H2 5590   1.848   4.657   1.971
 1883TIP3   OH2 5591   5.631   0.082   6.438
 1883TIP3    H1 5592   5.578   0.123   6.369
 1883TIP3    H2 5593   5.575   0.015   6.475
 1884TIP3   OH2 5594   0.882   6.107   0.924
 1884TIP3    H1 5595   0.918   6.020   0.941
 1884TIP3    H2 5596   0.934   6.141   0.852
 1885TIP3   OH2 5597   5.344   3.031   5.270
 1885TIP3    H1 5598   5.313   3.121   5.274
 1885TIP3    H2 5599   5.439   3.039   5.264
 1886TIP3   OH2 5600   7.242   1.860   6.115
 1886TIP3    H1 5601   7.162   1.827   6.074
 1886TIP3    H2 5602   7.289   1.782   6.143
 1887TIP3   OH2 5603   4.825   3.992   3.242
 1887TIP3    H1 5604   4.881   3.939   3.186
 1887TIP3    H2 5605   4.758   3.931   3.274
 1888TIP3   OH2 5606   7.603   2.692   0.320
 1888TIP3    H1 5607   7.625   2.782   0.296
 1888TIP3    H2 5608   7.688   2.649   0.333
 1889TIP3   OH2 5609   1.486   3.383   0.129
 1889TIP3    H1 5610   1.440   3.337   0.199
 1889TIP3    H2 5611   1.573   3.400   0.165
 1890TIP3   OH2 5612   0.128   2.412   5.579
 1890TIP3    H1 5613   0.143   2.336   5.634
 1890TIP3    H2 5614   0.215   2.452   5.568
 1891TIP3   OH2 5615   6.184   6.531   6.314
 1891TIP3    H1 5616   6.095   6.516   6.281
 1891TIP3    H2 5617   6.241   6.505   6.242
 1892TIP3   OH2 5618   2.194   6.250   5.508
 1892TIP3    H1 5619   2.251   6.174   5.524
 1892TIP3    H2 5620   2.249   6.310   5.457
 1893TIP3   OH2 5621   6.293   2.762   6.176
 1893TIP3    H1 5622   6.221   2.818   6.148
 1893TIP3    H2 5623   6.251   2.679   6.201
 1894TIP3   OH2 5624   0.913   0.270   5.466
 1894TIP3    H1 5625   0.852   0.280   5.539
 1894TIP3    H2 5626   0.911   0.177   5.445
 1895TIP3   OH2 5627   5.215   1.652   1.302
 1895TIP3    H1 5628   5.249   1.622   1.386
 1895TIP3    H2 5629   5.138   1.705   1.325
 1896TIP3   OH2 5630   2.911   5.462   2.237
 1896TIP3    H1 5631   2.907   5.375   2.198
 1896TIP3    H2 5632   2.998   5.467   2.277
 1897TIP3   OH2 5633   1.784   7.522   0.267
 1897TIP3    H1 5634   1.877   7.503   0.261
 1897TIP3    H2 5635   1.780   7.611   0.303
 1898TIP3   OH2 5636   3.249   6.839   5.002
 1898TIP3    H1 5637   3.297   6.913   4.964
 1898TIP3    H2 5638   3.277   6.837   5.094
 1899TIP3   OH2 5639   2.401   4.812   0.468
 1899TIP3    H1 5640   2.466   4.808   0.538
 1899TIP3    H2 5641   2.448   4.849   0.394
 1900TIP3   OH2 5642   6.304   2.215   5.301
 1900TIP3    H1 5643   6.358   2.290   5.277
 1900TIP3    H2 5644   6.319   2.204   5.395
 1901TIP3   OH2 5645   2.054   6.223   3.324
 1901TIP3    H1 5646   2.039   6.131   3.301
 1901TIP3    H2 5647   2.146   6.226   3.351
 1902TIP3   OH2 5648   5.394   4.258   6.742
 1902TIP3    H1 5649   5.408   4.319   6.815
 1902TIP3    H2 5650   5.454   4.288   6.674
 1903TIP3   OH2 5651   5.784   1.558   3.500
 1903TIP3    H1 5652   5.749   1.570   3.588
 1903TIP3    H2 5653   5.845   1.484   3.508
 1904TIP3   OH2 5654   4.999   0.704   5.017
 1904TIP3    H1 5655   5.065   0.636   5.012
 1904TIP3    H2 5656   5.030   0.764   5.084
 1905TIP3   OH2 5657   2.284   1.139   5.671
 1905TIP3    H1 5658   2.197   1.177   5.663
 1905TIP3    H2 5659   2.332   1.171   5.595
 1906TIP3   OH2 5660   2.482   0.406   1.511
 1906TIP3    H1 5661   2.405   0.351   1.526
 1906TIP3    H2 5662   2.555   0.356   1.550
 1907TIP3   OH2 5663   4.782   1.853   1.497
 1907TIP3    H1 5664   4.693   1.828   1.522
 1907TIP3    H2 5665   4.808   1.917   1.563
 1908TIP3   OH2 5666   7.612   5.596   4.676
 1908TIP3    H1 5667   7.706   5.583   4.665
 1908TIP3    H2 5668   7.581   5.617   4.588
 1909TIP3   OH2 5669   7.806   2.705   5.832
 1909TIP3    H1 5670   7.874   2.763   5.865
 1909TIP3    H2 5671   7.772   2.661   5.910
 1910TIP3   OH2 5672   6.739   3.163   0.056
 1910TIP3    H1 5673   6.826   3.125   0.065
 1910TIP3    H2 5674   6.743   3.245   0.107
 1911TIP3   OH2 5675   5.066   2.537   2.583
 1911TIP3    H1 5676   5.003   2.546   2.655
 1911TIP3    H2 5677   5.147   2.509   2.626
 1912TIP3   OH2 5678   5.785   0.232   0.864
 1912TIP3    H1 5679   5.758   0.141   0.851
 1912TIP3    H2 5680   5.880   0.231   0.853
 1913TIP3   OH2 5681   7.288   0.821   4.457
 1913TIP3    H1 5682   7.234   0.898   4.474
 1913TIP3    H2 5683   7.378   0.852   4.470
 1914TIP3   OH2 5684   2.000   5.952   3.213
 1914TIP3    H1 5685   2.014   6.000   3.132
 1914TIP3    H2 5686   1.913   5.912   3.203
 1915TIP3   OH2 5687   7.306   7.636   3.267
 1915TIP3    H1 5688   7.289   7.572   3.198
 1915TIP3    H2 5689   7.222   7.680   3.280
 1916TIP3   OH2 5690   6.160   6.994   3.566
 1916TIP3    H1 5691   6.087   6.990   3.505
 1916TIP3    H2 5692   6.134   7.059   3.631
 1917TIP3   OH2 5693   3.051   1.077   4.620
 1917TIP3    H1 5694   2.999   1.020   4.677
 1917TIP3    H2 5695   3.141   1.047   4.630
 1918TIP3   OH2 5696   7.690   6.839   6.292
 1918TIP3    H1 5697   7.744   6.839   6.213
 1918TIP3    H2 5698   7.700   6.926   6.329
 1919TIP3   OH2 5699   2.514   6.114   1.225
 1919TIP3    H1 5700   2.441   6.075   1.272
 1919TIP3    H2 5701   2.475   6.156   1.149
 1920TIP3   OH2 5702   3.918   7.274   4.714
 1920TIP3    H1 5703   3.881   7.268   4.626
 1920TIP3    H2 5704   3.847   7.309   4.768
 1921TIP3   OH2 5705   2.360   6.340   3.998
 1921TIP3    H1 5706   2.420   6.377   4.064
 1921TIP3    H2 5707   2.281   6.317   4.048
 1922TIP3   OH2 5708   1.587   6.474   1.875
 1922TIP3    H1 5709   1.678   6.465   1.904
 1922TIP3    H2 5710   1.572   6.568   1.871
 1923TIP3   OH2 5711   8.242   4.261   2.102
 1923TIP3    H1 5712   8.197   4.291   2.023
 1923TIP3    H2 5713   8.177   4.209   2.149
 1924TIP3   OH2 5714   3.688   4.641   2.008
 1924TIP3    H1 5715   3.688   4.729   1.971
 1924TIP3    H2 5716   3.727   4.651   2.094
 1925TIP3   OH2 5717   3.546   3.490   1.006
 1925TIP3    H1 5718   3.519   3.405   1.041
 1925TIP3    H2 5719   3.525   3.552   1.076
 1926TIP3   OH2 5720   3.891   6.734   4.024
 1926TIP3    H1 5721   3.884   6.828   4.039
 1926TIP3    H2 5722   3.928   6.726   3.936
 1927TIP3   OH2 5723   5.367   3.087   0.267
 1927TIP3    H1 5724   5.450   3.041   0.254
 1927TIP3    H2 5725   5.307   3.046   0.204
 1928TIP3   OH2 5726   7.321   1.324   0.338
 1928TIP3    H1 5727   7.363   1.408   0.357
 1928TIP3    H2 5728   7.227   1.340   0.351
 1929TIP3   OH2 5729   2.793   0.505   6.775
 1929TIP3    H1 5730   2.815   0.596   6.752
 1929TIP3    H2 5731   2.865   0.477   6.831
 1930TIP3   OH2 5732   1.454   1.234   4.791
 1930TIP3    H1 5733   1.481   1.202   4.705
 1930TIP3    H2 5734   1.359   1.230   4.789
 1931TIP3   OH2 5735   5.509   0.444   0.927
 1931TIP3    H1 5736   5.433   0.463   0.982
 1931TIP3    H2 5737   5.584   0.477   0.977
 1932TIP3   OH2 5738   0.889   5.096   2.166
 1932TIP3    H1 5739   0.952   5.111   2.095
 1932TIP3    H2 5740   0.906   5.166   2.229
 1933TIP3   OH2 5741   0.499   0.700   2.008
 1933TIP3    H1 5742   0.407   0.724   2.004
 1933TIP3    H2 5743   0.528   0.729   2.095
 1934TIP3   OH2 5744   0.031   6.380   1.800
 1934TIP3    H1 5745  -0.017   6.452   1.760
 1934TIP3    H2 5746   0.100   6.359   1.737
 1935TIP3   OH2 5747   3.697   7.620   2.156
 1935TIP3    H1 5748   3.644   7.684   2.203
 1935TIP3    H2 5749   3.787   7.642   2.179
 1936TIP3   OH2 5750   4.950   4.350   6.680
 1936TIP3    H1 5751   4.996   4.415   6.626
 1936TIP3    H2 5752   5.014   4.279   6.690
 1937TIP3   OH2 5753   4.814   0.808   6.027
 1937TIP3    H1 5754   4.835   0.758   5.948
 1937TIP3    H2 5755   4.741   0.863   6.002
 1938TIP3   OH2 5756   5.625   3.354   0.260
 1938TIP3    H1 5757   5.709   3.345   0.304
 1938TIP3    H2 5758   5.602   3.264   0.235
 1939TIP3   OH2 5759   3.943   4.919   5.511
 1939TIP3    H1 5760   3.856   4.921   5.550
 1939TIP3    H2 5761   3.932   4.957   5.424
 1940TIP3   OH2 5762   1.283   6.099   5.399
 1940TIP3    H1 5763   1.233   6.103   5.318
 1940TIP3    H2 5764   1.234   6.154   5.460
 1941TIP3   OH2 5765   3.600   4.486   5.928
 1941TIP3    H1 5766   3.570   4.577   5.919
 1941TIP3    H2 5767   3.595   4.468   6.022
 1942TIP3   OH2 5768   7.867   5.150   0.816
 1942TIP3    H1 5769   7.963   5.158   0.816
 1942TIP3    H2 5770   7.837   5.234   0.782
 1943TIP3   OH2 5771   0.711   3.536   3.045
 1943TIP3    H1 5772   0.684   3.530   3.136
 1943TIP3    H2 5773   0.644   3.591   3.003
 1944TIP3   OH2 5774   2.427   3.617   5.396
 1944TIP3    H1 5775   2.502   3.632   5.454
 1944TIP3    H2 5776   2.372   3.695   5.407
 1945TIP3   OH2 5777   6.203   2.959   5.551
 1945TIP3    H1 5778   6.258   2.911   5.612
 1945TIP3    H2 5779   6.234   3.050   5.557
 1946TIP3   OH2 5780   0.510   0.097   0.106
 1946TIP3    H1 5781   0.586   0.144   0.072
 1946TIP3    H2 5782   0.435   0.135   0.060
 1947TIP3   OH2 5783   5.697   5.694   5.267
 1947TIP3    H1 5784   5.607   5.681   5.296
 1947TIP3    H2 5785   5.691   5.703   5.172
 1948TIP3   OH2 5786   0.282   0.044   1.210
 1948TIP3    H1 5787   0.297   0.039   1.304
 1948TIP3    H2 5788   0.271   0.137   1.192
 1949TIP3   OH2 5789   1.144   1.104   6.296
 1949TIP3    H1 5790   1.206   1.147   6.355
 1949TIP3    H2 5791   1.157   1.147   6.212
 1950TIP3   OH2 5792   1.186   6.360   5.777
 1950TIP3    H1 5793   1.252   6.301   5.813
 1950TIP3    H2 5794   1.195   6.351   5.682
 1951TIP3   OH2 5795   3.787   7.205   6.408
 1951TIP3    H1 5796   3.863   7.161   6.446
 1951TIP3    H2 5797   3.741   7.137   6.360
 1952TIP3   OH2 5798   7.791   1.087   4.886
 1952TIP3    H1 5799   7.756   1.066   4.800
 1952TIP3    H2 5800   7.741   1.163   4.914
 1953TIP3   OH2 5801   6.611   4.227   2.948
 1953TIP3    H1 5802   6.516   4.240   2.952
 1953TIP3    H2 5803   6.640   4.285   2.877
 1954TIP3   OH2 5804   0.129   6.971   5.241
 1954TIP3    H1 5805   0.158   7.057   5.211
 1954TIP3    H2 5806   0.053   6.951   5.186
 1955TIP3   OH2 5807   2.661   2.043   0.712
 1955TIP3    H1 5808   2.614   2.006   0.786
 1955TIP3    H2 5809   2.726   2.101   0.752
 1956TIP3   OH2 5810   5.910   7.719   0.462
 1956TIP3    H1 5811   5.820   7.744   0.485
 1956TIP3    H2 5812   5.964   7.763   0.527
 1957TIP3   OH2 5813   2.534   5.104   0.684
 1957TIP3    H1 5814   2.548   5.016   0.718
 1957TIP3    H2 5815   2.565   5.163   0.753
 1958TIP3   OH2 5816   2.252   1.498   5.301
 1958TIP3    H1 5817   2.302   1.560   5.248
 1958TIP3    H2 5818   2.167   1.492   5.258
 1959TIP3   OH2 5819   4.356   5.171   3.877
 1959TIP3    H1 5820   4.348   5.175   3.972
 1959TIP3    H2 5821   4.267   5.188   3.845
 1960TIP3   OH2 5822   7.915   7.479   6.544
 1960TIP3    H1 5823   7.940   7.541   6.612
 1960TIP3    H2 5824   7.820   7.485   6.540
 1961TIP3   OH2 5825   7.166   6.512   0.278
 1961TIP3    H1 5826   7.182   6.515   0.372
 1961TIP3    H2 5827   7.085   6.561   0.266
 1962TIP3   OH2 5828   1.454   3.307   4.788
 1962TIP3    H1 5829   1.455   3.387   4.735
 1962TIP3    H2 5830   1.506   3.329   4.865
 1963TIP3   OH2 5831   2.903   6.395   1.247
 1963TIP3    H1 5832   2.906   6.390   1.151
 1963TIP3    H2 5833   2.846   6.323   1.273
 1964TIP3   OH2 5834   0.149   2.173   5.736
 1964TIP3    H1 5835   0.199   2.104   5.691
 1964TIP3    H2 5836   0.060   2.165   5.702
 1965TIP3   OH2 5837   5.670   5.315   5.611
 1965TIP3    H1 5838   5.714   5.396   5.633
 1965TIP3    H2 5839   5.677   5.261   5.689
 1966TIP3   OH2 5840   3.424   7.254   0.895
 1966TIP3    H1 5841   3.355   7.273   0.959
 1966TIP3    H2 5842   3.505   7.252   0.947
 1967TIP3   OH2 5843   6.024   1.633   2.747
 1967TIP3    H1 5844   6.061   1.671   2.827
 1967TIP3    H2 5845   5.966   1.563   2.778
 1968TIP3   OH2 5846   3.252   6.029   6.397
 1968TIP3    H1 5847   3.257   6.119   6.365
 1968TIP3    H2 5848   3.191   6.032   6.471
 1969TIP3   OH2 5849   2.747   0.425   2.058
 1969TIP3    H1 5850   2.824   0.409   2.113
 1969TIP3    H2 5851   2.752   0.519   2.038
 1970TIP3   OH2 5852   5.516   6.902   2.593
 1970TIP3    H1 5853   5.432   6.883   2.551
 1970TIP3    H2 5854   5.560   6.817   2.596
 1971TIP3   OH2 5855   3.682   1.231   2.159
 1971TIP3    H1 5856   3.686   1.150   2.210
 1971TIP3    H2 5857   3.644   1.295   2.219
 1972TIP3   OH2 5858   0.136   5.035   3.824
 1972TIP3    H1 5859   0.226   5.020   3.795
 1972TIP3    H2 5860   0.142   5.107   3.886
 1973TIP3   OH2 5861   4.500   1.650   2.468
 1973TIP3    H1 5862   4.591   1.627   2.447
 1973TIP3    H2 5863   4.489   1.738   2.433
 1974TIP3   OH2 5864   7.428   1.658   5.423
 1974TIP3    H1 5865   7.384   1.613   5.496
 1974TIP3    H2 5866   7.358   1.674   5.360
 1975TIP3   OH2 5867   4.311   6.477   1.968
 1975TIP3    H1 5868   4.312   6.572   1.983
 1975TIP3    H2 5869   4.382   6.463   1.905
 1976TIP3   OH2 5870   4.322   3.658   4.922
 1976TIP3    H1 5871   4.369   3.738   4.899
 1976TIP3    H2 5872   4.231   3.675   4.897
 1977TIP3   OH2 5873   4.638   3.705   6.186
 1977TIP3    H1 5874   4.676   3.731   6.270
 1977TIP3    H2 5875   4.551   3.745   6.186
 1978TIP3   OH2 5876   5.755   6.699   0.902
 1978TIP3    H1 5877   5.693   6.663   0.966
 1978TIP3    H2 5878   5.700   6.730   0.830
 1979TIP3   OH2 5879   0.227   0.045   3.512
 1979TIP3    H1 5880   0.267   0.014   3.594
 1979TIP3    H2 5881   0.143   0.082   3.539
 1980TIP3   OH2 5882   4.111   4.379   1.449
 1980TIP3    H1 5883   4.139   4.394   1.539
 1980TIP3    H2 5884   4.027   4.334   1.457
 1981TIP3   OH2 5885   1.260   7.520   6.509
 1981TIP3    H1 5886   1.276   7.514   6.414
 1981TIP3    H2 5887   1.167   7.498   6.518
 1982TIP3   OH2 5888   2.615   6.198   5.634
 1982TIP3    H1 5889   2.533   6.154   5.610
 1982TIP3    H2 5890   2.645   6.240   5.554
 1983TIP3   OH2 5891   3.870   1.355   4.486
 1983TIP3    H1 5892   3.777   1.378   4.480
 1983TIP3    H2 5893   3.915   1.439   4.495
 1984TIP3   OH2 5894   5.748   2.899   3.554
 1984TIP3    H1 5895   5.683   2.941   3.498
 1984TIP3    H2 5896   5.833   2.923   3.515
 1985TIP3   OH2 5897   6.831   0.888   4.497
 1985TIP3    H1 5898   6.831   0.836   4.417
 1985TIP3    H2 5899   6.909   0.859   4.545
 1986TIP3   OH2 5900   0.700   6.346   2.883
 1986TIP3    H1 5901   0.642   6.271   2.866
 1986TIP3    H2 5902   0.659   6.419   2.836
 1987TIP3   OH2 5903   4.025   0.585   6.366
 1987TIP3    H1 5904   4.035   0.614   6.457
 1987TIP3    H2 5905   4.083   0.509   6.360
 1988TIP3   OH2 5906   7.360   6.975   1.400
 1988TIP3    H1 5907   7.408   6.942   1.324
 1988TIP3    H2 5908   7.268   6.973   1.374
 1989TIP3   OH2 5909   4.811   4.154   3.974
 1989TIP3    H1 5910   4.777   4.235   3.936
 1989TIP3    H2 5911   4.860   4.182   4.051
 1990TIP3   OH2 5912   7.243   1.055   1.006
 1990TIP3    H1 5913   7.264   1.048   0.913
 1990TIP3    H2 5914   7.310   1.114   1.041
 1991TIP3   OH2 5915   8.020   0.228   5.960
 1991TIP3    H1 5916   7.966   0.160   5.920
 1991TIP3    H2 5917   7.973   0.253   6.039
 1992TIP3   OH2 5918   4.776   1.436   0.788
 1992TIP3    H1 5919   4.841   1.367   0.772
 1992TIP3    H2 5920   4.708   1.419   0.722
 1993TIP3   OH2 5921   0.425   3.494   2.165
 1993TIP3    H1 5922   0.475   3.555   2.219
 1993TIP3    H2 5923   0.338   3.492   2.206
 1994TIP3   OH2 5924   2.078   4.634   1.414
 1994TIP3    H1 5925   2.019   4.648   1.489
 1994TIP3    H2 5926   2.020   4.608   1.343
 1995TIP3   OH2 5927   0.798   3.358   5.274
 1995TIP3    H1 5928   0.731   3.415   5.312
 1995TIP3    H2 5929   0.865   3.418   5.240
 1996TIP3   OH2 5930   6.091   2.130   3.832
 1996TIP3    H1 5931   6.052   2.076   3.901
 1996TIP3    H2 5932   6.150   2.070   3.785
 1997TIP3   OH2 5933   2.737   3.744   3.152
 1997TIP3    H1 5934   2.698   3.766   3.236
 1997TIP3    H2 5935   2.688   3.796   3.088
 1998TIP3   OH2 5936   5.442   5.664   2.086
 1998TIP3    H1 5937   5.355   5.690   2.117
 1998TIP3    H2 5938   5.490   5.641   2.165
 1999TIP3   OH2 5939   2.242   2.148   1.732
 1999TIP3    H1 5940   2.310   2.080   1.729
 1999TIP3    H2 5941   2.163   2.102   1.762
 2000TIP3   OH2 5942   4.607   7.142   5.389
 2000TIP3    H1 5943   4.698   7.144   5.359
 2000TIP3    H2 5944   4.572   7.228   5.365
 2001TIP3   OH2 5945   6.482   0.996   2.450
 2001TIP3    H1 5946   6.485   1.082   2.408
 2001TIP3    H2 5947   6.411   0.950   2.406
 2002TIP3   OH2 5948   7.729   6.678   4.949
 2002TIP3    H1 5949   7.719   6.598   4.898
 2002TIP3    H2 5950   7.794   6.729   4.901
 2003TIP3   OH2 5951   0.718   3.038   4.876
 2003TIP3    H1 5952   0.721   3.034   4.781
 2003TIP3    H2 5953   0.784   2.974   4.905
 2004TIP3   OH2 5954   4.360   1.857   6.018
 2004TIP3    H1 5955   4.360   1.851   6.114
 2004TIP3    H2 5956   4.338   1.949   6.000
 2005TIP3   OH2 5957   3.914   3.340   5.759
 2005TIP3    H1 5958   4.004   3.331   5.726
 2005TIP3    H2 5959   3.895   3.256   5.800
 2006TIP3   OH2 5960   5.954   2.272   5.010
 2006TIP3    H1 5961   6.003   2.256   5.091
 2006TIP3    H2 5962   6.014   2.322   4.955
 2007TIP3   OH2 5963   6.486   2.807   0.938
 2007TIP3    H1 5964   6.519   2.793   0.849
 2007TIP3    H2 5965   6.496   2.722   0.981
 2008TIP3   OH2 5966   6.079   6.317   4.462
 2008TIP3    H1 5967   6.139   6.383   4.495
 2008TIP3    H2 5968   5.993   6.360   4.461
 2009TIP3   OH2 5969   6.026   1.304   6.766
 2009TIP3    H1 5970   5.978   1.381   6.798
 2009TIP3    H2 5971   6.088   1.338   6.703
 2010TIP3   OH2 5972   7.510   1.840   4.308
 2010TIP3    H1 5973   7.442   1.823   4.373
 2010TIP3    H2 5974   7.465   1.838   4.224
 2011TIP3   OH2 5975   0.278   0.747   3.317
 2011TIP3    H1 5976   0.206   0.806   3.339
 2011TIP3    H2 5977   0.338   0.801   3.265
 2012TIP3   OH2 5978   6.090   7.649   3.873
 2012TIP3    H1 5979   6.010   7.694   3.846
 2012TIP3    H2 5980   6.072   7.621   3.963
 2013TIP3   OH2 5981   1.195   0.571   4.204
 2013TIP3    H1 5982   1.162   0.604   4.120
 2013TIP3    H2 5983   1.225   0.483   4.184
 2014TIP3   OH2 5984   2.837   2.079   3.012
 2014TIP3    H1 5985   2.813   2.027   2.935
 2014TIP3    H2 5986   2.815   2.023   3.087
 2015TIP3   OH2 5987   7.072   7.360   5.678
 2015TIP3    H1 5988   7.017   7.377   5.754
 2015TIP3    H2 5989   7.020   7.388   5.603
 2016TIP3   OH2 5990   2.381   3.971   0.403
 2016TIP3    H1 5991   2.294   4.004   0.379
 2016TIP3    H2 5992   2.373   3.951   0.496
 2017TIP3   OH2 5993   4.216   5.201   4.129
 2017TIP3    H1 5994   4.260   5.263   4.189
 2017TIP3    H2 5995   4.137   5.248   4.102
 2018TIP3   OH2 5996   7.274   6.024   0.663
 2018TIP3    H1 5997   7.266   6.113   0.695
 2018TIP3    H2 5998   7.212   5.973   0.714
 2019TIP3   OH2 5999   4.368   7.644   1.358
 2019TIP3    H1 6000   4.318   7.713   1.401
 2019TIP3    H2 6001   4.420   7.605   1.427
 2020TIP3   OH2 6002   3.441   2.351   0.566
 2020TIP3    H1 6003   3.418   2.263   0.598
 2020TIP3    H2 6004   3.376   2.369   0.498
 2021TIP3   OH2 6005   5.873   5.520   3.247
 2021TIP3    H1 6006   5.924   5.457   3.298
 2021TIP3    H2 6007   5.863   5.595   3.304
 2022TIP3   OH2 6008   0.125   1.427   6.589
 2022TIP3    H1 6009   0.100   1.520   6.582
 2022TIP3    H2 6010   0.182   1.412   6.514
 2023TIP3   OH2 6011   0.662   3.748   0.113
 2023TIP3    H1 6012   0.641   3.776   0.024
 2023TIP3    H2 6013   0.681   3.654   0.105
 2024TIP3   OH2 6014   3.612   6.613   3.437
 2024TIP3    H1 6015   3.643   6.681   3.496
 2024TIP3    H2 6016   3.691   6.584   3.391
 2025TIP3   OH2 6017   2.447   1.215   0.594
 2025TIP3    H1 6018   2.504   1.258   0.658
 2025TIP3    H2 6019   2.361   1.213   0.636
 2026TIP3   OH2 6020   2.997   4.385   5.594
 2026TIP3    H1 6021   3.013   4.478   5.611
 2026TIP3    H2 6022   3.052   4.339   5.657
 2027TIP3   OH2 6023   2.946   5.295   1.287
 2027TIP3    H1 6024   3.039   5.308   1.307
 2027TIP3    H2 6025   2.913   5.243   1.360
 2028TIP3   OH2 6026   7.783   5.113   2.622
 2028TIP3    H1 6027   7.722   5.130   2.550
 2028TIP3    H2 6028   7.729   5.118   2.701
 2029TIP3   OH2 6029   4.670   4.442   6.676
 2029TIP3    H1 6030   4.762   4.418   6.670
 2029TIP3    H2 6031   4.661   4.483   6.762
 2030TIP3   OH2 6032   0.806   4.501   5.358
 2030TIP3    H1 6033   0.769   4.414   5.372
 2030TIP3    H2 6034   0.738   4.550   5.312
 2031TIP3   OH2 6035   7.327   0.754   4.792
 2031TIP3    H1 6036   7.244   0.801   4.790
 2031TIP3    H2 6037   7.372   0.786   4.870
 2032TIP3   OH2 6038   4.003   0.156   2.530
 2032TIP3    H1 6039   4.033   0.096   2.598
 2032TIP3    H2 6040   4.009   0.242   2.570
 2033TIP3   OH2 6041   8.291   7.629   4.450
 2033TIP3    H1 6042   8.241   7.549   4.433
 2033TIP3    H2 6043   8.330   7.615   4.536
 2034TIP3   OH2 6044   3.275   1.088   1.741
 2034TIP3    H1 6045   3.217   1.042   1.680
 2034TIP3    H2 6046   3.308   1.162   1.692
 2035TIP3   OH2 6047   3.690   3.535   3.923
 2035TIP3    H1 6048   3.620   3.506   3.981
 2035TIP3    H2 6049   3.658   3.618   3.887
 2036TIP3   OH2 6050   2.539   6.934   1.175
 2036TIP3    H1 6051   2.588   6.912   1.096
 2036TIP3    H2 6052   2.602   6.922   1.246
 2037TIP3   OH2 6053   4.965   3.953   2.770
 2037TIP3    H1 6054   5.021   3.954   2.692
 2037TIP3    H2 6055   5.010   3.894   2.831
 2038TIP3   OH2 6056   2.935   5.599   3.712
 2038TIP3    H1 6057   2.848   5.636   3.722
 2038TIP3    H2 6058   2.920   5.505   3.702
 2039TIP3   OH2 6059   3.427   4.202   4.425
 2039TIP3    H1 6060   3.509   4.177   4.380
 2039TIP3    H2 6061   3.414   4.133   4.490
 2040TIP3   OH2 6062   5.944   4.723   5.994
 2040TIP3    H1 6063   5.886   4.794   5.963
 2040TIP3    H2 6064   5.971   4.677   5.914
 2041TIP3   OH2 6065   4.014   4.771   3.848
 2041TIP3    H1 6066   3.997   4.816   3.931
 2041TIP3    H2 6067   4.030   4.680   3.873
 2042TIP3   OH2 6068   2.773   2.863   2.644
 2042TIP3    H1 6069   2.741   2.780   2.680
 2042TIP3    H2 6070   2.694   2.909   2.616
 2043TIP3   OH2 6071   5.656   0.972   1.846
 2043TIP3    H1 6072   5.609   0.914   1.785
 2043TIP3    H2 6073   5.748   0.957   1.826
 2044TIP3   OH2 6074   5.195   6.062   2.291
 2044TIP3    H1 6075   5.207   6.152   2.323
 2044TIP3    H2 6076   5.100   6.049   2.294
 2045TIP3   OH2 6077   5.282   3.874   4.115
 2045TIP3    H1 6078   5.324   3.910   4.037
 2045TIP3    H2 6079   5.354   3.835   4.165
 2046TIP3   OH2 6080   5.539   0.945   5.017
 2046TIP3    H1 6081   5.511   0.861   5.053
 2046TIP3    H2 6082   5.632   0.931   4.996
 2047TIP3   OH2 6083   6.890   4.936   0.976
 2047TIP3    H1 6084   6.964   4.891   1.016
 2047TIP3    H2 6085   6.917   5.027   0.971
 2048TIP3   OH2 6086   6.495   6.896   1.629
 2048TIP3    H1 6087   6.570   6.839   1.644
 2048TIP3    H2 6088   6.524   6.958   1.563
 2049TIP3   OH2 6089   1.367   4.498   4.130
 2049TIP3    H1 6090   1.449   4.540   4.154
 2049TIP3    H2 6091   1.321   4.563   4.076
 2050TIP3   OH2 6092   1.175   5.107   2.553
 2050TIP3    H1 6093   1.161   5.183   2.496
 2050TIP3    H2 6094   1.115   5.040   2.520
 2051TIP3   OH2 6095   2.022   7.288   3.042
 2051TIP3    H1 6096   2.047   7.196   3.049
 2051TIP3    H2 6097   1.975   7.294   2.959
 2052TIP3   OH2 6098   0.552   2.464   0.643
 2052TIP3    H1 6099   0.570   2.432   0.555
 2052TIP3    H2 6100   0.551   2.559   0.634
 2053TIP3   OH2 6101   2.030   0.210   4.668
 2053TIP3    H1 6102   1.939   0.186   4.653
 2053TIP3    H2 6103   2.080   0.147   4.615
 2054TIP3   OH2 6104   0.829   4.422   1.850
 2054TIP3    H1 6105   0.848   4.331   1.872
 2054TIP3    H2 6106   0.856   4.431   1.758
 2055TIP3   OH2 6107   3.557   3.619   1.353
 2055TIP3    H1 6108   3.540   3.534   1.393
 2055TIP3    H2 6109   3.560   3.680   1.426
 2056TIP3   OH2 6110   0.893   3.752   5.355
 2056TIP3    H1 6111   0.881   3.686   5.423
 2056TIP3    H2 6112   0.877   3.705   5.273
 2057TIP3   OH2 6113   6.805   4.290   3.273
 2057TIP3    H1 6114   6.712   4.312   3.281
 2057TIP3    H2 6115   6.815   4.209   3.323
 2058TIP3   OH2 6116   2.413   5.362   0.113
 2058TIP3    H1 6117   2.356   5.439   0.117
 2058TIP3    H2 6118   2.500   5.395   0.137
 2059TIP3   OH2 6119   7.630   7.265   0.343
 2059TIP3    H1 6120   7.548   7.281   0.390
 2059TIP3    H2 6121   7.621   7.313   0.261
 2060TIP3   OH2 6122   7.955   1.626   0.975
 2060TIP3    H1 6123   8.002   1.661   0.900
 2060TIP3    H2 6124   7.889   1.693   0.995
 2061TIP3   OH2 6125   3.832   0.414   5.256
 2061TIP3    H1 6126   3.852   0.322   5.272
 2061TIP3    H2 6127   3.829   0.454   5.343
 2062TIP3   OH2 6128   0.885   2.655   0.118
 2062TIP3    H1 6129   0.870   2.570   0.075
 2062TIP3    H2 6130   0.964   2.689   0.076
 2063TIP3   OH2 6131   0.185   7.696   6.103
 2063TIP3    H1 6132   0.106   7.658   6.067
 2063TIP3    H2 6133   0.154   7.753   6.174
 2064TIP3   OH2 6134   0.311   3.331   2.487
 2064TIP3    H1 6135   0.402   3.303   2.489
 2064TIP3    H2 6136   0.311   3.416   2.532
 2065TIP3   OH2 6137   6.300   0.773   6.320
 2065TIP3    H1 6138   6.220   0.825   6.320
 2065TIP3    H2 6139   6.347   0.801   6.398
 2066TIP3   OH2 6140   3.768   0.449   3.520
 2066TIP3    H1 6141   3.743   0.463   3.611
 2066TIP3    H2 6142   3.780   0.537   3.484
 2067TIP3   OH2 6143   8.089   3.370   5.443
 2067TIP3    H1 6144   7.997   3.384   5.422
 2067TIP3    H2 6145   8.094   3.280   5.473
 2068TIP3   OH2 6146   8.230   6.226   3.229
 2068TIP3    H1 6147   8.158   6.218   3.292
 2068TIP3    H2 6148   8.265   6.313   3.246
 2069TIP3   OH2 6149   6.031   6.357   1.101
 2069TIP3    H1 6150   5.951   6.317   1.065
 2069TIP3    H2 6151   6.069   6.289   1.157
 2070TIP3   OH2 6152   1.783   3.264   3.764
 2070TIP3    H1 6153   1.826   3.349   3.776
 2070TIP3    H2 6154   1.855   3.201   3.763
 2071TIP3   OH2 6155   4.652   3.143   5.965
 2071TIP3    H1 6156   4.561   3.152   5.995
 2071TIP3    H2 6157   4.645   3.144   5.870
 2072TIP3   OH2 6158   6.973   4.374   5.511
 2072TIP3    H1 6159   7.054   4.404   5.470
 2072TIP3    H2 6160   6.994   4.367   5.604
 2073TIP3   OH2 6161   0.742   6.796   5.370
 2073TIP3    H1 6162   0.665   6.800   5.312
 2073TIP3    H2 6163   0.715   6.738   5.441
 2074TIP3   OH2 6164   7.111   1.401   6.710
 2074TIP3    H1 6165   7.196   1.414   6.753
 2074TIP3    H2 6166   7.049   1.452   6.763
 2075TIP3   OH2 6167   0.438   1.875   4.558
 2075TIP3    H1 6168   0.408   1.933   4.628
 2075TIP3    H2 6169   0.533   1.882   4.559
 2076TIP3   OH2 6170   7.408   4.618   2.633
 2076TIP3    H1 6171   7.412   4.703   2.676
 2076TIP3    H2 6172   7.429   4.637   2.541
 2077TIP3   OH2 6173   5.784   2.263   2.995
 2077TIP3    H1 6174   5.822   2.180   2.968
 2077TIP3    H2 6175   5.849   2.303   3.053
 2078TIP3   OH2 6176   0.349   2.199   6.222
 2078TIP3    H1 6177   0.434   2.243   6.222
 2078TIP3    H2 6178   0.323   2.198   6.130
 2079TIP3   OH2 6179   4.904   6.649   3.333
 2079TIP3    H1 6180   4.935   6.566   3.371
 2079TIP3    H2 6181   4.945   6.717   3.387
 2080TIP3   OH2 6182   7.051   3.238   3.446
 2080TIP3    H1 6183   7.053   3.207   3.356
 2080TIP3    H2 6184   7.117   3.308   3.449
 2081TIP3   OH2 6185   0.738   3.811   6.820
 2081TIP3    H1 6186   0.826   3.804   6.855
 2081TIP3    H2 6187   0.750   3.832   6.727
 2082TIP3   OH2 6188   3.528   4.879   0.656
 2082TIP3    H1 6189   3.505   4.965   0.624
 2082TIP3    H2 6190   3.503   4.819   0.586
 2083TIP3   OH2 6191   5.307   1.051   4.468
 2083TIP3    H1 6192   5.288   0.984   4.403
 2083TIP3    H2 6193   5.272   1.132   4.430
 2084TIP3   OH2 6194   6.728   4.462   4.232
 2084TIP3    H1 6195   6.691   4.541   4.271
 2084TIP3    H2 6196   6.819   4.461   4.262
 2085TIP3   OH2 6197   8.064   6.095   0.073
 2085TIP3    H1 6198   8.091   6.088  -0.019
 2085TIP3    H2 6199   8.114   6.170   0.106
 2086TIP3   OH2 6200   2.894   1.359   6.243
 2086TIP3    H1 6201   2.943   1.387   6.320
 2086TIP3    H2 6202   2.837   1.289   6.274
 2087TIP3   OH2 6203   5.634   3.866   5.745
 2087TIP3    H1 6204   5.652   3.844   5.654
 2087TIP3    H2 6205   5.637   3.961   5.748
 2088TIP3   OH2 6206   5.233   7.194   6.313
 2088TIP3    H1 6207   5.158   7.149   6.353
 2088TIP3    H2 6208   5.294   7.206   6.386
 2089TIP3   OH2 6209   5.259   5.399   5.759
 2089TIP3    H1 6210   5.297   5.436   5.679
 2089TIP3    H2 6211   5.316   5.431   5.830
 2090TIP3   OH2 6212   8.239   0.100   6.068
 2090TIP3    H1 6213   8.190   0.157   6.008
 2090TIP3    H2 6214   8.284   0.038   6.011
 2091TIP3   OH2 6215   5.478   0.197   3.069
 2091TIP3    H1 6216   5.393   0.169   3.102
 2091TIP3    H2 6217   5.509   0.122   3.017
 2092TIP3   OH2 6218   7.442   3.267   5.000
 2092TIP3    H1 6219   7.354   3.305   4.989
 2092TIP3    H2 6220   7.501   3.341   4.987
 2093TIP3   OH2 6221   5.513   6.102   3.625
 2093TIP3    H1 6222   5.477   6.077   3.539
 2093TIP3    H2 6223   5.590   6.155   3.605
 2094TIP3   OH2 6224   4.805   0.699   2.110
 2094TIP3    H1 6225   4.852   0.707   2.193
 2094TIP3    H2 6226   4.863   0.645   2.055
 2095TIP3   OH2 6227   7.654   4.525   3.008
 2095TIP3    H1 6228   7.617   4.606   3.043
 2095TIP3    H2 6229   7.592   4.457   3.034
 2096TIP3   OH2 6230   1.739   1.816   0.711
 2096TIP3    H1 6231   1.758   1.807   0.618
 2096TIP3    H2 6232   1.696   1.734   0.735
 2097TIP3   OH2 6233   5.469   5.457   5.036
 2097TIP3    H1 6234   5.517   5.385   5.076
 2097TIP3    H2 6235   5.489   5.451   4.943
 2098TIP3   OH2 6236   0.025   1.467   4.328
 2098TIP3    H1 6237  -0.034   1.401   4.362
 2098TIP3    H2 6238   0.073   1.423   4.258
 2099TIP3   OH2 6239   5.267   0.472   2.861
 2099TIP3    H1 6240   5.245   0.463   2.768
 2099TIP3    H2 6241   5.221   0.551   2.889
 2100TIP3   OH2 6242   8.099   2.823   2.503
 2100TIP3    H1 6243   8.049   2.744   2.485
 2100TIP3    H2 6244   8.068   2.887   2.439
 2101TIP3   OH2 6245   1.499   4.124   6.288
 2101TIP3    H1 6246   1.568   4.124   6.222
 2101TIP3    H2 6247   1.545   4.140   6.370
 2102TIP3   OH2 6248   1.548   0.317   3.705
 2102TIP3    H1 6249   1.478   0.379   3.725
 2102TIP3    H2 6250   1.525   0.281   3.620
 2103TIP3   OH2 6251   1.208   7.634   3.483
 2103TIP3    H1 6252   1.145   7.590   3.425
 2103TIP3    H2 6253   1.197   7.727   3.463
 2104TIP3   OH2 6254   0.596   7.022   0.681
 2104TIP3    H1 6255   0.576   7.114   0.667
 2104TIP3    H2 6256   0.681   7.009   0.637
 2105TIP3   OH2 6257   6.467   0.610   5.237
 2105TIP3    H1 6258   6.386   0.603   5.287
 2105TIP3    H2 6259   6.462   0.539   5.173
 2106TIP3   OH2 6260   7.521   7.402   1.382
 2106TIP3    H1 6261   7.520   7.456   1.304
 2106TIP3    H2 6262   7.523   7.312   1.349
 2107TIP3   OH2 6263   4.928   3.762   3.435
 2107TIP3    H1 6264   4.942   3.788   3.344
 2107TIP3    H2 6265   5.015   3.762   3.474
 2108TIP3   OH2 6266   2.747   4.811   3.794
 2108TIP3    H1 6267   2.755   4.906   3.805
 2108TIP3    H2 6268   2.832   4.783   3.759
 2109TIP3   OH2 6269   2.416   5.413   0.832
 2109TIP3    H1 6270   2.473   5.489   0.818
 2109TIP3    H2 6271   2.474   5.344   0.862
 2110TIP3   OH2 6272   2.769   1.475   2.758
 2110TIP3    H1 6273   2.793   1.401   2.702
 2110TIP3    H2 6274   2.745   1.544   2.696
 2111TIP3   OH2 6275   3.200   6.842   0.341
 2111TIP3    H1 6276   3.153   6.907   0.394
 2111TIP3    H2 6277   3.227   6.891   0.263
 2112TIP3   OH2 6278   5.760   1.556   1.408
 2112TIP3    H1 6279   5.699   1.493   1.371
 2112TIP3    H2 6280   5.707   1.635   1.422
 2113TIP3   OH2 6281   1.099   5.014   6.150
 2113TIP3    H1 6282   1.135   5.095   6.114
 2113TIP3    H2 6283   1.118   4.947   6.084
 2114TIP3   OH2 6284  -0.006   0.488   3.835
 2114TIP3    H1 6285   0.017   0.559   3.895
 2114TIP3    H2 6286  -0.013   0.411   3.891
 2115TIP3   OH2 6287   5.319   2.269   2.325
 2115TIP3    H1 6288   5.319   2.355   2.366
 2115TIP3    H2 6289   5.399   2.267   2.272
 2116TIP3   OH2 6290   6.072   1.950   3.167
 2116TIP3    H1 6291   6.137   1.988   3.227
 2116TIP3    H2 6292   6.112   1.960   3.080
 2117TIP3   OH2 6293   2.876   6.066   5.669
 2117TIP3    H1 6294   2.847   5.988   5.622
 2117TIP3    H2 6295   2.795   6.111   5.693
 2118TIP3   OH2 6296   3.741   2.762   4.544
 2118TIP3    H1 6297   3.809   2.830   4.541
 2118TIP3    H2 6298   3.738   2.728   4.455
 2119TIP3   OH2 6299   0.151   2.482   1.095
 2119TIP3    H1 6300   0.169   2.430   1.174
 2119TIP3    H2 6301   0.127   2.568   1.128
 2120TIP3   OH2 6302   6.566   3.541   0.016
 2120TIP3    H1 6303   6.528   3.550   0.103
 2120TIP3    H2 6304   6.660   3.535   0.031
 2121TIP3   OH2 6305   4.475   2.469   4.994
 2121TIP3    H1 6306   4.559   2.450   5.036
 2121TIP3    H2 6307   4.496   2.476   4.901
 2122TIP3   OH2 6308   6.074   1.697   5.584
 2122TIP3    H1 6309   6.110   1.775   5.542
 2122TIP3    H2 6310   6.150   1.647   5.613
 2123TIP3   OH2 6311   4.310   0.969   4.239
 2123TIP3    H1 6312   4.241   0.921   4.284
 2123TIP3    H2 6313   4.275   1.058   4.232
 2124TIP3   OH2 6314   3.864   0.744   0.194
 2124TIP3    H1 6315   3.842   0.811   0.129
 2124TIP3    H2 6316   3.880   0.793   0.275
 2125TIP3   OH2 6317   8.216   0.552   2.227
 2125TIP3    H1 6318   8.209   0.626   2.287
 2125TIP3    H2 6319   8.277   0.492   2.269
 2126TIP3   OH2 6320   1.072   3.216   5.487
 2126TIP3    H1 6321   1.005   3.187   5.426
 2126TIP3    H2 6322   1.046   3.180   5.572
 2127TIP3   OH2 6323   7.418   7.019   5.808
 2127TIP3    H1 6324   7.401   7.037   5.901
 2127TIP3    H2 6325   7.426   7.106   5.769
 2128TIP3   OH2 6326   4.299   1.797   2.756
 2128TIP3    H1 6327   4.268   1.873   2.706
 2128TIP3    H2 6328   4.223   1.739   2.760
 2129TIP3   OH2 6329   0.525   0.094   6.056
 2129TIP3    H1 6330   0.603   0.048   6.025
 2129TIP3    H2 6331   0.554   0.144   6.131
 2130TIP3   OH2 6332   6.272   4.603   4.837
 2130TIP3    H1 6333   6.350   4.609   4.892
 2130TIP3    H2 6334   6.199   4.622   4.895
 2131TIP3   OH2 6335   4.819   2.964   1.610
 2131TIP3    H1 6336   4.776   2.879   1.594
 2131TIP3    H2 6337   4.892   2.943   1.668
 2132TIP3   OH2 6338   5.208   4.105   1.895
 2132TIP3    H1 6339   5.255   4.067   1.969
 2132TIP3    H2 6340   5.181   4.030   1.842
 2133TIP3   OH2 6341   1.899   0.342   0.916
 2133TIP3    H1 6342   1.958   0.340   0.841
 2133TIP3    H2 6343   1.945   0.394   0.981
 2134TIP3   OH2 6344   6.958   7.589   1.671
 2134TIP3    H1 6345   6.936   7.558   1.583
 2134TIP3    H2 6346   6.897   7.661   1.687
 2135TIP3   OH2 6347   1.337   5.810   6.274
 2135TIP3    H1 6348   1.351   5.864   6.196
 2135TIP3    H2 6349   1.396   5.735   6.263
 2136TIP3   OH2 6350   5.923   2.016   1.176
 2136TIP3    H1 6351   5.882   1.989   1.093
 2136TIP3    H2 6352   5.903   1.946   1.237
 2137TIP3   OH2 6353   2.639   0.200   1.689
 2137TIP3    H1 6354   2.710   0.189   1.626
 2137TIP3    H2 6355   2.652   0.287   1.725
 2138TIP3   OH2 6356   1.507   2.857   1.522
 2138TIP3    H1 6357   1.533   2.766   1.504
 2138TIP3    H2 6358   1.439   2.875   1.457
 2139TIP3   OH2 6359   7.008   3.442   6.246
 2139TIP3    H1 6360   6.942   3.374   6.262
 2139TIP3    H2 6361   7.001   3.499   6.322
 2140TIP3   OH2 6362   8.201   7.516   2.281
 2140TIP3    H1 6363   8.250   7.441   2.316
 2140TIP3    H2 6364   8.129   7.529   2.342
 2141TIP3   OH2 6365   6.932   6.471   6.387
 2141TIP3    H1 6366   6.931   6.375   6.384
 2141TIP3    H2 6367   6.845   6.495   6.419
 2142TIP3   OH2 6368   7.446   0.769   0.117
 2142TIP3    H1 6369   7.449   0.780   0.022
 2142TIP3    H2 6370   7.508   0.835   0.150
 2143TIP3   OH2 6371   3.615   3.078   1.105
 2143TIP3    H1 6372   3.566   2.997   1.120
 2143TIP3    H2 6373   3.629   3.114   1.192
 2144TIP3   OH2 6374   7.280   4.183   0.726
 2144TIP3    H1 6375   7.373   4.196   0.707
 2144TIP3    H2 6376   7.249   4.270   0.751
 2145TIP3   OH2 6377   0.138   5.852   0.381
 2145TIP3    H1 6378   0.090   5.919   0.332
 2145TIP3    H2 6379   0.117   5.869   0.473
 2146TIP3   OH2 6380   3.467   4.681   3.288
 2146TIP3    H1 6381   3.548   4.714   3.326
 2146TIP3    H2 6382   3.488   4.593   3.258
 2147TIP3   OH2 6383   7.259   2.352   3.908
 2147TIP3    H1 6384   7.250   2.362   3.813
 2147TIP3    H2 6385   7.331   2.409   3.932
 2148TIP3   OH2 6386   5.258   6.344   1.203
 2148TIP3    H1 6387   5.285   6.271   1.260
 2148TIP3    H2 6388   5.310   6.418   1.234
 2149TIP3   OH2 6389   5.280   4.980   4.182
 2149TIP3    H1 6390   5.206   4.955   4.127
 2149TIP3    H2 6391   5.241   5.005   4.265
 2150TIP3   OH2 6392   5.127   3.493   1.430
 2150TIP3    H1 6393   5.083   3.551   1.491
 2150TIP3    H2 6394   5.066   3.420   1.418
 2151TIP3   OH2 6395   7.419   5.275   6.622
 2151TIP3    H1 6396   7.504   5.253   6.662
 2151TIP3    H2 6397   7.360   5.206   6.650
 2152TIP3   OH2 6398   0.746   7.129   3.581
 2152TIP3    H1 6399   0.759   7.048   3.533
 2152TIP3    H2 6400   0.788   7.115   3.665
 2153TIP3   OH2 6401   6.904   2.143   2.554
 2153TIP3    H1 6402   6.902   2.177   2.644
 2153TIP3    H2 6403   6.834   2.189   2.508
 2154TIP3   OH2 6404   6.426   7.407   4.162
 2154TIP3    H1 6405   6.493   7.475   4.157
 2154TIP3    H2 6406   6.359   7.434   4.100
 2155TIP3   OH2 6407   2.212   6.847   4.411
 2155TIP3    H1 6408   2.211   6.936   4.375
 2155TIP3    H2 6409   2.120   6.822   4.415
 2156TIP3   OH2 6410   5.107   0.956   2.977
 2156TIP3    H1 6411   5.143   1.026   2.921
 2156TIP3    H2 6412   5.053   1.002   3.041
 2157TIP3   OH2 6413   5.195   6.163   6.018
 2157TIP3    H1 6414   5.224   6.087   6.069
 2157TIP3    H2 6415   5.276   6.205   5.990
 2158TIP3   OH2 6416   6.554   4.576   6.130
 2158TIP3    H1 6417   6.485   4.575   6.197
 2158TIP3    H2 6418   6.635   4.567   6.180
 2159TIP3   OH2 6419   5.644   6.249   1.702
 2159TIP3    H1 6420   5.578   6.317   1.719
 2159TIP3    H2 6421   5.715   6.295   1.658
 2160TIP3   OH2 6422   6.366   1.394   1.799
 2160TIP3    H1 6423   6.289   1.388   1.856
 2160TIP3    H2 6424   6.407   1.477   1.823
 2161TIP3   OH2 6425   2.500   3.566   1.060
 2161TIP3    H1 6426   2.411   3.533   1.077
 2161TIP3    H2 6427   2.486   3.646   1.010
 2162TIP3   OH2 6428   2.736   4.896   5.232
 2162TIP3    H1 6429   2.784   4.948   5.168
 2162TIP3    H2 6430   2.786   4.905   5.313
 2163TIP3   OH2 6431   6.991   5.596   4.181
 2163TIP3    H1 6432   7.026   5.586   4.269
 2163TIP3    H2 6433   6.898   5.614   4.194
 2164TIP3   OH2 6434   8.199   3.327   1.132
 2164TIP3    H1 6435   8.232   3.237   1.143
 2164TIP3    H2 6436   8.112   3.325   1.171
 2165TIP3   OH2 6437   7.345   3.257   5.651
 2165TIP3    H1 6438   7.298   3.183   5.689
 2165TIP3    H2 6439   7.277   3.317   5.621
 2166TIP3   OH2 6440   4.260   7.533   4.202
 2166TIP3    H1 6441   4.185   7.588   4.179
 2166TIP3    H2 6442   4.230   7.480   4.276
 2167TIP3   OH2 6443   0.142   3.556   4.992
 2167TIP3    H1 6444   0.174   3.611   5.063
 2167TIP3    H2 6445   0.065   3.602   4.959
 2168TIP3   OH2 6446   6.942   7.350   3.195
 2168TIP3    H1 6447   7.037   7.348   3.189
 2168TIP3    H2 6448   6.912   7.341   3.105
 2169TIP3   OH2 6449   0.604   1.831  -0.023
 2169TIP3    H1 6450   0.641   1.918  -0.009
 2169TIP3    H2 6451   0.610   1.788   0.063
 2170TIP3   OH2 6452   6.643   7.659   0.359
 2170TIP3    H1 6453   6.587   7.612   0.298
 2170TIP3    H2 6454   6.613   7.750   0.354
 2171TIP3   OH2 6455   3.984   0.993   5.734
 2171TIP3    H1 6456   4.068   1.036   5.718
 2171TIP3    H2 6457   3.936   1.001   5.651
 2172TIP3   OH2 6458   1.180   0.286   6.193
 2172TIP3    H1 6459   1.216   0.364   6.235
 2172TIP3    H2 6460   1.235   0.214   6.224
 2173TIP3   OH2 6461   6.213   5.108   6.208
 2173TIP3    H1 6462   6.189   5.095   6.116
 2173TIP3    H2 6463   6.147   5.059   6.257
 2174TIP3   OH2 6464   7.817   4.045   4.154
 2174TIP3    H1 6465   7.753   3.976   4.174
 2174TIP3    H2 6466   7.807   4.060   4.061
 2175TIP3   OH2 6467   8.284   1.993   2.122
 2175TIP3    H1 6468   8.304   1.923   2.060
 2175TIP3    H2 6469   8.329   2.070   2.087
 2176TIP3   OH2 6470   3.220   0.158   1.116
 2176TIP3    H1 6471   3.147   0.142   1.056
 2176TIP3    H2 6472   3.298   0.129   1.068
 2177TIP3   OH2 6473   7.564   3.571   5.396
 2177TIP3    H1 6474   7.547   3.626   5.472
 2177TIP3    H2 6475   7.593   3.487   5.432
 2178TIP3   OH2 6476   6.072   6.463   5.296
 2178TIP3    H1 6477   6.068   6.407   5.218
 2178TIP3    H2 6478   6.079   6.402   5.369
 2179TIP3   OH2 6479   0.272   7.456   6.516
 2179TIP3    H1 6480   0.266   7.368   6.552
 2179TIP3    H2 6481   0.308   7.444   6.428
 2180TIP3   OH2 6482   3.084   0.636   6.220
 2180TIP3    H1 6483   3.017   0.705   6.218
 2180TIP3    H2 6484   3.101   0.617   6.127
 2181TIP3   OH2 6485   1.479   6.854   2.312
 2181TIP3    H1 6486   1.422   6.808   2.374
 2181TIP3    H2 6487   1.486   6.795   2.237
 2182TIP3   OH2 6488   6.898   1.203   0.891
 2182TIP3    H1 6489   6.843   1.263   0.943
 2182TIP3    H2 6490   6.981   1.250   0.881
 2183TIP3   OH2 6491   8.022   4.207   2.292
 2183TIP3    H1 6492   7.975   4.288   2.312
 2183TIP3    H2 6493   7.957   4.152   2.248
 2184TIP3   OH2 6494   3.739   1.691   6.509
 2184TIP3    H1 6495   3.703   1.745   6.580
 2184TIP3    H2 6496   3.687   1.611   6.511
 2185TIP3   OH2 6497   1.228   1.706   6.492
 2185TIP3    H1 6498   1.264   1.638   6.549
 2185TIP3    H2 6499   1.302   1.737   6.441
 2186TIP3   OH2 6500   4.545   4.187   6.166
 2186TIP3    H1 6501   4.578   4.118   6.108
 2186TIP3    H2 6502   4.494   4.244   6.108
 2187TIP3   OH2 6503   7.350   7.439   0.823
 2187TIP3    H1 6504   7.356   7.533   0.804
 2187TIP3    H2 6505   7.431   7.402   0.787
 2188TIP3   OH2 6506   1.868   3.893   3.080
 2188TIP3    H1 6507   1.937   3.927   3.023
 2188TIP3    H2 6508   1.868   3.952   3.155
 2189TIP3   OH2 6509   6.540   2.193   0.169
 2189TIP3    H1 6510   6.635   2.184   0.175
 2189TIP3    H2 6511   6.527   2.271   0.114
 2190TIP3   OH2 6512   1.841   6.180   0.738
 2190TIP3    H1 6513   1.921   6.215   0.776
 2190TIP3    H2 6514   1.815   6.109   0.796
 2191TIP3   OH2 6515   5.863   7.052   3.152
 2191TIP3    H1 6516   5.915   6.972   3.160
 2191TIP3    H2 6517   5.772   7.023   3.158
 2192TIP3   OH2 6518   2.148   6.934   6.291
 2192TIP3    H1 6519   2.173   6.855   6.244
 2192TIP3    H2 6520   2.188   6.924   6.378
 2193TIP3   OH2 6521   4.976   5.833   2.648
 2193TIP3    H1 6522   4.949   5.744   2.669
 2193TIP3    H2 6523   4.963   5.841   2.554
 2194TIP3   OH2 6524   1.117   3.224   4.848
 2194TIP3    H1 6525   1.059   3.156   4.814
 2194TIP3    H2 6526   1.199   3.179   4.867
 2195TIP3   OH2 6527   3.975   6.120   2.733
 2195TIP3    H1 6528   3.913   6.103   2.662
 2195TIP3    H2 6529   3.921   6.151   2.805
 2196TIP3   OH2 6530   4.631   6.151   2.693
 2196TIP3    H1 6531   4.547   6.108   2.684
 2196TIP3    H2 6532   4.696   6.083   2.673
 2197TIP3   OH2 6533   5.656   4.138   2.169
 2197TIP3    H1 6534   5.591   4.085   2.214
 2197TIP3    H2 6535   5.646   4.114   2.076
 2198TIP3   OH2 6536   3.976   4.122   0.960
 2198TIP3    H1 6537   4.006   4.036   0.933
 2198TIP3    H2 6538   4.034   4.184   0.916
 2199TIP3   OH2 6539   3.544   1.597   2.894
 2199TIP3    H1 6540   3.551   1.514   2.940
 2199TIP3    H2 6541   3.589   1.660   2.951
 2200TIP3   OH2 6542   7.353   2.526   2.126
 2200TIP3    H1 6543   7.394   2.473   2.058
 2200TIP3    H2 6544   7.272   2.479   2.147
 2201TIP3   OH2 6545   0.625   5.016   2.071
 2201TIP3    H1 6546   0.685   5.055   2.134
 2201TIP3    H2 6547   0.539   5.051   2.094
 2202TIP3   OH2 6548   7.230   1.400   1.143
 2202TIP3    H1 6549   7.194   1.453   1.072
 2202TIP3    H2 6550   7.174   1.419   1.218
 2203TIP3   OH2 6551   5.318   7.217   4.064
 2203TIP3    H1 6552   5.303   7.223   4.158
 2203TIP3    H2 6553   5.265   7.142   4.036
 2204TIP3   OH2 6554   1.118   1.241   3.567
 2204TIP3    H1 6555   1.089   1.234   3.476
 2204TIP3    H2 6556   1.110   1.334   3.588
 2205TIP3   OH2 6557   7.427   3.702   5.605
 2205TIP3    H1 6558   7.402   3.771   5.667
 2205TIP3    H2 6559   7.348   3.688   5.552
 2206TIP3   OH2 6560   7.635   3.053   6.746
 2206TIP3    H1 6561   7.568   3.120   6.733
 2206TIP3    H2 6562   7.586   2.973   6.767
 2207TIP3   OH2 6563   0.912   5.448   0.845
 2207TIP3    H1 6564   0.885   5.389   0.774
 2207TIP3    H2 6565   0.875   5.533   0.821
 2208TIP3   OH2 6566   1.532   6.367   2.912
 2208TIP3    H1 6567   1.614   6.392   2.868
 2208TIP3    H2 6568   1.478   6.330   2.842
 2209TIP3   OH2 6569   6.376   0.029   3.600
 2209TIP3    H1 6570   6.454   0.075   3.570
 2209TIP3    H2 6571   6.398   0.000   3.689
 2210TIP3   OH2 6572   7.715   5.726   2.911
 2210TIP3    H1 6573   7.632   5.686   2.935
 2210TIP3    H2 6574   7.699   5.820   2.913
 2211TIP3   OH2 6575   2.987   0.303   0.032
 2211TIP3    H1 6576   3.070   0.262   0.056
 2211TIP3    H2 6577   2.937   0.233  -0.010
 2212TIP3   OH2 6578   3.162   7.349   1.348
 2212TIP3    H1 6579   3.136   7.319   1.435
 2212TIP3    H2 6580   3.244   7.395   1.362
 2213TIP3   OH2 6581   1.695   0.125   3.892
 2213TIP3    H1 6582   1.672   0.193   3.828
 2213TIP3    H2 6583   1.750   0.064   3.844
 2214TIP3   OH2 6584   5.755   0.027   1.597
 2214TIP3    H1 6585   5.823   0.091   1.578
 2214TIP3    H2 6586   5.760  -0.035   1.524
 2215TIP3   OH2 6587   6.103   1.560   0.421
 2215TIP3    H1 6588   6.148   1.482   0.390
 2215TIP3    H2 6589   6.137   1.631   0.366
 2216TIP3   OH2 6590   7.280   6.426   5.021
 2216TIP3    H1 6591   7.293   6.374   5.100
 2216TIP3    H2 6592   7.294   6.517   5.048
 2217TIP3   OH2 6593   1.053   4.678   0.709
 2217TIP3    H1 6594   1.112   4.681   0.784
 2217TIP3    H2 6595   1.041   4.770   0.684
 2218TIP3   OH2 6596   1.341   3.077   5.760
 2218TIP3    H1 6597   1.300   3.152   5.717
 2218TIP3    H2 6598   1.431   3.105   5.776
 2219TIP3   OH2 6599   6.337   7.366   1.127
 2219TIP3    H1 6600   6.408   7.401   1.181
 2219TIP3    H2 6601   6.376   7.290   1.083
 2220TIP3   OH2 6602   6.824   6.314   2.075
 2220TIP3    H1 6603   6.741   6.278   2.108
 2220TIP3    H2 6604   6.814   6.409   2.085
 2221TIP3   OH2 6605   5.934   6.282   3.596
 2221TIP3    H1 6606   5.996   6.316   3.660
 2221TIP3    H2 6607   5.848   6.293   3.637
 2222TIP3   OH2 6608   4.165   6.140   2.399
 2222TIP3    H1 6609   4.125   6.054   2.387
 2222TIP3    H2 6610   4.191   6.168   2.311
 2223TIP3   OH2 6611   4.002   1.395   3.470
 2223TIP3    H1 6612   3.912   1.361   3.467
 2223TIP3    H2 6613   4.041   1.353   3.547
 2224TIP3   OH2 6614   8.059   4.362   3.516
 2224TIP3    H1 6615   8.146   4.395   3.494
 2224TIP3    H2 6616   8.014   4.354   3.432
 2225TIP3   OH2 6617   2.903   1.911   4.589
 2225TIP3    H1 6618   2.907   1.815   4.583
 2225TIP3    H2 6619   2.995   1.938   4.595
 2226TIP3   OH2 6620   7.685   7.487   6.732
 2226TIP3    H1 6621   7.593   7.481   6.758
 2226TIP3    H2 6622   7.733   7.484   6.815
 2227TIP3   OH2 6623   2.265   0.200   0.173
 2227TIP3    H1 6624   2.215   0.125   0.206
 2227TIP3    H2 6625   2.278   0.181   0.080
 2228TIP3   OH2 6626   4.323   4.640   1.232
 2228TIP3    H1 6627   4.298   4.664   1.143
 2228TIP3    H2 6628   4.355   4.722   1.271
 2229TIP3   OH2 6629   4.032   1.325   6.223
 2229TIP3    H1 6630   3.990   1.375   6.293
 2229TIP3    H2 6631   4.121   1.360   6.219
 2230TIP3   OH2 6632   3.062   5.763   3.535
 2230TIP3    H1 6633   3.024   5.845   3.505
 2230TIP3    H2 6634   3.007   5.736   3.608
 2231TIP3   OH2 6635   1.229   0.190   0.073
 2231TIP3    H1 6636   1.285   0.136   0.017
 2231TIP3    H2 6637   1.145   0.145   0.072
 2232TIP3   OH2 6638   4.213   0.416   5.052
 2232TIP3    H1 6639   4.306   0.408   5.031
 2232TIP3    H2 6640   4.205   0.376   5.139
 2233TIP3   OH2 6641   7.040   5.966   3.053
 2233TIP3    H1 6642   6.980   5.893   3.036
 2233TIP3    H2 6643   7.046   6.012   2.969
 2234TIP3   OH2 6644   7.180   0.734   4.176
 2234TIP3    H1 6645   7.197   0.825   4.152
 2234TIP3    H2 6646   7.248   0.713   4.239
 2235TIP3   OH2 6647   7.954   0.765   3.387
 2235TIP3    H1 6648   7.986   0.692   3.440
 2235TIP3    H2 6649   7.873   0.793   3.430
 2236TIP3   OH2 6650   2.190   0.840   6.375
 2236TIP3    H1 6651   2.261   0.861   6.314
 2236TIP3    H2 6652   2.207   0.895   6.451
 2237TIP3   OH2 6653   4.580   5.484   3.776
 2237TIP3    H1 6654   4.605   5.403   3.733
 2237TIP3    H2 6655   4.611   5.475   3.866
 2238TIP3   OH2 6656   5.329   0.119   2.198
 2238TIP3    H1 6657   5.284   0.101   2.115
 2238TIP3    H2 6658   5.369   0.205   2.185
 2239TIP3   OH2 6659   4.719   5.282   3.571
 2239TIP3    H1 6660   4.807   5.301   3.604
 2239TIP3    H2 6661   4.704   5.349   3.504
 2240TIP3   OH2 6662   3.741   1.616   3.691
 2240TIP3    H1 6663   3.719   1.684   3.754
 2240TIP3    H2 6664   3.769   1.541   3.745
 2241TIP3   OH2 6665   1.510   6.602   0.470
 2241TIP3    H1 6666   1.527   6.523   0.521
 2241TIP3    H2 6667   1.558   6.671   0.516
 2242TIP3   OH2 6668   0.559   0.300   3.488
 2242TIP3    H1 6669   0.472   0.294   3.449
 2242TIP3    H2 6670   0.597   0.213   3.474
 2243TIP3   OH2 6671   3.801   0.195   3.956
 2243TIP3    H1 6672   3.782   0.252   3.882
 2243TIP3    H2 6673   3.765   0.110   3.931
 2244TIP3   OH2 6674   5.968   1.298   5.198
 2244TIP3    H1 6675   5.927   1.354   5.264
 2244TIP3    H2 6676   5.989   1.356   5.125
 2245TIP3   OH2 6677   5.814   1.304   1.249
 2245TIP3    H1 6678   5.821   1.304   1.153
 2245TIP3    H2 6679   5.723   1.329   1.267
 2246TIP3   OH2 6680   7.606   3.436   1.992
 2246TIP3    H1 6681   7.641   3.436   1.903
 2246TIP3    H2 6682   7.540   3.366   1.991
 2247TIP3   OH2 6683   2.970   3.781   2.824
 2247TIP3    H1 6684   2.953   3.825   2.908
 2247TIP3    H2 6685   2.883   3.764   2.788
 2248TIP3   OH2 6686   1.634   1.640   2.782
 2248TIP3    H1 6687   1.677   1.691   2.851
 2248TIP3    H2 6688   1.661   1.550   2.799
 2249TIP3   OH2 6689   4.351   4.831   5.277
 2249TIP3    H1 6690   4.321   4.907   5.326
 2249TIP3    H2 6691   4.304   4.757   5.316
 2250TIP3   OH2 6692   1.209   7.630   1.392
 2250TIP3    H1 6693   1.124   7.657   1.428
 2250TIP3    H2 6694   1.243   7.708   1.349
 2251TIP3   OH2 6695   0.427   4.053   1.873
 2251TIP3    H1 6696   0.376   4.013   1.802
 2251TIP3    H2 6697   0.440   3.982   1.936
 2252TIP3   OH2 6698   2.509   6.855   6.531
 2252TIP3    H1 6699   2.548   6.824   6.613
 2252TIP3    H2 6700   2.518   6.781   6.471
 2253TIP3   OH2 6701   6.015   3.792   0.538
 2253TIP3    H1 6702   5.987   3.853   0.606
 2253TIP3    H2 6703   6.042   3.847   0.465
 2254TIP3   OH2 6704   5.328   0.261   5.894
 2254TIP3    H1 6705   5.273   0.263   5.972
 2254TIP3    H2 6706   5.413   0.292   5.924
 2255TIP3   OH2 6707   3.301   4.049   2.538
 2255TIP3    H1 6708   3.264   4.127   2.581
 2255TIP3    H2 6709   3.231   3.984   2.543
 2256TIP3   OH2 6710   4.864   1.624   0.950
 2256TIP3    H1 6711   4.812   1.565   0.895
 2256TIP3    H2 6712   4.812   1.704   0.953
 2257TIP3   OH2 6713   3.926   2.399   4.348
 2257TIP3    H1 6714   3.953   2.340   4.278
 2257TIP3    H2 6715   3.871   2.346   4.405
 2258TIP3   OH2 6716   2.441   5.848   3.908
 2258TIP3    H1 6717   2.388   5.927   3.895
 2258TIP3    H2 6718   2.486   5.862   3.992
 2259TIP3   OH2 6719   1.508   1.302   3.719
 2259TIP3    H1 6720   1.551   1.286   3.803
 2259TIP3    H2 6721   1.470   1.217   3.696
 2260TIP3   OH2 6722   5.816   1.901   0.533
 2260TIP3    H1 6723   5.898   1.925   0.577
 2260TIP3    H2 6724   5.810   1.960   0.458
 2261TIP3   OH2 6725   7.713   4.787   5.152
 2261TIP3    H1 6726   7.667   4.810   5.233
 2261TIP3    H2 6727   7.689   4.696   5.136
 2262TIP3   OH2 6728   6.651   0.787   0.294
 2262TIP3    H1 6729   6.697   0.703   0.290
 2262TIP3    H2 6730   6.588   0.783   0.222
 2263TIP3   OH2 6731   2.171   3.047   0.703
 2263TIP3    H1 6732   2.238   3.083   0.761
 2263TIP3    H2 6733   2.196   2.955   0.691
 2264TIP3   OH2 6734   4.671   2.866   5.605
 2264TIP3    H1 6735   4.743   2.880   5.543
 2264TIP3    H2 6736   4.679   2.938   5.667
 2265TIP3   OH2 6737   5.768   2.440   6.621
 2265TIP3    H1 6738   5.772   2.472   6.712
 2265TIP3    H2 6739   5.675   2.433   6.602
 2266TIP3   OH2 6740   7.208   0.793   0.243
 2266TIP3    H1 6741   7.281   0.772   0.184
 2266TIP3    H2 6742   7.243   0.860   0.302
 2267TIP3   OH2 6743   4.222   7.334   4.427
 2267TIP3    H1 6744   4.195   7.254   4.382
 2267TIP3    H2 6745   4.318   7.329   4.430
 2268TIP3   OH2 6746   2.459   7.143   4.206
 2268TIP3    H1 6747   2.426   7.121   4.293
 2268TIP3    H2 6748   2.438   7.066   4.153
 2269TIP3   OH2 6749   4.160   0.313   1.726
 2269TIP3    H1 6750   4.252   0.311   1.753
 2269TIP3    H2 6751   4.111   0.319   1.808
 2270TIP3   OH2 6752   3.157   1.059   5.891
 2270TIP3    H1 6753   3.183   1.092   5.977
 2270TIP3    H2 6754   3.239   1.054   5.842
 2271TIP3   OH2 6755   0.889   6.969   4.171
 2271TIP3    H1 6756   0.819   7.005   4.226
 2271TIP3    H2 6757   0.917   6.890   4.218
 2272TIP3   OH2 6758   3.306   5.587   1.112
 2272TIP3    H1 6759   3.243   5.608   1.181
 2272TIP3    H2 6760   3.273   5.506   1.073
 2273TIP3   OH2 6761   4.347   3.104   0.384
 2273TIP3    H1 6762   4.436   3.139   0.381
 2273TIP3    H2 6763   4.300   3.151   0.316
 2274TIP3   OH2 6764   1.436   0.733   4.960
 2274TIP3    H1 6765   1.443   0.648   5.003
 2274TIP3    H2 6766   1.484   0.722   4.877
 2275TIP3   OH2 6767   2.913   4.856   2.686
 2275TIP3    H1 6768   2.929   4.764   2.667
 2275TIP3    H2 6769   2.890   4.895   2.602
 2276TIP3   OH2 6770   8.354   3.912   4.944
 2276TIP3    H1 6771   8.307   3.913   5.027
 2276TIP3    H2 6772   8.418   3.983   4.951
 2277TIP3   OH2 6773   3.316   1.009   1.253
 2277TIP3    H1 6774   3.292   0.933   1.200
 2277TIP3    H2 6775   3.232   1.044   1.283
 2278TIP3   OH2 6776   0.714   3.108   2.172
 2278TIP3    H1 6777   0.638   3.160   2.199
 2278TIP3    H2 6778   0.709   3.028   2.224
 2279TIP3   OH2 6779   2.550   0.176   6.662
 2279TIP3    H1 6780   2.507   0.140   6.585
 2279TIP3    H2 6781   2.481   0.224   6.708
 2280TIP3   OH2 6782   8.071   0.249   1.590
 2280TIP3    H1 6783   8.044   0.180   1.650
 2280TIP3    H2 6784   8.135   0.301   1.639
 2281TIP3   OH2 6785   1.992   0.144   5.181
 2281TIP3    H1 6786   2.010   0.237   5.172
 2281TIP3    H2 6787   1.920   0.127   5.120
 2282TIP3   OH2 6788   3.109   5.860   3.153
 2282TIP3    H1 6789   3.184   5.835   3.098
 2282TIP3    H2 6790   3.067   5.930   3.104
 2283TIP3   OH2 6791   7.263   0.323   3.552
 2283TIP3    H1 6792   7.276   0.245   3.606
 2283TIP3    H2 6793   7.300   0.394   3.604
 2284TIP3   OH2 6794   5.749   0.086   2.529
 2284TIP3    H1 6795   5.774   0.081   2.437
 2284TIP3    H2 6796   5.780   0.003   2.566
 2285TIP3   OH2 6797   7.844   3.107   5.416
 2285TIP3    H1 6798   7.887   3.047   5.355
 2285TIP3    H2 6799   7.752   3.081   5.413
 2286TIP3   OH2 6800   4.193   5.958   1.090
 2286TIP3    H1 6801   4.148   6.037   1.121
 2286TIP3    H2 6802   4.123   5.893   1.081
 2287TIP3   OH2 6803   3.004   0.022   4.620
 2287TIP3    H1 6804   3.082   0.056   4.664
 2287TIP3    H2 6805   2.989  -0.063   4.661
 2288TIP3   OH2 6806   6.732   2.790   3.219
 2288TIP3    H1 6807   6.787   2.869   3.220
 2288TIP3    H2 6808   6.783   2.724   3.265
 2289TIP3   OH2 6809   1.615   4.813   5.265
 2289TIP3    H1 6810   1.537   4.819   5.320
 2289TIP3    H2 6811   1.673   4.881   5.297
 2290TIP3   OH2 6812   5.413   4.071   5.097
 2290TIP3    H1 6813   5.336   4.115   5.134
 2290TIP3    H2 6814   5.427   4.114   5.013
 2291TIP3   OH2 6815   6.063   4.808   3.024
 2291TIP3    H1 6816   5.972   4.780   3.026
 2291TIP3    H2 6817   6.107   4.751   3.087
 2292TIP3   OH2 6818   2.674   0.571   5.406
 2292TIP3    H1 6819   2.747   0.579   5.466
 2292TIP3    H2 6820   2.599   0.550   5.462
 2293TIP3   OH2 6821   7.374   7.042   1.670
 2293TIP3    H1 6822   7.370   6.954   1.706
 2293TIP3    H2 6823   7.377   7.029   1.575
 2294TIP3   OH2 6824   1.551   5.739   4.789
 2294TIP3    H1 6825   1.627   5.756   4.733
 2294TIP3    H2 6826   1.478   5.780   4.742
 2295TIP3   OH2 6827   7.504   0.730   3.899
 2295TIP3    H1 6828   7.550   0.749   3.981
 2295TIP3    H2 6829   7.448   0.655   3.920
 2296TIP3   OH2 6830   2.788   1.248   1.105
 2296TIP3    H1 6831   2.744   1.164   1.119
 2296TIP3    H2 6832   2.814   1.246   1.013
 2297TIP3   OH2 6833   3.098   7.054   2.418
 2297TIP3    H1 6834   3.170   7.044   2.480
 2297TIP3    H2 6835   3.137   7.101   2.344
 2298TIP3   OH2 6836   6.808   1.147   6.380
 2298TIP3    H1 6837   6.803   1.163   6.286
 2298TIP3    H2 6838   6.748   1.073   6.394
 2299TIP3   OH2 6839   6.335   4.130   2.957
 2299TIP3    H1 6840   6.248   4.127   2.917
 2299TIP3    H2 6841   6.332   4.064   3.026
 2300TIP3   OH2 6842   4.554   3.486   3.864
 2300TIP3    H1 6843   4.642   3.475   3.900
 2300TIP3    H2 6844   4.539   3.581   3.865
 2301TIP3   OH2 6845   1.188   6.050   0.941
 2301TIP3    H1 6846   1.272   6.007   0.959
 2301TIP3    H2 6847   1.124   5.980   0.942
 2302TIP3   OH2 6848   5.925   6.571   5.966
 2302TIP3    H1 6849   5.986   6.643   5.982
 2302TIP3    H2 6850   5.963   6.523   5.892
 2303TIP3   OH2 6851   2.188   2.697   0.528
 2303TIP3    H1 6852   2.206   2.607   0.557
 2303TIP3    H2 6853   2.191   2.693   0.432
 2304TIP3   OH2 6854   8.120   0.987   3.459
 2304TIP3    H1 6855   8.204   0.942   3.466
 2304TIP3    H2 6856   8.058   0.917   3.437
 2305TIP3   OH2 6857   1.374   1.883   4.767
 2305TIP3    H1 6858   1.442   1.835   4.815
 2305TIP3    H2 6859   1.379   1.972   4.801
 2306TIP3   OH2 6860   6.593   7.356   0.547
 2306TIP3    H1 6861   6.546   7.436   0.524
 2306TIP3    H2 6862   6.589   7.302   0.468
 2307TIP3   OH2 6863   3.152   2.773   6.095
 2307TIP3    H1 6864   3.098   2.806   6.023
 2307TIP3    H2 6865   3.092   2.718   6.147
 2308TIP3   OH2 6866   6.999   5.756   0.996
 2308TIP3    H1 6867   6.954   5.780   1.077
 2308TIP3    H2 6868   6.936   5.703   0.947
 2309TIP3   OH2 6869   4.984   7.543   2.540
 2309TIP3    H1 6870   5.016   7.605   2.605
 2309TIP3    H2 6871   5.019   7.574   2.457
 2310TIP3   OH2 6872   0.262   4.840   0.669
 2310TIP3    H1 6873   0.264   4.749   0.640
 2310TIP3    H2 6874   0.269   4.891   0.588
 2311TIP3   OH2 6875   0.786   3.091   0.688
 2311TIP3    H1 6876   0.742   3.052   0.764
 2311TIP3    H2 6877   0.761   3.034   0.615
 2312TIP3   OH2 6878   7.048   4.988   0.000
 2312TIP3    H1 6879   7.090   4.939   0.071
 2312TIP3    H2 6880   7.116   5.045  -0.034
 2313TIP3   OH2 6881   5.803   3.548   3.329
 2313TIP3    H1 6882   5.738   3.480   3.313
 2313TIP3    H2 6883   5.888   3.503   3.325
 2314TIP3   OH2 6884   0.454   3.177   3.643
 2314TIP3    H1 6885   0.532   3.139   3.602
 2314TIP3    H2 6886   0.389   3.181   3.572
 2315TIP3   OH2 6887   2.704   0.708   0.860
 2315TIP3    H1 6888   2.659   0.789   0.882
 2315TIP3    H2 6889   2.651   0.639   0.900
 2316TIP3   OH2 6890   7.739   6.713   2.857
 2316TIP3    H1 6891   7.692   6.733   2.938
 2316TIP3    H2 6892   7.816   6.770   2.860
 2317TIP3   OH2 6893   4.514   7.540   6.103
 2317TIP3    H1 6894   4.537   7.630   6.123
 2317TIP3    H2 6895   4.420   7.535   6.119
 2318TIP3   OH2 6896   3.707   2.832   2.146
 2318TIP3    H1 6897   3.694   2.926   2.143
 2318TIP3    H2 6898   3.802   2.820   2.149
 2319TIP3   OH2 6899   7.590   4.530   2.061
 2319TIP3    H1 6900   7.515   4.574   2.101
 2319TIP3    H2 6901   7.660   4.595   2.063
 2320TIP3   OH2 6902   4.530   1.679   0.090
 2320TIP3    H1 6903   4.574   1.753   0.048
 2320TIP3    H2 6904   4.449   1.668   0.041
 2321TIP3   OH2 6905   4.120   2.559   0.321
 2321TIP3    H1 6906   4.201   2.537   0.276
 2321TIP3    H2 6907   4.061   2.486   0.303
 2322TIP3   OH2 6908   8.266   4.260   0.717
 2322TIP3    H1 6909   8.253   4.169   0.742
 2322TIP3    H2 6910   8.261   4.259   0.622
 2323TIP3   OH2 6911   7.154   6.700   1.034
 2323TIP3    H1 6912   7.244   6.674   1.051
 2323TIP3    H2 6913   7.136   6.668   0.946
 2324TIP3   OH2 6914   3.573   5.744   2.701
 2324TIP3    H1 6915   3.561   5.658   2.741
 2324TIP3    H2 6916   3.661   5.742   2.664
 2325TIP3   OH2 6917   3.440   2.673   3.021
 2325TIP3    H1 6918   3.393   2.590   3.021
 2325TIP3    H2 6919   3.440   2.701   3.112
 2326TIP3   OH2 6920   1.767   4.975   1.830
 2326TIP3    H1 6921   1.817   5.002   1.907
 2326TIP3    H2 6922   1.726   4.893   1.856
 2327TIP3   OH2 6923   4.028   0.057   0.071
 2327TIP3    H1 6924   3.973   0.040   0.147
 2327TIP3    H2 6925   3.998   0.142   0.038
 2328TIP3   OH2 6926   0.981   0.933   4.259
 2328TIP3    H1 6927   0.989   0.911   4.351
 2328TIP3    H2 6928   0.935   0.859   4.220
 2329TIP3   OH2 6929   7.751   6.255   1.363
 2329TIP3    H1 6930   7.842   6.265   1.391
 2329TIP3    H2 6931   7.701   6.253   1.445
 2330TIP3   OH2 6932   6.187   4.095   1.699
 2330TIP3    H1 6933   6.222   4.007   1.715
 2330TIP3    H2 6934   6.188   4.104   1.604
 2331TIP3   OH2 6935   6.219   3.940   6.123
 2331TIP3    H1 6936   6.135   3.983   6.109
 2331TIP3    H2 6937   6.251   3.974   6.206
 2332TIP3   OH2 6938   0.601   4.262   0.609
 2332TIP3    H1 6939   0.648   4.257   0.692
 2332TIP3    H2 6940   0.514   4.296   0.633
 2333TIP3   OH2 6941   7.293   1.264   1.449
 2333TIP3    H1 6942   7.354   1.229   1.514
 2333TIP3    H2 6943   7.315   1.357   1.443
 2334TIP3   OH2 6944   5.337   0.430   6.254
 2334TIP3    H1 6945   5.391   0.358   6.220
 2334TIP3    H2 6946   5.309   0.477   6.176
 2335TIP3   OH2 6947   3.428   3.541   1.964
 2335TIP3    H1 6948   3.437   3.464   2.021
 2335TIP3    H2 6949   3.334   3.558   1.963
 2336TIP3   OH2 6950   0.819   5.362   6.222
 2336TIP3    H1 6951   0.736   5.410   6.217
 2336TIP3    H2 6952   0.804   5.283   6.169
 2337TIP3   OH2 6953   3.785   1.714   5.725
 2337TIP3    H1 6954   3.780   1.806   5.751
 2337TIP3    H2 6955   3.697   1.692   5.696
 2338TIP3   OH2 6956   2.866   6.245   6.210
 2338TIP3    H1 6957   2.776   6.241   6.242
 2338TIP3    H2 6958   2.875   6.334   6.176
 2339TIP3   OH2 6959   8.157   7.553   0.096
 2339TIP3    H1 6960   8.249   7.565   0.117
 2339TIP3    H2 6961   8.157   7.490   0.024
 2340TIP3   OH2 6962   3.517   7.325   5.585
 2340TIP3    H1 6963   3.503   7.392   5.651
 2340TIP3    H2 6964   3.441   7.266   5.594
 2341TIP3   OH2 6965   7.251   1.146   1.973
 2341TIP3    H1 6966   7.339   1.120   2.002
 2341TIP3    H2 6967   7.203   1.064   1.966
 2342TIP3   OH2 6968   3.966   2.493   2.511
 2342TIP3    H1 6969   3.972   2.534   2.597
 2342TIP3    H2 6970   3.942   2.565   2.452
 2343TIP3   OH2 6971   2.108   0.955   1.882
 2343TIP3    H1 6972   2.167   0.976   1.954
 2343TIP3    H2 6973   2.152   0.990   1.804
 2344TIP3   OH2 6974   3.465   1.443   1.304
 2344TIP3    H1 6975   3.534   1.508   1.316
 2344TIP3    H2 6976   3.395   1.471   1.363
 2345TIP3   OH2 6977   1.912   2.167   0.707
 2345TIP3    H1 6978   1.951   2.224   0.774
 2345TIP3    H2 6979   1.836   2.215   0.676
 2346TIP3   OH2 6980   1.171   3.496   4.050
 2346TIP3    H1 6981   1.260   3.466   4.030
 2346TIP3    H2 6982   1.141   3.537   3.969
 2347TIP3   OH2 6983   1.319   6.941   2.683
 2347TIP3    H1 6984   1.224   6.934   2.674
 2347TIP3    H2 6985   1.354   6.879   2.619
 2348TIP3   OH2 6986   1.215   3.829   1.232
 2348TIP3    H1 6987   1.120   3.842   1.232
 2348TIP3    H2 6988   1.227   3.738   1.205
 2349TIP3   OH2 6989   2.738   6.707   2.319
 2349TIP3    H1 6990   2.707   6.621   2.289
 2349TIP3    H2 6991   2.797   6.688   2.391
 2350TIP3   OH2 6992   7.601   6.275   4.434
 2350TIP3    H1 6993   7.656   6.236   4.365
 2350TIP3    H2 6994   7.643   6.248   4.516
 2351TIP3   OH2 6995   1.516   7.256   5.475
 2351TIP3    H1 6996   1.552   7.210   5.399
 2351TIP3    H2 6997   1.523   7.192   5.546
 2352TIP3   OH2 6998   0.433   0.315   0.698
 2352TIP3    H1 6999   0.338   0.310   0.705
 2352TIP3    H2 7000   0.451   0.403   0.665
 2353TIP3   OH2 7001   7.218   2.392   3.634
 2353TIP3    H1 7002   7.284   2.333   3.597
 2353TIP3    H2 7003   7.256   2.479   3.624
 2354TIP3   OH2 7004   0.412   4.866   5.114
 2354TIP3    H1 7005   0.436   4.798   5.051
 2354TIP3    H2 7006   0.449   4.834   5.197
 2355TIP3   OH2 7007   5.427   2.521   4.055
 2355TIP3    H1 7008   5.364   2.592   4.047
 2355TIP3    H2 7009   5.474   2.521   3.972
 2356TIP3   OH2 7010   6.277   0.726   6.037
 2356TIP3    H1 7011   6.329   0.797   5.998
 2356TIP3    H2 7012   6.254   0.759   6.124
 2357TIP3   OH2 7013   4.706   5.899   2.860
 2357TIP3    H1 7014   4.763   5.823   2.864
 2357TIP3    H2 7015   4.646   5.881   2.787
 2358TIP3   OH2 7016   3.633   4.560   6.225
 2358TIP3    H1 7017   3.590   4.644   6.239
 2358TIP3    H2 7018   3.715   4.583   6.180
 2359TIP3   OH2 7019   4.684   5.874   2.457
 2359TIP3    H1 7020   4.636   5.934   2.399
 2359TIP3    H2 7021   4.618   5.843   2.519
 2360TIP3   OH2 7022   4.780   0.632   1.218
 2360TIP3    H1 7023   4.864   0.621   1.263
 2360TIP3    H2 7024   4.753   0.721   1.241
 2361TIP3   OH2 7025   3.011   6.628   3.966
 2361TIP3    H1 7026   3.077   6.675   4.017
 2361TIP3    H2 7027   2.941   6.609   4.029
 2362TIP3   OH2 7028   1.168   6.200   4.926
 2362TIP3    H1 7029   1.125   6.286   4.932
 2362TIP3    H2 7030   1.261   6.221   4.922
 2363TIP3   OH2 7031   2.234   4.482   2.302
 2363TIP3    H1 7032   2.237   4.448   2.213
 2363TIP3    H2 7033   2.161   4.437   2.343
 2364TIP3   OH2 7034   3.433   0.339   5.823
 2364TIP3    H1 7035   3.481   0.339   5.740
 2364TIP3    H2 7036   3.394   0.252   5.829
 2365TIP3   OH2 7037   8.129   4.097   2.524
 2365TIP3    H1 7038   8.123   4.150   2.445
 2365TIP3    H2 7039   8.038   4.077   2.548
 2366TIP3   OH2 7040   3.136   0.916   1.585
 2366TIP3    H1 7041   3.098   0.947   1.503
 2366TIP3    H2 7042   3.083   0.839   1.609
 2367TIP3   OH2 7043   0.608   1.303   2.529
 2367TIP3    H1 7044   0.623   1.303   2.435
 2367TIP3    H2 7045   0.681   1.353   2.565
 2368TIP3   OH2 7046   8.055   0.388   3.227
 2368TIP3    H1 7047   8.143   0.420   3.244
 2368TIP3    H2 7048   8.064   0.330   3.151
 2369TIP3   OH2 7049   3.323   5.068   1.320
 2369TIP3    H1 7050   3.358   5.041   1.235
 2369TIP3    H2 7051   3.395   5.055   1.381
 2370TIP3   OH2 7052   0.748   0.232   0.838
 2370TIP3    H1 7053   0.718   0.224   0.748
 2370TIP3    H2 7054   0.721   0.320   0.865
 2371TIP3   OH2 7055   7.719   3.702   2.977
 2371TIP3    H1 7056   7.738   3.662   3.062
 2371TIP3    H2 7057   7.745   3.794   2.988
 2372TIP3   OH2 7058   7.861   2.175   2.547
 2372TIP3    H1 7059   7.939   2.209   2.590
 2372TIP3    H2 7060   7.894   2.107   2.488
 2373TIP3   OH2 7061   7.017   5.914   1.605
 2373TIP3    H1 7062   7.096   5.885   1.649
 2373TIP3    H2 7063   7.049   5.969   1.533
 2374TIP3   OH2 7064   3.347   3.013   1.060
 2374TIP3    H1 7065   3.404   3.043   0.990
 2374TIP3    H2 7066   3.287   2.952   1.017
 2375TIP3   OH2 7067   2.672   3.619   5.546
 2375TIP3    H1 7068   2.636   3.599   5.633
 2375TIP3    H2 7069   2.697   3.711   5.552
 2376TIP3   OH2 7070   2.418   6.495   0.129
 2376TIP3    H1 7071   2.418   6.576   0.079
 2376TIP3    H2 7072   2.466   6.433   0.074
 2377TIP3   OH2 7073   4.827   4.247   2.764
 2377TIP3    H1 7074   4.773   4.170   2.780
 2377TIP3    H2 7075   4.867   4.231   2.679
 2378TIP3   OH2 7076   1.859   7.384   0.573
 2378TIP3    H1 7077   1.828   7.335   0.497
 2378TIP3    H2 7078   1.953   7.369   0.575
 2379TIP3   OH2 7079   2.731   4.210   0.549
 2379TIP3    H1 7080   2.643   4.231   0.581
 2379TIP3    H2 7081   2.719   4.191   0.456
 2380TIP3   OH2 7082   7.285   6.194   0.402
 2380TIP3    H1 7083   7.351   6.155   0.459
 2380TIP3    H2 7084   7.333   6.219   0.323
 2381TIP3   OH2 7085   5.850   6.039   5.033
 2381TIP3    H1 7086   5.852   5.943   5.026
 2381TIP3    H2 7087   5.921   6.068   4.975
 2382TIP3   OH2 7088   1.746   1.452   5.897
 2382TIP3    H1 7089   1.678   1.387   5.879
 2382TIP3    H2 7090   1.828   1.404   5.885
 2383TIP3   OH2 7091   2.300   0.308   5.469
 2383TIP3    H1 7092   2.275   0.217   5.453
 2383TIP3    H2 7093   2.298   0.349   5.382
 2384TIP3   OH2 7094   7.333   3.643   4.359
 2384TIP3    H1 7095   7.274   3.681   4.424
 2384TIP3    H2 7096   7.345   3.553   4.388
 2385TIP3   OH2 7097   4.816   4.560   0.286
 2385TIP3    H1 7098   4.851   4.649   0.291
 2385TIP3    H2 7099   4.735   4.564   0.337
 2386TIP3   OH2 7100   7.833   4.344   5.887
 2386TIP3    H1 7101   7.885   4.377   5.960
 2386TIP3    H2 7102   7.827   4.417   5.826
 2387TIP3   OH2 7103   4.903   6.775   1.155
 2387TIP3    H1 7104   4.872   6.863   1.136
 2387TIP3    H2 7105   4.977   6.787   1.215
 2388TIP3   OH2 7106   0.245   5.958   0.815
 2388TIP3    H1 7107   0.307   5.986   0.883
 2388TIP3    H2 7108   0.219   5.869   0.841
 2389TIP3   OH2 7109   4.154   4.949   6.491
 2389TIP3    H1 7110   4.138   5.000   6.412
 2389TIP3    H2 7111   4.069   4.945   6.535
 2390TIP3   OH2 7112   5.454   0.919   1.556
 2390TIP3    H1 7113   5.390   0.911   1.627
 2390TIP3    H2 7114   5.402   0.916   1.476
 2391TIP3   OH2 7115   2.431   0.456   4.220
 2391TIP3    H1 7116   2.384   0.374   4.236
 2391TIP3    H2 7117   2.425   0.469   4.126
 2392TIP3   OH2 7118   2.611   3.748   4.308
 2392TIP3    H1 7119   2.627   3.695   4.386
 2392TIP3    H2 7120   2.691   3.798   4.296
 2393TIP3   OH2 7121   4.835   6.892   0.651
 2393TIP3    H1 7122   4.904   6.847   0.602
 2393TIP3    H2 7123   4.759   6.834   0.645
 2394TIP3   OH2 7124   3.642   7.756   5.996
 2394TIP3    H1 7125   3.548   7.761   5.975
 2394TIP3    H2 7126   3.656   7.825   6.061
 2395TIP3   OH2 7127   3.660   1.403   5.666
 2395TIP3    H1 7128   3.707   1.386   5.748
 2395TIP3    H2 7129   3.701   1.345   5.602
 2396TIP3   OH2 7130   1.099   1.094   3.314
 2396TIP3    H1 7131   1.034   1.042   3.361
 2396TIP3    H2 7132   1.052   1.128   3.238
 2397TIP3   OH2 7133   5.797   0.962   0.324
 2397TIP3    H1 7134   5.765   0.896   0.263
 2397TIP3    H2 7135   5.892   0.955   0.319
 2398TIP3   OH2 7136   7.626   5.703   1.680
 2398TIP3    H1 7137   7.706   5.727   1.728
 2398TIP3    H2 7138   7.599   5.784   1.636
 2399TIP3   OH2 7139   6.309   3.952   1.083
 2399TIP3    H1 7140   6.400   3.980   1.092
 2399TIP3    H2 7141   6.290   3.905   1.164
 2400TIP3   OH2 7142   0.399   0.971   0.893
 2400TIP3    H1 7143   0.455   1.031   0.943
 2400TIP3    H2 7144   0.325   0.954   0.952
 2401TIP3   OH2 7145   2.777   5.206   2.610
 2401TIP3    H1 7146   2.847   5.261   2.645
 2401TIP3    H2 7147   2.697   5.240   2.650
 2402TIP3   OH2 7148   2.785   3.509   2.379
 2402TIP3    H1 7149   2.748   3.587   2.339
 2402TIP3    H2 7150   2.776   3.441   2.312
 2403TIP3   OH2 7151   0.553   2.852   6.709
 2403TIP3    H1 7152   0.494   2.882   6.640
 2403TIP3    H2 7153   0.497   2.807   6.772
 2404TIP3   OH2 7154   1.504   1.951   2.000
 2404TIP3    H1 7155   1.480   1.863   1.972
 2404TIP3    H2 7156   1.526   1.941   2.093
 2405TIP3   OH2 7157   8.006   3.165   4.792
 2405TIP3    H1 7158   7.959   3.113   4.857
 2405TIP3    H2 7159   8.064   3.221   4.844
 2406TIP3   OH2 7160   6.702   6.108   2.856
 2406TIP3    H1 7161   6.758   6.169   2.903
 2406TIP3    H2 7162   6.664   6.052   2.924
 2407TIP3   OH2 7163   2.170   4.049   6.743
 2407TIP3    H1 7164   2.221   4.057   6.662
 2407TIP3    H2 7165   2.236   4.052   6.813
 2408TIP3   OH2 7166   2.980   3.527   0.437
 2408TIP3    H1 7167   2.890   3.547   0.463
 2408TIP3    H2 7168   3.008   3.458   0.497
 2409TIP3   OH2 7169   3.316   7.127   5.607
 2409TIP3    H1 7170   3.377   7.068   5.563
 2409TIP3    H2 7171   3.230   7.087   5.594
 2410TIP3   OH2 7172   1.323   5.540   1.809
 2410TIP3    H1 7173   1.334   5.606   1.877
 2410TIP3    H2 7174   1.412   5.522   1.779
 2411TIP3   OH2 7175   6.694   6.160   4.978
 2411TIP3    H1 7176   6.607   6.133   4.948
 2411TIP3    H2 7177   6.698   6.253   4.957
 2412TIP3   OH2 7178   3.157   7.181   1.116
 2412TIP3    H1 7179   3.066   7.182   1.086
 2412TIP3    H2 7180   3.166   7.260   1.168
 2413TIP3   OH2 7181   4.984   3.494   4.097
 2413TIP3    H1 7182   5.014   3.406   4.072
 2413TIP3    H2 7183   4.913   3.478   4.159
 2414TIP3   OH2 7184   1.554   6.748   2.777
 2414TIP3    H1 7185   1.488   6.680   2.760
 2414TIP3    H2 7186   1.570   6.742   2.871
 2415TIP3   OH2 7187   0.346   4.770   3.711
 2415TIP3    H1 7188   0.422   4.716   3.690
 2415TIP3    H2 7189   0.358   4.793   3.803
 2416TIP3   OH2 7190   4.658   3.774   3.399
 2416TIP3    H1 7191   4.601   3.783   3.476
 2416TIP3    H2 7192   4.747   3.776   3.434
 2417TIP3   OH2 7193   3.035   4.361   4.845
 2417TIP3    H1 7194   3.097   4.432   4.860
 2417TIP3    H2 7195   3.030   4.315   4.929
 2418TIP3   OH2 7196   7.393   4.749   4.824
 2418TIP3    H1 7197   7.318   4.723   4.770
 2418TIP3    H2 7198   7.355   4.772   4.909
 2419TIP3   OH2 7199   8.146   3.259   5.917
 2419TIP3    H1 7200   8.161   3.225   6.005
 2419TIP3    H2 7201   8.099   3.188   5.872
 2420TIP3   OH2 7202   3.950   7.601   5.158
 2420TIP3    H1 7203   4.009   7.616   5.232
 2420TIP3    H2 7204   3.972   7.513   5.127
 2421TIP3   OH2 7205   2.925   3.489   1.780
 2421TIP3    H1 7206   2.929   3.404   1.735
 2421TIP3    H2 7207   2.831   3.502   1.797
 2422TIP3   OH2 7208   4.487   5.397   4.802
 2422TIP3    H1 7209   4.502   5.397   4.896
 2422TIP3    H2 7210   4.530   5.476   4.770
 2423TIP3   OH2 7211   5.031   5.963   3.168
 2423TIP3    H1 7212   5.125   5.943   3.173
 2423TIP3    H2 7213   5.027   6.042   3.115
 2424TIP3   OH2 7214   7.088   1.448   5.827
 2424TIP3    H1 7215   7.134   1.371   5.862
 2424TIP3    H2 7216   7.127   1.522   5.873
 2425TIP3   OH2 7217   8.120   3.178   0.213
 2425TIP3    H1 7218   8.036   3.213   0.183
 2425TIP3    H2 7219   8.144   3.232   0.288
 2426TIP3   OH2 7220   2.881   4.555   5.921
 2426TIP3    H1 7221   2.843   4.639   5.946
 2426TIP3    H2 7222   2.824   4.522   5.851
 2427TIP3   OH2 7223   1.196   7.280   0.494
 2427TIP3    H1 7224   1.260   7.210   0.479
 2427TIP3    H2 7225   1.165   7.265   0.583
 2428TIP3   OH2 7226   3.432   3.141   2.809
 2428TIP3    H1 7227   3.453   3.184   2.892
 2428TIP3    H2 7228   3.461   3.050   2.821
 2429TIP3   OH2 7229   3.893   3.381   1.914
 2429TIP3    H1 7230   3.799   3.380   1.898
 2429TIP3    H2 7231   3.920   3.471   1.895
 2430TIP3   OH2 7232   2.075   2.881   2.920
 2430TIP3    H1 7233   2.112   2.943   2.983
 2430TIP3    H2 7234   2.016   2.934   2.866
 2431TIP3   OH2 7235   1.973   6.056   2.932
 2431TIP3    H1 7236   1.934   6.142   2.949
 2431TIP3    H2 7237   1.915   6.016   2.867
 2432TIP3   OH2 7238   6.143   6.148   4.174
 2432TIP3    H1 7239   6.129   6.237   4.206
 2432TIP3    H2 7240   6.162   6.160   4.081
 2433TIP3   OH2 7241   0.860   6.910   3.784
 2433TIP3    H1 7242   0.886   6.833   3.834
 2433TIP3    H2 7243   0.935   6.929   3.728
 2434TIP3   OH2 7244   3.462   2.701   0.940
 2434TIP3    H1 7245   3.506   2.635   0.886
 2434TIP3    H2 7246   3.428   2.765   0.878
 2435TIP3   OH2 7247   6.997   6.143   0.692
 2435TIP3    H1 7248   7.015   6.051   0.712
 2435TIP3    H2 7249   7.075   6.190   0.722
 2436TIP3   OH2 7250   2.097   7.617   4.076
 2436TIP3    H1 7251   2.096   7.557   4.001
 2436TIP3    H2 7252   2.080   7.703   4.037
 2437TIP3   OH2 7253  -0.024   6.819   1.995
 2437TIP3    H1 7254   0.004   6.879   1.925
 2437TIP3    H2 7255  -0.094   6.866   2.040
 2438TIP3   OH2 7256   5.258   3.582   6.512
 2438TIP3    H1 7257   5.241   3.575   6.418
 2438TIP3    H2 7258   5.267   3.492   6.542
 2439TIP3   OH2 7259   7.239   5.481   6.512
 2439TIP3    H1 7260   7.318   5.432   6.538
 2439TIP3    H2 7261   7.245   5.487   6.417
 2440TIP3   OH2 7262   7.022   5.244   5.072
 2440TIP3    H1 7263   6.960   5.310   5.103
 2440TIP3    H2 7264   7.100   5.294   5.047
 2441TIP3   OH2 7265   7.205   2.277   3.270
 2441TIP3    H1 7266   7.151   2.305   3.196
 2441TIP3    H2 7267   7.161   2.200   3.304
 2442TIP3   OH2 7268   1.387   1.679   1.371
 2442TIP3    H1 7269   1.462   1.650   1.319
 2442TIP3    H2 7270   1.410   1.658   1.461
 2443TIP3   OH2 7271   5.626   0.337   3.301
 2443TIP3    H1 7272   5.687   0.287   3.355
 2443TIP3    H2 7273   5.595   0.274   3.236
 2444TIP3   OH2 7274   4.074   0.153   1.098
 2444TIP3    H1 7275   4.084   0.238   1.141
 2444TIP3    H2 7276   3.983   0.128   1.116
 2445TIP3   OH2 7277   5.602   2.266   4.709
 2445TIP3    H1 7278   5.688   2.241   4.742
 2445TIP3    H2 7279   5.542   2.246   4.781
 2446TIP3   OH2 7280   1.482   5.981   5.547
 2446TIP3    H1 7281   1.410   6.006   5.490
 2446TIP3    H2 7282   1.547   6.051   5.537
 2447TIP3   OH2 7283   6.478   7.471   2.954
 2447TIP3    H1 7284   6.389   7.453   2.921
 2447TIP3    H2 7285   6.535   7.428   2.891
 2448TIP3   OH2 7286   7.936   5.531   1.042
 2448TIP3    H1 7287   7.963   5.465   0.978
 2448TIP3    H2 7288   7.905   5.604   0.988
 2449TIP3   OH2 7289   5.705   0.612   6.068
 2449TIP3    H1 7290   5.796   0.621   6.040
 2449TIP3    H2 7291   5.711   0.584   6.159
 2450TIP3   OH2 7292   1.199   7.487   6.134
 2450TIP3    H1 7293   1.268   7.422   6.151
 2450TIP3    H2 7294   1.172   7.470   6.044
 2451TIP3   OH2 7295   0.388   3.972   4.507
 2451TIP3    H1 7296   0.298   3.996   4.528
 2451TIP3    H2 7297   0.390   3.876   4.517
 2452TIP3   OH2 7298   7.166   2.612   5.180
 2452TIP3    H1 7299   7.076   2.643   5.186
 2452TIP3    H2 7300   7.167   2.556   5.102
 2453TIP3   OH2 7301   0.018   2.629   2.433
 2453TIP3    H1 7302  -0.058   2.685   2.447
 2453TIP3    H2 7303   0.037   2.591   2.518
 2454TIP3   OH2 7304   0.145   3.931   2.194
 2454TIP3    H1 7305   0.099   3.855   2.229
 2454TIP3    H2 7306   0.167   3.984   2.271
 2455TIP3   OH2 7307   0.765   2.895   4.299
 2455TIP3    H1 7308   0.851   2.937   4.299
 2455TIP3    H2 7309   0.711   2.951   4.243
 2456TIP3   OH2 7310   1.797   7.452   2.755
 2456TIP3    H1 7311   1.850   7.466   2.677
 2456TIP3    H2 7312   1.742   7.376   2.733
 2457TIP3   OH2 7313   1.032   6.581   4.612
 2457TIP3    H1 7314   0.994   6.509   4.563
 2457TIP3    H2 7315   1.119   6.550   4.638
 2458TIP3   OH2 7316   4.635   0.841   2.468
 2458TIP3    H1 7317   4.580   0.908   2.427
 2458TIP3    H2 7318   4.575   0.768   2.485
 2459TIP3   OH2 7319   0.824   4.956   5.790
 2459TIP3    H1 7320   0.884   4.999   5.728
 2459TIP3    H2 7321   0.737   4.977   5.757
 2460TIP3   OH2 7322   1.576   6.760   1.358
 2460TIP3    H1 7323   1.547   6.848   1.382
 2460TIP3    H2 7324   1.620   6.772   1.273
 2461TIP3   OH2 7325   1.001   3.984   1.566
 2461TIP3    H1 7326   1.036   4.072   1.579
 2461TIP3    H2 7327   0.942   3.971   1.640
 2462TIP3   OH2 7328   5.912   7.214   2.026
 2462TIP3    H1 7329   5.889   7.123   2.008
 2462TIP3    H2 7330   5.952   7.245   1.945
 2463TIP3   OH2 7331   8.117   2.489   1.069
 2463TIP3    H1 7332   8.084   2.538   1.144
 2463TIP3    H2 7333   8.198   2.449   1.100
 2464TIP3   OH2 7334   1.266   5.170   6.422
 2464TIP3    H1 7335   1.320   5.177   6.500
 2464TIP3    H2 7336   1.200   5.104   6.444
 2465TIP3   OH2 7337   8.158   7.457   3.140
 2465TIP3    H1 7338   8.077   7.509   3.137
 2465TIP3    H2 7339   8.218   7.509   3.193
 2466TIP3   OH2 7340   0.845   3.824   0.930
 2466TIP3    H1 7341   0.877   3.886   0.864
 2466TIP3    H2 7342   0.752   3.843   0.938
 2467TIP3   OH2 7343   3.168   3.854   4.114
 2467TIP3    H1 7344   3.202   3.787   4.056
 2467TIP3    H2 7345   3.235   3.922   4.115
 2468TIP3   OH2 7346   6.564   4.617   5.309
 2468TIP3    H1 7347   6.597   4.691   5.258
 2468TIP3    H2 7348   6.637   4.554   5.311
 2469TIP3   OH2 7349   6.461   1.926   4.732
 2469TIP3    H1 7350   6.500   1.849   4.773
 2469TIP3    H2 7351   6.534   1.986   4.720
 2470TIP3   OH2 7352   4.390   6.389   0.779
 2470TIP3    H1 7353   4.369   6.349   0.864
 2470TIP3    H2 7354   4.444   6.465   0.801
 2471TIP3   OH2 7355   4.068   3.899   0.877
 2471TIP3    H1 7356   4.087   3.850   0.797
 2471TIP3    H2 7357   4.093   3.839   0.948
 2472TIP3   OH2 7358   2.797   3.443   3.094
 2472TIP3    H1 7359   2.802   3.538   3.083
 2472TIP3    H2 7360   2.789   3.431   3.189
 2473TIP3   OH2 7361   4.501   5.440   6.375
 2473TIP3    H1 7362   4.465   5.525   6.400
 2473TIP3    H2 7363   4.576   5.460   6.319
 2474TIP3   OH2 7364   4.705   5.049   1.379
 2474TIP3    H1 7365   4.661   5.112   1.322
 2474TIP3    H2 7366   4.793   5.040   1.341
 2475TIP3   OH2 7367   7.186   6.385   5.756
 2475TIP3    H1 7368   7.105   6.424   5.722
 2475TIP3    H2 7369   7.159   6.342   5.837
 2476TIP3   OH2 7370   2.229   1.425   5.706
 2476TIP3    H1 7371   2.303   1.479   5.678
 2476TIP3    H2 7372   2.262   1.379   5.784
 2477TIP3   OH2 7373   6.111   0.952   5.062
 2477TIP3    H1 7374   6.103   0.949   5.158
 2477TIP3    H2 7375   6.026   0.923   5.030
 2478TIP3   OH2 7376   2.554   3.997  -0.024
 2478TIP3    H1 7377   2.588   4.083   0.002
 2478TIP3    H2 7378   2.564   3.943   0.053
 2479TIP3   OH2 7379   7.750   3.418   3.373
 2479TIP3    H1 7380   7.787   3.417   3.285
 2479TIP3    H2 7381   7.744   3.326   3.397
 2480TIP3   OH2 7382   3.913   3.431   0.787
 2480TIP3    H1 7383   3.909   3.345   0.829
 2480TIP3    H2 7384   3.888   3.414   0.696
 2481TIP3   OH2 7385   6.778   1.347   1.418
 2481TIP3    H1 7386   6.840   1.325   1.348
 2481TIP3    H2 7387   6.825   1.327   1.499
 2482TIP3   OH2 7388   5.195   4.384   0.913
 2482TIP3    H1 7389   5.121   4.330   0.940
 2482TIP3    H2 7390   5.193   4.382   0.817
 2483TIP3   OH2 7391   3.426   1.816   1.525
 2483TIP3    H1 7392   3.474   1.898   1.529
 2483TIP3    H2 7393   3.383   1.809   1.610
 2484TIP3   OH2 7394   7.865   7.261   5.266
 2484TIP3    H1 7395   7.815   7.279   5.346
 2484TIP3    H2 7396   7.945   7.219   5.297
 2485TIP3   OH2 7397   3.303   5.420   4.087
 2485TIP3    H1 7398   3.334   5.331   4.068
 2485TIP3    H2 7399   3.357   5.477   4.033
 2486TIP3   OH2 7400   0.459   3.844   3.208
 2486TIP3    H1 7401   0.392   3.818   3.144
 2486TIP3    H2 7402   0.474   3.937   3.191
 2487TIP3   OH2 7403   1.182   5.141   3.069
 2487TIP3    H1 7404   1.210   5.216   3.121
 2487TIP3    H2 7405   1.240   5.142   2.992
 2488TIP3   OH2 7406   0.586   7.318   1.314
 2488TIP3    H1 7407   0.532   7.242   1.293
 2488TIP3    H2 7408   0.549   7.389   1.262
 2489TIP3   OH2 7409   3.717   4.610   4.357
 2489TIP3    H1 7410   3.759   4.610   4.271
 2489TIP3    H2 7411   3.788   4.593   4.419
 2490TIP3   OH2 7412   2.067   7.761   3.430
 2490TIP3    H1 7413   2.071   7.841   3.483
 2490TIP3    H2 7414   2.035   7.694   3.490
 2491TIP3   OH2 7415   1.769   4.444   4.694
 2491TIP3    H1 7416   1.756   4.458   4.601
 2491TIP3    H2 7417   1.764   4.531   4.733
 2492TIP3   OH2 7418   0.750   0.446   1.452
 2492TIP3    H1 7419   0.757   0.369   1.509
 2492TIP3    H2 7420   0.837   0.456   1.413
 2493TIP3   OH2 7421   4.033   2.484   3.609
 2493TIP3    H1 7422   4.005   2.561   3.559
 2493TIP3    H2 7423   3.965   2.419   3.593
 2494TIP3   OH2 7424   3.969   1.965   6.725
 2494TIP3    H1 7425   4.060   1.987   6.746
 2494TIP3    H2 7426   3.975   1.885   6.673
 2495TIP3   OH2 7427   5.451   4.416   0.421
 2495TIP3    H1 7428   5.390   4.490   0.418
 2495TIP3    H2 7429   5.430   4.365   0.343
 2496TIP3   OH2 7430   2.301   5.367   0.396
 2496TIP3    H1 7431   2.268   5.331   0.479
 2496TIP3    H2 7432   2.289   5.296   0.333
 2497TIP3   OH2 7433   1.159   4.500   3.381
 2497TIP3    H1 7434   1.104   4.466   3.311
 2497TIP3    H2 7435   1.097   4.537   3.444
 2498TIP3   OH2 7436   0.586   7.265   4.039
 2498TIP3    H1 7437   0.594   7.347   3.990
 2498TIP3    H2 7438   0.672   7.224   4.030
 2499TIP3   OH2 7439   4.385   2.796   5.602
 2499TIP3    H1 7440   4.468   2.842   5.590
 2499TIP3    H2 7441   4.355   2.822   5.690
 2500TIP3   OH2 7442   5.945   6.823   3.234
 2500TIP3    H1 7443   6.018   6.783   3.187
 2500TIP3    H2 7444   5.938   6.774   3.316
 2501TIP3   OH2 7445   2.946   2.517   0.856
 2501TIP3    H1 7446   2.980   2.570   0.928
 2501TIP3    H2 7447   2.859   2.490   0.885
 2502TIP3   OH2 7448   0.659   2.831   2.564
 2502TIP3    H1 7449   0.566   2.840   2.544
 2502TIP3    H2 7450   0.685   2.918   2.596
 2503TIP3   OH2 7451   5.363   2.896   5.591
 2503TIP3    H1 7452   5.356   2.991   5.581
 2503TIP3    H2 7453   5.454   2.881   5.618
 2504TIP3   OH2 7454   0.243   2.274   5.975
 2504TIP3    H1 7455   0.156   2.301   6.004
 2504TIP3    H2 7456   0.227   2.205   5.911
 2505TIP3   OH2 7457   4.561   0.699   1.459
 2505TIP3    H1 7458   4.626   0.693   1.390
 2505TIP3    H2 7459   4.531   0.790   1.456
 2506TIP3   OH2 7460   1.482   4.081   3.049
 2506TIP3    H1 7461   1.437   4.165   3.057
 2506TIP3    H2 7462   1.574   4.104   3.039
 2507TIP3   OH2 7463   1.242   4.791   3.298
 2507TIP3    H1 7464   1.302   4.788   3.224
 2507TIP3    H2 7465   1.244   4.702   3.334
 2508TIP3   OH2 7466   2.754   5.354   6.322
 2508TIP3    H1 7467   2.678   5.400   6.356
 2508TIP3    H2 7468   2.819   5.361   6.391
 2509TIP3   OH2 7469   4.052   2.010   2.193
 2509TIP3    H1 7470   3.984   1.949   2.223
 2509TIP3    H2 7471   4.008   2.064   2.127
 2510TIP3   OH2 7472   2.052   1.833   3.155
 2510TIP3    H1 7473   2.086   1.745   3.138
 2510TIP3    H2 7474   1.974   1.839   3.100
 2511TIP3   OH2 7475   1.968   2.480   3.718
 2511TIP3    H1 7476   2.041   2.486   3.779
 2511TIP3    H2 7477   1.903   2.543   3.750
 2512TIP3   OH2 7478   6.835   5.751   1.802
 2512TIP3    H1 7479   6.831   5.657   1.781
 2512TIP3    H2 7480   6.927   5.768   1.820
 2513TIP3   OH2 7481   8.099   5.286   3.274
 2513TIP3    H1 7482   8.091   5.247   3.360
 2513TIP3    H2 7483   8.034   5.357   3.274
 2514TIP3   OH2 7484   7.869   0.318   4.507
 2514TIP3    H1 7485   7.959   0.290   4.495
 2514TIP3    H2 7486   7.841   0.274   4.588
 2515TIP3   OH2 7487   2.289   1.832   4.665
 2515TIP3    H1 7488   2.334   1.814   4.582
 2515TIP3    H2 7489   2.207   1.875   4.639
 2516TIP3   OH2 7490   3.724   3.243   2.419
 2516TIP3    H1 7491   3.744   3.329   2.383
 2516TIP3    H2 7492   3.749   3.248   2.511
 2517TIP3   OH2 7493   0.442   5.509   3.844
 2517TIP3    H1 7494   0.504   5.581   3.858
 2517TIP3    H2 7495   0.397   5.500   3.928
 2518TIP3   OH2 7496   6.341   2.236   6.495
 2518TIP3    H1 7497   6.387   2.153   6.483
 2518TIP3    H2 7498   6.251   2.211   6.517
 2519TIP3   OH2 7499   5.154   1.446   5.647
 2519TIP3    H1 7500   5.222   1.389   5.611
 2519TIP3    H2 7501   5.148   1.518   5.584
 2520TIP3   OH2 7502   4.809   4.554   2.368
 2520TIP3    H1 7503   4.879   4.618   2.356
 2520TIP3    H2 7504   4.801   4.512   2.282
 2521TIP3   OH2 7505   1.123   6.142   2.592
 2521TIP3    H1 7506   1.051   6.187   2.636
 2521TIP3    H2 7507   1.081   6.082   2.531
 2522TIP3   OH2 7508   1.814   7.318   2.089
 2522TIP3    H1 7509   1.844   7.285   2.004
 2522TIP3    H2 7510   1.802   7.240   2.142
 2523TIP3   OH2 7511   5.229   7.384   2.189
 2523TIP3    H1 7512   5.276   7.352   2.112
 2523TIP3    H2 7513   5.264   7.332   2.261
 2524TIP3   OH2 7514   0.405   1.052   0.445
 2524TIP3    H1 7515   0.414   1.005   0.363
 2524TIP3    H2 7516   0.489   1.041   0.489
 2525TIP3   OH2 7517   0.984   2.858   6.093
 2525TIP3    H1 7518   1.027   2.939   6.067
 2525TIP3    H2 7519   0.952   2.821   6.011
 2526TIP3   OH2 7520   6.879   6.806   1.847
 2526TIP3    H1 7521   6.932   6.768   1.917
 2526TIP3    H2 7522   6.933   6.798   1.768
 2527TIP3   OH2 7523   3.263   1.988   6.026
 2527TIP3    H1 7524   3.342   2.027   6.064
 2527TIP3    H2 7525   3.258   2.027   5.938
 2528TIP3   OH2 7526   1.508   4.931   5.035
 2528TIP3    H1 7527   1.421   4.968   5.048
 2528TIP3    H2 7528   1.531   4.893   5.120
 2529TIP3   OH2 7529   4.863   4.491   2.073
 2529TIP3    H1 7530   4.834   4.507   1.983
 2529TIP3    H2 7531   4.954   4.522   2.074
 2530TIP3   OH2 7532   0.882   4.521   0.491
 2530TIP3    H1 7533   0.922   4.569   0.564
 2530TIP3    H2 7534   0.957   4.483   0.444
 2531TIP3   OH2 7535   4.225   2.014   0.672
 2531TIP3    H1 7536   4.312   2.021   0.711
 2531TIP3    H2 7537   4.197   2.105   0.658
 2532TIP3   OH2 7538   3.055   4.771   3.767
 2532TIP3    H1 7539   3.078   4.719   3.843
 2532TIP3    H2 7540   3.094   4.857   3.783
 2533TIP3   OH2 7541   0.618   4.649   1.851
 2533TIP3    H1 7542   0.655   4.716   1.792
 2533TIP3    H2 7543   0.678   4.575   1.842
 2534TIP3   OH2 7544   0.102   3.280   0.560
 2534TIP3    H1 7545   0.197   3.295   0.552
 2534TIP3    H2 7546   0.093   3.225   0.637
 2535TIP3   OH2 7547   6.403   6.687   1.911
 2535TIP3    H1 7548   6.435   6.622   1.849
 2535TIP3    H2 7549   6.319   6.716   1.875
 2536TIP3   OH2 7550   7.386   2.713   1.490
 2536TIP3    H1 7551   7.342   2.657   1.426
 2536TIP3    H2 7552   7.330   2.709   1.568
 2537TIP3   OH2 7553   3.891   0.293   6.654
 2537TIP3    H1 7554   3.951   0.309   6.580
 2537TIP3    H2 7555   3.892   0.197   6.664
 2538TIP3   OH2 7556   1.698   7.783   5.998
 2538TIP3    H1 7557   1.745   7.781   5.914
 2538TIP3    H2 7558   1.631   7.716   5.989
 2539TIP3   OH2 7559   0.255   1.124   1.320
 2539TIP3    H1 7560   0.206   1.042   1.312
 2539TIP3    H2 7561   0.342   1.102   1.286
 2540TIP3   OH2 7562   1.033   3.839   3.864
 2540TIP3    H1 7563   0.950   3.856   3.907
 2540TIP3    H2 7564   1.022   3.874   3.775
 2541TIP3   OH2 7565   1.789   5.279   4.394
 2541TIP3    H1 7566   1.815   5.233   4.474
 2541TIP3    H2 7567   1.867   5.276   4.338
 2542TIP3   OH2 7568   0.392   1.502   0.807
 2542TIP3    H1 7569   0.316   1.493   0.864
 2542TIP3    H2 7570   0.360   1.554   0.733
 2543TIP3   OH2 7571   6.165   1.029   6.094
 2543TIP3    H1 7572   6.116   0.991   6.167
 2543TIP3    H2 7573   6.223   1.093   6.135
 2544TIP3   OH2 7574   2.559   1.991   2.645
 2544TIP3    H1 7575   2.487   2.016   2.586
 2544TIP3    H2 7576   2.525   1.914   2.691
 2545TIP3   OH2 7577   3.276   1.922   2.590
 2545TIP3    H1 7578   3.250   1.882   2.506
 2545TIP3    H2 7579   3.298   1.847   2.645
 2546TIP3   OH2 7580   7.546   1.567   5.789
 2546TIP3    H1 7581   7.506   1.558   5.876
 2546TIP3    H2 7582   7.637   1.590   5.808
 2547TIP3   OH2 7583   6.908   4.951   2.492
 2547TIP3    H1 7584   6.819   4.949   2.457
 2547TIP3    H2 7585   6.897   4.935   2.586
 2548TIP3   OH2 7586   1.220   4.676   4.551
 2548TIP3    H1 7587   1.270   4.598   4.529
 2548TIP3    H2 7588   1.275   4.749   4.521
 2549TIP3   OH2 7589   3.677   4.682   0.374
 2549TIP3    H1 7590   3.717   4.634   0.446
 2549TIP3    H2 7591   3.585   4.652   0.374
 2550TIP3   OH2 7592   4.120   3.036   5.725
 2550TIP3    H1 7593   4.038   2.994   5.753
 2550TIP3    H2 7594   4.131   3.008   5.634
 2551TIP3   OH2 7595   7.310   4.833   5.343
 2551TIP3    H1 7596   7.282   4.915   5.383
 2551TIP3    H2 7597   7.405   4.835   5.347
 2552TIP3   OH2 7598   5.363   7.095   1.321
 2552TIP3    H1 7599   5.415   7.106   1.401
 2552TIP3    H2 7600   5.421   7.049   1.261
 2553TIP3   OH2 7601   6.412   6.118   4.973
 2553TIP3    H1 7602   6.364   6.174   4.911
 2553TIP3    H2 7603   6.398   6.029   4.941
 2554TIP3   OH2 7604   1.231   4.813   5.953
 2554TIP3    H1 7605   1.244   4.797   6.046
 2554TIP3    H2 7606   1.168   4.746   5.926
 2555TIP3   OH2 7607   6.758   0.525   5.725
 2555TIP3    H1 7608   6.725   0.511   5.813
 2555TIP3    H2 7609   6.696   0.477   5.669
 2556TIP3   OH2 7610   2.873   7.187   4.224
 2556TIP3    H1 7611   2.832   7.232   4.297
 2556TIP3    H2 7612   2.801   7.160   4.168
 2557TIP3   OH2 7613   5.367   5.787   4.779
 2557TIP3    H1 7614   5.318   5.820   4.855
 2557TIP3    H2 7615   5.459   5.802   4.800
 2558TIP3   OH2 7616   3.163   3.570   0.249
 2558TIP3    H1 7617   3.101   3.612   0.190
 2558TIP3    H2 7618   3.115   3.562   0.332
 2559TIP3   OH2 7619   1.750   2.964   2.452
 2559TIP3    H1 7620   1.784   2.928   2.370
 2559TIP3    H2 7621   1.812   3.033   2.475
 2560TIP3   OH2 7622   5.598   2.819   3.048
 2560TIP3    H1 7623   5.637   2.759   2.985
 2560TIP3    H2 7624   5.666   2.834   3.114
 2561TIP3   OH2 7625   7.232   5.465   3.355
 2561TIP3    H1 7626   7.267   5.502   3.435
 2561TIP3    H2 7627   7.309   5.447   3.301
 2562TIP3   OH2 7628   2.489   7.030   0.660
 2562TIP3    H1 7629   2.433   6.965   0.617
 2562TIP3    H2 7630   2.527   7.081   0.588
 2563TIP3   OH2 7631   2.401   1.634   5.116
 2563TIP3    H1 7632   2.457   1.710   5.100
 2563TIP3    H2 7633   2.342   1.631   5.041
 2564TIP3   OH2 7634   5.893   3.892   2.011
 2564TIP3    H1 7635   5.929   3.881   2.099
 2564TIP3    H2 7636   5.894   3.805   1.972
 2565TIP3   OH2 7637   6.450   6.747   3.102
 2565TIP3    H1 7638   6.479   6.672   3.050
 2565TIP3    H2 7639   6.383   6.712   3.160
 2566TIP3   OH2 7640   7.633   2.158   3.396
 2566TIP3    H1 7641   7.669   2.196   3.316
 2566TIP3    H2 7642   7.663   2.067   3.395
 2567TIP3   OH2 7643   3.560   0.982   2.849
 2567TIP3    H1 7644   3.522   0.969   2.936
 2567TIP3    H2 7645   3.571   1.077   2.842
 2568TIP3   OH2 7646   8.058   0.884   4.237
 2568TIP3    H1 7647   8.008   0.803   4.222
 2568TIP3    H2 7648   8.099   0.870   4.322
 2569TIP3   OH2 7649   6.123   2.266   0.693
 2569TIP3    H1 7650   6.069   2.313   0.629
 2569TIP3    H2 7651   6.153   2.333   0.754
 2570TIP3   OH2 7652   8.132   3.472   3.201
 2570TIP3    H1 7653   8.207   3.416   3.182
 2570TIP3    H2 7654   8.161   3.527   3.274
 2571TIP3   OH2 7655   6.602   1.053   4.470
 2571TIP3    H1 7656   6.549   0.976   4.492
 2571TIP3    H2 7657   6.692   1.020   4.470
 2572TIP3   OH2 7658   4.915   4.271   6.079
 2572TIP3    H1 7659   4.960   4.187   6.091
 2572TIP3    H2 7660   4.858   4.279   6.155
 2573TIP3   OH2 7661   0.696   0.838   6.451
 2573TIP3    H1 7662   0.631   0.794   6.505
 2573TIP3    H2 7663   0.695   0.789   6.368
 2574TIP3   OH2 7664   4.101   1.369   6.691
 2574TIP3    H1 7665   4.174   1.361   6.754
 2574TIP3    H2 7666   4.028   1.402   6.744
 2575TIP3   OH2 7667   3.349   2.345   0.889
 2575TIP3    H1 7668   3.284   2.342   0.819
 2575TIP3    H2 7669   3.422   2.395   0.852
 2576TIP3   OH2 7670   4.523   4.618   4.279
 2576TIP3    H1 7671   4.550   4.569   4.357
 2576TIP3    H2 7672   4.605   4.655   4.245
 2577TIP3   OH2 7673   4.744   6.072   5.069
 2577TIP3    H1 7674   4.793   5.996   5.038
 2577TIP3    H2 7675   4.792   6.148   5.035
 2578TIP3   OH2 7676   4.786   1.136   4.789
 2578TIP3    H1 7677   4.787   1.046   4.756
 2578TIP3    H2 7678   4.789   1.126   4.884
 2579TIP3   OH2 7679   1.569   2.886   3.270
 2579TIP3    H1 7680   1.621   2.867   3.192
 2579TIP3    H2 7681   1.478   2.887   3.239
 2580TIP3   OH2 7682   4.827   1.218   3.301
 2580TIP3    H1 7683   4.782   1.144   3.262
 2580TIP3    H2 7684   4.862   1.185   3.383
 2581TIP3   OH2 7685   2.620   0.199   2.685
 2581TIP3    H1 7686   2.530   0.224   2.702
 2581TIP3    H2 7687   2.633   0.120   2.738
 2582TIP3   OH2 7688   7.357   3.646   0.873
 2582TIP3    H1 7689   7.413   3.568   0.872
 2582TIP3    H2 7690   7.345   3.668   0.781
 2583TIP3   OH2 7691   2.364   6.272   2.105
 2583TIP3    H1 7692   2.429   6.255   2.172
 2583TIP3    H2 7693   2.405   6.336   2.047
 2584TIP3   OH2 7694   1.822   0.890   3.016
 2584TIP3    H1 7695   1.879   0.952   3.062
 2584TIP3    H2 7696   1.848   0.804   3.049
 2585TIP3   OH2 7697   8.256   5.745   2.337
 2585TIP3    H1 7698   8.165   5.728   2.312
 2585TIP3    H2 7699   8.262   5.718   2.429
 2586TIP3   OH2 7700   5.746   2.038   2.140
 2586TIP3    H1 7701   5.759   1.956   2.188
 2586TIP3    H2 7702   5.823   2.046   2.085
 2587TIP3   OH2 7703   1.519   3.083   2.305
 2587TIP3    H1 7704   1.593   3.117   2.356
 2587TIP3    H2 7705   1.533   3.117   2.217
 2588TIP3   OH2 7706   0.644   5.948   4.592
 2588TIP3    H1 7707   0.638   5.889   4.667
 2588TIP3    H2 7708   0.731   5.931   4.555
 2589TIP3   OH2 7709   1.950   1.403   2.225
 2589TIP3    H1 7710   1.938   1.326   2.169
 2589TIP3    H2 7711   1.881   1.396   2.290
 2590TIP3   OH2 7712   7.867   5.095   6.373
 2590TIP3    H1 7713   7.805   5.023   6.386
 2590TIP3    H2 7714   7.946   5.054   6.339
 2591TIP3   OH2 7715   4.519   3.275   5.345
 2591TIP3    H1 7716   4.611   3.303   5.349
 2591TIP3    H2 7717   4.481   3.308   5.427
 2592TIP3   OH2 7718   5.953   3.556   2.349
 2592TIP3    H1 7719   5.911   3.476   2.317
 2592TIP3    H2 7720   5.938   3.555   2.443
 2593TIP3   OH2 7721   1.211   7.340   1.998
 2593TIP3    H1 7722   1.294   7.377   2.029
 2593TIP3    H2 7723   1.149   7.360   2.068
 2594TIP3   OH2 7724   0.271   4.733   3.160
 2594TIP3    H1 7725   0.203   4.742   3.094
 2594TIP3    H2 7726   0.345   4.785   3.126
 2595TIP3   OH2 7727   1.546   6.141   3.083
 2595TIP3    H1 7728   1.546   6.214   3.020
 2595TIP3    H2 7729   1.542   6.183   3.169
 2596TIP3   OH2 7730   1.366   6.409   5.204
 2596TIP3    H1 7731   1.396   6.366   5.284
 2596TIP3    H2 7732   1.423   6.375   5.136
 2597TIP3   OH2 7733   4.551   3.276   3.127
 2597TIP3    H1 7734   4.520   3.356   3.083
 2597TIP3    H2 7735   4.580   3.306   3.213
 2598TIP3   OH2 7736   1.610   3.468   6.237
 2598TIP3    H1 7737   1.520   3.492   6.214
 2598TIP3    H2 7738   1.656   3.551   6.247
 2599TIP3   OH2 7739   2.604   1.818   5.067
 2599TIP3    H1 7740   2.651   1.843   5.147
 2599TIP3    H2 7741   2.667   1.832   4.996
 2600TIP3   OH2 7742   6.149   2.393   2.537
 2600TIP3    H1 7743   6.081   2.372   2.472
 2600TIP3    H2 7744   6.136   2.329   2.607
 2601TIP3   OH2 7745   3.924   5.406   0.204
 2601TIP3    H1 7746   3.981   5.470   0.246
 2601TIP3    H2 7747   3.838   5.449   0.200
 2602TIP3   OH2 7748   6.399   2.378   1.631
 2602TIP3    H1 7749   6.448   2.312   1.583
 2602TIP3    H2 7750   6.321   2.394   1.578
 2603TIP3   OH2 7751   0.397   2.212   4.115
 2603TIP3    H1 7752   0.347   2.248   4.042
 2603TIP3    H2 7753   0.441   2.287   4.153
 2604TIP3   OH2 7754   7.803   5.465   0.123
 2604TIP3    H1 7755   7.811   5.560   0.134
 2604TIP3    H2 7756   7.804   5.452   0.028
 2605TIP3   OH2 7757   1.302   5.602   3.312
 2605TIP3    H1 7758   1.299   5.506   3.305
 2605TIP3    H2 7759   1.288   5.619   3.405
 2606TIP3   OH2 7760   4.631   4.815   5.527
 2606TIP3    H1 7761   4.667   4.777   5.607
 2606TIP3    H2 7762   4.557   4.758   5.504
 2607TIP3   OH2 7763   7.703   4.927   0.528
 2607TIP3    H1 7764   7.633   4.937   0.593
 2607TIP3    H2 7765   7.783   4.920   0.580
 2608TIP3   OH2 7766   3.341   4.120   3.649
 2608TIP3    H1 7767   3.319   4.183   3.717
 2608TIP3    H2 7768   3.390   4.170   3.585
 2609TIP3   OH2 7769   6.073   0.398   1.161
 2609TIP3    H1 7770   6.057   0.481   1.205
 2609TIP3    H2 7771   5.986   0.360   1.150
 2610TIP3   OH2 7772   4.633   5.398   1.844
 2610TIP3    H1 7773   4.588   5.347   1.777
 2610TIP3    H2 7774   4.719   5.358   1.851
 2611TIP3   OH2 7775   3.312   5.251   1.668
 2611TIP3    H1 7776   3.345   5.161   1.675
 2611TIP3    H2 7777   3.376   5.303   1.717
 2612TIP3   OH2 7778   6.103   3.929   4.920
 2612TIP3    H1 7779   6.039   3.989   4.958
 2612TIP3    H2 7780   6.147   3.889   4.995
 2613TIP3   OH2 7781   0.272   5.653   3.048
 2613TIP3    H1 7782   0.182   5.619   3.048
 2613TIP3    H2 7783   0.320   5.593   3.104
 2614TIP3   OH2 7784   0.704   1.325   2.837
 2614TIP3    H1 7785   0.786   1.294   2.798
 2614TIP3    H2 7786   0.669   1.248   2.883
 2615TIP3   OH2 7787   5.292   7.661   2.169
 2615TIP3    H1 7788   5.228   7.713   2.218
 2615TIP3    H2 7789   5.268   7.570   2.188
 2616TIP3   OH2 7790   7.943   1.845   3.562
 2616TIP3    H1 7791   7.923   1.908   3.631
 2616TIP3    H2 7792   7.921   1.760   3.600
 2617TIP3   OH2 7793   1.016   7.520   1.165
 2617TIP3    H1 7794   0.963   7.440   1.165
 2617TIP3    H2 7795   1.001   7.559   1.251
 2618TIP3   OH2 7796   8.292   3.366   5.225
 2618TIP3    H1 7797   8.232   3.360   5.300
 2618TIP3    H2 7798   8.334   3.451   5.234
 2619TIP3   OH2 7799   5.580   7.218   0.947
 2619TIP3    H1 7800   5.610   7.297   0.989
 2619TIP3    H2 7801   5.490   7.238   0.920
 2620TIP3   OH2 7802   0.441   2.983   4.958
 2620TIP3    H1 7803   0.400   2.980   4.871
 2620TIP3    H2 7804   0.534   2.995   4.940
 2621TIP3   OH2 7805   4.598   1.559   2.826
 2621TIP3    H1 7806   4.505   1.540   2.838
 2621TIP3    H2 7807   4.628   1.492   2.765
 2622TIP3   OH2 7808   5.263   4.347   4.093
 2622TIP3    H1 7809   5.273   4.421   4.152
 2622TIP3    H2 7810   5.280   4.270   4.148
 2623TIP3   OH2 7811   4.871   0.034   0.786
 2623TIP3    H1 7812   4.858   0.024   0.692
 2623TIP3    H2 7813   4.855   0.126   0.804
 2624TIP3   OH2 7814   5.596   4.754   1.321
 2624TIP3    H1 7815   5.664   4.690   1.302
 2624TIP3    H2 7816   5.520   4.724   1.269
 2625TIP3   OH2 7817   1.922   4.347   2.046
 2625TIP3    H1 7818   1.961   4.304   2.122
 2625TIP3    H2 7819   1.979   4.421   2.027
 2626TIP3   OH2 7820   1.802   5.397   0.193
 2626TIP3    H1 7821   1.868   5.464   0.209
 2626TIP3    H2 7822   1.847   5.331   0.139
 2627TIP3   OH2 7823   5.687   3.833   1.294
 2627TIP3    H1 7824   5.762   3.851   1.351
 2627TIP3    H2 7825   5.614   3.878   1.336
 2628TIP3   OH2 7826   1.948   0.841   3.383
 2628TIP3    H1 7827   1.898   0.919   3.406
 2628TIP3    H2 7828   1.940   0.784   3.460
 2629TIP3   OH2 7829   3.794   6.167   1.510
 2629TIP3    H1 7830   3.848   6.243   1.533
 2629TIP3    H2 7831   3.741   6.197   1.436
 2630TIP3   OH2 7832   6.798   0.166   3.124
 2630TIP3    H1 7833   6.788   0.170   3.220
 2630TIP3    H2 7834   6.783   0.256   3.095
 2631TIP3   OH2 7835   3.720   5.754   3.033
 2631TIP3    H1 7836   3.634   5.719   3.056
 2631TIP3    H2 7837   3.778   5.678   3.036
 2632TIP3   OH2 7838   4.486   6.326   5.648
 2632TIP3    H1 7839   4.501   6.417   5.620
 2632TIP3    H2 7840   4.426   6.290   5.583
 2633TIP3   OH2 7841   5.980   3.413   6.559
 2633TIP3    H1 7842   5.924   3.449   6.627
 2633TIP3    H2 7843   5.919   3.368   6.499
 2634TIP3   OH2 7844   1.676   5.175   1.303
 2634TIP3    H1 7845   1.599   5.181   1.247
 2634TIP3    H2 7846   1.665   5.093   1.351
 2635TIP3   OH2 7847   8.106   4.560   4.503
 2635TIP3    H1 7848   8.024   4.543   4.548
 2635TIP3    H2 7849   8.139   4.641   4.543
 2636TIP3   OH2 7850   4.017   5.524   5.698
 2636TIP3    H1 7851   4.093   5.578   5.721
 2636TIP3    H2 7852   3.961   5.527   5.776
 2637TIP3   OH2 7853   4.931   5.721   1.669
 2637TIP3    H1 7854   4.841   5.753   1.663
 2637TIP3    H2 7855   4.923   5.631   1.701
 2638TIP3   OH2 7856   4.083   1.124   1.252
 2638TIP3    H1 7857   4.069   1.219   1.249
 2638TIP3    H2 7858   3.996   1.087   1.239
 2639TIP3   OH2 7859   4.565   1.087   3.806
 2639TIP3    H1 7860   4.521   1.009   3.773
 2639TIP3    H2 7861   4.496   1.138   3.849
 2640TIP3   OH2 7862   1.875   0.182   1.920
 2640TIP3    H1 7863   1.909   0.127   1.849
 2640TIP3    H2 7864   1.839   0.119   1.983
 2641TIP3   OH2 7865   5.054   4.731   6.296
 2641TIP3    H1 7866   5.032   4.662   6.234
 2641TIP3    H2 7867   5.114   4.789   6.249
 2642TIP3   OH2 7868   6.472   3.300   2.074
 2642TIP3    H1 7869   6.566   3.295   2.054
 2642TIP3    H2 7870   6.439   3.369   2.016
 2643TIP3   OH2 7871   0.722   1.330   5.331
 2643TIP3    H1 7872   0.766   1.299   5.410
 2643TIP3    H2 7873   0.642   1.372   5.362
 2644TIP3   OH2 7874   7.253   1.745   5.024
 2644TIP3    H1 7875   7.199   1.779   4.953
 2644TIP3    H2 7876   7.328   1.705   4.980
 2645TIP3   OH2 7877   3.087   1.312   5.685
 2645TIP3    H1 7878   3.077   1.375   5.614
 2645TIP3    H2 7879   3.097   1.366   5.763
 2646TIP3   OH2 7880   6.716   2.323   4.555
 2646TIP3    H1 7881   6.631   2.300   4.519
 2646TIP3    H2 7882   6.779   2.267   4.509
 2647TIP3   OH2 7883   3.717   3.412   6.150
 2647TIP3    H1 7884   3.678   3.325   6.142
 2647TIP3    H2 7885   3.655   3.462   6.202
 2648TIP3   OH2 7886   0.833   4.971   5.154
 2648TIP3    H1 7887   0.750   4.992   5.111
 2648TIP3    H2 7888   0.856   4.884   5.122
 2649TIP3   OH2 7889   6.637   5.192   0.214
 2649TIP3    H1 7890   6.640   5.287   0.204
 2649TIP3    H2 7891   6.674   5.159   0.132
 2650TIP3   OH2 7892   1.668   6.291   1.362
 2650TIP3    H1 7893   1.707   6.352   1.425
 2650TIP3    H2 7894   1.695   6.204   1.392
 2651TIP3   OH2 7895   4.769   3.369   5.416
 2651TIP3    H1 7896   4.777   3.461   5.389
 2651TIP3    H2 7897   4.856   3.332   5.401
 2652TIP3   OH2 7898   1.413   1.738   5.516
 2652TIP3    H1 7899   1.330   1.774   5.483
 2652TIP3    H2 7900   1.390   1.650   5.545
 2653TIP3   OH2 7901   5.430   1.421   3.577
 2653TIP3    H1 7902   5.350   1.370   3.562
 2653TIP3    H2 7903   5.424   1.449   3.668
 2654TIP3   OH2 7904   7.153   4.113   4.952
 2654TIP3    H1 7905   7.189   4.198   4.928
 2654TIP3    H2 7906   7.064   4.132   4.982
 2655TIP3   OH2 7907   3.243   7.598   0.903
 2655TIP3    H1 7908   3.263   7.689   0.881
 2655TIP3    H2 7909   3.314   7.547   0.864
 2656TIP3   OH2 7910   7.138   0.017   2.085
 2656TIP3    H1 7911   7.108   0.080   2.151
 2656TIP3    H2 7912   7.059  -0.026   2.055
 2657TIP3   OH2 7913   4.571   3.229   6.573
 2657TIP3    H1 7914   4.570   3.320   6.603
 2657TIP3    H2 7915   4.630   3.185   6.634
 2658TIP3   OH2 7916   0.420   2.574   1.831
 2658TIP3    H1 7917   0.395   2.624   1.754
 2658TIP3    H2 7918   0.441   2.640   1.897
 2659TIP3   OH2 7919   4.834   2.990   4.450
 2659TIP3    H1 7920   4.803   2.910   4.406
 2659TIP3    H2 7921   4.825   2.971   4.544
 2660TIP3   OH2 7922   4.011   3.935   3.683
 2660TIP3    H1 7923   4.087   3.893   3.644
 2660TIP3    H2 7924   4.022   3.923   3.777
 2661TIP3   OH2 7925   0.407   6.328   2.240
 2661TIP3    H1 7926   0.324   6.296   2.276
 2661TIP3    H2 7927   0.463   6.251   2.234
 2662TIP3   OH2 7928   5.545   7.232   1.532
 2662TIP3    H1 7929   5.581   7.301   1.476
 2662TIP3    H2 7930   5.614   7.215   1.596
 2663TIP3   OH2 7931   4.937   0.937   2.306
 2663TIP3    H1 7932   4.958   0.912   2.396
 2663TIP3    H2 7933   4.844   0.960   2.309
 2664TIP3   OH2 7934   6.005   1.411   4.845
 2664TIP3    H1 7935   6.076   1.382   4.902
 2664TIP3    H2 7936   6.010   1.354   4.768
 2665TIP3   OH2 7937   0.635   5.894   1.832
 2665TIP3    H1 7938   0.691   5.828   1.789
 2665TIP3    H2 7939   0.639   5.970   1.774
 2666TIP3   OH2 7940   7.364   1.813   0.950
 2666TIP3    H1 7941   7.270   1.829   0.958
 2666TIP3    H2 7942   7.381   1.743   1.013
 2667TIP3   OH2 7943   4.949   6.780   6.683
 2667TIP3    H1 7944   5.032   6.737   6.703
 2667TIP3    H2 7945   4.884   6.711   6.692
 2668TIP3   OH2 7946   6.757   1.771   1.983
 2668TIP3    H1 7947   6.830   1.713   2.002
 2668TIP3    H2 7948   6.795   1.858   1.978
 2669TIP3   OH2 7949   7.338   3.746   6.376
 2669TIP3    H1 7950   7.330   3.829   6.328
 2669TIP3    H2 7951   7.408   3.699   6.331
 2670TIP3   OH2 7952   4.923   0.191   2.724
 2670TIP3    H1 7953   4.927   0.099   2.701
 2670TIP3    H2 7954   4.863   0.195   2.799
 2671TIP3   OH2 7955   7.884   0.185   1.055
 2671TIP3    H1 7956   7.831   0.117   1.097
 2671TIP3    H2 7957   7.844   0.267   1.083
 2672TIP3   OH2 7958   2.252   4.379   4.855
 2672TIP3    H1 7959   2.205   4.445   4.805
 2672TIP3    H2 7960   2.319   4.346   4.795
 2673TIP3   OH2 7961   0.918   1.554   4.892
 2673TIP3    H1 7962   0.975   1.590   4.961
 2673TIP3    H2 7963   0.979   1.507   4.834
 2674TIP3   OH2 7964   3.105   4.771   2.098
 2674TIP3    H1 7965   3.160   4.716   2.042
 2674TIP3    H2 7966   3.082   4.845   2.042
 2675TIP3   OH2 7967   7.334   6.457   0.560
 2675TIP3    H1 7968   7.314   6.375   0.514
 2675TIP3    H2 7969   7.418   6.485   0.524
 2676TIP3   OH2 7970   0.912   2.533   4.176
 2676TIP3    H1 7971   0.952   2.616   4.151
 2676TIP3    H2 7972   0.825   2.557   4.209
 2677TIP3   OH2 7973   2.613   1.435   3.218
 2677TIP3    H1 7974   2.679   1.387   3.169
 2677TIP3    H2 7975   2.662   1.488   3.281
 2678TIP3   OH2 7976   4.538   1.482   0.583
 2678TIP3    H1 7977   4.481   1.554   0.611
 2678TIP3    H2 7978   4.561   1.504   0.493
 2679TIP3   OH2 7979   3.085   7.694   4.887
 2679TIP3    H1 7980   3.169   7.738   4.902
 2679TIP3    H2 7981   3.098   7.606   4.922
 2680TIP3   OH2 7982   4.053   5.664   4.488
 2680TIP3    H1 7983   4.126   5.688   4.545
 2680TIP3    H2 7984   4.088   5.595   4.432
 2681TIP3   OH2 7985   4.981   2.816   0.038
 2681TIP3    H1 7986   4.892   2.826   0.072
 2681TIP3    H2 7987   4.996   2.721   0.038
 2682TIP3   OH2 7988   1.472   3.028   4.508
 2682TIP3    H1 7989   1.458   2.939   4.540
 2682TIP3    H2 7990   1.385   3.067   4.505
 2683TIP3   OH2 7991   1.287   2.923   3.883
 2683TIP3    H1 7992   1.341   2.993   3.846
 2683TIP3    H2 7993   1.324   2.843   3.845
 2684TIP3   OH2 7994   0.265   2.125   2.600
 2684TIP3    H1 7995   0.178   2.104   2.567
 2684TIP3    H2 7996   0.270   2.078   2.684
 2685TIP3   OH2 7997   1.957   7.009   6.590
 2685TIP3    H1 7998   2.050   6.988   6.580
 2685TIP3    H2 7999   1.954   7.074   6.660
 2686TIP3   OH2 8000   4.011   2.286   0.701
 2686TIP3    H1 8001   4.061   2.293   0.620
 2686TIP3    H2 8002   4.005   2.376   0.733
 2687TIP3   OH2 8003   4.844   0.031   5.760
 2687TIP3    H1 8004   4.840  -0.004   5.849
 2687TIP3    H2 8005   4.935   0.018   5.733
 2688TIP3   OH2 8006   3.123   6.801   3.695
 2688TIP3    H1 8007   3.105   6.872   3.634
 2688TIP3    H2 8008   3.058   6.812   3.765
 2689TIP3   OH2 8009   4.466   2.775   0.721
 2689TIP3    H1 8010   4.408   2.774   0.797
 2689TIP3    H2 8011   4.552   2.755   0.757
 2690TIP3   OH2 8012   5.834   7.518   3.224
 2690TIP3    H1 8013   5.923   7.485   3.237
 2690TIP3    H2 8014   5.792   7.507   3.309
 2691TIP3   OH2 8015   5.329   1.339   1.550
 2691TIP3    H1 8016   5.287   1.341   1.464
 2691TIP3    H2 8017   5.397   1.272   1.542
 2692TIP3   OH2 8018   4.641   6.273   1.669
 2692TIP3    H1 8019   4.669   6.214   1.739
 2692TIP3    H2 8020   4.686   6.356   1.689
 2693TIP3   OH2 8021   0.168   4.045   5.703
 2693TIP3    H1 8022   0.252   4.005   5.727
 2693TIP3    H2 8023   0.166   4.041   5.608
 2694TIP3   OH2 8024   1.349   7.325   3.162
 2694TIP3    H1 8025   1.281   7.307   3.096
 2694TIP3    H2 8026   1.428   7.285   3.126
 2695TIP3   OH2 8027   0.298   4.489   3.994
 2695TIP3    H1 8028   0.203   4.490   3.980
 2695TIP3    H2 8029   0.324   4.581   3.990
 2696TIP3   OH2 8030   1.459   7.028   4.057
 2696TIP3    H1 8031   1.455   6.966   4.131
 2696TIP3    H2 8032   1.520   7.096   4.086
 2697TIP3   OH2 8033   8.329   3.383   3.457
 2697TIP3    H1 8034   8.248   3.333   3.467
 2697TIP3    H2 8035   8.301   3.473   3.443
 2698TIP3   OH2 8036   0.951   0.683   2.957
 2698TIP3    H1 8037   0.959   0.660   2.864
 2698TIP3    H2 8038   0.863   0.654   2.981
 2699TIP3   OH2 8039   7.812   2.948   0.697
 2699TIP3    H1 8040   7.795   2.997   0.617
 2699TIP3    H2 8041   7.799   2.856   0.672
 2700TIP3   OH2 8042   3.916   3.723   5.436
 2700TIP3    H1 8043   3.845   3.727   5.500
 2700TIP3    H2 8044   3.995   3.711   5.488
 2701TIP3   OH2 8045   4.132   1.118   3.293
 2701TIP3    H1 8046   4.047   1.084   3.320
 2701TIP3    H2 8047   4.196   1.073   3.348
 2702TIP3   OH2 8048   0.368   5.686   4.290
 2702TIP3    H1 8049   0.307   5.746   4.333
 2702TIP3    H2 8050   0.315   5.640   4.225
 2703TIP3   OH2 8051   7.429   3.354   4.690
 2703TIP3    H1 8052   7.466   3.441   4.704
 2703TIP3    H2 8053   7.335   3.369   4.680
 2704TIP3   OH2 8054   3.854   3.766   4.543
 2704TIP3    H1 8055   3.921   3.721   4.596
 2704TIP3    H2 8056   3.781   3.779   4.603
 2705TIP3   OH2 8057   8.236   3.960   5.265
 2705TIP3    H1 8058   8.167   4.014   5.305
 2705TIP3    H2 8059   8.189   3.884   5.230
 2706TIP3   OH2 8060   7.043   0.248   4.383
 2706TIP3    H1 8061   7.091   0.167   4.401
 2706TIP3    H2 8062   6.986   0.260   4.459
 2707TIP3   OH2 8063   8.189   5.402   1.852
 2707TIP3    H1 8064   8.233   5.322   1.823
 2707TIP3    H2 8065   8.183   5.456   1.773
 2708TIP3   OH2 8066   4.951   0.896   2.635
 2708TIP3    H1 8067   4.869   0.859   2.669
 2708TIP3    H2 8068   4.944   0.990   2.652
 2709TIP3   OH2 8069   3.557   2.815   1.178
 2709TIP3    H1 8070   3.562   2.748   1.247
 2709TIP3    H2 8071   3.500   2.776   1.112
 2710TIP3   OH2 8072   0.947   6.177   6.125
 2710TIP3    H1 8073   0.942   6.095   6.076
 2710TIP3    H2 8074   1.018   6.226   6.083
 2711TIP3   OH2 8075   6.882   5.312   5.692
 2711TIP3    H1 8076   6.826   5.312   5.615
 2711TIP3    H2 8077   6.953   5.251   5.670
 2712TIP3   OH2 8078   8.085   6.599   3.117
 2712TIP3    H1 8079   8.147   6.532   3.147
 2712TIP3    H2 8080   8.079   6.660   3.190
 2713TIP3   OH2 8081   2.144   6.740   1.744
 2713TIP3    H1 8082   2.164   6.741   1.838
 2713TIP3    H2 8083   2.068   6.798   1.736
 2714TIP3   OH2 8084   4.764   4.966   4.556
 2714TIP3    H1 8085   4.795   5.057   4.557
 2714TIP3    H2 8086   4.843   4.914   4.541
 2715TIP3   OH2 8087   6.000   6.691   4.512
 2715TIP3    H1 8088   5.989   6.745   4.434
 2715TIP3    H2 8089   5.989   6.752   4.585
 2716TIP3   OH2 8090   3.611   0.868   2.047
 2716TIP3    H1 8091   3.598   0.944   1.991
 2716TIP3    H2 8092   3.532   0.816   2.036
 2717TIP3   OH2 8093   0.712   2.712   1.670
 2717TIP3    H1 8094   0.770   2.677   1.737
 2717TIP3    H2 8095   0.648   2.764   1.718
 2718TIP3   OH2 8096   1.731   5.911   3.173
 2718TIP3    H1 8097   1.670   5.866   3.232
 2718TIP3    H2 8098   1.688   5.994   3.152
 2719TIP3   OH2 8099   1.416   2.929   0.714
 2719TIP3    H1 8100   1.401   2.905   0.805
 2719TIP3    H2 8101   1.462   3.013   0.718
 2720TIP3   OH2 8102   7.522   5.469   3.249
 2720TIP3    H1 8103   7.581   5.394   3.260
 2720TIP3    H2 8104   7.571   5.543   3.285
 2721TIP3   OH2 8105   1.267   0.774   3.239
 2721TIP3    H1 8106   1.225   0.857   3.220
 2721TIP3    H2 8107   1.254   0.722   3.160
 2722TIP3   OH2 8108   4.467   1.297   5.356
 2722TIP3    H1 8109   4.402   1.361   5.385
 2722TIP3    H2 8110   4.473   1.310   5.261
 2723TIP3   OH2 8111   2.262   7.336   0.574
 2723TIP3    H1 8112   2.254   7.298   0.662
 2723TIP3    H2 8113   2.348   7.379   0.574
 2724TIP3   OH2 8114   6.958   1.388   2.401
 2724TIP3    H1 8115   6.889   1.453   2.390
 2724TIP3    H2 8116   7.013   1.397   2.323
 2725TIP3   OH2 8117   0.964   4.541   6.164
 2725TIP3    H1 8118   0.948   4.532   6.070
 2725TIP3    H2 8119   0.983   4.452   6.194
 2726TIP3   OH2 8120   0.804   0.709   0.373
 2726TIP3    H1 8121   0.849   0.656   0.438
 2726TIP3    H2 8122   0.873   0.760   0.331
 2727TIP3   OH2 8123   5.249   7.028   4.564
 2727TIP3    H1 8124   5.225   7.012   4.656
 2727TIP3    H2 8125   5.305   7.106   4.568
 2728TIP3   OH2 8126   1.476   3.554   1.315
 2728TIP3    H1 8127   1.536   3.565   1.389
 2728TIP3    H2 8128   1.393   3.528   1.355
 2729TIP3   OH2 8129   5.941   4.671   1.446
 2729TIP3    H1 8130   5.960   4.632   1.531
 2729TIP3    H2 8131   5.863   4.624   1.414
 2730TIP3   OH2 8132   8.236   7.069   0.512
 2730TIP3    H1 8133   8.184   7.074   0.432
 2730TIP3    H2 8134   8.178   7.101   0.581
 2731TIP3   OH2 8135   6.429   7.201   5.400
 2731TIP3    H1 8136   6.505   7.174   5.451
 2731TIP3    H2 8137   6.354   7.181   5.456
 2732TIP3   OH2 8138   5.903   0.160   2.081
 2732TIP3    H1 8139   5.969   0.126   2.020
 2732TIP3    H2 8140   5.866   0.082   2.121
 2733TIP3   OH2 8141   8.289   3.136   1.831
 2733TIP3    H1 8142   8.266   3.158   1.921
 2733TIP3    H2 8143   8.327   3.217   1.796
 2734TIP3   OH2 8144   4.895   3.500   4.894
 2734TIP3    H1 8145   4.859   3.444   4.963
 2734TIP3    H2 8146   4.840   3.483   4.818
 2735TIP3   OH2 8147   1.810   1.992   5.578
 2735TIP3    H1 8148   1.829   1.972   5.669
 2735TIP3    H2 8149   1.876   2.058   5.554
 2736TIP3   OH2 8150   5.441   3.976   3.469
 2736TIP3    H1 8151   5.362   3.945   3.513
 2736TIP3    H2 8152   5.470   3.902   3.415
 2737TIP3   OH2 8153   7.634   1.503   2.781
 2737TIP3    H1 8154   7.561   1.459   2.825
 2737TIP3    H2 8155   7.594   1.578   2.737
 2738TIP3   OH2 8156   2.619   6.966   4.593
 2738TIP3    H1 8157   2.661   6.927   4.516
 2738TIP3    H2 8158   2.541   7.009   4.557
 2739TIP3   OH2 8159   2.607   6.715   5.365
 2739TIP3    H1 8160   2.542   6.755   5.422
 2739TIP3    H2 8161   2.691   6.748   5.397
 2740TIP3   OH2 8162   7.001   2.520   3.808
 2740TIP3    H1 8163   6.998   2.452   3.876
 2740TIP3    H2 8164   7.092   2.519   3.778
 2741TIP3   OH2 8165   1.583   7.438   5.837
 2741TIP3    H1 8166   1.523   7.494   5.887
 2741TIP3    H2 8167   1.652   7.498   5.807
 2742TIP3   OH2 8168   7.532   6.479   2.461
 2742TIP3    H1 8169   7.603   6.420   2.488
 2742TIP3    H2 8170   7.542   6.555   2.519
 2743TIP3   OH2 8171   6.984   3.875   4.168
 2743TIP3    H1 8172   6.931   3.850   4.092
 2743TIP3    H2 8173   7.025   3.793   4.196
 2744TIP3   OH2 8174   4.019   4.769   3.281
 2744TIP3    H1 8175   4.006   4.766   3.376
 2744TIP3    H2 8176   4.014   4.678   3.253
 2745TIP3   OH2 8177   3.072   2.261   6.758
 2745TIP3    H1 8178   3.077   2.176   6.802
 2745TIP3    H2 8179   3.153   2.265   6.706
 2746TIP3   OH2 8180   5.422   2.869   3.695
 2746TIP3    H1 8181   5.340   2.878   3.744
 2746TIP3    H2 8182   5.452   2.780   3.715
 2747TIP3   OH2 8183   5.881   4.866   4.260
 2747TIP3    H1 8184   5.864   4.902   4.173
 2747TIP3    H2 8185   5.938   4.790   4.244
 2748TIP3   OH2 8186   0.946   5.626   5.448
 2748TIP3    H1 8187   0.973   5.700   5.394
 2748TIP3    H2 8188   1.019   5.564   5.442
 2749TIP3   OH2 8189   2.314   3.419   3.808
 2749TIP3    H1 8190   2.371   3.405   3.884
 2749TIP3    H2 8191   2.287   3.331   3.782
 2750TIP3   OH2 8192   0.621   0.340   4.209
 2750TIP3    H1 8193   0.583   0.252   4.210
 2750TIP3    H2 8194   0.618   0.368   4.300
 2751TIP3   OH2 8195   6.629   7.066   1.466
 2751TIP3    H1 8196   6.683   7.134   1.505
 2751TIP3    H2 8197   6.636   7.081   1.372
 2752TIP3   OH2 8198   0.673   5.777   4.858
 2752TIP3    H1 8199   0.768   5.770   4.843
 2752TIP3    H2 8200   0.664   5.849   4.920
 2753TIP3   OH2 8201   6.776   1.575   2.257
 2753TIP3    H1 8202   6.754   1.668   2.263
 2753TIP3    H2 8203   6.830   1.569   2.178
 2754TIP3   OH2 8204   6.342   3.782   0.542
 2754TIP3    H1 8205   6.422   3.827   0.569
 2754TIP3    H2 8206   6.272   3.833   0.583
 2755TIP3   OH2 8207   6.426   3.850   4.379
 2755TIP3    H1 8208   6.380   3.860   4.296
 2755TIP3    H2 8209   6.518   3.846   4.356
 2756TIP3   OH2 8210   5.272   5.194   0.272
 2756TIP3    H1 8211   5.217   5.139   0.215
 2756TIP3    H2 8212   5.359   5.191   0.231
 2757TIP3   OH2 8213   5.738   6.811   6.027
 2757TIP3    H1 8214   5.793   6.882   5.994
 2757TIP3    H2 8215   5.785   6.777   6.103
 2758TIP3   OH2 8216   2.876   5.319   5.283
 2758TIP3    H1 8217   2.908   5.335   5.372
 2758TIP3    H2 8218   2.948   5.272   5.241
 2759TIP3   OH2 8219   2.395   7.308   4.718
 2759TIP3    H1 8220   2.324   7.250   4.743
 2759TIP3    H2 8221   2.382   7.386   4.773
 2760TIP3   OH2 8222   4.668   1.426   3.208
 2760TIP3    H1 8223   4.723   1.371   3.263
 2760TIP3    H2 8224   4.615   1.364   3.157
 2761TIP3   OH2 8225   5.885   4.675   2.349
 2761TIP3    H1 8226   5.863   4.654   2.258
 2761TIP3    H2 8227   5.908   4.768   2.347
 2762TIP3   OH2 8228   3.334   6.315   1.197
 2762TIP3    H1 8229   3.337   6.355   1.284
 2762TIP3    H2 8230   3.416   6.266   1.191
 2763TIP3   OH2 8231   3.023   6.492   1.846
 2763TIP3    H1 8232   2.972   6.554   1.794
 2763TIP3    H2 8233   3.114   6.505   1.817
 2764TIP3   OH2 8234   3.151   0.074   3.146
 2764TIP3    H1 8235   3.217   0.143   3.144
 2764TIP3    H2 8236   3.168   0.027   3.228
 2765TIP3   OH2 8237   4.962   5.375   4.805
 2765TIP3    H1 8238   4.985   5.284   4.825
 2765TIP3    H2 8239   4.986   5.423   4.884
 2766TIP3   OH2 8240   6.128   4.176   5.611
 2766TIP3    H1 8241   6.075   4.163   5.690
 2766TIP3    H2 8242   6.218   4.183   5.642
 2767TIP3   OH2 8243   1.252   6.857   5.095
 2767TIP3    H1 8244   1.304   6.837   5.017
 2767TIP3    H2 8245   1.192   6.783   5.104
 2768TIP3   OH2 8246   4.025   7.375   3.651
 2768TIP3    H1 8247   3.981   7.294   3.676
 2768TIP3    H2 8248   4.009   7.435   3.724
 2769TIP3   OH2 8249   3.583   0.703   5.677
 2769TIP3    H1 8250   3.574   0.613   5.646
 2769TIP3    H2 8251   3.658   0.701   5.736
 2770TIP3   OH2 8252   2.233   4.412   6.407
 2770TIP3    H1 8253   2.173   4.359   6.355
 2770TIP3    H2 8254   2.320   4.377   6.386
 2771TIP3   OH2 8255   3.581   5.000   6.023
 2771TIP3    H1 8256   3.577   5.067   5.954
 2771TIP3    H2 8257   3.554   5.046   6.102
 2772TIP3   OH2 8258   3.585   5.663   4.125
 2772TIP3    H1 8259   3.614   5.578   4.092
 2772TIP3    H2 8260   3.635   5.676   4.205
 2773TIP3   OH2 8261   7.874   4.404   2.382
 2773TIP3    H1 8262   7.827   4.366   2.456
 2773TIP3    H2 8263   7.819   4.384   2.306
 2774TIP3   OH2 8264   7.183   7.107   6.743
 2774TIP3    H1 8265   7.177   7.030   6.686
 2774TIP3    H2 8266   7.241   7.167   6.696
 2775TIP3   OH2 8267   4.623   3.013   0.100
 2775TIP3    H1 8268   4.701   3.064   0.076
 2775TIP3    H2 8269   4.550   3.073   0.085
 2776TIP3   OH2 8270   2.964   6.010   3.405
 2776TIP3    H1 8271   2.870   5.993   3.420
 2776TIP3    H2 8272   2.967   6.061   3.325
 2777TIP3   OH2 8273   4.901   7.054   0.879
 2777TIP3    H1 8274   4.833   7.111   0.915
 2777TIP3    H2 8275   4.853   6.994   0.822
 2778TIP3   OH2 8276   5.568   2.824   4.668
 2778TIP3    H1 8277   5.615   2.782   4.596
 2778TIP3    H2 8278   5.482   2.845   4.631
 2779TIP3   OH2 8279   1.859   4.437   3.292
 2779TIP3    H1 8280   1.805   4.510   3.322
 2779TIP3    H2 8281   1.932   4.478   3.246
 2780TIP3   OH2 8282   4.652   2.908   0.482
 2780TIP3    H1 8283   4.615   2.996   0.479
 2780TIP3    H2 8284   4.577   2.849   0.484
 2781TIP3   OH2 8285   1.357   1.671   0.693
 2781TIP3    H1 8286   1.306   1.614   0.750
 2781TIP3    H2 8287   1.443   1.629   0.687
 2782TIP3   OH2 8288   1.434   5.156   2.445
 2782TIP3    H1 8289   1.383   5.090   2.492
 2782TIP3    H2 8290   1.524   5.124   2.450
 2783TIP3   OH2 8291   0.540   3.287   1.952
 2783TIP3    H1 8292   0.506   3.349   2.016
 2783TIP3    H2 8293   0.566   3.211   2.003
 2784TIP3   OH2 8294   7.824   4.835   1.169
 2784TIP3    H1 8295   7.845   4.761   1.226
 2784TIP3    H2 8296   7.774   4.895   1.224
 2785TIP3   OH2 8297   3.374   5.191   5.365
 2785TIP3    H1 8298   3.342   5.265   5.416
 2785TIP3    H2 8299   3.300   5.165   5.310
 2786TIP3   OH2 8300   3.404   7.468   0.694
 2786TIP3    H1 8301   3.356   7.409   0.636
 2786TIP3    H2 8302   3.457   7.410   0.749
 2787TIP3   OH2 8303   6.509   7.273   5.758
 2787TIP3    H1 8304   6.548   7.191   5.728
 2787TIP3    H2 8305   6.571   7.307   5.823
 2788TIP3   OH2 8306   8.272   0.612   1.807
 2788TIP3    H1 8307   8.206   0.660   1.757
 2788TIP3    H2 8308   8.288   0.667   1.884
 2789TIP3   OH2 8309   0.702   3.109   3.528
 2789TIP3    H1 8310   0.747   3.161   3.462
 2789TIP3    H2 8311   0.747   3.130   3.610
 2790TIP3   OH2 8312   0.199   4.057   0.137
 2790TIP3    H1 8313   0.132   4.107   0.183
 2790TIP3    H2 8314   0.275   4.059   0.195
 2791TIP3   OH2 8315   1.309   5.924   1.483
 2791TIP3    H1 8316   1.311   5.841   1.531
 2791TIP3    H2 8317   1.216   5.944   1.475
 2792TIP3   OH2 8318   4.629   7.414   2.093
 2792TIP3    H1 8319   4.642   7.506   2.114
 2792TIP3    H2 8320   4.544   7.392   2.132
 2793TIP3   OH2 8321   0.533   2.738   0.635
 2793TIP3    H1 8322   0.449   2.759   0.676
 2793TIP3    H2 8323   0.598   2.762   0.701
 2794TIP3   OH2 8324   2.154   4.790   5.515
 2794TIP3    H1 8325   2.116   4.877   5.505
 2794TIP3    H2 8326   2.192   4.770   5.430
 2795TIP3   OH2 8327   8.129   3.755   2.780
 2795TIP3    H1 8328   8.213   3.801   2.782
 2795TIP3    H2 8329   8.142   3.680   2.839
 2796TIP3   OH2 8330   5.826   2.782   2.601
 2796TIP3    H1 8331   5.847   2.875   2.594
 2796TIP3    H2 8332   5.814   2.767   2.695
 2797TIP3   OH2 8333   5.704   6.466   3.139
 2797TIP3    H1 8334   5.796   6.479   3.113
 2797TIP3    H2 8335   5.705   6.470   3.234
 2798TIP3   OH2 8336   6.202   1.284   4.951
 2798TIP3    H1 8337   6.297   1.282   4.962
 2798TIP3    H2 8338   6.170   1.213   5.006
 2799TIP3   OH2 8339   3.579   6.762   6.167
 2799TIP3    H1 8340   3.520   6.773   6.092
 2799TIP3    H2 8341   3.642   6.697   6.139
 2800TIP3   OH2 8342   6.377   4.610   2.277
 2800TIP3    H1 8343   6.390   4.550   2.351
 2800TIP3    H2 8344   6.307   4.569   2.226
 2801TIP3   OH2 8345   0.638   5.574   2.694
 2801TIP3    H1 8346   0.651   5.653   2.642
 2801TIP3    H2 8347   0.547   5.580   2.724
 2802TIP3   OH2 8348   2.443   6.975   1.850
 2802TIP3    H1 8349   2.444   6.887   1.889
 2802TIP3    H2 8350   2.350   6.995   1.841
 2803TIP3   OH2 8351   0.682   3.179   2.959
 2803TIP3    H1 8352   0.766   3.161   3.001
 2803TIP3    H2 8353   0.635   3.096   2.964
 2804TIP3   OH2 8354   6.148   4.586   2.127
 2804TIP3    H1 8355   6.057   4.607   2.107
 2804TIP3    H2 8356   6.199   4.642   2.068
 2805TIP3   OH2 8357   7.357   7.244   3.902
 2805TIP3    H1 8358   7.280   7.299   3.920
 2805TIP3    H2 8359   7.386   7.271   3.815
 2806TIP3   OH2 8360   3.029   5.710   5.300
 2806TIP3    H1 8361   3.077   5.637   5.339
 2806TIP3    H2 8362   3.038   5.697   5.206
 2807TIP3   OH2 8363   0.538   0.925   4.182
 2807TIP3    H1 8364   0.497   0.992   4.127
 2807TIP3    H2 8365   0.631   0.929   4.160
 2808TIP3   OH2 8366   3.394   5.336   6.396
 2808TIP3    H1 8367   3.428   5.378   6.475
 2808TIP3    H2 8368   3.303   5.368   6.390
 2809TIP3   OH2 8369   7.501   5.379   4.070
 2809TIP3    H1 8370   7.574   5.412   4.019
 2809TIP3    H2 8371   7.524   5.288   4.090
 2810TIP3   OH2 8372   6.124   1.662   1.660
 2810TIP3    H1 8373   6.066   1.603   1.612
 2810TIP3    H2 8374   6.114   1.746   1.617
 2811TIP3   OH2 8375   3.266   3.397   5.344
 2811TIP3    H1 8376   3.291   3.428   5.431
 2811TIP3    H2 8377   3.238   3.476   5.298
 2812TIP3   OH2 8378   4.308   6.513   6.540
 2812TIP3    H1 8379   4.331   6.487   6.629
 2812TIP3    H2 8380   4.328   6.607   6.537
 2813TIP3   OH2 8381   3.147   3.423   6.369
 2813TIP3    H1 8382   3.229   3.427   6.418
 2813TIP3    H2 8383   3.166   3.467   6.286
 2814TIP3   OH2 8384   6.468   6.532   3.883
 2814TIP3    H1 8385   6.508   6.615   3.909
 2814TIP3    H2 8386   6.420   6.503   3.960
 2815TIP3   OH2 8387   4.002   2.319   6.011
 2815TIP3    H1 8388   4.041   2.325   6.098
 2815TIP3    H2 8389   4.076   2.321   5.950
 2816TIP3   OH2 8390   5.713   3.961   3.773
 2816TIP3    H1 8391   5.725   3.866   3.769
 2816TIP3    H2 8392   5.750   3.993   3.691
 2817TIP3   OH2 8393   0.703   7.789   1.418
 2817TIP3    H1 8394   0.661   7.705   1.397
 2817TIP3    H2 8395   0.797   7.770   1.416
 2818TIP3   OH2 8396   4.680   1.150   0.619
 2818TIP3    H1 8397   4.743   1.138   0.547
 2818TIP3    H2 8398   4.709   1.089   0.686
 2819TIP3   OH2 8399   7.436   5.935   2.008
 2819TIP3    H1 8400   7.400   5.907   1.923
 2819TIP3    H2 8401   7.405   5.869   2.070
 2820TIP3   OH2 8402   5.001   0.418   4.284
 2820TIP3    H1 8403   4.944   0.341   4.278
 2820TIP3    H2 8404   5.075   0.397   4.227
 2821TIP3   OH2 8405   0.705   7.386   5.076
 2821TIP3    H1 8406   0.791   7.423   5.095
 2821TIP3    H2 8407   0.710   7.359   4.984
 2822TIP3   OH2 8408   0.810   3.833   2.386
 2822TIP3    H1 8409   0.881   3.797   2.333
 2822TIP3    H2 8410   0.735   3.835   2.328
 2823TIP3   OH2 8411   3.761   2.204   2.150
 2823TIP3    H1 8412   3.690   2.267   2.161
 2823TIP3    H2 8413   3.774   2.166   2.237
 2824TIP3   OH2 8414   2.025   4.724   4.899
 2824TIP3    H1 8415   1.968   4.752   4.970
 2824TIP3    H2 8416   2.111   4.714   4.939
 2825TIP3   OH2 8417   2.812   6.865   0.686
 2825TIP3    H1 8418   2.800   6.921   0.610
 2825TIP3    H2 8419   2.898   6.890   0.721
 2826TIP3   OH2 8420   2.417   2.573   5.402
 2826TIP3    H1 8421   2.439   2.527   5.321
 2826TIP3    H2 8422   2.415   2.505   5.469
 2827TIP3   OH2 8423   6.806   5.407   2.121
 2827TIP3    H1 8424   6.823   5.401   2.215
 2827TIP3    H2 8425   6.711   5.396   2.113
 2828TIP3   OH2 8426   2.295   5.546   6.495
 2828TIP3    H1 8427   2.235   5.619   6.480
 2828TIP3    H2 8428   2.309   5.545   6.590
 2829TIP3   OH2 8429   6.533   4.113   4.784
 2829TIP3    H1 8430   6.509   4.098   4.876
 2829TIP3    H2 8431   6.454   4.089   4.735
 2830TIP3   OH2 8432   0.011   1.301   0.338
 2830TIP3    H1 8433   0.039   1.218   0.298
 2830TIP3    H2 8434   0.079   1.320   0.402
 2831TIP3   OH2 8435   0.749  -0.036   6.497
 2831TIP3    H1 8436   0.822  -0.013   6.439
 2831TIP3    H2 8437   0.682  -0.072   6.438
 2832TIP3   OH2 8438   0.911   5.887   1.918
 2832TIP3    H1 8439   0.918   5.828   1.993
 2832TIP3    H2 8440   0.911   5.974   1.957
 2833TIP3   OH2 8441   5.684   3.732   6.731
 2833TIP3    H1 8442   5.620   3.721   6.661
 2833TIP3    H2 8443   5.652   3.806   6.782
 2834TIP3   OH2 8444   8.108   7.559   1.189
 2834TIP3    H1 8445   8.111   7.654   1.177
 2834TIP3    H2 8446   8.075   7.547   1.279
 2835TIP3   OH2 8447   7.635   0.971   2.231
 2835TIP3    H1 8448   7.699   1.041   2.218
 2835TIP3    H2 8449   7.568   0.988   2.165
 2836TIP3   OH2 8450   5.015   6.237   1.412
 2836TIP3    H1 8451   5.007   6.320   1.365
 2836TIP3    H2 8452   5.045   6.175   1.345
 2837TIP3   OH2 8453   7.340   7.107   2.253
 2837TIP3    H1 8454   7.387   7.099   2.337
 2837TIP3    H2 8455   7.390   7.052   2.193
 2838TIP3   OH2 8456   0.795   3.920   3.359
 2838TIP3    H1 8457   0.711   3.940   3.319
 2838TIP3    H2 8458   0.854   3.986   3.323
 2839TIP3   OH2 8459   3.583   3.369   4.880
 2839TIP3    H1 8460   3.578   3.288   4.830
 2839TIP3    H2 8461   3.671   3.402   4.864
 2840TIP3   OH2 8462   4.039   7.466   2.115
 2840TIP3    H1 8463   4.114   7.510   2.075
 2840TIP3    H2 8464   4.001   7.531   2.175
 2841TIP3   OH2 8465   5.713   1.362   5.906
 2841TIP3    H1 8466   5.673   1.414   5.836
 2841TIP3    H2 8467   5.807   1.365   5.887
 2842TIP3   OH2 8468   5.480   0.260   4.625
 2842TIP3    H1 8469   5.439   0.267   4.539
 2842TIP3    H2 8470   5.521   0.345   4.639
 2843TIP3   OH2 8471   2.921   0.711   4.327
 2843TIP3    H1 8472   2.904   0.630   4.376
 2843TIP3    H2 8473   3.011   0.733   4.348
 2844TIP3   OH2 8474   2.623   1.896   6.358
 2844TIP3    H1 8475   2.582   1.850   6.431
 2844TIP3    H2 8476   2.622   1.833   6.286
 2845TIP3   OH2 8477   7.817   4.944   3.675
 2845TIP3    H1 8478   7.879   4.941   3.748
 2845TIP3    H2 8479   7.869   4.924   3.597
 2846TIP3   OH2 8480   7.738   4.404   6.243
 2846TIP3    H1 8481   7.806   4.432   6.182
 2846TIP3    H2 8482   7.756   4.312   6.259
 2847TIP3   OH2 8483   6.125   3.810   0.101
 2847TIP3    H1 8484   6.150   3.718   0.098
 2847TIP3    H2 8485   6.096   3.830   0.012
 2848TIP3   OH2 8486   5.356   1.854   1.195
 2848TIP3    H1 8487   5.295   1.927   1.202
 2848TIP3    H2 8488   5.308   1.779   1.228
 2849TIP3   OH2 8489   0.192   2.804   6.682
 2849TIP3    H1 8490   0.243   2.774   6.757
 2849TIP3    H2 8491   0.102   2.810   6.714
 2850TIP3   OH2 8492   7.222   4.615   1.545
 2850TIP3    H1 8493   7.267   4.698   1.564
 2850TIP3    H2 8494   7.158   4.607   1.616
 2851TIP3   OH2 8495   5.348   7.581   4.576
 2851TIP3    H1 8496   5.389   7.666   4.558
 2851TIP3    H2 8497   5.366   7.529   4.497
 2852TIP3   OH2 8498   2.281   0.189   1.574
 2852TIP3    H1 8499   2.341   0.171   1.646
 2852TIP3    H2 8500   2.199   0.214   1.616
 2853TIP3   OH2 8501   6.114   3.576   6.335
 2853TIP3    H1 8502   6.036   3.539   6.293
 2853TIP3    H2 8503   6.102   3.557   6.428
 2854TIP3   OH2 8504   4.551   2.590   6.374
 2854TIP3    H1 8505   4.528   2.666   6.320
 2854TIP3    H2 8506   4.467   2.554   6.402
 2855TIP3   OH2 8507   6.860   7.218   0.517
 2855TIP3    H1 8508   6.903   7.265   0.589
 2855TIP3    H2 8509   6.782   7.270   0.498
 2856TIP3   OH2 8510   0.408   7.397   0.236
 2856TIP3    H1 8511   0.492   7.437   0.260
 2856TIP3    H2 8512   0.418   7.304   0.259
 2857TIP3   OH2 8513   6.314   5.699   5.470
 2857TIP3    H1 8514   6.330   5.621   5.418
 2857TIP3    H2 8515   6.244   5.745   5.424
 2858TIP3   OH2 8516   5.413   0.713   4.391
 2858TIP3    H1 8517   5.378   0.730   4.304
 2858TIP3    H2 8518   5.503   0.745   4.388
 2859TIP3   OH2 8519   7.557   1.421   3.800
 2859TIP3    H1 8520   7.652   1.425   3.812
 2859TIP3    H2 8521   7.521   1.474   3.870
 2860TIP3   OH2 8522   4.522   3.020   3.294
 2860TIP3    H1 8523   4.592   3.078   3.266
 2860TIP3    H2 8524   4.502   3.049   3.384
 2861TIP3   OH2 8525   6.098   4.505   1.769
 2861TIP3    H1 8526   6.177   4.487   1.719
 2861TIP3    H2 8527   6.121   4.482   1.859
 2862TIP3   OH2 8528   4.451  -0.090   1.276
 2862TIP3    H1 8529   4.371  -0.047   1.307
 2862TIP3    H2 8530   4.472  -0.045   1.194
 2863TIP3   OH2 8531   6.453   6.824   2.740
 2863TIP3    H1 8532   6.402   6.788   2.668
 2863TIP3    H2 8533   6.417   6.784   2.819
 2864TIP3   OH2 8534   5.431   3.121   6.440
 2864TIP3    H1 8535   5.367   3.124   6.370
 2864TIP3    H2 8536   5.515   3.134   6.397
 2865TIP3   OH2 8537   4.004   2.096   0.177
 2865TIP3    H1 8538   4.047   2.012   0.185
 2865TIP3    H2 8539   3.935   2.094   0.244
 2866TIP3   OH2 8540   2.799   2.447   1.973
 2866TIP3    H1 8541   2.833   2.521   1.923
 2866TIP3    H2 8542   2.704   2.454   1.964
 2867TIP3   OH2 8543   0.354   5.233   4.966
 2867TIP3    H1 8544   0.312   5.305   5.012
 2867TIP3    H2 8545   0.441   5.267   4.942
 2868TIP3   OH2 8546   4.875   7.043   1.272
 2868TIP3    H1 8547   4.814   7.116   1.270
 2868TIP3    H2 8548   4.930   7.060   1.349
 2869TIP3   OH2 8549   2.180   1.285   0.291
 2869TIP3    H1 8550   2.197   1.360   0.348
 2869TIP3    H2 8551   2.085   1.276   0.291
 2870TIP3   OH2 8552   7.029   5.648   3.056
 2870TIP3    H1 8553   7.007   5.700   3.134
 2870TIP3    H2 8554   7.119   5.619   3.071
 2871TIP3   OH2 8555   1.933   3.379   4.502
 2871TIP3    H1 8556   1.858   3.436   4.519
 2871TIP3    H2 8557   1.995   3.434   4.453
 2872TIP3   OH2 8558   2.204   6.301   0.150
 2872TIP3    H1 8559   2.229   6.382   0.194
 2872TIP3    H2 8560   2.287   6.262   0.121
 2873TIP3   OH2 8561   2.652   4.290   5.337
 2873TIP3    H1 8562   2.669   4.364   5.395
 2873TIP3    H2 8563   2.725   4.230   5.353
 2874TIP3   OH2 8564   3.838   2.447   1.737
 2874TIP3    H1 8565   3.876   2.432   1.823
 2874TIP3    H2 8566   3.913   2.464   1.679
 2875TIP3   OH2 8567   0.297   5.495   4.088
 2875TIP3    H1 8568   0.246   5.557   4.036
 2875TIP3    H2 8569   0.248   5.413   4.081
 2876TIP3   OH2 8570   0.122   4.250   3.000
 2876TIP3    H1 8571   0.079   4.298   2.930
 2876TIP3    H2 8572   0.071   4.170   3.010
 2877TIP3   OH2 8573   3.936   5.729   5.523
 2877TIP3    H1 8574   3.958   5.799   5.585
 2877TIP3    H2 8575   3.928   5.651   5.578
 2878TIP3   OH2 8576   1.984   6.634   2.919
 2878TIP3    H1 8577   2.068   6.614   2.876
 2878TIP3    H2 8578   2.001   6.620   3.012
 2879TIP3   OH2 8579   8.022   3.665   0.983
 2879TIP3    H1 8580   8.115   3.641   0.979
 2879TIP3    H2 8581   7.981   3.594   1.032
 2880TIP3   OH2 8582   7.643   6.909   0.074
 2880TIP3    H1 8583   7.653   6.923   0.168
 2880TIP3    H2 8584   7.618   6.817   0.065
 2881TIP3   OH2 8585   8.074   0.950   2.756
 2881TIP3    H1 8586   8.114   1.032   2.786
 2881TIP3    H2 8587   8.056   0.901   2.836
 2882TIP3   OH2 8588   1.542   2.562   0.934
 2882TIP3    H1 8589   1.599   2.635   0.911
 2882TIP3    H2 8590   1.453   2.595   0.920
 2883TIP3   OH2 8591   5.705   1.184   6.470
 2883TIP3    H1 8592   5.665   1.233   6.541
 2883TIP3    H2 8593   5.745   1.250   6.414
 2884TIP3   OH2 8594   0.907   3.208   6.326
 2884TIP3    H1 8595   0.874   3.158   6.400
 2884TIP3    H2 8596   0.992   3.169   6.306
 2885TIP3   OH2 8597   1.978   4.212   6.361
 2885TIP3    H1 8598   1.957   4.132   6.409
 2885TIP3    H2 8599   1.980   4.185   6.269
 2886TIP3   OH2 8600   4.218   0.771   6.217
 2886TIP3    H1 8601   4.173   0.734   6.293
 2886TIP3    H2 8602   4.199   0.865   6.221
 2887TIP3   OH2 8603   4.238   6.128   2.964
 2887TIP3    H1 8604   4.196   6.211   2.986
 2887TIP3    H2 8605   4.234   6.124   2.868
 2888TIP3   OH2 8606   7.320   2.729   6.076
 2888TIP3    H1 8607   7.253   2.792   6.101
 2888TIP3    H2 8608   7.391   2.744   6.138
 2889TIP3   OH2 8609   1.197   0.647   1.853
 2889TIP3    H1 8610   1.283   0.605   1.860
 2889TIP3    H2 8611   1.209   0.717   1.789
 2890TIP3   OH2 8612   0.187   5.109   6.409
 2890TIP3    H1 8613   0.275   5.081   6.382
 2890TIP3    H2 8614   0.202   5.175   6.476
 2891TIP3   OH2 8615   0.611   6.161   5.294
 2891TIP3    H1 8616   0.521   6.174   5.322
 2891TIP3    H2 8617   0.617   6.068   5.274
 2892TIP3   OH2 8618   4.302   7.475   3.909
 2892TIP3    H1 8619   4.382   7.479   3.961
 2892TIP3    H2 8620   4.247   7.410   3.953
 2893TIP3   OH2 8621   5.143   7.624   0.787
 2893TIP3    H1 8622   5.131   7.570   0.864
 2893TIP3    H2 8623   5.141   7.714   0.819
 2894TIP3   OH2 8624   2.825   5.774   4.786
 2894TIP3    H1 8625   2.830   5.834   4.861
 2894TIP3    H2 8626   2.908   5.727   4.788
 2895TIP3   OH2 8627   5.074   0.957   2.076
 2895TIP3    H1 8628   5.018   0.965   2.154
 2895TIP3    H2 8629   5.090   0.864   2.067
 2896TIP3   OH2 8630   7.467   4.616   3.555
 2896TIP3    H1 8631   7.541   4.662   3.517
 2896TIP3    H2 8632   7.464   4.646   3.646
 2897TIP3   OH2 8633   2.337   5.422   2.186
 2897TIP3    H1 8634   2.426   5.441   2.154
 2897TIP3    H2 8635   2.298   5.369   2.116
 2898TIP3   OH2 8636   7.201   3.491   5.660
 2898TIP3    H1 8637   7.122   3.448   5.693
 2898TIP3    H2 8638   7.170   3.549   5.590
 2899TIP3   OH2 8639   0.725   0.388   0.529
 2899TIP3    H1 8640   0.651   0.439   0.560
 2899TIP3    H2 8641   0.801   0.430   0.569
 2900TIP3   OH2 8642   7.826   6.738   5.193
 2900TIP3    H1 8643   7.797   6.700   5.110
 2900TIP3    H2 8644   7.919   6.714   5.198
 2901TIP3   OH2 8645   8.211   1.208   4.455
 2901TIP3    H1 8646   8.152   1.141   4.489
 2901TIP3    H2 8647   8.298   1.180   4.481
 2902TIP3   OH2 8648   4.016   1.967   1.417
 2902TIP3    H1 8649   3.996   1.883   1.376
 2902TIP3    H2 8650   4.101   1.991   1.381
 2903TIP3   OH2 8651   3.669   3.754   5.579
 2903TIP3    H1 8652   3.684   3.848   5.582
 2903TIP3    H2 8653   3.574   3.745   5.575
 2904TIP3   OH2 8654   5.451   5.334   1.505
 2904TIP3    H1 8655   5.456   5.319   1.410
 2904TIP3    H2 8656   5.388   5.405   1.515
 2905TIP3   OH2 8657   0.271   6.918   1.478
 2905TIP3    H1 8658   0.329   6.863   1.427
 2905TIP3    H2 8659   0.249   6.991   1.420
 2906TIP3   OH2 8660   2.622   4.763   1.224
 2906TIP3    H1 8661   2.566   4.767   1.301
 2906TIP3    H2 8662   2.705   4.727   1.257
 2907TIP3   OH2 8663   5.709   6.338   3.709
 2907TIP3    H1 8664   5.733   6.430   3.721
 2907TIP3    H2 8665   5.688   6.307   3.797
 2908TIP3   OH2 8666   1.753   4.008   5.475
 2908TIP3    H1 8667   1.674   4.001   5.422
 2908TIP3    H2 8668   1.728   3.975   5.561
 2909TIP3   OH2 8669   6.969   5.271   1.966
 2909TIP3    H1 8670   7.045   5.244   2.018
 2909TIP3    H2 8671   6.913   5.317   2.027
 2910TIP3   OH2 8672   4.450   0.349   2.606
 2910TIP3    H1 8673   4.402   0.324   2.527
 2910TIP3    H2 8674   4.384   0.347   2.675
 2911TIP3   OH2 8675   3.952   1.582   3.287
 2911TIP3    H1 8676   3.862   1.584   3.320
 2911TIP3    H2 8677   3.994   1.511   3.335
 2912TIP3   OH2 8678   7.523   6.025   5.506
 2912TIP3    H1 8679   7.451   6.082   5.532
 2912TIP3    H2 8680   7.602   6.076   5.523
 2913TIP3   OH2 8681   0.805   0.144   3.936
 2913TIP3    H1 8682   0.729   0.117   3.988
 2913TIP3    H2 8683   0.826   0.231   3.968
 2914TIP3   OH2 8684   3.932   4.284   4.767
 2914TIP3    H1 8685   3.848   4.237   4.769
 2914TIP3    H2 8686   3.986   4.233   4.707
 2915TIP3   OH2 8687   4.951   5.830   4.592
 2915TIP3    H1 8688   4.999   5.903   4.552
 2915TIP3    H2 8689   5.016   5.760   4.599
 2916TIP3   OH2 8690   1.817   1.609   5.532
 2916TIP3    H1 8691   1.791   1.608   5.440
 2916TIP3    H2 8692   1.911   1.596   5.530
 2917TIP3   OH2 8693   6.059   3.667   3.994
 2917TIP3    H1 8694   5.985   3.623   4.035
 2917TIP3    H2 8695   6.070   3.748   4.044
 2918TIP3   OH2 8696   1.854   5.634   2.727
 2918TIP3    H1 8697   1.924   5.673   2.779
 2918TIP3    H2 8698   1.859   5.540   2.747
 2919TIP3   OH2 8699   3.387   6.533   4.170
 2919TIP3    H1 8700   3.428   6.481   4.239
 2919TIP3    H2 8701   3.364   6.470   4.102
 2920TIP3   OH2 8702   4.515   4.435   3.790
 2920TIP3    H1 8703   4.478   4.430   3.879
 2920TIP3    H2 8704   4.450   4.392   3.735
 2921TIP3   OH2 8705   6.178   1.120   2.703
 2921TIP3    H1 8706   6.147   1.128   2.793
 2921TIP3    H2 8707   6.118   1.059   2.661
 2922TIP3   OH2 8708   4.538   2.902   6.528
 2922TIP3    H1 8709   4.515   2.995   6.530
 2922TIP3    H2 8710   4.519   2.871   6.617
 2923TIP3   OH2 8711   1.646   4.162   5.107
 2923TIP3    H1 8712   1.717   4.100   5.096
 2923TIP3    H2 8713   1.585   4.120   5.168
 2924TIP3   OH2 8714   4.181   0.016   1.328
 2924TIP3    H1 8715   4.180   0.076   1.403
 2924TIP3    H2 8716   4.155   0.071   1.253
 2925TIP3   OH2 8717   5.470   4.915   6.452
 2925TIP3    H1 8718   5.388   4.934   6.406
 2925TIP3    H2 8719   5.444   4.909   6.544
 2926TIP3   OH2 8720   1.183   1.905   0.756
 2926TIP3    H1 8721   1.256   1.847   0.737
 2926TIP3    H2 8722   1.117   1.883   0.690
 2927TIP3   OH2 8723   3.388   6.987   2.922
 2927TIP3    H1 8724   3.335   6.936   2.983
 2927TIP3    H2 8725   3.326   7.049   2.883
 2928TIP3   OH2 8726   6.676   6.299   2.663
 2928TIP3    H1 8727   6.658   6.230   2.726
 2928TIP3    H2 8728   6.608   6.365   2.679
 2929TIP3   OH2 8729   1.879   7.013   0.161
 2929TIP3    H1 8730   1.795   7.020   0.116
 2929TIP3    H2 8731   1.855   7.003   0.253
 2930TIP3   OH2 8732   0.486   1.765   0.422
 2930TIP3    H1 8733   0.564   1.809   0.389
 2930TIP3    H2 8734   0.505   1.671   0.413
 2931TIP3   OH2 8735   4.099   6.357   3.211
 2931TIP3    H1 8736   4.110   6.406   3.292
 2931TIP3    H2 8737   4.043   6.283   3.234
 2932TIP3   OH2 8738   5.330   4.727   4.460
 2932TIP3    H1 8739   5.369   4.782   4.528
 2932TIP3    H2 8740   5.251   4.774   4.434
 2933TIP3   OH2 8741   8.249   1.590   2.167
 2933TIP3    H1 8742   8.341   1.612   2.180
 2933TIP3    H2 8743   8.238   1.507   2.212
 2934TIP3   OH2 8744   1.073   3.432   1.277
 2934TIP3    H1 8745   1.096   3.428   1.370
 2934TIP3    H2 8746   1.124   3.505   1.243
 2935TIP3   OH2 8747   7.200   6.252   0.812
 2935TIP3    H1 8748   7.233   6.341   0.801
 2935TIP3    H2 8749   7.182   6.244   0.906
 2936TIP3   OH2 8750   1.393   5.254   3.787
 2936TIP3    H1 8751   1.409   5.260   3.881
 2936TIP3    H2 8752   1.298   5.251   3.778
 2937TIP3   OH2 8753   5.527   4.527   3.863
 2937TIP3    H1 8754   5.499   4.603   3.913
 2937TIP3    H2 8755   5.588   4.561   3.798
 2938TIP3   OH2 8756   8.167   2.803   1.897
 2938TIP3    H1 8757   8.120   2.726   1.865
 2938TIP3    H2 8758   8.116   2.878   1.866
 2939TIP3   OH2 8759   5.956   6.849   0.810
 2939TIP3    H1 8760   5.888   6.901   0.768
 2939TIP3    H2 8761   5.910   6.774   0.848
 2940TIP3   OH2 8762   5.403   1.896   3.255
 2940TIP3    H1 8763   5.491   1.865   3.234
 2940TIP3    H2 8764   5.397   1.889   3.350
 2941TIP3   OH2 8765   3.056   5.988   4.732
 2941TIP3    H1 8766   3.072   6.009   4.640
 2941TIP3    H2 8767   2.969   6.023   4.750
 2942TIP3   OH2 8768   1.670   0.696   2.217
 2942TIP3    H1 8769   1.585   0.737   2.231
 2942TIP3    H2 8770   1.672   0.678   2.122
 2943TIP3   OH2 8771   0.978   4.237   4.727
 2943TIP3    H1 8772   0.945   4.209   4.641
 2943TIP3    H2 8773   1.032   4.164   4.756
 2944TIP3   OH2 8774   0.454   0.968   4.926
 2944TIP3    H1 8775   0.474   0.981   4.834
 2944TIP3    H2 8776   0.469   0.875   4.942
 2945TIP3   OH2 8777   2.298   7.341   0.168
 2945TIP3    H1 8778   2.256   7.370   0.087
 2945TIP3    H2 8779   2.296   7.246   0.163
 2946TIP3   OH2 8780   3.983   7.395   2.569
 2946TIP3    H1 8781   4.031   7.356   2.496
 2946TIP3    H2 8782   3.920   7.327   2.595
 2947TIP3   OH2 8783   5.021   3.464   5.159
 2947TIP3    H1 8784   5.031   3.379   5.114
 2947TIP3    H2 8785   5.104   3.509   5.142
 2948TIP3   OH2 8786   6.496   6.805   6.283
 2948TIP3    H1 8787   6.516   6.727   6.335
 2948TIP3    H2 8788   6.508   6.877   6.345
 2949TIP3   OH2 8789   0.721   5.858   2.685
 2949TIP3    H1 8790   0.669   5.934   2.660
 2949TIP3    H2 8791   0.805   5.894   2.714
 2950TIP3   OH2 8792   1.273   5.731   4.972
 2950TIP3    H1 8793   1.309   5.669   4.908
 2950TIP3    H2 8794   1.209   5.782   4.922
 2951TIP3   OH2 8795   2.164   2.251   4.265
 2951TIP3    H1 8796   2.146   2.301   4.345
 2951TIP3    H2 8797   2.168   2.160   4.294
 2952TIP3   OH2 8798   1.392   3.640   6.213
 2952TIP3    H1 8799   1.406   3.682   6.128
 2952TIP3    H2 8800   1.297   3.632   6.221
 2953TIP3   OH2 8801   6.647   6.212   6.366
 2953TIP3    H1 8802   6.701   6.168   6.300
 2953TIP3    H2 8803   6.710   6.251   6.427
 2954TIP3   OH2 8804   6.677   3.789   3.238
 2954TIP3    H1 8805   6.688   3.699   3.268
 2954TIP3    H2 8806   6.612   3.782   3.167
 2955TIP3   OH2 8807   6.444   4.255   6.566
 2955TIP3    H1 8808   6.367   4.304   6.534
 2955TIP3    H2 8809   6.519   4.307   6.536
 2956TIP3   OH2 8810   6.940   7.780   4.770
 2956TIP3    H1 8811   6.881   7.756   4.842
 2956TIP3    H2 8812   6.898   7.743   4.692
 2957TIP3   OH2 8813   4.441   2.999   4.597
 2957TIP3    H1 8814   4.507   2.941   4.558
 2957TIP3    H2 8815   4.474   3.087   4.579
 2958TIP3   OH2 8816   3.840   6.925   2.489
 2958TIP3    H1 8817   3.744   6.933   2.484
 2958TIP3    H2 8818   3.862   6.869   2.414
 2959TIP3   OH2 8819   4.725   5.471   2.280
 2959TIP3    H1 8820   4.778   5.535   2.233
 2959TIP3    H2 8821   4.642   5.470   2.233
 2960TIP3   OH2 8822   6.299   4.364   1.630
 2960TIP3    H1 8823   6.391   4.361   1.601
 2960TIP3    H2 8824   6.285   4.281   1.675
 2961TIP3   OH2 8825   5.324   0.457   5.204
 2961TIP3    H1 8826   5.399   0.408   5.171
 2961TIP3    H2 8827   5.337   0.460   5.298
 2962TIP3   OH2 8828   7.694   5.264   6.179
 2962TIP3    H1 8829   7.655   5.242   6.264
 2962TIP3    H2 8830   7.756   5.194   6.162
 2963TIP3   OH2 8831   7.166   0.563   6.202
 2963TIP3    H1 8832   7.078   0.526   6.195
 2963TIP3    H2 8833   7.182   0.602   6.116
 2964TIP3   OH2 8834   6.639   6.312   5.979
 2964TIP3    H1 8835   6.563   6.354   5.937
 2964TIP3    H2 8836   6.641   6.349   6.067
 2965TIP3   OH2 8837   4.716   1.847   1.777
 2965TIP3    H1 8838   4.771   1.769   1.793
 2965TIP3    H2 8839   4.692   1.876   1.865
 2966TIP3   OH2 8840   3.931   6.637   1.657
 2966TIP3    H1 8841   3.987   6.583   1.601
 2966TIP3    H2 8842   3.880   6.574   1.707
 2967TIP3   OH2 8843   5.324   1.778   4.393
 2967TIP3    H1 8844   5.230   1.791   4.380
 2967TIP3    H2 8845   5.340   1.807   4.482
 2968TIP3   OH2 8846   1.765   4.193   4.806
 2968TIP3    H1 8847   1.774   4.277   4.761
 2968TIP3    H2 8848   1.708   4.212   4.881
 2969TIP3   OH2 8849   8.145   1.724   6.232
 2969TIP3    H1 8850   8.232   1.683   6.235
 2969TIP3    H2 8851   8.085   1.650   6.219
 2970TIP3   OH2 8852   1.480   0.242   1.252
 2970TIP3    H1 8853   1.447   0.328   1.227
 2970TIP3    H2 8854   1.483   0.245   1.348
 2971TIP3   OH2 8855   8.159   1.857   0.829
 2971TIP3    H1 8856   8.248   1.830   0.854
 2971TIP3    H2 8857   8.129   1.911   0.903
 2972TIP3   OH2 8858   4.672   5.349   4.400
 2972TIP3    H1 8859   4.762   5.333   4.373
 2972TIP3    H2 8860   4.658   5.291   4.475
 2973TIP3   OH2 8861   1.529   6.576   1.572
 2973TIP3    H1 8862   1.444   6.534   1.587
 2973TIP3    H2 8863   1.513   6.636   1.499
 2974TIP3   OH2 8864   2.639   4.594   6.556
 2974TIP3    H1 8865   2.556   4.638   6.539
 2974TIP3    H2 8866   2.704   4.648   6.509
 2975TIP3   OH2 8867   5.349   6.123   0.475
 2975TIP3    H1 8868   5.265   6.112   0.521
 2975TIP3    H2 8869   5.396   6.042   0.491
 2976TIP3   OH2 8870   6.161   6.834   3.082
 2976TIP3    H1 8871   6.227   6.781   3.128
 2976TIP3    H2 8872   6.173   6.922   3.116
 2977TIP3   OH2 8873   8.185   0.237   2.209
 2977TIP3    H1 8874   8.208   0.320   2.253
 2977TIP3    H2 8875   8.255   0.177   2.235
 2978TIP3   OH2 8876   2.970   2.323   2.607
 2978TIP3    H1 8877   2.972   2.228   2.620
 2978TIP3    H2 8878   2.892   2.338   2.553
 2979TIP3   OH2 8879   7.167   3.243   5.308
 2979TIP3    H1 8880   7.183   3.159   5.266
 2979TIP3    H2 8881   7.252   3.288   5.306
 2980TIP3   OH2 8882   2.328   6.398   1.454
 2980TIP3    H1 8883   2.343   6.463   1.522
 2980TIP3    H2 8884   2.344   6.314   1.497
 2981TIP3   OH2 8885   4.357   3.573   0.188
 2981TIP3    H1 8886   4.399   3.496   0.227
 2981TIP3    H2 8887   4.272   3.578   0.232
 2982TIP3   OH2 8888   1.485   6.119   1.583
 2982TIP3    H1 8889   1.410   6.063   1.562
 2982TIP3    H2 8890   1.558   6.077   1.538
 2983TIP3   OH2 8891   5.061   5.261   4.144
 2983TIP3    H1 8892   5.139   5.243   4.092
 2983TIP3    H2 8893   4.988   5.244   4.084
 2984TIP3   OH2 8894   3.791   4.505   5.666
 2984TIP3    H1 8895   3.729   4.578   5.677
 2984TIP3    H2 8896   3.744   4.443   5.609
 2985TIP3   OH2 8897   6.737   1.424   6.375
 2985TIP3    H1 8898   6.831   1.431   6.393
 2985TIP3    H2 8899   6.732   1.366   6.299
 2986TIP3   OH2 8900   5.270   3.611   5.780
 2986TIP3    H1 8901   5.194   3.591   5.834
 2986TIP3    H2 8902   5.252   3.568   5.696
 2987TIP3   OH2 8903   2.972   6.036   2.964
 2987TIP3    H1 8904   3.036   6.023   2.894
 2987TIP3    H2 8905   2.908   6.097   2.928
 2988TIP3   OH2 8906   6.987   2.293   5.963
 2988TIP3    H1 8907   6.966   2.232   6.033
 2988TIP3    H2 8908   7.073   2.265   5.931
 2989TIP3   OH2 8909   5.508   6.934   0.088
 2989TIP3    H1 8910   5.451   6.994   0.039
 2989TIP3    H2 8911   5.479   6.847   0.062
 2990TIP3   OH2 8912   1.897   7.086   2.266
 2990TIP3    H1 8913   1.937   7.038   2.194
 2990TIP3    H2 8914   1.851   7.019   2.317
 2991TIP3   OH2 8915   1.180   3.777   1.914
 2991TIP3    H1 8916   1.222   3.845   1.862
 2991TIP3    H2 8917   1.237   3.765   1.990
 2992TIP3   OH2 8918   2.925   0.738   3.328
 2992TIP3    H1 8919   2.932   0.652   3.370
 2992TIP3    H2 8920   2.946   0.800   3.397
 2993TIP3   OH2 8921   3.508   7.547   4.423
 2993TIP3    H1 8922   3.521   7.453   4.407
 2993TIP3    H2 8923   3.421   7.565   4.389
 2994TIP3   OH2 8924   6.693   0.136   3.833
 2994TIP3    H1 8925   6.768   0.144   3.891
 2994TIP3    H2 8926   6.664   0.045   3.844
 2995TIP3   OH2 8927   1.691   3.053   5.990
 2995TIP3    H1 8928   1.721   3.106   5.916
 2995TIP3    H2 8929   1.644   3.115   6.045
 2996TIP3   OH2 8930   5.543   0.489   2.904
 2996TIP3    H1 8931   5.559   0.404   2.944
 2996TIP3    H2 8932   5.448   0.492   2.892
 2997TIP3   OH2 8933   0.531   6.882   1.229
 2997TIP3    H1 8934   0.499   6.972   1.222
 2997TIP3    H2 8935   0.567   6.862   1.142
 2998TIP3   OH2 8936   1.764   6.395   0.377
 2998TIP3    H1 8937   1.831   6.387   0.310
 2998TIP3    H2 8938   1.785   6.476   0.423
 2999TIP3   OH2 8939   4.432   6.110   1.904
 2999TIP3    H1 8940   4.344   6.142   1.886
 2999TIP3    H2 8941   4.455   6.059   1.826
 3000TIP3   OH2 8942   0.111   3.503   3.709
 3000TIP3    H1 8943   0.073   3.429   3.664
 3000TIP3    H2 8944   0.177   3.537   3.648
 3001TIP3   OH2 8945   5.642   6.075   1.210
 3001TIP3    H1 8946   5.729   6.060   1.173
 3001TIP3    H2 8947   5.630   6.170   1.202
 3002TIP3   OH2 8948   5.350   3.371   2.076
 3002TIP3    H1 8949   5.420   3.329   2.025
 3002TIP3    H2 8950   5.392   3.397   2.158
 3003TIP3   OH2 8951   6.981   7.570   3.927
 3003TIP3    H1 8952   6.997   7.617   4.009
 3003TIP3    H2 8953   6.922   7.627   3.878
 3004TIP3   OH2 8954   0.061   0.393   2.421
 3004TIP3    H1 8955   0.087   0.466   2.477
 3004TIP3    H2 8956   0.077   0.315   2.474
 3005TIP3   OH2 8957   6.750   1.655   6.222
 3005TIP3    H1 8958   6.694   1.620   6.153
 3005TIP3    H2 8959   6.741   1.595   6.295
 3006TIP3   OH2 8960   1.834   6.603   3.377
 3006TIP3    H1 8961   1.780   6.634   3.304
 3006TIP3    H2 8962   1.907   6.665   3.380
 3007TIP3   OH2 8963   4.246   4.067   5.370
 3007TIP3    H1 8964   4.169   4.050   5.315
 3007TIP3    H2 8965   4.212   4.075   5.459
 3008TIP3   OH2 8966   2.461   2.727   2.103
 3008TIP3    H1 8967   2.384   2.747   2.155
 3008TIP3    H2 8968   2.532   2.720   2.167
 3009TIP3   OH2 8969   1.850   0.609   4.958
 3009TIP3    H1 8970   1.833   0.672   4.888
 3009TIP3    H2 8971   1.819   0.652   5.038
 3010TIP3   OH2 8972   0.490   6.301   1.181
 3010TIP3    H1 8973   0.568   6.327   1.132
 3010TIP3    H2 8974   0.478   6.208   1.159
 3011TIP3   OH2 8975   7.973   1.624   1.736
 3011TIP3    H1 8976   7.984   1.576   1.819
 3011TIP3    H2 8977   8.062   1.638   1.704
 3012TIP3   OH2 8978   3.808   7.176   2.633
 3012TIP3    H1 8979   3.826   7.156   2.725
 3012TIP3    H2 8980   3.840   7.099   2.585
 3013TIP3   OH2 8981   6.429   1.969   6.625
 3013TIP3    H1 8982   6.494   1.901   6.605
 3013TIP3    H2 8983   6.397   1.946   6.712
 3014TIP3   OH2 8984   2.209   3.597   4.774
 3014TIP3    H1 8985   2.122   3.576   4.740
 3014TIP3    H2 8986   2.231   3.524   4.832
 3015TIP3   OH2 8987   8.371   6.702   5.982
 3015TIP3    H1 8988   8.354   6.608   5.981
 3015TIP3    H2 8989   8.321   6.736   5.908
 3016TIP3   OH2 8990   2.777   5.344   0.307
 3016TIP3    H1 8991   2.731   5.280   0.361
 3016TIP3    H2 8992   2.783   5.423   0.361
 3017TIP3   OH2 8993   1.751   6.491   3.722
 3017TIP3    H1 8994   1.714   6.403   3.732
 3017TIP3    H2 8995   1.820   6.479   3.655
 3018TIP3   OH2 8996   7.997   5.568   3.091
 3018TIP3    H1 8997   7.942   5.503   3.047
 3018TIP3    H2 8998   7.949   5.590   3.171
 3019TIP3   OH2 8999   3.513   5.188   2.753
 3019TIP3    H1 9000   3.562   5.220   2.678
 3019TIP3    H2 9001   3.458   5.117   2.719
 3020TIP3   OH2 9002   0.968   4.570   3.757
 3020TIP3    H1 9003   1.060   4.566   3.730
 3020TIP3    H2 9004   0.919   4.554   3.677
 3021TIP3   OH2 9005   3.787   4.912   1.518
 3021TIP3    H1 9006   3.863   4.967   1.540
 3021TIP3    H2 9007   3.825   4.830   1.489
 3022TIP3   OH2 9008   0.793   4.116   0.114
 3022TIP3    H1 9009   0.729   4.077   0.055
 3022TIP3    H2 9010   0.795   4.057   0.190
 3023TIP3   OH2 9011   7.723   2.467   3.649
 3023TIP3    H1 9012   7.665   2.392   3.665
 3023TIP3    H2 9013   7.786   2.464   3.721
 3024TIP3   OH2 9014   5.820   1.540   4.989
 3024TIP3    H1 9015   5.863   1.620   5.019
 3024TIP3    H2 9016   5.890   1.490   4.947
 3025TIP3   OH2 9017   0.646   7.699   5.558
 3025TIP3    H1 9018   0.594   7.646   5.618
 3025TIP3    H2 9019   0.591   7.707   5.480
 3026TIP3   OH2 9020   1.389   1.035   3.893
 3026TIP3    H1 9021   1.484   1.021   3.888
 3026TIP3    H2 9022   1.358   1.023   3.803
 3027TIP3   OH2 9023   7.931   1.446   4.703
 3027TIP3    H1 9024   7.923   1.502   4.779
 3027TIP3    H2 9025   8.017   1.466   4.667
 3028TIP3   OH2 9026   3.792   1.230   3.491
 3028TIP3    H1 9027   3.697   1.247   3.493
 3028TIP3    H2 9028   3.803   1.151   3.544
 3029TIP3   OH2 9029   6.555   3.719   3.948
 3029TIP3    H1 9030   6.535   3.684   3.861
 3029TIP3    H2 9031   6.489   3.680   4.006
 3030TIP3   OH2 9032   1.207   0.255   1.446
 3030TIP3    H1 9033   1.130   0.250   1.503
 3030TIP3    H2 9034   1.281   0.265   1.506
 3031TIP3   OH2 9035   3.219   4.168   1.280
 3031TIP3    H1 9036   3.291   4.113   1.250
 3031TIP3    H2 9037   3.141   4.112   1.271
 3032TIP3   OH2 9038   4.042   7.670   3.866
 3032TIP3    H1 9039   4.086   7.642   3.946
 3032TIP3    H2 9040   4.112   7.701   3.809
 3033TIP3   OH2 9041   5.155   2.846   5.970
 3033TIP3    H1 9042   5.070   2.869   5.934
 3033TIP3    H2 9043   5.137   2.816   6.059
 3034TIP3   OH2 9044   4.151   1.651   3.075
 3034TIP3    H1 9045   4.122   1.740   3.056
 3034TIP3    H2 9046   4.118   1.633   3.163
 3035TIP3   OH2 9047   1.866   1.850   2.018
 3035TIP3    H1 9048   1.808   1.778   2.043
 3035TIP3    H2 9049   1.928   1.810   1.958
 3036TIP3   OH2 9050   4.351   4.001   3.502
 3036TIP3    H1 9051   4.357   3.983   3.596
 3036TIP3    H2 9052   4.283   3.941   3.470
 3037TIP3   OH2 9053   2.581   5.878   2.448
 3037TIP3    H1 9054   2.618   5.928   2.520
 3037TIP3    H2 9055   2.651   5.817   2.422
 3038TIP3   OH2 9056   4.389   6.870   4.106
 3038TIP3    H1 9057   4.390   6.833   4.018
 3038TIP3    H2 9058   4.470   6.839   4.146
 3039TIP3   OH2 9059   5.237   6.767   4.910
 3039TIP3    H1 9060   5.284   6.723   4.981
 3039TIP3    H2 9061   5.157   6.800   4.951
 3040TIP3   OH2 9062   0.407   7.499   1.086
 3040TIP3    H1 9063   0.313   7.482   1.098
 3040TIP3    H2 9064   0.410   7.565   1.017
 3041TIP3   OH2 9065   8.075   5.541   0.656
 3041TIP3    H1 9066   8.162   5.559   0.692
 3041TIP3    H2 9067   8.074   5.588   0.573
 3042TIP3   OH2 9068   1.406   5.184   1.614
 3042TIP3    H1 9069   1.424   5.185   1.708
 3042TIP3    H2 9070   1.468   5.120   1.579
 3043TIP3   OH2 9071   0.471   0.206   5.574
 3043TIP3    H1 9072   0.455   0.256   5.494
 3043TIP3    H2 9073   0.520   0.267   5.630
 3044TIP3   OH2 9074   8.094   1.044   1.016
 3044TIP3    H1 9075   8.110   1.033   0.922
 3044TIP3    H2 9076   8.110   0.958   1.054
 3045TIP3   OH2 9077  -0.044   4.842   4.453
 3045TIP3    H1 9078  -0.022   4.930   4.422
 3045TIP3    H2 9079  -0.049   4.851   4.548
 3046TIP3   OH2 9080   6.954   6.475   5.652
 3046TIP3    H1 9081   6.920   6.523   5.577
 3046TIP3    H2 9082   6.891   6.403   5.666
 3047TIP3   OH2 9083   2.204   7.315   1.171
 3047TIP3    H1 9084   2.148   7.258   1.118
 3047TIP3    H2 9085   2.286   7.266   1.180
 3048TIP3   OH2 9086   5.703   0.546   6.325
 3048TIP3    H1 9087   5.761   0.514   6.394
 3048TIP3    H2 9088   5.638   0.599   6.372
 3049TIP3   OH2 9089   0.808   6.729   4.995
 3049TIP3    H1 9090   0.728   6.721   5.047
 3049TIP3    H2 9091   0.876   6.691   5.050
 3050TIP3   OH2 9092   1.102   2.455   5.717
 3050TIP3    H1 9093   1.128   2.484   5.629
 3050TIP3    H2 9094   1.043   2.382   5.701
 3051TIP3   OH2 9095   4.235   3.466   1.003
 3051TIP3    H1 9096   4.288   3.462   1.083
 3051TIP3    H2 9097   4.157   3.414   1.024
 3052TIP3   OH2 9098   4.399   1.400   3.664
 3052TIP3    H1 9099   4.402   1.465   3.594
 3052TIP3    H2 9100   4.440   1.322   3.626
 3053TIP3   OH2 9101   1.564   0.539   6.630
 3053TIP3    H1 9102   1.489   0.508   6.579
 3053TIP3    H2 9103   1.525   0.592   6.699
 3054TIP3   OH2 9104   6.112   6.742   3.953
 3054TIP3    H1 9105   6.147   6.698   3.875
 3054TIP3    H2 9106   6.060   6.814   3.917
 3055TIP3   OH2 9107   7.082   3.628   3.619
 3055TIP3    H1 9108   7.167   3.670   3.634
 3055TIP3    H2 9109   7.076   3.561   3.687
 3056TIP3   OH2 9110   3.300   2.167   1.749
 3056TIP3    H1 9111   3.248   2.087   1.764
 3056TIP3    H2 9112   3.283   2.221   1.827
 3057TIP3   OH2 9113   8.101   7.317   1.009
 3057TIP3    H1 9114   8.158   7.351   0.940
 3057TIP3    H2 9115   8.103   7.384   1.077
 3058TIP3   OH2 9116   0.350   2.560   0.923
 3058TIP3    H1 9117   0.313   2.544   0.836
 3058TIP3    H2 9118   0.279   2.537   0.983
 3059TIP3   OH2 9119   8.237   6.577   2.890
 3059TIP3    H1 9120   8.177   6.595   2.963
 3059TIP3    H2 9121   8.195   6.617   2.814
 3060TIP3   OH2 9122   7.253   5.013   3.373
 3060TIP3    H1 9123   7.307   5.010   3.294
 3060TIP3    H2 9124   7.245   4.922   3.401
 3061TIP3   OH2 9125   0.126   6.670   4.131
 3061TIP3    H1 9126   0.047   6.669   4.077
 3061TIP3    H2 9127   0.168   6.754   4.110
 3062TIP3   OH2 9128   4.739   5.527   6.269
 3062TIP3    H1 9129   4.780   5.481   6.195
 3062TIP3    H2 9130   4.786   5.495   6.346
 3063TIP3   OH2 9131   2.263   4.253   0.098
 3063TIP3    H1 9132   2.217   4.330   0.129
 3063TIP3    H2 9133   2.243   4.185   0.163
 3064TIP3   OH2 9134   2.848   3.055   5.725
 3064TIP3    H1 9135   2.820   2.985   5.667
 3064TIP3    H2 9136   2.884   3.010   5.802
 3065TIP3   OH2 9137   5.250   6.986   5.877
 3065TIP3    H1 9138   5.172   7.036   5.902
 3065TIP3    H2 9139   5.316   7.052   5.858
 3066TIP3   OH2 9140   6.430   3.404   1.800
 3066TIP3    H1 9141   6.518   3.434   1.776
 3066TIP3    H2 9142   6.410   3.334   1.739
 3067TIP3   OH2 9143   1.055   2.366   5.192
 3067TIP3    H1 9144   1.075   2.446   5.142
 3067TIP3    H2 9145   1.005   2.312   5.131
 3068TIP3   OH2 9146   4.025   1.979   4.566
 3068TIP3    H1 9147   4.010   1.926   4.488
 3068TIP3    H2 9148   4.108   1.949   4.601
 3069TIP3   OH2 9149   1.461   3.214   2.027
 3069TIP3    H1 9150   1.434   3.297   2.065
 3069TIP3    H2 9151   1.379   3.174   1.996
 3070TIP3   OH2 9152   0.809   1.379   1.090
 3070TIP3    H1 9153   0.772   1.378   1.178
 3070TIP3    H2 9154   0.736   1.360   1.033
 3071TIP3   OH2 9155   2.588   2.224   1.990
 3071TIP3    H1 9156   2.595   2.188   2.078
 3071TIP3    H2 9157   2.555   2.313   2.003
 3072TIP3   OH2 9158   0.987   4.772   5.603
 3072TIP3    H1 9159   1.016   4.846   5.550
 3072TIP3    H2 9160   1.063   4.714   5.606
 3073TIP3   OH2 9161   7.047   5.424   0.649
 3073TIP3    H1 9162   7.112   5.424   0.578
 3073TIP3    H2 9163   6.996   5.345   0.634
 3074TIP3   OH2 9164   4.069   6.349   3.893
 3074TIP3    H1 9165   4.118   6.296   3.956
 3074TIP3    H2 9166   4.011   6.288   3.848
 3075TIP3   OH2 9167   2.218   3.147   3.480
 3075TIP3    H1 9168   2.266   3.133   3.562
 3075TIP3    H2 9169   2.285   3.143   3.412
 3076TIP3   OH2 9170   2.541   4.719   2.242
 3076TIP3    H1 9171   2.607   4.653   2.222
 3076TIP3    H2 9172   2.522   4.762   2.159
 3077TIP3   OH2 9173   4.952   7.146   5.309
 3077TIP3    H1 9174   5.012   7.190   5.248
 3077TIP3    H2 9175   4.988   7.165   5.395
 3078TIP3   OH2 9176   7.636   0.711   2.352
 3078TIP3    H1 9177   7.691   0.738   2.425
 3078TIP3    H2 9178   7.622   0.792   2.302
 3079TIP3   OH2 9179   5.450   6.453   3.013
 3079TIP3    H1 9180   5.433   6.395   3.087
 3079TIP3    H2 9181   5.521   6.509   3.042
 3080TIP3   OH2 9182   8.061   4.034   3.677
 3080TIP3    H1 9183   8.115   4.080   3.612
 3080TIP3    H2 9184   7.984   4.006   3.629
 3081TIP3   OH2 9185   3.407   1.938   1.972
 3081TIP3    H1 9186   3.341   1.889   1.922
 3081TIP3    H2 9187   3.360   2.016   2.003
 3082TIP3   OH2 9188   6.897   7.390   0.977
 3082TIP3    H1 9189   6.934   7.336   1.046
 3082TIP3    H2 9190   6.845   7.456   1.022
 3083TIP3   OH2 9191   2.892   2.748   3.687
 3083TIP3    H1 9192   2.822   2.716   3.630
 3083TIP3    H2 9193   2.895   2.842   3.670
 3084TIP3   OH2 9194   1.770   2.539   3.269
 3084TIP3    H1 9195   1.677   2.544   3.247
 3084TIP3    H2 9196   1.774   2.563   3.362
 3085TIP3   OH2 9197   6.025   5.498   2.067
 3085TIP3    H1 9198   6.019   5.484   1.973
 3085TIP3    H2 9199   6.074   5.580   2.077
 3086TIP3   OH2 9200   2.471   5.361   5.772
 3086TIP3    H1 9201   2.434   5.273   5.764
 3086TIP3    H2 9202   2.565   5.348   5.778
 3087TIP3   OH2 9203   4.511   1.835   1.120
 3087TIP3    H1 9204   4.442   1.885   1.163
 3087TIP3    H2 9205   4.473   1.749   1.106
 3088TIP3   OH2 9206   3.726   0.105   4.386
 3088TIP3    H1 9207   3.753   0.063   4.468
 3088TIP3    H2 9208   3.762   0.048   4.318
 3089TIP3   OH2 9209   1.513   2.766   2.329
 3089TIP3    H1 9210   1.588   2.717   2.364
 3089TIP3    H2 9211   1.540   2.857   2.334
 3090TIP3   OH2 9212   4.871   5.072   3.404
 3090TIP3    H1 9213   4.834   5.090   3.318
 3090TIP3    H2 9214   4.807   5.105   3.466
 3091TIP3   OH2 9215   2.624   0.899   1.480
 3091TIP3    H1 9216   2.532   0.918   1.499
 3091TIP3    H2 9217   2.671   0.929   1.558
 3092TIP3   OH2 9218   2.825   5.559   5.130
 3092TIP3    H1 9219   2.853   5.485   5.184
 3092TIP3    H2 9220   2.900   5.578   5.074
 3093TIP3   OH2 9221   7.563   3.938   0.539
 3093TIP3    H1 9222   7.506   3.893   0.602
 3093TIP3    H2 9223   7.599   4.012   0.589
 3094TIP3   OH2 9224   5.929   2.422   0.554
 3094TIP3    H1 9225   5.884   2.502   0.582
 3094TIP3    H2 9226   6.013   2.453   0.521
 3095TIP3   OH2 9227   3.953   4.475   4.487
 3095TIP3    H1 9228   4.022   4.432   4.537
 3095TIP3    H2 9229   3.977   4.568   4.487
 3096TIP3   OH2 9230   1.628   4.737   1.246
 3096TIP3    H1 9231   1.584   4.781   1.174
 3096TIP3    H2 9232   1.559   4.689   1.291
 3097TIP3   OH2 9233   0.088   6.000   4.091
 3097TIP3    H1 9234   0.094   5.977   4.184
 3097TIP3    H2 9235  -0.006   6.011   4.075
 3098TIP3   OH2 9236   2.333   0.247   0.744
 3098TIP3    H1 9237   2.359   0.211   0.659
 3098TIP3    H2 9238   2.398   0.315   0.762
 3099TIP3   OH2 9239   4.821   1.536   0.191
 3099TIP3    H1 9240   4.740   1.575   0.158
 3099TIP3    H2 9241   4.888   1.564   0.129
 3100TIP3   OH2 9242   7.359   7.789   2.098
 3100TIP3    H1 9243   7.404   7.738   2.031
 3100TIP3    H2 9244   7.426   7.809   2.163
 3101TIP3   OH2 9245   1.695   0.754   1.154
 3101TIP3    H1 9246   1.718   0.724   1.067
 3101TIP3    H2 9247   1.702   0.850   1.149
 3102TIP3   OH2 9248   1.164   2.001   1.865
 3102TIP3    H1 9249   1.090   2.009   1.805
 3102TIP3    H2 9250   1.173   2.088   1.904
 3103TIP3   OH2 9251   8.204   5.151   2.051
 3103TIP3    H1 9252   8.253   5.167   1.971
 3103TIP3    H2 9253   8.236   5.067   2.084
 3104TIP3   OH2 9254   6.030   4.807   2.707
 3104TIP3    H1 9255   6.052   4.873   2.641
 3104TIP3    H2 9256   6.061   4.845   2.790
 3105TIP3   OH2 9257   2.520   1.739   0.836
 3105TIP3    H1 9258   2.496   1.823   0.875
 3105TIP3    H2 9259   2.449   1.680   0.863
 3106TIP3   OH2 9260   6.480   5.851   4.013
 3106TIP3    H1 9261   6.521   5.933   4.041
 3106TIP3    H2 9262   6.554   5.792   3.996
 3107TIP3   OH2 9263   0.471   0.562   6.198
 3107TIP3    H1 9264   0.526   0.512   6.137
 3107TIP3    H2 9265   0.457   0.502   6.272
 3108TIP3   OH2 9266   5.186   6.497   2.905
 3108TIP3    H1 9267   5.235   6.453   2.836
 3108TIP3    H2 9268   5.242   6.490   2.983
 3109TIP3   OH2 9269   6.160   6.583   4.164
 3109TIP3    H1 9270   6.137   6.643   4.093
 3109TIP3    H2 9271   6.196   6.506   4.121
 3110TIP3   OH2 9272   2.835   3.566   4.727
 3110TIP3    H1 9273   2.922   3.558   4.688
 3110TIP3    H2 9274   2.840   3.513   4.806
 3111TIP3   OH2 9275   7.341   3.254   2.820
 3111TIP3    H1 9276   7.401   3.212   2.759
 3111TIP3    H2 9277   7.287   3.182   2.854
 3112TIP3   OH2 9278   1.439   7.410   4.094
 3112TIP3    H1 9279   1.508   7.370   4.041
 3112TIP3    H2 9280   1.416   7.490   4.048
 3113TIP3   OH2 9281   7.003   2.277   1.901
 3113TIP3    H1 9282   6.999   2.262   1.807
 3113TIP3    H2 9283   7.096   2.271   1.923
 3114TIP3   OH2 9284   5.777   0.793   5.242
 3114TIP3    H1 9285   5.796   0.804   5.149
 3114TIP3    H2 9286   5.691   0.835   5.253
 3115TIP3   OH2 9287   0.934   1.206   3.099
 3115TIP3    H1 9288   0.874   1.278   3.080
 3115TIP3    H2 9289   0.915   1.140   3.032
 3116TIP3   OH2 9290   7.828   6.992   2.423
 3116TIP3    H1 9291   7.845   7.054   2.352
 3116TIP3    H2 9292   7.757   7.032   2.473
 3117TIP3   OH2 9293   1.125   0.562   4.914
 3117TIP3    H1 9294   1.049   0.504   4.925
 3117TIP3    H2 9295   1.130   0.611   4.996
 3118TIP3   OH2 9296   5.444   7.670   4.817
 3118TIP3    H1 9297   5.454   7.759   4.782
 3118TIP3    H2 9298   5.425   7.616   4.740
 3119TIP3   OH2 9299   2.116   0.972   3.073
 3119TIP3    H1 9300   2.160   0.928   3.000
 3119TIP3    H2 9301   2.148   1.062   3.069
 3120TIP3   OH2 9302   5.837   3.072   6.552
 3120TIP3    H1 9303   5.787   2.990   6.544
 3120TIP3    H2 9304   5.914   3.048   6.603
 3121TIP3   OH2 9305   4.450   1.301   0.047
 3121TIP3    H1 9306   4.468   1.317   0.140
 3121TIP3    H2 9307   4.466   1.208   0.035
 3122TIP3   OH2 9308   7.181   0.536   2.283
 3122TIP3    H1 9309   7.168   0.474   2.355
 3122TIP3    H2 9310   7.126   0.502   2.212
 3123TIP3   OH2 9311   4.206   1.976   0.945
 3123TIP3    H1 9312   4.173   1.975   0.855
 3123TIP3    H2 9313   4.241   2.064   0.957
 3124TIP3   OH2 9314   2.382   0.261   2.333
 3124TIP3    H1 9315   2.459   0.308   2.366
 3124TIP3    H2 9316   2.314   0.328   2.327
 3125TIP3   OH2 9317   7.694   4.103   2.336
 3125TIP3    H1 9318   7.602   4.081   2.327
 3125TIP3    H2 9319   7.708   4.172   2.271
 3126TIP3   OH2 9320   3.521   4.162   3.114
 3126TIP3    H1 9321   3.580   4.202   3.049
 3126TIP3    H2 9322   3.464   4.105   3.062
 3127TIP3   OH2 9323   2.624   0.355   5.988
 3127TIP3    H1 9324   2.690   0.324   5.925
 3127TIP3    H2 9325   2.639   0.302   6.066
 3128TIP3   OH2 9326   6.184   0.497   3.696
 3128TIP3    H1 9327   6.187   0.459   3.608
 3128TIP3    H2 9328   6.260   0.555   3.700
 3129TIP3   OH2 9329   6.914   6.971   0.884
 3129TIP3    H1 9330   6.915   6.990   0.790
 3129TIP3    H2 9331   6.906   6.876   0.890
 3130TIP3   OH2 9332   1.785   7.453   5.558
 3130TIP3    H1 9333   1.708   7.463   5.501
 3130TIP3    H2 9334   1.785   7.361   5.582
 3131TIP3   OH2 9335   5.738   1.150   2.062
 3131TIP3    H1 9336   5.718   1.109   1.978
 3131TIP3    H2 9337   5.787   1.229   2.039
 3132TIP3   OH2 9338   4.034   5.051   3.235
 3132TIP3    H1 9339   4.009   4.959   3.236
 3132TIP3    H2 9340   3.954   5.098   3.256
 3133TIP3   OH2 9341   6.127   1.586   6.338
 3133TIP3    H1 9342   6.169   1.640   6.271
 3133TIP3    H2 9343   6.034   1.589   6.317
 3134TIP3   OH2 9344   6.293   4.268   1.905
 3134TIP3    H1 9345   6.256   4.270   1.993
 3134TIP3    H2 9346   6.246   4.196   1.861
 3135TIP3   OH2 9347   1.603   2.957   6.730
 3135TIP3    H1 9348   1.654   2.877   6.740
 3135TIP3    H2 9349   1.589   2.965   6.636
 3136TIP3   OH2 9350   0.144   0.661   1.164
 3136TIP3    H1 9351   0.149   0.597   1.093
 3136TIP3    H2 9352   0.220   0.717   1.151
 3137TIP3   OH2 9353   2.464   5.854   5.927
 3137TIP3    H1 9354   2.490   5.939   5.964
 3137TIP3    H2 9355   2.546   5.812   5.902
 3138TIP3   OH2 9356   7.019   5.921   5.084
 3138TIP3    H1 9357   7.085   5.984   5.052
 3138TIP3    H2 9358   7.070   5.852   5.125
 3139TIP3   OH2 9359   3.332   6.607   1.097
 3139TIP3    H1 9360   3.285   6.549   1.158
 3139TIP3    H2 9361   3.424   6.599   1.123
 3140TIP3   OH2 9362   6.483   3.006   1.771
 3140TIP3    H1 9363   6.442   2.975   1.690
 3140TIP3    H2 9364   6.434   2.963   1.841
 3141TIP3   OH2 9365   3.687   6.069   2.234
 3141TIP3    H1 9366   3.760   6.100   2.180
 3141TIP3    H2 9367   3.627   6.027   2.172
 3142TIP3   OH2 9368   7.352   7.737   0.967
 3142TIP3    H1 9369   7.316   7.795   1.034
 3142TIP3    H2 9370   7.446   7.735   0.984
 3143TIP3   OH2 9371   4.326   2.564   0.145
 3143TIP3    H1 9372   4.397   2.503   0.124
 3143TIP3    H2 9373   4.359   2.649   0.117
 3144TIP3   OH2 9374   6.099   6.021   3.079
 3144TIP3    H1 9375   6.139   6.061   3.157
 3144TIP3    H2 9376   6.031   6.082   3.052
 3145TIP3   OH2 9377   5.551   2.121   5.178
 3145TIP3    H1 9378   5.524   2.210   5.157
 3145TIP3    H2 9379   5.484   2.089   5.237
 3146TIP3   OH2 9380   2.153   5.994   2.285
 3146TIP3    H1 9381   2.243   6.012   2.260
 3146TIP3    H2 9382   2.101   6.016   2.208
 3147TIP3   OH2 9383   0.400   2.642   2.652
 3147TIP3    H1 9384   0.452   2.655   2.573
 3147TIP3    H2 9385   0.371   2.551   2.647
 3148TIP3   OH2 9386   3.773   1.744   0.850
 3148TIP3    H1 9387   3.789   1.749   0.944
 3148TIP3    H2 9388   3.854   1.776   0.810
 3149TIP3   OH2 9389   0.094   5.866   6.450
 3149TIP3    H1 9390   0.072   5.789   6.396
 3149TIP3    H2 9391   0.040   5.936   6.415
 3150TIP3   OH2 9392   2.107   5.264   0.556
 3150TIP3    H1 9393   2.023   5.247   0.513
 3150TIP3    H2 9394   2.140   5.177   0.578
 3151TIP3   OH2 9395   3.481   0.079   2.273
 3151TIP3    H1 9396   3.563   0.102   2.229
 3151TIP3    H2 9397   3.418   0.067   2.202
 3152TIP3   OH2 9398   8.192   3.217   2.863
 3152TIP3    H1 9399   8.218   3.167   2.785
 3152TIP3    H2 9400   8.271   3.223   2.915
 3153TIP3   OH2 9401   7.693   1.638   5.349
 3153TIP3    H1 9402   7.743   1.713   5.380
 3153TIP3    H2 9403   7.602   1.662   5.363
 3154TIP3   OH2 9404   2.797   7.322   3.440
 3154TIP3    H1 9405   2.734   7.279   3.497
 3154TIP3    H2 9406   2.774   7.293   3.352
 3155TIP3   OH2 9407   2.189   2.737   2.195
 3155TIP3    H1 9408   2.150   2.651   2.176
 3155TIP3    H2 9409   2.134   2.799   2.148
 3156TIP3   OH2 9410   7.627   0.337   4.377
 3156TIP3    H1 9411   7.708   0.317   4.424
 3156TIP3    H2 9412   7.651   0.328   4.284
 3157TIP3   OH2 9413   0.858   1.337   4.105
 3157TIP3    H1 9414   0.877   1.378   4.021
 3157TIP3    H2 9415   0.942   1.338   4.152
 3158TIP3   OH2 9416   0.639   1.023   0.572
 3158TIP3    H1 9417   0.665   0.948   0.626
 3158TIP3    H2 9418   0.662   1.100   0.624
 3159TIP3   OH2 9419   6.917   2.929   3.823
 3159TIP3    H1 9420   6.898   3.021   3.842
 3159TIP3    H2 9421   6.870   2.880   3.890
 3160TIP3   OH2 9422   7.781   2.145   5.540
 3160TIP3    H1 9423   7.831   2.210   5.490
 3160TIP3    H2 9424   7.692   2.151   5.505
 3161TIP3   OH2 9425   1.659   7.016   6.698
 3161TIP3    H1 9426   1.673   6.977   6.611
 3161TIP3    H2 9427   1.605   7.093   6.681
 3162TIP3   OH2 9428   8.209   6.075   5.874
 3162TIP3    H1 9429   8.170   6.053   5.789
 3162TIP3    H2 9430   8.161   6.151   5.904
 3163TIP3   OH2 9431   3.383   2.364   6.063
 3163TIP3    H1 9432   3.476   2.369   6.043
 3163TIP3    H2 9433   3.378   2.311   6.143
 3164TIP3   OH2 9434   7.840   1.168   2.020
 3164TIP3    H1 9435   7.850   1.073   2.016
 3164TIP3    H2 9436   7.885   1.200   1.941
 3165TIP3   OH2 9437   0.592   5.391   0.660
 3165TIP3    H1 9438   0.605   5.339   0.740
 3165TIP3    H2 9439   0.510   5.357   0.624
 3166TIP3   OH2 9440   4.731   4.269   0.804
 3166TIP3    H1 9441   4.775   4.329   0.743
 3166TIP3    H2 9442   4.642   4.304   0.812
 3167TIP3   OH2 9443   5.750   2.254   4.131
 3167TIP3    H1 9444   5.721   2.177   4.180
 3167TIP3    H2 9445   5.750   2.325   4.195
 3168TIP3   OH2 9446   2.204   2.006   5.171
 3168TIP3    H1 9447   2.292   2.044   5.170
 3168TIP3    H2 9448   2.192   1.976   5.261
 3169TIP3   OH2 9449   7.494   5.550   5.362
 3169TIP3    H1 9450   7.400   5.566   5.366
 3169TIP3    H2 9451   7.533   5.619   5.415
 3170TIP3   OH2 9452   7.279   0.667   6.438
 3170TIP3    H1 9453   7.235   0.623   6.365
 3170TIP3    H2 9454   7.226   0.744   6.456
 3171TIP3   OH2 9455   7.257   6.546   0.801
 3171TIP3    H1 9456   7.277   6.510   0.714
 3171TIP3    H2 9457   7.340   6.578   0.834
 3172TIP3   OH2 9458   6.760   6.234   3.459
 3172TIP3    H1 9459   6.810   6.270   3.532
 3172TIP3    H2 9460   6.825   6.191   3.404
 3173TIP3   OH2 9461   6.182   0.847   3.126
 3173TIP3    H1 9462   6.225   0.829   3.042
 3173TIP3    H2 9463   6.185   0.763   3.172
 3174TIP3   OH2 9464   3.763   0.683   3.677
 3174TIP3    H1 9465   3.758   0.708   3.585
 3174TIP3    H2 9466   3.788   0.764   3.722
 3175TIP3   OH2 9467   6.519   1.360   6.016
 3175TIP3    H1 9468   6.438   1.409   6.024
 3175TIP3    H2 9469   6.492   1.270   5.996
 3176TIP3   OH2 9470   3.992   6.902   4.322
 3176TIP3    H1 9471   3.903   6.915   4.356
 3176TIP3    H2 9472   4.016   6.987   4.285
 3177TIP3   OH2 9473   0.143   1.937   6.405
 3177TIP3    H1 9474   0.166   1.964   6.494
 3177TIP3    H2 9475   0.215   1.879   6.378
 3178TIP3   OH2 9476   2.984   2.859   0.783
 3178TIP3    H1 9477   2.905   2.807   0.797
 3178TIP3    H2 9478   2.965   2.909   0.703
 3179TIP3   OH2 9479   3.177   5.384   2.367
 3179TIP3    H1 9480   3.153   5.298   2.331
 3179TIP3    H2 9481   3.268   5.373   2.395
 3180TIP3   OH2 9482   4.937   7.310   5.758
 3180TIP3    H1 9483   4.943   7.235   5.818
 3180TIP3    H2 9484   4.976   7.382   5.807
 3181TIP3   OH2 9485   1.576   5.657   0.697
 3181TIP3    H1 9486   1.579   5.658   0.602
 3181TIP3    H2 9487   1.582   5.750   0.722
 3182TIP3   OH2 9488   6.834   1.582   5.444
 3182TIP3    H1 9489   6.888   1.508   5.417
 3182TIP3    H2 9490   6.820   1.569   5.538
 3183TIP3   OH2 9491   2.216   6.547   0.764
 3183TIP3    H1 9492   2.271   6.493   0.707
 3183TIP3    H2 9493   2.278   6.597   0.816
 3184TIP3   OH2 9494   6.349   0.449   1.097
 3184TIP3    H1 9495   6.348   0.462   1.002
 3184TIP3    H2 9496   6.258   0.428   1.119
 3185TIP3   OH2 9497   6.581   5.900   1.920
 3185TIP3    H1 9498   6.648   5.936   1.978
 3185TIP3    H2 9499   6.630   5.858   1.849
 3186TIP3   OH2 9500   7.919   6.546   4.740
 3186TIP3    H1 9501   7.976   6.525   4.666
 3186TIP3    H2 9502   7.936   6.639   4.758
 3187TIP3   OH2 9503   2.721   5.570   0.449
 3187TIP3    H1 9504   2.761   5.581   0.535
 3187TIP3    H2 9505   2.762   5.636   0.394
 3188TIP3   OH2 9506   0.204   6.343   5.524
 3188TIP3    H1 9507   0.205   6.322   5.431
 3188TIP3    H2 9508   0.233   6.263   5.568
 3189TIP3   OH2 9509   3.238   3.821   0.502
 3189TIP3    H1 9510   3.274   3.791   0.419
 3189TIP3    H2 9511   3.249   3.916   0.501
 3190TIP3   OH2 9512   1.222   5.453   2.746
 3190TIP3    H1 9513   1.281   5.515   2.789
 3190TIP3    H2 9514   1.272   5.419   2.672
 3191TIP3   OH2 9515   5.408   3.817   0.524
 3191TIP3    H1 9516   5.500   3.814   0.498
 3191TIP3    H2 9517   5.404   3.763   0.602
 3192TIP3   OH2 9518   6.900   1.240   5.896
 3192TIP3    H1 9519   6.875   1.294   5.821
 3192TIP3    H2 9520   6.904   1.301   5.969
 3193TIP3   OH2 9521   8.154   0.475   0.794
 3193TIP3    H1 9522   8.083   0.452   0.735
 3193TIP3    H2 9523   8.230   0.428   0.761
 3194TIP3   OH2 9524   0.147   3.791   4.703
 3194TIP3    H1 9525   0.137   3.807   4.797
 3194TIP3    H2 9526   0.120   3.873   4.662
 3195TIP3   OH2 9527   7.669   0.810   2.848
 3195TIP3    H1 9528   7.684   0.855   2.931
 3195TIP3    H2 9529   7.674   0.879   2.782
 3196TIP3   OH2 9530   4.097   3.670   4.654
 3196TIP3    H1 9531   4.056   3.671   4.741
 3196TIP3    H2 9532   4.134   3.757   4.643
 3197TIP3   OH2 9533   7.409   7.173   1.944
 3197TIP3    H1 9534   7.407   7.092   1.892
 3197TIP3    H2 9535   7.421   7.243   1.879
 3198TIP3   OH2 9536   6.141   4.520   4.397
 3198TIP3    H1 9537   6.200   4.544   4.325
 3198TIP3    H2 9538   6.066   4.578   4.387
 3199TIP3   OH2 9539   6.869   1.794   1.527
 3199TIP3    H1 9540   6.886   1.750   1.610
 3199TIP3    H2 9541   6.857   1.723   1.464
 3200TIP3   OH2 9542   4.473   4.362   5.065
 3200TIP3    H1 9543   4.483   4.453   5.093
 3200TIP3    H2 9544   4.432   4.368   4.979
 3201TIP3   OH2 9545   5.192   3.969   3.602
 3201TIP3    H1 9546   5.235   4.036   3.654
 3201TIP3    H2 9547   5.111   4.010   3.571
 3202TIP3   OH2 9548   4.193   3.473   1.518
 3202TIP3    H1 9549   4.275   3.429   1.497
 3202TIP3    H2 9550   4.156   3.497   1.433
 3203TIP3   OH2 9551   6.513   5.752   1.397
 3203TIP3    H1 9552   6.585   5.720   1.452
 3203TIP3    H2 9553   6.468   5.672   1.369
 3204TIP3   OH2 9554   3.350   1.806   5.201
 3204TIP3    H1 9555   3.374   1.748   5.129
 3204TIP3    H2 9556   3.370   1.894   5.170
 3205TIP3   OH2 9557   4.356   3.017   4.940
 3205TIP3    H1 9558   4.425   3.059   4.991
 3205TIP3    H2 9559   4.368   2.924   4.955
 3206TIP3   OH2 9560   4.601   5.990   1.320
 3206TIP3    H1 9561   4.640   6.073   1.293
 3206TIP3    H2 9562   4.676   5.934   1.339
 3207TIP3   OH2 9563   1.672   1.865   1.409
 3207TIP3    H1 9564   1.732   1.935   1.434
 3207TIP3    H2 9565   1.721   1.813   1.345
 3208TIP3   OH2 9566   1.213   4.804   6.709
 3208TIP3    H1 9567   1.158   4.734   6.746
 3208TIP3    H2 9568   1.302   4.780   6.732
 3209TIP3   OH2 9569   7.383   3.387   6.268
 3209TIP3    H1 9570   7.345   3.414   6.185
 3209TIP3    H2 9571   7.478   3.398   6.257
 3210TIP3   OH2 9572   6.420   0.638   1.800
 3210TIP3    H1 9573   6.451   0.729   1.807
 3210TIP3    H2 9574   6.344   0.635   1.858
 3211TIP3   OH2 9575   3.170   0.308   6.792
 3211TIP3    H1 9576   3.177   0.312   6.697
 3211TIP3    H2 9577   3.117   0.230   6.809
 3212TIP3   OH2 9578   2.496   0.306   2.060
 3212TIP3    H1 9579   2.570   0.366   2.069
 3212TIP3    H2 9580   2.420   0.357   2.087
 3213TIP3   OH2 9581   1.168   4.024   1.021
 3213TIP3    H1 9582   1.152   3.943   1.068
 3213TIP3    H2 9583   1.235   4.069   1.071
 3214TIP3   OH2 9584   4.345   4.286   6.749
 3214TIP3    H1 9585   4.362   4.196   6.722
 3214TIP3    H2 9586   4.397   4.297   6.829
 3215TIP3   OH2 9587   1.961   6.091   2.545
 3215TIP3    H1 9588   1.913   6.082   2.628
 3215TIP3    H2 9589   2.050   6.064   2.566
 3216TIP3   OH2 9590   7.703   7.330   5.527
 3216TIP3    H1 9591   7.663   7.243   5.531
 3216TIP3    H2 9592   7.736   7.346   5.615
 3217TIP3   OH2 9593   5.964   2.355   3.173
 3217TIP3    H1 9594   5.991   2.446   3.175
 3217TIP3    H2 9595   6.036   2.307   3.212
 3218TIP3   OH2 9596   2.713   0.836   3.854
 3218TIP3    H1 9597   2.718   0.765   3.918
 3218TIP3    H2 9598   2.620   0.840   3.830
 3219TIP3   OH2 9599   0.072   2.166   3.437
 3219TIP3    H1 9600   0.158   2.208   3.433
 3219TIP3    H2 9601   0.010   2.236   3.420
 3220TIP3   OH2 9602   5.792   0.421   3.705
 3220TIP3    H1 9603   5.849   0.374   3.766
 3220TIP3    H2 9604   5.714   0.442   3.757
 3221TIP3   OH2 9605   6.655   1.251   4.142
 3221TIP3    H1 9606   6.609   1.327   4.108
 3221TIP3    H2 9607   6.592   1.179   4.135
 3222TIP3   OH2 9608   6.358   1.867   4.053
 3222TIP3    H1 9609   6.271   1.875   4.092
 3222TIP3    H2 9610   6.341   1.861   3.958
 3223TIP3   OH2 9611   6.029   4.660   4.145
 3223TIP3    H1 9612   6.112   4.663   4.098
 3223TIP3    H2 9613   5.994   4.574   4.126
 3224TIP3   OH2 9614   0.126   5.491   4.369
 3224TIP3    H1 9615   0.167   5.405   4.358
 3224TIP3    H2 9616   0.032   5.473   4.357
 3225TIP3   OH2 9617   7.074   5.232   6.119
 3225TIP3    H1 9618   7.129   5.157   6.143
 3225TIP3    H2 9619   7.066   5.282   6.200
 3226TIP3   OH2 9620   4.097   3.217   6.135
 3226TIP3    H1 9621   4.080   3.311   6.132
 3226TIP3    H2 9622   4.026   3.178   6.086
 3227TIP3   OH2 9623   5.881   0.890   2.979
 3227TIP3    H1 9624   5.832   0.893   3.062
 3227TIP3    H2 9625   5.950   0.826   2.994
 3228TIP3   OH2 9626   3.359   1.873   5.459
 3228TIP3    H1 9627   3.398   1.960   5.449
 3228TIP3    H2 9628   3.350   1.840   5.369
 3229TIP3   OH2 9629   7.252   6.184   1.930
 3229TIP3    H1 9630   7.337   6.194   1.973
 3229TIP3    H2 9631   7.272   6.143   1.846
 3230TIP3   OH2 9632   7.553   4.496   2.391
 3230TIP3    H1 9633   7.608   4.569   2.360
 3230TIP3    H2 9634   7.608   4.450   2.455
 3231TIP3   OH2 9635   7.830   7.137   4.317
 3231TIP3    H1 9636   7.763   7.197   4.350
 3231TIP3    H2 9637   7.893   7.193   4.271
 3232TIP3   OH2 9638   0.088   6.589   1.207
 3232TIP3    H1 9639   0.151   6.660   1.197
 3232TIP3    H2 9640   0.105   6.554   1.295
 3233TIP3   OH2 9641   3.522   4.210   2.651
 3233TIP3    H1 9642   3.532   4.116   2.634
 3233TIP3    H2 9643   3.455   4.239   2.588
 3234TIP3   OH2 9644   3.192   3.529   1.453
 3234TIP3    H1 9645   3.123   3.594   1.455
 3234TIP3    H2 9646   3.165   3.467   1.385
 3235TIP3   OH2 9647   1.267   3.979   3.936
 3235TIP3    H1 9648   1.245   4.055   3.882
 3235TIP3    H2 9649   1.184   3.933   3.948
 3236TIP3   OH2 9650   8.129   3.869   1.880
 3236TIP3    H1 9651   8.213   3.902   1.910
 3236TIP3    H2 9652   8.112   3.914   1.798
 3237TIP3   OH2 9653   5.013   4.915   4.083
 3237TIP3    H1 9654   4.950   4.914   4.155
 3237TIP3    H2 9655   4.988   4.991   4.030
 3238TIP3   OH2 9656   3.055   4.175   2.219
 3238TIP3    H1 9657   3.060   4.271   2.228
 3238TIP3    H2 9658   3.145   4.148   2.201
 3239TIP3   OH2 9659   3.608   7.707   0.346
 3239TIP3    H1 9660   3.621   7.799   0.324
 3239TIP3    H2 9661   3.513   7.694   0.338
 3240TIP3   OH2 9662   5.773   5.257   1.922
 3240TIP3    H1 9663   5.793   5.330   1.980
 3240TIP3    H2 9664   5.695   5.286   1.873
 3241TIP3   OH2 9665   5.485   3.651   0.744
 3241TIP3    H1 9666   5.431   3.666   0.822
 3241TIP3    H2 9667   5.476   3.557   0.726
 3242TIP3   OH2 9668   2.703   3.740   4.948
 3242TIP3    H1 9669   2.724   3.715   4.858
 3242TIP3    H2 9670   2.784   3.776   4.984
 3243TIP3   OH2 9671   7.182   5.539   1.653
 3243TIP3    H1 9672   7.216   5.450   1.648
 3243TIP3    H2 9673   7.254   5.593   1.620
 3244TIP3   OH2 9674   2.501   6.670   6.330
 3244TIP3    H1 9675   2.531   6.732   6.263
 3244TIP3    H2 9676   2.412   6.647   6.302
 3245TIP3   OH2 9677   4.531   6.313   0.459
 3245TIP3    H1 9678   4.566   6.340   0.544
 3245TIP3    H2 9679   4.467   6.381   0.437
 3246TIP3   OH2 9680   0.109   7.418   1.140
 3246TIP3    H1 9681   0.053   7.484   1.180
 3246TIP3    H2 9682   0.077   7.335   1.175
 3247TIP3   OH2 9683   7.941   7.448   3.869
 3247TIP3    H1 9684   7.917   7.517   3.807
 3247TIP3    H2 9685   7.946   7.493   3.954
 3248TIP3   OH2 9686   2.219   6.846   5.220
 3248TIP3    H1 9687   2.205   6.857   5.126
 3248TIP3    H2 9688   2.279   6.916   5.244
 3249TIP3   OH2 9689   6.385   5.952   5.582
 3249TIP3    H1 9690   6.295   5.980   5.597
 3249TIP3    H2 9691   6.377   5.868   5.536
 3250TIP3   OH2 9692   3.165   1.805   4.671
 3250TIP3    H1 9693   3.187   1.768   4.757
 3250TIP3    H2 9694   3.166   1.730   4.612
 3251TIP3   OH2 9695   8.230   4.349   2.804
 3251TIP3    H1 9696   8.275   4.385   2.728
 3251TIP3    H2 9697   8.143   4.391   2.803
 3252TIP3   OH2 9698   5.164   6.289   3.990
 3252TIP3    H1 9699   5.242   6.277   4.044
 3252TIP3    H2 9700   5.123   6.369   4.024
 3253TIP3   OH2 9701   0.342   1.733   2.650
 3253TIP3    H1 9702   0.377   1.648   2.675
 3253TIP3    H2 9703   0.250   1.729   2.674
 3254TIP3   OH2 9704   7.428   3.126   4.001
 3254TIP3    H1 9705   7.401   3.063   4.068
 3254TIP3    H2 9706   7.444   3.073   3.923
 3255TIP3   OH2 9707   3.022   7.713   4.301
 3255TIP3    H1 9708   2.951   7.673   4.251
 3255TIP3    H2 9709   3.041   7.650   4.370
 3256TIP3   OH2 9710   3.435   5.553   1.670
 3256TIP3    H1 9711   3.373   5.533   1.740
 3256TIP3    H2 9712   3.385   5.604   1.606
 3257TIP3   OH2 9713   4.535   4.819   4.619
 3257TIP3    H1 9714   4.613   4.867   4.592
 3257TIP3    H2 9715   4.485   4.883   4.671
 3258TIP3   OH2 9716   6.181   7.581   4.876
 3258TIP3    H1 9717   6.201   7.538   4.793
 3258TIP3    H2 9718   6.266   7.594   4.918
 3259TIP3   OH2 9719   5.267   6.569   3.557
 3259TIP3    H1 9720   5.306   6.499   3.608
 3259TIP3    H2 9721   5.251   6.531   3.471
 3260TIP3   OH2 9722   4.172   7.744   3.480
 3260TIP3    H1 9723   4.125   7.680   3.427
 3260TIP3    H2 9724   4.236   7.692   3.529
 3261TIP3   OH2 9725   2.800   4.116   5.045
 3261TIP3    H1 9726   2.809   4.074   4.960
 3261TIP3    H2 9727   2.837   4.203   5.034
 3262TIP3   OH2 9728   1.154   5.287   4.263
 3262TIP3    H1 9729   1.173   5.322   4.350
 3262TIP3    H2 9730   1.069   5.244   4.273
 3263TIP3   OH2 9731   6.659   6.100   4.408
 3263TIP3    H1 9732   6.571   6.080   4.441
 3263TIP3    H2 9733   6.715   6.034   4.448
 3264TIP3   OH2 9734   3.113   5.247   3.193
 3264TIP3    H1 9735   3.195   5.258   3.240
 3264TIP3    H2 9736   3.114   5.155   3.163
 3265TIP3   OH2 9737   4.775   4.521   1.190
 3265TIP3    H1 9738   4.766   4.427   1.207
 3265TIP3    H2 9739   4.711   4.538   1.121
 3266TIP3   OH2 9740   0.998   1.171   3.800
 3266TIP3    H1 9741   1.024   1.239   3.863
 3266TIP3    H2 9742   1.023   1.206   3.715
 3267TIP3   OH2 9743   6.624   4.767   3.914
 3267TIP3    H1 9744   6.573   4.847   3.899
 3267TIP3    H2 9745   6.671   4.783   3.996
 3268TIP3   OH2 9746   4.809   0.771  -0.018
 3268TIP3    H1 9747   4.849   0.688   0.008
 3268TIP3    H2 9748   4.813   0.825   0.061
 3269TIP3   OH2 9749   7.179   2.715   1.686
 3269TIP3    H1 9750   7.117   2.768   1.737
 3269TIP3    H2 9751   7.138   2.628   1.683
 3270TIP3   OH2 9752   7.311   4.905   1.625
 3270TIP3    H1 9753   7.339   4.991   1.658
 3270TIP3    H2 9754   7.383   4.877   1.568
 3271TIP3   OH2 9755   7.153   2.245   5.524
 3271TIP3    H1 9756   7.136   2.153   5.546
 3271TIP3    H2 9757   7.150   2.247   5.429
 3272TIP3   OH2 9758   2.315   1.765   6.017
 3272TIP3    H1 9759   2.348   1.855   6.015
 3272TIP3    H2 9760   2.384   1.713   5.977
 3273TIP3   OH2 9761   1.159   0.287   2.124
 3273TIP3    H1 9762   1.103   0.353   2.165
 3273TIP3    H2 9763   1.247   0.326   2.124
 3274TIP3   OH2 9764   1.408   4.301   4.910
 3274TIP3    H1 9765   1.361   4.384   4.907
 3274TIP3    H2 9766   1.483   4.317   4.966
 3275TIP3   OH2 9767   3.731   3.652   2.019
 3275TIP3    H1 9768   3.759   3.719   2.081
 3275TIP3    H2 9769   3.657   3.609   2.061
 3276TIP3   OH2 9770   3.306   2.223   0.009
 3276TIP3    H1 9771   3.364   2.266   0.072
 3276TIP3    H2 9772   3.363   2.163  -0.039
 3277TIP3   OH2 9773   4.325   5.780   6.617
 3277TIP3    H1 9774   4.419   5.774   6.632
 3277TIP3    H2 9775   4.285   5.736   6.692
 3278TIP3   OH2 9776   7.816   5.792   6.687
 3278TIP3    H1 9777   7.724   5.820   6.687
 3278TIP3    H2 9778   7.863   5.864   6.646
 3279TIP3   OH2 9779   4.161   5.469   1.113
 3279TIP3    H1 9780   4.190   5.542   1.168
 3279TIP3    H2 9781   4.084   5.435   1.158
 3280TIP3   OH2 9782   0.346   6.314   0.617
 3280TIP3    H1 9783   0.397   6.388   0.650
 3280TIP3    H2 9784   0.264   6.317   0.666
 3281TIP3   OH2 9785   7.906   0.103   0.794
 3281TIP3    H1 9786   7.895   0.185   0.745
 3281TIP3    H2 9787   7.920   0.130   0.884
 3282TIP3   OH2 9788   1.500   2.984   0.377
 3282TIP3    H1 9789   1.479   3.022   0.462
 3282TIP3    H2 9790   1.595   2.976   0.377
 3283TIP3   OH2 9791   4.438   7.408   5.726
 3283TIP3    H1 9792   4.385   7.372   5.655
 3283TIP3    H2 9793   4.528   7.394   5.698
 3284TIP3   OH2 9794   0.985   6.020   0.336
 3284TIP3    H1 9795   1.064   5.967   0.348
 3284TIP3    H2 9796   0.921   5.983   0.396
 3285TIP3   OH2 9797   1.142   1.396   3.922
 3285TIP3    H1 9798   1.185   1.425   4.002
 3285TIP3    H2 9799   1.149   1.471   3.862
 3286TIP3   OH2 9800   0.429   4.274   3.846
 3286TIP3    H1 9801   0.364   4.325   3.895
 3286TIP3    H2 9802   0.406   4.289   3.754
 3287TIP3   OH2 9803   4.131   5.261   6.555
 3287TIP3    H1 9804   4.078   5.230   6.629
 3287TIP3    H2 9805   4.207   5.204   6.554
 3288TIP3   OH2 9806   8.020   0.736   0.577
 3288TIP3    H1 9807   8.066   0.728   0.660
 3288TIP3    H2 9808   8.086   0.718   0.510
 3289TIP3   OH2 9809   6.257   1.756   3.379
 3289TIP3    H1 9810   6.215   1.670   3.373
 3289TIP3    H2 9811   6.323   1.756   3.310
 3290TIP3   OH2 9812   3.855   5.339   2.730
 3290TIP3    H1 9813   3.856   5.255   2.775
 3290TIP3    H2 9814   3.945   5.352   2.702
 3291TIP3   OH2 9815   3.919   0.220   2.273
 3291TIP3    H1 9816   3.922   0.170   2.355
 3291TIP3    H2 9817   3.913   0.311   2.301
 3292TIP3   OH2 9818   5.102   2.033   6.251
 3292TIP3    H1 9819   5.066   2.033   6.163
 3292TIP3    H2 9820   5.115   2.126   6.272
 3293TIP3   OH2 9821   0.328   0.910   3.649
 3293TIP3    H1 9822   0.324   0.842   3.717
 3293TIP3    H2 9823   0.393   0.876   3.587
 3294TIP3   OH2 9824   1.304   3.581   0.036
 3294TIP3    H1 9825   1.353   3.502   0.060
 3294TIP3    H2 9826   1.213   3.560   0.056
 3295TIP3   OH2 9827   2.161   0.168   4.124
 3295TIP3    H1 9828   2.181   0.083   4.083
 3295TIP3    H2 9829   2.069   0.162   4.148
 3296TIP3   OH2 9830   7.206   3.312   0.329
 3296TIP3    H1 9831   7.145   3.336   0.258
 3296TIP3    H2 9832   7.152   3.314   0.408
 3297TIP3   OH2 9833   4.578   7.031   4.486
 3297TIP3    H1 9834   4.540   6.946   4.463
 3297TIP3    H2 9835   4.609   7.067   4.403
 3298TIP3   OH2 9836   8.153   2.200   3.944
 3298TIP3    H1 9837   8.169   2.157   3.860
 3298TIP3    H2 9838   8.063   2.234   3.937
 3299TIP3   OH2 9839   0.200   2.637   5.056
 3299TIP3    H1 9840   0.180   2.730   5.063
 3299TIP3    H2 9841   0.123   2.593   5.091
 3300TIP3   OH2 9842   7.724   1.352   1.063
 3300TIP3    H1 9843   7.690   1.393   1.143
 3300TIP3    H2 9844   7.653   1.295   1.033
 3301TIP3   OH2 9845   0.062   7.536   1.784
 3301TIP3    H1 9846   0.057   7.443   1.763
 3301TIP3    H2 9847  -0.029   7.566   1.784
 3302TIP3   OH2 9848   2.920   3.013   3.834
 3302TIP3    H1 9849   2.915   3.092   3.887
 3302TIP3    H2 9850   2.831   2.999   3.803
 3303TIP3   OH2 9851   0.994   6.005   6.661
 3303TIP3    H1 9852   0.944   5.998   6.580
 3303TIP3    H2 9853   0.967   6.089   6.698
 3304TIP3   OH2 9854   1.477   4.855   1.919
 3304TIP3    H1 9855   1.403   4.847   1.859
 3304TIP3    H2 9856   1.516   4.767   1.920
 3305TIP3   OH2 9857   0.736   5.789   5.850
 3305TIP3    H1 9858   0.713   5.882   5.848
 3305TIP3    H2 9859   0.827   5.786   5.823
 3306TIP3   OH2 9860   1.476   7.550   0.067
 3306TIP3    H1 9861   1.560   7.526   0.028
 3306TIP3    H2 9862   1.454   7.477   0.125
 3307TIP3   OH2 9863   6.550   6.129   0.711
 3307TIP3    H1 9864   6.460   6.097   0.710
 3307TIP3    H2 9865   6.590   6.086   0.787
 3308TIP3   OH2 9866   3.799   1.355   5.924
 3308TIP3    H1 9867   3.804   1.436   5.975
 3308TIP3    H2 9868   3.875   1.357   5.867
 3309TIP3   OH2 9869   2.072   2.318   2.755
 3309TIP3    H1 9870   2.135   2.381   2.721
 3309TIP3    H2 9871   1.989   2.344   2.715
 3310TIP3   OH2 9872   2.044   4.563   2.652
 3310TIP3    H1 9873   2.043   4.655   2.679
 3310TIP3    H2 9874   2.135   4.546   2.626
 3311TIP3   OH2 9875   1.870   0.620   6.551
 3311TIP3    H1 9876   1.775   0.630   6.542
 3311TIP3    H2 9877   1.885   0.526   6.542
 3312TIP3   OH2 9878   2.148   1.876   2.522
 3312TIP3    H1 9879   2.077   1.868   2.459
 3312TIP3    H2 9880   2.211   1.808   2.497
 3313TIP3   OH2 9881   2.064   5.694   0.020
 3313TIP3    H1 9882   1.979   5.737   0.034
 3313TIP3    H2 9883   2.104   5.744  -0.051
 3314TIP3   OH2 9884   4.356   3.447   5.936
 3314TIP3    H1 9885   4.338   3.442   6.030
 3314TIP3    H2 9886   4.445   3.414   5.926
 3315TIP3   OH2 9887   1.673   2.391   5.205
 3315TIP3    H1 9888   1.759   2.400   5.246
 3315TIP3    H2 9889   1.629   2.324   5.257
 3316TIP3   OH2 9890   5.612   4.198   3.505
 3316TIP3    H1 9891   5.597   4.238   3.591
 3316TIP3    H2 9892   5.586   4.107   3.516
 3317TIP3   OH2 9893   4.995   1.350   2.376
 3317TIP3    H1 9894   5.050   1.280   2.340
 3317TIP3    H2 9895   5.046   1.430   2.361
 3318TIP3   OH2 9896   6.393   7.315   3.689
 3318TIP3    H1 9897   6.349   7.340   3.608
 3318TIP3    H2 9898   6.370   7.383   3.751
 3319TIP3   OH2 9899   2.417   1.059   5.969
 3319TIP3    H1 9900   2.483   0.990   5.973
 3319TIP3    H2 9901   2.356   1.030   5.901
 3320TIP3   OH2 9902   7.660   2.975   4.112
 3320TIP3    H1 9903   7.567   2.956   4.109
 3320TIP3    H2 9904   7.670   3.054   4.059
 3321TIP3   OH2 9905   1.028   3.713   1.510
 3321TIP3    H1 9906   1.059   3.802   1.522
 3321TIP3    H2 9907   0.935   3.722   1.489
 3322TIP3   OH2 9908   7.400   2.892   3.859
 3322TIP3    H1 9909   7.321   2.839   3.871
 3322TIP3    H2 9910   7.448   2.848   3.790
 3323TIP3   OH2 9911   2.977   0.624   2.007
 3323TIP3    H1 9912   2.951   0.694   2.068
 3323TIP3    H2 9913   3.068   0.642   1.987
 3324TIP3   OH2 9914   2.378   6.383   5.291
 3324TIP3    H1 9915   2.463   6.403   5.252
 3324TIP3    H2 9916   2.348   6.304   5.245
 3325TIP3   OH2 9917   4.510   3.856   4.178
 3325TIP3    H1 9918   4.561   3.935   4.198
 3325TIP3    H2 9919   4.419   3.884   4.185
 3326TIP3   OH2 9920   0.883   4.166   1.339
 3326TIP3    H1 9921   0.899   4.099   1.406
 3326TIP3    H2 9922   0.824   4.124   1.277
 3327TIP3   OH2 9923   0.020   4.733   2.422
 3327TIP3    H1 9924  -0.052   4.767   2.368
 3327TIP3    H2 9925  -0.023   4.699   2.500
 3328TIP3   OH2 9926   4.385   6.078   3.770
 3328TIP3    H1 9927   4.475   6.059   3.745
 3328TIP3    H2 9928   4.336   6.000   3.746
 3329TIP3   OH2 9929   4.579   7.027   3.161
 3329TIP3    H1 9930   4.510   7.081   3.121
 3329TIP3    H2 9931   4.532   6.949   3.192
 3330TIP3   OH2 9932   1.376   1.560   2.377
 3330TIP3    H1 9933   1.294   1.511   2.374
 3330TIP3    H2 9934   1.401   1.572   2.285
 3331TIP3   OH2 9935   5.971   4.322   1.176
 3331TIP3    H1 9936   6.042   4.261   1.155
 3331TIP3    H2 9937   5.916   4.274   1.238
 3332TIP3   OH2 9938   6.134   2.868   4.227
 3332TIP3    H1 9939   6.127   2.875   4.132
 3332TIP3    H2 9940   6.147   2.957   4.258
 3333TIP3   OH2 9941   5.313   0.207   5.623
 3333TIP3    H1 9942   5.233   0.258   5.613
 3333TIP3    H2 9943   5.334   0.215   5.716
 3334TIP3   OH2 9944   1.294   2.314   1.080
 3334TIP3    H1 9945   1.267   2.226   1.107
 3334TIP3    H2 9946   1.346   2.300   1.002
 3335TIP3   OH2 9947   4.450   1.057   5.748
 3335TIP3    H1 9948   4.501   1.120   5.696
 3335TIP3    H2 9949   4.516   0.998   5.785
 3336TIP3   OH2 9950   1.938   1.847   6.202
 3336TIP3    H1 9951   2.003   1.777   6.208
 3336TIP3    H2 9952   1.854   1.802   6.190
 3337TIP3   OH2 9953   8.064   1.763   6.691
 3337TIP3    H1 9954   8.032   1.750   6.781
 3337TIP3    H2 9955   7.999   1.718   6.637
 3338TIP3   OH2 9956   6.886   6.700   3.869
 3338TIP3    H1 9957   6.971   6.714   3.911
 3338TIP3    H2 9958   6.855   6.788   3.848
 3339TIP3   OH2 9959   4.443   3.837   5.348
 3339TIP3    H1 9960   4.448   3.928   5.375
 3339TIP3    H2 9961   4.534   3.809   5.342
 3340TIP3   OH2 9962   3.541   5.314   0.709
 3340TIP3    H1 9963   3.529   5.402   0.746
 3340TIP3    H2 9964   3.477   5.260   0.756
 3341TIP3   OH2 9965   5.988   2.570   4.364
 3341TIP3    H1 9966   5.916   2.508   4.370
 3341TIP3    H2 9967   5.962   2.631   4.294
 3342TIP3   OH2 9968   1.162   7.614   4.728
 3342TIP3    H1 9969   1.113   7.630   4.808
 3342TIP3    H2 9970   1.147   7.692   4.674
 3343TIP3   OH2 9971   5.774   1.407   6.295
 3343TIP3    H1 9972   5.731   1.361   6.223
 3343TIP3    H2 9973   5.819   1.481   6.253
 3344TIP3   OH2 9974   3.718   2.014   1.945
 3344TIP3    H1 9975   3.704   2.067   2.024
 3344TIP3    H2 9976   3.668   1.934   1.962
 3345TIP3   OH2 9977   5.096   1.166   4.159
 3345TIP3    H1 9978   5.053   1.219   4.226
 3345TIP3    H2 9979   5.137   1.094   4.208
 3346TIP3   OH2 9980   5.897   5.388   0.437
 3346TIP3    H1 9981   5.846   5.308   0.451
 3346TIP3    H2 9982   5.844   5.457   0.477
 3347TIP3   OH2 9983   6.983   2.316   3.113
 3347TIP3    H1 9984   6.973   2.406   3.080
 3347TIP3    H2 9985   6.897   2.294   3.149
 3348TIP3   OH2 9986   6.546   5.849   0.505
 3348TIP3    H1 9987   6.515   5.788   0.572
 3348TIP3    H2 9988   6.495   5.929   0.520
 3349TIP3   OH2 9989   6.644   2.899   3.538
 3349TIP3    H1 9990   6.654   2.853   3.622
 3349TIP3    H2 9991   6.723   2.952   3.530
 3350TIP3   OH2 9992   0.783   2.981   1.017
 3350TIP3    H1 9993   0.745   2.937   1.093
 3350TIP3    H2 9994   0.708   3.001   0.961
 3351TIP3   OH2 9995   1.236   3.568   0.734
 3351TIP3    H1 9996   1.153   3.549   0.777
 3351TIP3    H2 9997   1.261   3.655   0.766
 3352TIP3   OH2 9998   1.780   1.619   2.120
 3352TIP3    H1 9999   1.840   1.544   2.120
 3352TIP3    H210000   1.697   1.584   2.088
 3353TIP3   OH210001   3.589   5.635   4.620
 3353TIP3    H110002   3.495   5.647   4.626
 3353TIP3    H210003   3.624   5.675   4.700
 3354TIP3   OH210004   2.019   1.422   6.191
 3354TIP3    H110005   2.029   1.496   6.132
 3354TIP3    H210006   2.107   1.385   6.198
 3355TIP3   OH210007   4.489   3.540   1.129
 3355TIP3    H110008   4.469   3.543   1.035
 3355TIP3    H210009   4.553   3.611   1.142
 3356TIP3   OH210010   3.853   0.193   5.439
 3356TIP3    H110011   3.806   0.111   5.456
 3356TIP3    H210012   3.817   0.255   5.503
 3357TIP3   OH210013   5.887   5.491   5.710
 3357TIP3    H110014   5.837   5.556   5.760
 3357TIP3    H210015   5.957   5.464   5.769
 3358TIP3   OH210016   0.299   0.946   6.453
 3358TIP3    H110017   0.209   0.915   6.454
 3358TIP3    H210018   0.304   1.003   6.377
 3359TIP3   OH210019   1.803   0.312   3.151
 3359TIP3    H110020   1.726   0.264   3.121
 3359TIP3    H210021   1.855   0.326   3.072
 3360TIP3   OH210022   4.607   6.987   6.613
 3360TIP3    H110023   4.625   6.914   6.554
 3360TIP3    H210024   4.692   7.013   6.647
 3361TIP3   OH210025   0.226   0.340   3.088
 3361TIP3    H110026   0.171   0.409   3.051
 3361TIP3    H210027   0.226   0.271   3.022
 3362TIP3   OH210028   3.004   6.374   1.552
 3362TIP3    H110029   2.987   6.375   1.458
 3362TIP3    H210030   2.975   6.460   1.582
 3363TIP3   OH210031   2.266   1.645   1.754
 3363TIP3    H110032   2.327   1.691   1.697
 3363TIP3    H210033   2.244   1.565   1.705
 3364TIP3   OH210034   4.318   2.235   5.098
 3364TIP3    H110035   4.370   2.165   5.059
 3364TIP3    H210036   4.364   2.316   5.074
 3365TIP3   OH210037   6.026   7.738   2.973
 3365TIP3    H110038   5.987   7.781   3.048
 3365TIP3    H210039   5.976   7.656   2.964
 3366TIP3   OH210040   4.750   6.527   1.433
 3366TIP3    H110041   4.829   6.579   1.420
 3366TIP3    H210042   4.678   6.587   1.414
 3367TIP3   OH210043   6.847   0.287   1.520
 3367TIP3    H110044   6.774   0.296   1.458
 3367TIP3    H210045   6.818   0.220   1.581
 3368TIP3   OH210046   2.162   5.185   3.061
 3368TIP3    H110047   2.093   5.229   3.112
 3368TIP3    H210048   2.187   5.111   3.116
 3369TIP3   OH210049   3.540   3.482   5.263
 3369TIP3    H110050   3.478   3.422   5.304
 3369TIP3    H210051   3.625   3.456   5.297
 3370TIP3   OH210052   4.774   1.131   5.346
 3370TIP3    H110053   4.816   1.190   5.408
 3370TIP3    H210054   4.709   1.085   5.397
 3371TIP3   OH210055   2.674   6.869   3.656
 3371TIP3    H110056   2.623   6.927   3.713
 3371TIP3    H210057   2.636   6.883   3.569
 3372TIP3   OH210058   2.196   4.352   1.455
 3372TIP3    H110059   2.161   4.357   1.544
 3372TIP3    H210060   2.207   4.443   1.429
 3373TIP3   OH210061   5.581   1.877   4.340
 3373TIP3    H110062   5.631   1.867   4.421
 3373TIP3    H210063   5.495   1.842   4.361
 3374TIP3   OH210064   5.041   6.549   6.223
 3374TIP3    H110065   5.017   6.625   6.169
 3374TIP3    H210066   5.035   6.474   6.163
 3375TIP3   OH210067   1.130   3.765   2.763
 3375TIP3    H110068   1.174   3.801   2.841
 3375TIP3    H210069   1.135   3.836   2.699
 3376TIP3   OH210070   3.552   6.341   3.032
 3376TIP3    H110071   3.496   6.264   3.020
 3376TIP3    H210072   3.530   6.374   3.119
 3377TIP3   OH210073   2.895   5.203   1.859
 3377TIP3    H110074   2.807   5.233   1.835
 3377TIP3    H210075   2.952   5.238   1.792
 3378TIP3   OH210076   6.714   5.572   5.238
 3378TIP3    H110077   6.764   5.494   5.212
 3378TIP3    H210078   6.700   5.620   5.156
 3379TIP3   OH210079   4.711   4.597   5.716
 3379TIP3    H110080   4.794   4.576   5.760
 3379TIP3    H210081   4.679   4.512   5.684
 3380TIP3   OH210082   7.441   0.971   3.258
 3380TIP3    H110083   7.525   0.963   3.212
 3380TIP3    H210084   7.463   1.013   3.341
 3381TIP3   OH210085   6.143   2.005   6.497
 3381TIP3    H110086   6.177   1.915   6.491
 3381TIP3    H210087   6.194   2.045   6.567
 3382TIP3   OH210088   3.764   3.977   6.536
 3382TIP3    H110089   3.837   3.926   6.570
 3382TIP3    H210090   3.796   4.011   6.452
 3383TIP3   OH210091   2.168   1.260   1.978
 3383TIP3    H110092   2.200   1.195   2.041
 3383TIP3    H210093   2.075   1.271   2.000
 3384TIP3   OH210094   3.374   0.406   1.067
 3384TIP3    H110095   3.344   0.458   0.992
 3384TIP3    H210096   3.311   0.335   1.075
 3385TIP3   OH210097   7.615   3.438   6.069
 3385TIP3    H110098   7.695   3.469   6.028
 3385TIP3    H210099   7.547   3.454   6.004
 3386TIP3   OH210100   8.113   3.869   6.581
 3386TIP3    H110101   8.177   3.886   6.651
 3386TIP3    H210102   8.053   3.943   6.584
 3387TIP3   OH210103   0.247   3.463   4.726
 3387TIP3    H110104   0.160   3.427   4.709
 3387TIP3    H210105   0.237   3.512   4.808
 3388TIP3   OH210106   4.270   0.439   2.045
 3388TIP3    H110107   4.225   0.512   2.089
 3388TIP3    H210108   4.204   0.370   2.038
 3389TIP3   OH210109   7.618   5.968   1.582
 3389TIP3    H110110   7.560   5.952   1.508
 3389TIP3    H210111   7.612   6.062   1.597
 3390TIP3   OH210112   3.155   5.922   5.834
 3390TIP3    H110113   3.063   5.942   5.850
 3390TIP3    H210114   3.201   6.002   5.860
 3391TIP3   OH210115   4.932   0.860   3.876
 3391TIP3    H110116   4.992   0.817   3.936
 3391TIP3    H210117   4.852   0.808   3.881
 3392TIP3   OH210118   1.066   4.154   2.404
 3392TIP3    H110119   1.069   4.094   2.329
 3392TIP3    H210120   1.066   4.241   2.365
 3393TIP3   OH210121   6.773   4.015   4.895
 3393TIP3    H110122   6.755   3.998   4.988
 3393TIP3    H210123   6.721   4.092   4.874
 3394TIP3   OH210124   3.366   0.039   4.532
 3394TIP3    H110125   3.345   0.100   4.461
 3394TIP3    H210126   3.449   0.072   4.567
 3395TIP3   OH210127   0.234   0.533   3.569
 3395TIP3    H110128   0.263   0.468   3.505
 3395TIP3    H210129   0.274   0.506   3.651
 3396TIP3   OH210130   1.776   0.871   0.522
 3396TIP3    H110131   1.707   0.804   0.522
 3396TIP3    H210132   1.755   0.928   0.449
 3397TIP3   OH210133   4.938   2.061   0.405
 3397TIP3    H110134   4.851   2.028   0.383
 3397TIP3    H210135   4.992   2.038   0.330
 3398TIP3   OH210136   1.709   4.447   3.004
 3398TIP3    H110137   1.750   4.476   3.085
 3398TIP3    H210138   1.658   4.523   2.974
 3399TIP3   OH210139   5.060   2.403   0.485
 3399TIP3    H110140   5.098   2.448   0.410
 3399TIP3    H210141   4.968   2.389   0.460
 3400TIP3   OH210142  -0.005   6.492   3.241
 3400TIP3    H110143   0.080   6.464   3.206
 3400TIP3    H210144   0.016   6.527   3.328
 3401TIP3   OH210145   6.929   0.737   4.908
 3401TIP3    H110146   6.999   0.724   4.972
 3401TIP3    H210147   6.853   0.695   4.947
 3402TIP3   OH210148   3.560   2.590   1.619
 3402TIP3    H110149   3.595   2.515   1.571
 3402TIP3    H210150   3.468   2.569   1.633
 3403TIP3   OH210151  -0.007   4.649   0.224
 3403TIP3    H110152  -0.050   4.624   0.305
 3403TIP3    H210153   0.076   4.688   0.252
 3404TIP3   OH210154   4.548   4.057   5.567
 3404TIP3    H110155   4.568   4.095   5.653
 3404TIP3    H210156   4.607   4.102   5.507
 3405TIP3   OH210157   3.234   4.792   3.223
 3405TIP3    H110158   3.320   4.755   3.241
 3405TIP3    H210159   3.233   4.876   3.270
 3406TIP3   OH210160   1.924   3.686   5.120
 3406TIP3    H110161   1.912   3.760   5.061
 3406TIP3    H210162   1.893   3.719   5.205
 3407TIP3   OH210163   0.023   7.024   3.378
 3407TIP3    H110164   0.035   6.998   3.287
 3407TIP3    H210165   0.068   7.109   3.385
 3408TIP3   OH210166   5.123   3.201   0.067
 3408TIP3    H110167   5.198   3.142   0.066
 3408TIP3    H210168   5.054   3.151   0.111
 3409TIP3   OH210169   4.318   7.648   2.642
 3409TIP3    H110170   4.345   7.739   2.632
 3409TIP3    H210171   4.389   7.608   2.693
 3410TIP3   OH210172   5.655   2.823   1.218
 3410TIP3    H110173   5.628   2.805   1.128
 3410TIP3    H210174   5.580   2.866   1.258
 3411TIP3   OH210175   0.931   1.356   3.380
 3411TIP3    H110176   0.962   1.313   3.300
 3411TIP3    H210177   0.956   1.447   3.369
 3412TIP3   OH210178   3.706   7.723   4.344
 3412TIP3    H110179   3.687   7.790   4.410
 3412TIP3    H210180   3.659   7.646   4.374
 3413TIP3   OH210181   6.641   0.401   3.725
 3413TIP3    H110182   6.585   0.387   3.649
 3413TIP3    H210183   6.672   0.314   3.748
 3414TIP3   OH210184   7.853   5.804   2.476
 3414TIP3    H110185   7.927   5.821   2.535
 3414TIP3    H210186   7.789   5.871   2.498
 3415TIP3   OH210187   5.007   1.295   3.111
 3415TIP3    H110188   5.048   1.369   3.155
 3415TIP3    H210189   4.933   1.272   3.168
 3416TIP3   OH210190   7.514   0.519   1.158
 3416TIP3    H110191   7.445   0.492   1.096
 3416TIP3    H210192   7.541   0.438   1.200
 3417TIP3   OH210193   5.350   7.717   3.931
 3417TIP3    H110194   5.276   7.735   3.989
 3417TIP3    H210195   5.316   7.654   3.868
 3418TIP3   OH210196   5.849   1.903   2.648
 3418TIP3    H110197   5.780   1.967   2.631
 3418TIP3    H210198   5.807   1.818   2.634
 3419TIP3   OH210199   7.140   3.980   1.378
 3419TIP3    H110200   7.194   4.037   1.323
 3419TIP3    H210201   7.201   3.942   1.441
 3420TIP3   OH210202   0.094   7.165   6.534
 3420TIP3    H110203   0.022   7.228   6.529
 3420TIP3    H210204   0.087   7.128   6.622
 3421TIP3   OH210205   5.448   7.757   0.346
 3421TIP3    H110206   5.383   7.765   0.415
 3421TIP3    H210207   5.531   7.778   0.389
 3422TIP3   OH210208   4.891   6.742   5.473
 3422TIP3    H110209   4.827   6.673   5.486
 3422TIP3    H210210   4.912   6.737   5.379
 3423TIP3   OH210211   0.666   6.629   6.181
 3423TIP3    H110212   0.617   6.673   6.251
 3423TIP3    H210213   0.652   6.684   6.104
 3424TIP3   OH210214   6.411   5.046   0.461
 3424TIP3    H110215   6.444   5.017   0.375
 3424TIP3    H210216   6.476   5.109   0.491
 3425TIP3   OH210217   6.844   2.856   4.287
 3425TIP3    H110218   6.806   2.943   4.272
 3425TIP3    H210219   6.793   2.820   4.360
 3426TIP3   OH210220   7.981   5.692   2.262
 3426TIP3    H110221   7.922   5.733   2.326
 3426TIP3    H210222   7.942   5.711   2.177
 3427TIP3   OH210223   1.745   5.378   6.655
 3427TIP3    H110224   1.792   5.459   6.639
 3427TIP3    H210225   1.681   5.400   6.723
 3428TIP3   OH210226   0.131   1.951   3.996
 3428TIP3    H110227   0.108   2.027   3.942
 3428TIP3    H210228   0.223   1.936   3.979
 3429TIP3   OH210229   3.075   0.971   5.370
 3429TIP3    H110230   3.036   1.055   5.396
 3429TIP3    H210231   3.170   0.985   5.378
 3430TIP3   OH210232   2.373   2.379   5.594
 3430TIP3    H110233   2.449   2.346   5.641
 3430TIP3    H210234   2.341   2.452   5.647
 3431TIP3   OH210235   2.438   1.337   2.224
 3431TIP3    H110236   2.393   1.372   2.300
 3431TIP3    H210237   2.406   1.389   2.151
 3432TIP3   OH210238   6.563   7.603   1.736
 3432TIP3    H110239   6.623   7.559   1.675
 3432TIP3    H210240   6.476   7.588   1.700
 3433TIP3   OH210241   7.023   7.391   6.441
 3433TIP3    H110242   7.028   7.431   6.528
 3433TIP3    H210243   7.017   7.297   6.457
 3434TIP3   OH210244   4.123   5.195   0.277
 3434TIP3    H110245   4.052   5.256   0.255
 3434TIP3    H210246   4.185   5.203   0.204
 3435TIP3   OH210247   8.122   4.687   1.480
 3435TIP3    H110248   8.166   4.607   1.507
 3435TIP3    H210249   8.030   4.671   1.499
 3436TIP3   OH210250   7.262   5.778   0.051
 3436TIP3    H110251   7.268   5.844   0.120
 3436TIP3    H210252   7.334   5.718   0.069
 3437TIP3   OH210253   5.815   3.571   3.972
 3437TIP3    H110254   5.758   3.629   4.021
 3437TIP3    H210255   5.801   3.594   3.880
 3438TIP3   OH210256   0.657   4.972   0.264
 3438TIP3    H110257   0.636   4.886   0.300
 3438TIP3    H210258   0.591   5.031   0.301
 3439TIP3   OH210259   8.188   2.535   4.080
 3439TIP3    H110260   8.151   2.462   4.130
 3439TIP3    H210261   8.112   2.584   4.049
 3440TIP3   OH210262   6.328   1.175   3.283
 3440TIP3    H110263   6.365   1.248   3.232
 3440TIP3    H210264   6.242   1.161   3.245
 3441TIP3   OH210265   5.096   2.330   5.859
 3441TIP3    H110266   5.113   2.390   5.787
 3441TIP3    H210267   5.034   2.377   5.916
 3442TIP3   OH210268   7.353   1.405   4.418
 3442TIP3    H110269   7.411   1.354   4.475
 3442TIP3    H210270   7.298   1.339   4.375
 3443TIP3   OH210271   5.639   1.752   0.949
 3443TIP3    H110272   5.638   1.802   0.868
 3443TIP3    H210273   5.641   1.818   1.018
 3444TIP3   OH210274   4.949   1.634   1.572
 3444TIP3    H110275   4.903   1.570   1.518
 3444TIP3    H210276   4.908   1.718   1.550
 3445TIP3   OH210277   1.516   5.474   2.319
 3445TIP3    H110278   1.549   5.544   2.262
 3445TIP3    H210279   1.462   5.420   2.262
 3446TIP3   OH210280   7.864   4.402   0.732
 3446TIP3    H110281   7.916   4.363   0.662
 3446TIP3    H210282   7.785   4.347   0.737
 3447TIP3   OH210283   6.328   7.248   1.385
 3447TIP3    H110284   6.406   7.281   1.429
 3447TIP3    H210285   6.323   7.298   1.304
 3448TIP3   OH210286   4.352   4.117   0.080
 3448TIP3    H110287   4.353   4.196   0.134
 3448TIP3    H210288   4.282   4.063   0.117
 3449TIP3   OH210289   5.084   2.409   2.077
 3449TIP3    H110290   5.091   2.415   2.172
 3449TIP3    H210291   5.167   2.446   2.045
 3450TIP3   OH210292   7.792   4.857   4.904
 3450TIP3    H110293   7.753   4.832   4.988
 3450TIP3    H210294   7.806   4.951   4.911
 3451TIP3   OH210295   1.509   3.637   5.213
 3451TIP3    H110296   1.523   3.702   5.144
 3451TIP3    H210297   1.440   3.673   5.267
 3452TIP3   OH210298   5.818   3.859   6.038
 3452TIP3    H110299   5.723   3.852   6.031
 3452TIP3    H210300   5.851   3.833   5.952
 3453TIP3   OH210301   4.061   2.109   5.795
 3453TIP3    H110302   3.986   2.061   5.759
 3453TIP3    H210303   4.085   2.062   5.875
 3454TIP3   OH210304   1.751   5.146   6.540
 3454TIP3    H110305   1.768   5.237   6.565
 3454TIP3    H210306   1.777   5.095   6.617
 3455TIP3   OH210307   4.367   3.780   6.238
 3455TIP3    H110308   4.352   3.760   6.330
 3455TIP3    H210309   4.286   3.755   6.194
 3456TIP3   OH210310   2.076   2.145   4.896
 3456TIP3    H110311   2.049   2.220   4.949
 3456TIP3    H210312   2.122   2.088   4.958
 3457TIP3   OH210313   7.939   2.000   2.354
 3457TIP3    H110314   7.862   1.955   2.318
 3457TIP3    H210315   8.010   1.937   2.342
 3458TIP3   OH210316   7.032   0.618   5.746
 3458TIP3    H110317   7.025   0.675   5.669
 3458TIP3    H210318   6.947   0.574   5.751
 3459TIP3   OH210319   3.000   1.723   4.257
 3459TIP3    H110320   3.073   1.740   4.316
 3459TIP3    H210321   3.024   1.768   4.176
 3460TIP3   OH210322   6.866   6.111   4.034
 3460TIP3    H110323   6.850   6.205   4.044
 3460TIP3    H210324   6.924   6.089   4.106
 3461TIP3   OH210325   0.531   1.272   5.811
 3461TIP3    H110326   0.562   1.184   5.831
 3461TIP3    H210327   0.612   1.322   5.795
 3462TIP3   OH210328   7.670   7.337   4.352
 3462TIP3    H110329   7.650   7.349   4.259
 3462TIP3    H210330   7.614   7.399   4.397
 3463TIP3   OH210331   7.639   6.473   0.498
 3463TIP3    H110332   7.609   6.382   0.498
 3463TIP3    H210333   7.712   6.474   0.558
 3464TIP3   OH210334   2.612   6.483   1.197
 3464TIP3    H110335   2.666   6.429   1.255
 3464TIP3    H210336   2.546   6.423   1.162
 3465TIP3   OH210337   2.893   1.971   1.377
 3465TIP3    H110338   2.824   1.984   1.443
 3465TIP3    H210339   2.957   1.915   1.420
 3466TIP3   OH210340   6.266   6.796   1.502
 3466TIP3    H110341   6.299   6.733   1.438
 3466TIP3    H210342   6.345   6.833   1.541
 3467TIP3   OH210343   8.035   2.230   2.931
 3467TIP3    H110344   8.006   2.173   3.001
 3467TIP3    H210345   7.966   2.222   2.864
 3468TIP3   OH210346   3.094   1.771   5.337
 3468TIP3    H110347   3.082   1.849   5.392
 3468TIP3    H210348   3.176   1.788   5.290
 3469TIP3   OH210349   8.027   5.603   5.939
 3469TIP3    H110350   8.105   5.595   5.883
 3469TIP3    H210351   8.012   5.698   5.945
 3470TIP3   OH210352   5.953   2.378   4.725
 3470TIP3    H110353   5.872   2.373   4.775
 3470TIP3    H210354   5.977   2.470   4.727
 3471TIP3   OH210355   2.995   5.246   4.537
 3471TIP3    H110356   3.012   5.297   4.616
 3471TIP3    H210357   2.900   5.234   4.535
 3472TIP3   OH210358   6.615   3.599   0.567
 3472TIP3    H110359   6.599   3.685   0.605
 3472TIP3    H210360   6.619   3.540   0.642
 3473TIP3   OH210361   0.307   3.153   5.106
 3473TIP3    H110362   0.362   3.165   5.183
 3473TIP3    H210363   0.341   3.075   5.063
 3474TIP3   OH210364   4.765   5.796   2.107
 3474TIP3    H110365   4.847   5.846   2.113
 3474TIP3    H210366   4.781   5.734   2.035
 3475TIP3   OH210367   6.662   7.188   1.737
 3475TIP3    H110368   6.712   7.116   1.774
 3475TIP3    H210369   6.595   7.208   1.803
 3476TIP3   OH210370   5.091   0.966   4.789
 3476TIP3    H110371   5.146   0.889   4.773
 3476TIP3    H210372   5.063   0.956   4.880
 3477TIP3   OH210373   7.464   1.839   3.171
 3477TIP3    H110374   7.495   1.840   3.081
 3477TIP3    H210375   7.544   1.834   3.224
 3478TIP3   OH210376   6.123   6.757   6.081
 3478TIP3    H110377   6.080   6.752   6.167
 3478TIP3    H210378   6.204   6.707   6.092
 3479TIP3   OH210379   5.862   4.972   0.244
 3479TIP3    H110380   5.905   4.902   0.195
 3479TIP3    H210381   5.823   5.028   0.177
 3480TIP3   OH210382   0.569   0.799   0.079
 3480TIP3    H110383   0.568   0.789  -0.017
 3480TIP3    H210384   0.589   0.712   0.112
 3481TIP3   OH210385   5.385   6.507   1.430
 3481TIP3    H110386   5.319   6.505   1.500
 3481TIP3    H210387   5.466   6.530   1.475
 3482TIP3   OH210388   1.071   3.830   4.670
 3482TIP3    H110389   1.037   3.753   4.715
 3482TIP3    H210390   1.065   3.809   4.577
 3483TIP3   OH210391   0.896   2.014   2.980
 3483TIP3    H110392   0.986   2.044   2.977
 3483TIP3    H210393   0.862   2.029   2.892
 3484TIP3   OH210394   3.648   5.119   4.240
 3484TIP3    H110395   3.637   5.130   4.334
 3484TIP3    H210396   3.666   5.026   4.228
 3485TIP3   OH210397   2.166   4.161   3.479
 3485TIP3    H110398   2.105   4.107   3.530
 3485TIP3    H210399   2.190   4.232   3.539
 3486TIP3   OH210400   6.011   7.080   1.670
 3486TIP3    H110401   6.073   7.031   1.724
 3486TIP3    H210402   6.032   7.055   1.580
 3487TIP3   OH210403   2.527   6.345   6.175
 3487TIP3    H110404   2.457   6.373   6.234
 3487TIP3    H210405   2.573   6.426   6.153
 3488TIP3   OH210406   6.076   2.021   6.238
 3488TIP3    H110407   6.164   1.993   6.213
 3488TIP3    H210408   6.084   2.047   6.329
 3489TIP3   OH210409   3.581   3.684   4.956
 3489TIP3    H110410   3.626   3.600   4.961
 3489TIP3    H210411   3.593   3.724   5.042
 3490TIP3   OH210412   6.526   3.947   2.789
 3490TIP3    H110413   6.586   4.000   2.736
 3490TIP3    H210414   6.471   4.011   2.834
 3491TIP3   OH210415   6.059   5.416   6.616
 3491TIP3    H110416   6.105   5.361   6.552
 3491TIP3    H210417   6.024   5.354   6.681
 3492TIP3   OH210418   7.496   5.019   4.723
 3492TIP3    H110419   7.477   4.930   4.753
 3492TIP3    H210420   7.416   5.069   4.744
 3493TIP3   OH210421   0.241   0.500   6.484
 3493TIP3    H110422   0.317   0.461   6.442
 3493TIP3    H210423   0.202   0.428   6.535
 3494TIP3   OH210424   1.574   3.495   4.935
 3494TIP3    H110425   1.568   3.547   4.855
 3494TIP3    H210426   1.565   3.559   5.006
 3495TIP3   OH210427   0.760   2.534   3.532
 3495TIP3    H110428   0.793   2.624   3.523
 3495TIP3    H210429   0.696   2.540   3.602
 3496TIP3   OH210430   7.286   4.199   2.484
 3496TIP3    H110431   7.312   4.210   2.575
 3496TIP3    H210432   7.284   4.287   2.448
 3497TIP3   OH210433   1.780   7.065   3.063
 3497TIP3    H110434   1.759   7.025   2.979
 3497TIP3    H210435   1.873   7.047   3.076
 3498TIP3   OH210436   0.604   6.987   6.383
 3498TIP3    H110437   0.618   7.046   6.456
 3498TIP3    H210438   0.541   6.922   6.416
 3499TIP3   OH210439   2.268   5.841   0.361
 3499TIP3    H110440   2.354   5.799   0.356
 3499TIP3    H210441   2.206   5.768   0.366
 3500TIP3   OH210442   1.661   3.743   2.110
 3500TIP3    H110443   1.689   3.782   2.193
 3500TIP3    H210444   1.717   3.783   2.044
 3501TIP3   OH210445   6.050   3.067   4.530
 3501TIP3    H110446   6.057   2.974   4.549
 3501TIP3    H210447   5.960   3.089   4.553
 3502TIP3   OH210448   7.446   0.263   3.972
 3502TIP3    H110449   7.440   0.195   4.039
 3502TIP3    H210450   7.408   0.222   3.894
 3503TIP3   OH210451   3.381   3.297   4.269
 3503TIP3    H110452   3.335   3.227   4.223
 3503TIP3    H210453   3.442   3.251   4.327
 3504TIP3   OH210454   4.726   6.274   2.460
 3504TIP3    H110455   4.655   6.275   2.525
 3504TIP3    H210456   4.716   6.356   2.413
 3505TIP3   OH210457   5.779   4.931   5.891
 3505TIP3    H110458   5.842   5.000   5.912
 3505TIP3    H210459   5.702   4.951   5.944
 3506TIP3   OH210460   4.469   2.513   0.612
 3506TIP3    H110461   4.530   2.547   0.547
 3506TIP3    H210462   4.439   2.591   0.660
 3507TIP3   OH210463   5.673   2.591   3.624
 3507TIP3    H110464   5.719   2.523   3.574
 3507TIP3    H210465   5.737   2.663   3.630
 3508TIP3   OH210466   0.810   1.025   4.075
 3508TIP3    H110467   0.860   1.056   4.150
 3508TIP3    H210468   0.805   1.100   4.016
 3509TIP3   OH210469   1.579   3.181   0.620
 3509TIP3    H110470   1.642   3.109   0.614
 3509TIP3    H210471   1.625   3.249   0.669
 3510TIP3   OH210472   3.282   6.697   1.472
 3510TIP3    H110473   3.225   6.762   1.430
 3510TIP3    H210474   3.370   6.729   1.455
 3511TIP3   OH210475   1.070   5.169   1.726
 3511TIP3    H110476   1.019   5.133   1.654
 3511TIP3    H210477   1.076   5.263   1.707
 3512TIP3   OH210478   3.930   2.846   3.011
 3512TIP3    H110479   4.014   2.843   3.057
 3512TIP3    H210480   3.866   2.823   3.078
 3513TIP3   OH210481   0.196   0.336   5.756
 3513TIP3    H110482   0.175   0.360   5.666
 3513TIP3    H210483   0.112   0.338   5.802
 3514TIP3   OH210484   6.358   3.808   4.803
 3514TIP3    H110485   6.334   3.761   4.883
 3514TIP3    H210486   6.393   3.892   4.834
 3515TIP3   OH210487   7.407   3.861   4.192
 3515TIP3    H110488   7.341   3.925   4.217
 3515TIP3    H210489   7.385   3.783   4.243
 3516TIP3   OH210490   6.754   5.992   5.190
 3516TIP3    H110491   6.849   5.979   5.185
 3516TIP3    H210492   6.736   6.062   5.128
 3517TIP3   OH210493   3.738   4.215   2.403
 3517TIP3    H110494   3.804   4.165   2.451
 3517TIP3    H210495   3.668   4.152   2.385
 3518TIP3   OH210496   4.067   4.413   2.514
 3518TIP3    H110497   4.107   4.331   2.541
 3518TIP3    H210498   4.038   4.398   2.424
 3519TIP3   OH210499   4.706   0.487   4.808
 3519TIP3    H110500   4.750   0.409   4.773
 3519TIP3    H210501   4.749   0.560   4.764
 3520TIP3   OH210502   5.487   3.953   2.289
 3520TIP3    H110503   5.446   3.869   2.308
 3520TIP3    H210504   5.459   4.010   2.361
 3521TIP3   OH210505   5.018   4.564   1.676
 3521TIP3    H110506   4.923   4.571   1.683
 3521TIP3    H210507   5.038   4.474   1.702
 3522TIP3   OH210508   3.252   0.666   2.509
 3522TIP3    H110509   3.192   0.718   2.562
 3522TIP3    H210510   3.232   0.575   2.533
 3523TIP3   OH210511   0.227   7.347   1.480
 3523TIP3    H110512   0.306   7.310   1.441
 3523TIP3    H210513   0.160   7.281   1.467
 3524TIP3   OH210514   6.223   6.348   5.509
 3524TIP3    H110515   6.227   6.331   5.603
 3524TIP3    H210516   6.293   6.294   5.471
 3525TIP3   OH210517   2.102   5.876   4.262
 3525TIP3    H110518   2.180   5.891   4.315
 3525TIP3    H210519   2.135   5.842   4.179
 3526TIP3   OH210520   3.293   3.122   1.317
 3526TIP3    H110521   3.200   3.105   1.333
 3526TIP3    H210522   3.313   3.071   1.238
 3527TIP3   OH210523   4.797   0.345   6.428
 3527TIP3    H110524   4.818   0.362   6.519
 3527TIP3    H210525   4.734   0.414   6.405
 3528TIP3   OH210526   5.335   3.660   2.661
 3528TIP3    H110527   5.263   3.649   2.598
 3528TIP3    H210528   5.412   3.624   2.616
 3529TIP3   OH210529   1.206   7.483   5.488
 3529TIP3    H110530   1.227   7.562   5.539
 3529TIP3    H210531   1.143   7.436   5.543
 3530TIP3   OH210532   1.382   1.040   1.543
 3530TIP3    H110533   1.416   1.114   1.593
 3530TIP3    H210534   1.446   1.026   1.473
 3531TIP3   OH210535   0.344   4.656   1.930
 3531TIP3    H110536   0.314   4.601   1.858
 3531TIP3    H210537   0.438   4.636   1.937
 3532TIP3   OH210538   8.103   3.002   0.481
 3532TIP3    H110539   8.136   2.930   0.535
 3532TIP3    H210540   8.108   3.079   0.538
 3533TIP3   OH210541   4.635   4.768   1.751
 3533TIP3    H110542   4.613   4.858   1.727
 3533TIP3    H210543   4.591   4.714   1.686
 3534TIP3   OH210544   6.228   5.619   0.260
 3534TIP3    H110545   6.156   5.628   0.322
 3534TIP3    H210546   6.232   5.526   0.241
 3535TIP3   OH210547   2.637   3.668   6.233
 3535TIP3    H110548   2.549   3.648   6.201
 3535TIP3    H210549   2.678   3.717   6.162
 3536TIP3   OH210550   6.913   4.974   3.968
 3536TIP3    H110551   6.854   4.922   4.022
 3536TIP3    H210552   7.000   4.960   4.007
 3537TIP3   OH210553   0.875   6.230   2.715
 3537TIP3    H110554   0.827   6.236   2.633
 3537TIP3    H210555   0.834   6.295   2.772
 3538TIP3   OH210556   0.536   7.668   3.712
 3538TIP3    H110557   0.517   7.761   3.726
 3538TIP3    H210558   0.513   7.652   3.620
 3539TIP3   OH210559   7.941   0.305   4.949
 3539TIP3    H110560   7.896   0.286   4.867
 3539TIP3    H210561   7.958   0.220   4.988
 3540TIP3   OH210562   3.724   3.906   2.776
 3540TIP3    H110563   3.803   3.910   2.829
 3540TIP3    H210564   3.659   3.958   2.824
 3541TIP3   OH210565   0.096   2.726   1.196
 3541TIP3    H110566   0.100   2.765   1.283
 3541TIP3    H210567   0.032   2.779   1.148
 3542TIP3   OH210568   8.162   5.213   0.471
 3542TIP3    H110569   8.219   5.289   0.480
 3542TIP3    H210570   8.079   5.249   0.439
 3543TIP3   OH210571   0.433   6.972   4.592
 3543TIP3    H110572   0.454   6.894   4.643
 3543TIP3    H210573   0.437   6.944   4.501
 3544TIP3   OH210574   5.939   4.429   4.878
 3544TIP3    H110575   5.879   4.485   4.827
 3544TIP3    H210576   5.935   4.344   4.836
 3545TIP3   OH210577   7.895   2.470   3.159
 3545TIP3    H110578   7.984   2.500   3.178
 3545TIP3    H210579   7.844   2.493   3.236
 3546TIP3   OH210580   5.848   5.819   1.244
 3546TIP3    H110581   5.888   5.905   1.248
 3546TIP3    H210582   5.887   5.771   1.317
 3547TIP3   OH210583   7.031   1.037   3.860
 3547TIP3    H110584   6.998   1.103   3.798
 3547TIP3    H210585   6.960   0.972   3.865
 3548TIP3   OH210586   7.383   7.699   5.219
 3548TIP3    H110587   7.329   7.672   5.145
 3548TIP3    H210588   7.404   7.791   5.201
 3549TIP3   OH210589   7.041   5.894   0.764
 3549TIP3    H110590   6.994   5.828   0.713
 3549TIP3    H210591   7.045   5.857   0.853
 3550TIP3   OH210592   1.761   5.522   5.642
 3550TIP3    H110593   1.852   5.541   5.617
 3550TIP3    H210594   1.711   5.595   5.607
 3551TIP3   OH210595   4.827   0.413   2.558
 3551TIP3    H110596   4.905   0.365   2.530
 3551TIP3    H210597   4.812   0.385   2.648
 3552TIP3   OH210598   1.319   4.299   5.366
 3552TIP3    H110599   1.245   4.359   5.357
 3552TIP3    H210600   1.372   4.336   5.436
 3553TIP3   OH210601   3.794   5.483   4.847
 3553TIP3    H110602   3.710   5.501   4.889
 3553TIP3    H210603   3.852   5.550   4.883
 3554TIP3   OH210604   0.886   1.157   0.071
 3554TIP3    H110605   0.958   1.148   0.133
 3554TIP3    H210606   0.814   1.107   0.109
 3555TIP3   OH210607   6.926   2.730   0.528
 3555TIP3    H110608   6.894   2.756   0.441
 3555TIP3    H210609   7.021   2.729   0.519
 3556TIP3   OH210610   7.993   4.040   0.749
 3556TIP3    H110611   7.939   3.961   0.756
 3556TIP3    H210612   8.083   4.008   0.742
 3557TIP3   OH210613   8.284   4.019   3.033
 3557TIP3    H110614   8.307   3.932   3.066
 3557TIP3    H210615   8.211   4.047   3.087
 3558TIP3   OH210616   3.085   0.226   0.348
 3558TIP3    H110617   3.004   0.212   0.396
 3558TIP3    H210618   3.095   0.147   0.295
 3559TIP3   OH210619   1.325   6.392   1.592
 3559TIP3    H110620   1.290   6.384   1.504
 3559TIP3    H210621   1.383   6.316   1.601
 3560TIP3   OH210622   2.656   2.484   0.899
 3560TIP3    H110623   2.605   2.504   0.978
 3560TIP3    H210624   2.592   2.445   0.839
 3561TIP3   OH210625   3.523   6.935   0.282
 3561TIP3    H110626   3.431   6.907   0.280
 3561TIP3    H210627   3.569   6.868   0.232
 3562TIP3   OH210628   5.475   3.808   3.232
 3562TIP3    H110629   5.397   3.833   3.181
 3562TIP3    H210630   5.514   3.737   3.182
 3563TIP3   OH210631   3.812   0.142   3.012
 3563TIP3    H110632   3.885   0.197   3.039
 3563TIP3    H210633   3.788   0.175   2.925
 3564TIP3   OH210634   6.981   7.217   0.253
 3564TIP3    H110635   7.074   7.237   0.261
 3564TIP3    H210636   6.950   7.215   0.344
 3565TIP3   OH210637   6.044   3.907   5.289
 3565TIP3    H110638   5.993   3.987   5.275
 3565TIP3    H210639   6.135   3.937   5.289
 3566TIP3   OH210640   6.999   4.650   0.445
 3566TIP3    H110641   6.946   4.603   0.380
 3566TIP3    H210642   7.080   4.600   0.451
 3567TIP3   OH210643   4.264   1.228   4.785
 3567TIP3    H110644   4.352   1.202   4.757
 3567TIP3    H210645   4.275   1.316   4.821
 3568TIP3   OH210646   4.054   3.556   1.268
 3568TIP3    H110647   3.980   3.580   1.323
 3568TIP3    H210648   4.016   3.507   1.196
 3569TIP3   OH210649   5.007   3.007   4.899
 3569TIP3    H110650   4.918   3.010   4.934
 3569TIP3    H210651   4.996   3.023   4.805
 3570TIP3   OH210652   1.883   6.542   1.319
 3570TIP3    H110653   1.873   6.603   1.391
 3570TIP3    H210654   1.973   6.509   1.328
 3571TIP3   OH210655   1.179   6.277   3.771
 3571TIP3    H110656   1.091   6.312   3.759
 3571TIP3    H210657   1.224   6.341   3.825
 3572TIP3   OH210658   4.160   5.077   2.159
 3572TIP3    H110659   4.174   5.162   2.118
 3572TIP3    H210660   4.218   5.076   2.235
 3573TIP3   OH210661   8.158   1.452   1.918
 3573TIP3    H110662   8.221   1.384   1.943
 3573TIP3    H210663   8.196   1.534   1.949
 3574TIP3   OH210664   0.346   2.048   6.598
 3574TIP3    H110665   0.321   2.131   6.558
 3574TIP3    H210666   0.427   2.023   6.553
 3575TIP3   OH210667   6.042   5.136   3.884
 3575TIP3    H110668   6.125   5.181   3.897
 3575TIP3    H210669   6.051   5.093   3.799
 3576TIP3   OH210670   0.812   4.121   0.493
 3576TIP3    H110671   0.777   4.053   0.436
 3576TIP3    H210672   0.736   4.170   0.523
 3577TIP3   OH210673   8.032   3.751   3.665
 3577TIP3    H110674   8.038   3.746   3.570
 3577TIP3    H210675   8.036   3.845   3.685
 3578TIP3   OH210676   2.852   3.024   3.155
 3578TIP3    H110677   2.834   3.001   3.064
 3578TIP3    H210678   2.905   2.951   3.188
 3579TIP3   OH210679   1.096   2.608   5.034
 3579TIP3    H110680   1.182   2.632   4.999
 3579TIP3    H210681   1.034   2.634   4.965
 3580TIP3   OH210682   7.718   1.390   4.239
 3580TIP3    H110683   7.698   1.483   4.252
 3580TIP3    H210684   7.751   1.361   4.324
 3581TIP3   OH210685   7.830   2.891   2.155
 3581TIP3    H110686   7.904   2.830   2.158
 3581TIP3    H210687   7.753   2.834   2.158
 3582TIP3   OH210688   5.095   2.555   6.441
 3582TIP3    H110689   5.092   2.459   6.442
 3582TIP3    H210690   5.187   2.577   6.454
 3583TIP3   OH210691   5.534   4.323   4.642
 3583TIP3    H110692   5.442   4.327   4.615
 3583TIP3    H210693   5.580   4.378   4.579
 3584TIP3   OH210694   5.104   1.296   6.313
 3584TIP3    H110695   5.168   1.314   6.382
 3584TIP3    H210696   5.155   1.252   6.244
 3585TIP3   OH210697   0.105   2.506   4.621
 3585TIP3    H110698   0.143   2.429   4.661
 3585TIP3    H210699   0.057   2.473   4.545
 3586TIP3   OH210700   1.535   2.773   2.908
 3586TIP3    H110701   1.557   2.766   2.815
 3586TIP3    H210702   1.440   2.784   2.909
 3587TIP3   OH210703   4.334   5.970   2.095
 3587TIP3    H110704   4.388   6.023   2.036
 3587TIP3    H210705   4.388   5.894   2.116
 3588TIP3   OH210706   7.986   6.827   4.865
 3588TIP3    H110707   7.964   6.899   4.924
 3588TIP3    H210708   7.953   6.855   4.779
 3589TIP3   OH210709   2.980   6.385   0.126
 3589TIP3    H110710   2.945   6.380   0.037
 3589TIP3    H210711   3.019   6.298   0.141
 3590TIP3   OH210712   3.103   5.041   3.426
 3590TIP3    H110713   3.187   5.063   3.386
 3590TIP3    H210714   3.039   5.085   3.370
 3591TIP3   OH210715   1.984   6.581   0.456
 3591TIP3    H110716   2.074   6.602   0.435
 3591TIP3    H210717   1.986   6.554   0.548
 3592TIP3   OH210718   0.950   0.368   4.932
 3592TIP3    H110719   0.944   0.363   5.027
 3592TIP3    H210720   0.881   0.309   4.900
 3593TIP3   OH210721   0.763   2.250   0.259
 3593TIP3    H110722   0.718   2.220   0.179
 3593TIP3    H210723   0.831   2.184   0.274
 3594TIP3   OH210724   7.687   4.738   2.337
 3594TIP3    H110725   7.676   4.797   2.263
 3594TIP3    H210726   7.687   4.796   2.414
 3595TIP3   OH210727   4.477   0.235   3.270
 3595TIP3    H110728   4.557   0.233   3.322
 3595TIP3    H210729   4.504   0.204   3.183
 3596TIP3   OH210730   0.570   6.885   3.789
 3596TIP3    H110731   0.660   6.917   3.787
 3596TIP3    H210732   0.516   6.964   3.784
 3597TIP3   OH210733   6.239   4.082   4.730
 3597TIP3    H110734   6.183   4.030   4.787
 3597TIP3    H210735   6.223   4.173   4.756
 3598TIP3   OH210736   5.183   0.535   6.462
 3598TIP3    H110737   5.094   0.552   6.430
 3598TIP3    H210738   5.227   0.492   6.389
 3599TIP3   OH210739   6.573   2.536   5.535
 3599TIP3    H110740   6.632   2.469   5.500
 3599TIP3    H210741   6.630   2.599   5.578
 3600TIP3   OH210742   4.508   6.641   0.968
 3600TIP3    H110743   4.583   6.586   0.988
 3600TIP3    H210744   4.511   6.712   1.032
 3601TIP3   OH210745   1.307   2.279   6.415
 3601TIP3    H110746   1.386   2.257   6.465
 3601TIP3    H210747   1.336   2.340   6.348
 3602TIP3   OH210748   4.364   1.678   5.029
 3602TIP3    H110749   4.373   1.591   4.991
 3602TIP3    H210750   4.280   1.677   5.075
 3603TIP3   OH210751   1.308   7.485   4.516
 3603TIP3    H110752   1.282   7.559   4.461
 3603TIP3    H210753   1.279   7.510   4.604
 3604TIP3   OH210754   4.338   3.372   1.915
 3604TIP3    H110755   4.386   3.407   1.840
 3604TIP3    H210756   4.405   3.359   1.983
 3605TIP3   OH210757   4.918   5.187   3.157
 3605TIP3    H110758   5.004   5.169   3.118
 3605TIP3    H210759   4.907   5.282   3.149
 3606TIP3   OH210760   4.690   5.951   6.371
 3606TIP3    H110761   4.657   5.904   6.448
 3606TIP3    H210762   4.732   5.883   6.318
 3607TIP3   OH210763   2.728  -0.008   6.768
 3607TIP3    H110764   2.787  -0.079   6.743
 3607TIP3    H210765   2.686   0.019   6.687
 3608TIP3   OH210766   4.550   7.823   2.545
 3608TIP3    H110767   4.511   7.910   2.554
 3608TIP3    H210768   4.612   7.816   2.617
 3609TIP3   OH210769   0.899   7.470   2.604
 3609TIP3    H110770   0.930   7.484   2.515
 3609TIP3    H210771   0.965   7.413   2.644
 3610TIP3   OH210772   4.910   5.898   3.806
 3610TIP3    H110773   4.820   5.870   3.793
 3610TIP3    H210774   4.915   5.919   3.900
 3611TIP3   OH210775   4.594   4.576   3.417
 3611TIP3    H110776   4.522   4.516   3.400
 3611TIP3    H210777   4.659   4.523   3.463
 3612TIP3   OH210778   0.101   5.152   4.607
 3612TIP3    H110779   0.104   5.122   4.516
 3612TIP3    H210780   0.094   5.071   4.658
 3613TIP3   OH210781   1.185   5.364   0.832
 3613TIP3    H110782   1.091   5.364   0.815
 3613TIP3    H210783   1.219   5.436   0.779
 3614TIP3   OH210784   3.188   3.676   3.897
 3614TIP3    H110785   3.103   3.650   3.862
 3614TIP3    H210786   3.231   3.593   3.918
 3615TIP3   OH210787   1.460   4.715   3.589
 3615TIP3    H110788   1.437   4.803   3.558
 3615TIP3    H210789   1.478   4.666   3.509
 3616TIP3   OH210790   5.723   6.855   1.449
 3616TIP3    H110791   5.711   6.760   1.453
 3616TIP3    H210792   5.658   6.889   1.510
 3617TIP3   OH210793   1.765   4.617   2.752
 3617TIP3    H110794   1.707   4.579   2.686
 3617TIP3    H210795   1.851   4.581   2.731
 3618TIP3   OH210796   4.040   7.636   5.929
 3618TIP3    H110797   4.096   7.566   5.961
 3618TIP3    H210798   3.961   7.631   5.983
 3619TIP3   OH210799   7.844   5.120   3.978
 3619TIP3    H110800   7.870   5.143   4.067
 3619TIP3    H210801   7.758   5.079   3.988
 3620TIP3   OH210802   5.363   7.498   1.217
 3620TIP3    H110803   5.278   7.500   1.261
 3620TIP3    H210804   5.426   7.512   1.287
 3621TIP3   OH210805   3.570   0.258   3.796
 3621TIP3    H110806   3.509   0.184   3.796
 3621TIP3    H210807   3.515   0.334   3.815
 3622TIP3   OH210808   7.937   1.302   1.803
 3622TIP3    H110809   7.958   1.306   1.710
 3622TIP3    H210810   8.006   1.351   1.846
 3623TIP3   OH210811   1.093   7.116   4.419
 3623TIP3    H110812   1.100   7.077   4.332
 3623TIP3    H210813   1.065   7.206   4.403
 3624TIP3   OH210814   6.991   3.062   5.103
 3624TIP3    H110815   6.989   2.982   5.051
 3624TIP3    H210816   7.064   3.050   5.164
 3625TIP3   OH210817   0.348   2.116   0.152
 3625TIP3    H110818   0.345   2.140   0.244
 3625TIP3    H210819   0.375   2.024   0.152
 3626TIP3   OH210820   5.692   1.991   1.513
 3626TIP3    H110821   5.740   2.016   1.592
 3626TIP3    H210822   5.602   1.979   1.542
 3627TIP3   OH210823   5.202   6.197   2.648
 3627TIP3    H110824   5.118   6.221   2.608
 3627TIP3    H210825   5.242   6.281   2.670
 3628TIP3   OH210826   7.961   0.674   4.636
 3628TIP3    H110827   8.046   0.631   4.635
 3628TIP3    H210828   7.934   0.676   4.544
 3629TIP3   OH210829   3.055   3.211   1.726
 3629TIP3    H110830   3.002   3.131   1.726
 3629TIP3    H210831   3.144   3.181   1.744
 3630TIP3   OH210832   2.536   6.556   2.699
 3630TIP3    H110833   2.528   6.558   2.604
 3630TIP3    H210834   2.528   6.464   2.722
 3631TIP3   OH210835   7.424   0.207   3.231
 3631TIP3    H110836   7.341   0.181   3.271
 3631TIP3    H210837   7.490   0.188   3.298
 3632TIP3   OH210838   3.821   6.504   4.492
 3632TIP3    H110839   3.772   6.586   4.496
 3632TIP3    H210840   3.797   6.465   4.408
 3633TIP3   OH210841   4.197   5.479   1.729
 3633TIP3    H110842   4.271   5.485   1.789
 3633TIP3    H210843   4.184   5.570   1.700
 3634TIP3   OH210844   0.369   2.768   1.632
 3634TIP3    H110845   0.318   2.844   1.660
 3634TIP3    H210846   0.366   2.771   1.537
 3635TIP3   OH210847   6.616   1.493   2.475
 3635TIP3    H110848   6.614   1.583   2.508
 3635TIP3    H210849   6.667   1.499   2.394
 3636TIP3   OH210850   3.672   2.364   5.291
 3636TIP3    H110851   3.759   2.373   5.252
 3636TIP3    H210852   3.648   2.273   5.277
 3637TIP3   OH210853   8.020   3.791   2.537
 3637TIP3    H110854   8.035   3.770   2.629
 3637TIP3    H210855   7.938   3.840   2.537
 3638TIP3   OH210856   0.659   7.651   0.684
 3638TIP3    H110857   0.734   7.592   0.676
 3638TIP3    H210858   0.683   7.727   0.630
 3639TIP3   OH210859   3.223   2.710   0.390
 3639TIP3    H110860   3.192   2.725   0.301
 3639TIP3    H210861   3.166   2.642   0.425
 3640TIP3   OH210862   5.265   3.564   4.082
 3640TIP3    H110863   5.271   3.482   4.131
 3640TIP3    H210864   5.339   3.562   4.022
 3641TIP3   OH210865   2.167   1.899   0.292
 3641TIP3    H110866   2.258   1.923   0.306
 3641TIP3    H210867   2.122   1.922   0.373
 3642TIP3   OH210868   3.469   6.216   0.714
 3642TIP3    H110869   3.482   6.123   0.736
 3642TIP3    H210870   3.416   6.251   0.785
 3643TIP3   OH210871   7.117   1.977   5.511
 3643TIP3    H110872   7.189   1.926   5.546
 3643TIP3    H210873   7.068   1.916   5.455
 3644TIP3   OH210874   3.766   2.832   5.295
 3644TIP3    H110875   3.753   2.813   5.203
 3644TIP3    H210876   3.807   2.919   5.296
 3645TIP3   OH210877   5.454   3.437   4.884
 3645TIP3    H110878   5.363   3.445   4.911
 3645TIP3    H210879   5.500   3.403   4.961
 3646TIP3   OH210880   2.396   3.978   5.528
 3646TIP3    H110881   2.468   3.966   5.590
 3646TIP3    H210882   2.429   3.939   5.447
 3647TIP3   OH210883   7.541   5.481   0.694
 3647TIP3    H110884   7.564   5.527   0.775
 3647TIP3    H210885   7.610   5.416   0.683
 3648TIP3   OH210886   2.275   5.196   5.364
 3648TIP3    H110887   2.270   5.207   5.269
 3648TIP3    H210888   2.332   5.266   5.394
 3649TIP3   OH210889   0.337   3.442   5.343
 3649TIP3    H110890   0.357   3.447   5.250
 3649TIP3    H210891   0.262   3.501   5.354
 3650TIP3   OH210892   7.406   0.789   5.064
 3650TIP3    H110893   7.378   0.757   5.149
 3650TIP3    H210894   7.500   0.769   5.060
 3651TIP3   OH210895   6.075   1.447   0.967
 3651TIP3    H110896   6.012   1.480   0.903
 3651TIP3    H210897   6.043   1.478   1.051
 3652TIP3   OH210898   2.332   2.349   1.547
 3652TIP3    H110899   2.282   2.290   1.603
 3652TIP3    H210900   2.417   2.306   1.538
 3653TIP3   OH210901   7.217   4.501   0.535
 3653TIP3    H110902   7.305   4.471   0.510
 3653TIP3    H210903   7.214   4.488   0.629
 3654TIP3   OH210904   4.158   1.007   2.064
 3654TIP3    H110905   4.158   0.946   1.991
 3654TIP3    H210906   4.085   1.066   2.047
 3655TIP3   OH210907   4.518   0.792   4.569
 3655TIP3    H110908   4.512   0.802   4.664
 3655TIP3    H210909   4.508   0.698   4.554
 3656TIP3   OH210910   3.147   2.324   1.392
 3656TIP3    H110911   3.201   2.331   1.313
 3656TIP3    H210912   3.191   2.380   1.456
 3657TIP3   OH210913   0.803   5.788   2.442
 3657TIP3    H110914   0.774   5.812   2.529
 3657TIP3    H210915   0.873   5.850   2.421
 3658TIP3   OH210916   8.194   7.829   2.860
 3658TIP3    H110917   8.260   7.896   2.876
 3658TIP3    H210918   8.236   7.747   2.886
 3659TIP3   OH210919   4.787   6.860   1.848
 3659TIP3    H110920   4.867   6.815   1.822
 3659TIP3    H210921   4.805   6.894   1.935
 3660TIP3   OH210922   7.841   2.502   1.065
 3660TIP3    H110923   7.862   2.482   1.157
 3660TIP3    H210924   7.924   2.494   1.019
 3661TIP3   OH210925   4.071   4.990   6.168
 3661TIP3    H110926   4.056   5.076   6.208
 3661TIP3    H210927   4.113   5.010   6.084
 3662TIP3   OH210928   4.786   3.720   2.638
 3662TIP3    H110929   4.772   3.793   2.699
 3662TIP3    H210930   4.698   3.698   2.607
 3663TIP3   OH210931   4.370   2.738   4.928
 3663TIP3    H110932   4.425   2.662   4.940
 3663TIP3    H210933   4.300   2.708   4.870
 3664TIP3   OH210934   4.290   4.895   3.263
 3664TIP3    H110935   4.244   4.812   3.251
 3664TIP3    H210936   4.220   4.961   3.272
 3665TIP3   OH210937   6.487   2.094   3.286
 3665TIP3    H110938   6.487   2.186   3.314
 3665TIP3    H210939   6.403   2.060   3.316
 3666TIP3   OH210940   0.985   4.402   3.188
 3666TIP3    H110941   0.892   4.413   3.208
 3666TIP3    H210942   0.998   4.448   3.105
 3667TIP3   OH210943   4.435   7.567   3.233
 3667TIP3    H110944   4.367   7.504   3.208
 3667TIP3    H210945   4.444   7.556   3.327
 3668TIP3   OH210946   3.882   6.775   2.218
 3668TIP3    H110947   3.973   6.759   2.194
 3668TIP3    H210948   3.840   6.690   2.209
 3669TIP3   OH210949   5.502   1.750   2.572
 3669TIP3    H110950   5.593   1.722   2.573
 3669TIP3    H210951   5.452   1.668   2.573
 3670TIP3   OH210952   4.039   7.275   1.564
 3670TIP3    H110953   4.085   7.277   1.648
 3670TIP3    H210954   4.040   7.365   1.533
 3671TIP3   OH210955   2.258   0.582   6.427
 3671TIP3    H110956   2.239   0.559   6.518
 3671TIP3    H210957   2.184   0.637   6.401
 3672TIP3   OH210958   3.770   0.720   5.876
 3672TIP3    H110959   3.817   0.791   5.920
 3672TIP3    H210960   3.828   0.644   5.883
 3673TIP3   OH210961   3.854   2.006   5.651
 3673TIP3    H110962   3.847   1.940   5.582
 3673TIP3    H210963   3.842   2.090   5.605
 3674TIP3   OH210964   1.454   3.432   2.392
 3674TIP3    H110965   1.393   3.385   2.449
 3674TIP3    H210966   1.539   3.423   2.436
 3675TIP3   OH210967   3.820   4.003   4.095
 3675TIP3    H110968   3.873   3.938   4.049
 3675TIP3    H210969   3.756   4.031   4.030
 3676TIP3   OH210970   0.130   1.304   0.067
 3676TIP3    H110971   0.129   1.392   0.029
 3676TIP3    H210972   0.112   1.318   0.160
 3677TIP3   OH210973   0.282   6.405   5.201
 3677TIP3    H110974   0.320   6.318   5.215
 3677TIP3    H210975   0.251   6.404   5.111
 3678TIP3   OH210976   2.186   2.760   2.676
 3678TIP3    H110977   2.110   2.769   2.734
 3678TIP3    H210978   2.251   2.715   2.729
 3679TIP3   OH210979   7.623   0.015   0.627
 3679TIP3    H110980   7.631  -0.012   0.535
 3679TIP3    H210981   7.713   0.019   0.659
 3680TIP3   OH210982   3.657   4.747   5.620
 3680TIP3    H110983   3.571   4.736   5.660
 3680TIP3    H210984   3.696   4.820   5.668
 3681TIP3   OH210985   1.088   1.155   4.514
 3681TIP3    H110986   1.016   1.197   4.561
 3681TIP3    H210987   1.152   1.225   4.501
 3682TIP3   OH210988   8.193   3.517   2.913
 3682TIP3    H110989   8.232   3.430   2.918
 3682TIP3    H210990   8.171   3.539   3.003
 3683TIP3   OH210991   4.181   7.345   4.717
 3683TIP3    H110992   4.091   7.314   4.711
 3683TIP3    H210993   4.212   7.347   4.626
 3684TIP3   OH210994   2.495   7.177   1.030
 3684TIP3    H110995   2.448   7.102   1.065
 3684TIP3    H210996   2.570   7.187   1.089
 3685TIP3   OH210997   7.277   7.534   1.258
 3685TIP3    H110998   7.309   7.543   1.347
 3685TIP3    H210999   7.217   7.607   1.246
 3686TIP3   OH211000   5.866   2.753   1.795
 3686TIP3    H111001   5.955   2.783   1.811
 3686TIP3    H211002   5.875   2.686   1.728
 3687TIP3   OH211003   1.000   0.500   5.565
 3687TIP3    H111004   0.990   0.446   5.487
 3687TIP3    H211005   0.938   0.462   5.628
 3688TIP3   OH211006   3.234   6.636   0.495
 3688TIP3    H111007   3.222   6.721   0.451
 3688TIP3    H211008   3.176   6.577   0.447
 3689TIP3   OH211009   6.893   4.875   4.477
 3689TIP3    H111010   6.854   4.890   4.563
 3689TIP3    H211011   6.905   4.962   4.440
 3690TIP3   OH211012   0.890   6.109   2.079
 3690TIP3    H111013   0.960   6.056   2.117
 3690TIP3    H211014   0.935   6.183   2.038
 3691TIP3   OH211015   1.631   7.866   2.770
 3691TIP3    H111016   1.656   7.888   2.681
 3691TIP3    H211017   1.559   7.804   2.760
 3692TIP3   OH211018   4.123   5.365   2.715
 3692TIP3    H111019   4.113   5.440   2.773
 3692TIP3    H211020   4.197   5.388   2.659
 3693TIP3   OH211021   0.724   4.243   3.484
 3693TIP3    H111022   0.701   4.284   3.400
 3693TIP3    H211023   0.647   4.191   3.506
 3694TIP3   OH211024   6.871   1.965   4.183
 3694TIP3    H111025   6.857   1.876   4.152
 3694TIP3    H211026   6.888   2.016   4.104
 3695TIP3   OH211027   7.583   7.135   1.345
 3695TIP3    H111028   7.504   7.083   1.361
 3695TIP3    H211029   7.597   7.130   1.250
 3696TIP3   OH211030   6.560   4.769   5.725
 3696TIP3    H111031   6.510   4.749   5.805
 3696TIP3    H211032   6.579   4.863   5.731
 3697TIP3   OH211033   4.789   2.580   2.177
 3697TIP3    H111034   4.858   2.524   2.142
 3697TIP3    H211035   4.764   2.539   2.260
 3698TIP3   OH211036   5.288   4.130   0.832
 3698TIP3    H111037   5.240   4.190   0.888
 3698TIP3    H211038   5.233   4.051   0.829
 3699TIP3   OH211039   3.783   3.259   2.691
 3699TIP3    H111040   3.788   3.182   2.749
 3699TIP3    H211041   3.802   3.333   2.749
 3700TIP3   OH211042   0.223   3.264   4.215
 3700TIP3    H111043   0.234   3.249   4.309
 3700TIP3    H211044   0.190   3.181   4.181
 3701TIP3   OH211045   3.288   1.400   0.121
 3701TIP3    H111046   3.375   1.391   0.083
 3701TIP3    H211047   3.301   1.382   0.214
 3702TIP3   OH211048   4.221   5.492   4.812
 3702TIP3    H111049   4.302   5.441   4.801
 3702TIP3    H211050   4.237   5.573   4.763
 3703TIP3   OH211051   2.254   5.654   5.988
 3703TIP3    H111052   2.324   5.720   5.990
 3703TIP3    H211053   2.186   5.690   6.046
 3704TIP3   OH211054   6.549   6.406   3.655
 3704TIP3    H111055   6.513   6.441   3.737
 3704TIP3    H211056   6.625   6.461   3.637
 3705TIP3   OH211057   7.520   3.552   2.478
 3705TIP3    H111058   7.445   3.504   2.443
 3705TIP3    H211059   7.509   3.641   2.443
 3706TIP3   OH211060   7.842   3.288   0.665
 3706TIP3    H111061   7.785   3.360   0.639
 3706TIP3    H211062   7.812   3.264   0.752
 3707TIP3   OH211063   2.525   4.248   5.114
 3707TIP3    H111064   2.579   4.198   5.051
 3707TIP3    H211065   2.584   4.265   5.187
 3708TIP3   OH211066   6.107   7.266   4.437
 3708TIP3    H111067   6.030   7.320   4.454
 3708TIP3    H211068   6.086   7.181   4.474
 3709TIP3   OH211069   4.763   7.644   2.727
 3709TIP3    H111070   4.698   7.589   2.770
 3709TIP3    H211071   4.797   7.590   2.655
 3710TIP3   OH211072   2.372   3.276   0.466
 3710TIP3    H111073   2.293   3.329   0.482
 3710TIP3    H211074   2.384   3.280   0.371
 3711TIP3   OH211075   6.523   1.303   5.725
 3711TIP3    H111076   6.542   1.370   5.660
 3711TIP3    H211077   6.509   1.351   5.806
 3712TIP3   OH211078   0.633   3.336   4.814
 3712TIP3    H111079   0.567   3.319   4.746
 3712TIP3    H211080   0.671   3.251   4.832
 3713TIP3   OH211081   5.411   7.389   5.179
 3713TIP3    H111082   5.400   7.403   5.273
 3713TIP3    H211083   5.494   7.432   5.158
 3714TIP3   OH211084   2.784   1.159   5.002
 3714TIP3    H111085   2.753   1.098   5.068
 3714TIP3    H211086   2.719   1.230   5.002
 3715TIP3   OH211087   6.401   4.589   3.373
 3715TIP3    H111088   6.418   4.511   3.425
 3715TIP3    H211089   6.482   4.640   3.379
 3716TIP3   OH211090   0.249   5.402   1.392
 3716TIP3    H111091   0.281   5.470   1.333
 3716TIP3    H211092   0.201   5.341   1.335
 3717TIP3   OH211093   7.848   2.329   1.607
 3717TIP3    H111094   7.764   2.323   1.652
 3717TIP3    H211095   7.887   2.243   1.618
 3718TIP3   OH211096   0.705   7.268   6.217
 3718TIP3    H111097   0.694   7.195   6.157
 3718TIP3    H211098   0.743   7.230   6.296
 3719TIP3   OH211099   7.075   4.380   2.280
 3719TIP3    H111100   7.134   4.327   2.226
 3719TIP3    H211101   7.071   4.465   2.235
 3720TIP3   OH211102   1.102   6.012   5.194
 3720TIP3    H111103   1.068   6.053   5.115
 3720TIP3    H211104   1.054   5.930   5.201
 3721TIP3   OH211105   7.245   4.161   1.215
 3721TIP3    H111106   7.219   4.252   1.204
 3721TIP3    H211107   7.176   4.110   1.172
 3722TIP3   OH211108   2.306   6.732   2.519
 3722TIP3    H111109   2.363   6.783   2.463
 3722TIP3    H211110   2.306   6.779   2.603
 3723TIP3   OH211111   2.327   1.216   0.999
 3723TIP3    H111112   2.343   1.248   1.088
 3723TIP3    H211113   2.236   1.189   0.999
 3724TIP3   OH211114   7.884   4.890   0.735
 3724TIP3    H111115   7.913   4.977   0.765
 3724TIP3    H211116   7.956   4.859   0.680
 3725TIP3   OH211117   7.058   0.979   6.569
 3725TIP3    H111118   7.055   1.024   6.485
 3725TIP3    H211119   7.065   0.886   6.547
 3726TIP3   OH211120   4.256   5.955   1.688
 3726TIP3    H111121   4.288   5.873   1.649
 3726TIP3    H211122   4.303   6.024   1.642
 3727TIP3   OH211123   6.266   5.559   0.757
 3727TIP3    H111124   6.174   5.577   0.774
 3727TIP3    H211125   6.275   5.465   0.768
 3728TIP3   OH211126   7.082   4.749   4.331
 3728TIP3    H111127   7.014   4.816   4.322
 3728TIP3    H211128   7.065   4.710   4.417
 3729TIP3   OH211129   4.855   5.236   3.961
 3729TIP3    H111130   4.894   5.274   3.882
 3729TIP3    H211131   4.763   5.224   3.939
 3730TIP3   OH211132   1.537   3.700   6.431
 3730TIP3    H111133   1.472   3.757   6.471
 3730TIP3    H211134   1.490   3.656   6.360
 3731TIP3   OH211135   2.611   1.328   4.882
 3731TIP3    H111136   2.648   1.412   4.853
 3731TIP3    H211137   2.520   1.332   4.853
 3732TIP3   OH211138   7.612   7.340   0.765
 3732TIP3    H111139   7.587   7.253   0.734
 3732TIP3    H211140   7.707   7.340   0.762
 3733TIP3   OH211141   6.707   1.400   2.964
 3733TIP3    H111142   6.713   1.333   3.032
 3733TIP3    H211143   6.686   1.480   3.011
 3734TIP3   OH211144   5.847   0.280   1.231
 3734TIP3    H111145   5.819   0.189   1.221
 3734TIP3    H211146   5.804   0.326   1.159
 3735TIP3   OH211147   2.791   1.508   4.691
 3735TIP3    H111148   2.835   1.431   4.727
 3735TIP3    H211149   2.856   1.548   4.633
 3736TIP3   OH211150   4.101   6.661   0.174
 3736TIP3    H111151   4.160   6.730   0.203
 3736TIP3    H211152   4.015   6.704   0.169
 3737TIP3   OH211153   7.375   1.481   3.226
 3737TIP3    H111154   7.334   1.394   3.226
 3737TIP3    H211155   7.382   1.504   3.133
 3738TIP3   OH211156   5.758   1.926   3.518
 3738TIP3    H111157   5.808   1.863   3.466
 3738TIP3    H211158   5.749   1.885   3.604
 3739TIP3   OH211159   3.775   7.246   4.039
 3739TIP3    H111160   3.733   7.316   4.089
 3739TIP3    H211161   3.720   7.169   4.054
 3740TIP3   OH211162   4.192   1.807   1.155
 3740TIP3    H111163   4.230   1.731   1.111
 3740TIP3    H211164   4.218   1.881   1.101
 3741TIP3   OH211165   1.297   3.135   3.036
 3741TIP3    H111166   1.362   3.182   2.984
 3741TIP3    H211167   1.248   3.203   3.082
 3742TIP3   OH211168   2.724   5.468   1.460
 3742TIP3    H111169   2.698   5.500   1.373
 3742TIP3    H211170   2.804   5.518   1.480
 3743TIP3   OH211171   2.770   7.300   2.352
 3743TIP3    H111172   2.770   7.281   2.258
 3743TIP3    H211173   2.765   7.215   2.395
 3744TIP3   OH211174   4.597   3.087   1.539
 3744TIP3    H111175   4.675   3.034   1.553
 3744TIP3    H211176   4.599   3.109   1.445
 3745TIP3   OH211177   0.978   1.589   1.020
 3745TIP3    H111178   1.039   1.608   1.091
 3745TIP3    H211179   0.913   1.530   1.059
 3746TIP3   OH211180   3.053   3.040   6.236
 3746TIP3    H111181   3.132   3.060   6.186
 3746TIP3    H211182   2.988   3.017   6.170
 3747TIP3   OH211183   4.358   0.108   3.944
 3747TIP3    H111184   4.267   0.101   3.971
 3747TIP3    H211185   4.379   0.201   3.951
 3748TIP3   OH211186   4.536   4.088   6.635
 3748TIP3    H111187   4.515   4.132   6.552
 3748TIP3    H211188   4.531   3.995   6.614
 3749TIP3   OH211189   5.676   0.702   2.453
 3749TIP3    H111190   5.614   0.641   2.492
 3749TIP3    H211191   5.753   0.648   2.433
 3750TIP3   OH211192   1.836   2.117   6.194
 3750TIP3    H111193   1.853   2.024   6.203
 3750TIP3    H211194   1.806   2.145   6.280
 3751TIP3   OH211195   3.937   5.703   0.758
 3751TIP3    H111196   4.001   5.652   0.710
 3751TIP3    H211197   3.908   5.646   0.829
 3752TIP3   OH211198   4.927   3.309   0.365
 3752TIP3    H111199   4.884   3.354   0.438
 3752TIP3    H211200   4.959   3.227   0.402
 3753TIP3   OH211201   6.223   0.030   0.851
 3753TIP3    H111202   6.164   0.101   0.877
 3753TIP3    H211203   6.291   0.072   0.799
 3754TIP3   OH211204   3.351   2.156   2.682
 3754TIP3    H111205   3.322   2.074   2.644
 3754TIP3    H211206   3.365   2.214   2.607
 3755TIP3   OH211207   0.815   3.086   3.796
 3755TIP3    H111208   0.731   3.114   3.832
 3755TIP3    H211209   0.872   3.079   3.873
 3756TIP3   OH211210   3.160   0.097   5.624
 3756TIP3    H111211   3.123   0.178   5.591
 3756TIP3    H211212   3.085   0.039   5.635
 3757TIP3   OH211213   2.408   1.381   1.663
 3757TIP3    H111214   2.382   1.292   1.688
 3757TIP3    H211215   2.347   1.405   1.593
 3758TIP3   OH211216   5.768   6.229   4.248
 3758TIP3    H111217   5.830   6.245   4.176
 3758TIP3    H211218   5.776   6.308   4.302
 3759TIP3   OH211219   0.592   1.669   5.359
 3759TIP3    H111220   0.671   1.644   5.310
 3759TIP3    H211221   0.573   1.592   5.413
 3760TIP3   OH211222   8.245   0.414   6.161
 3760TIP3    H111223   8.255   0.326   6.199
 3760TIP3    H211224   8.271   0.473   6.232
 3761TIP3   OH211225   7.892   0.489   5.874
 3761TIP3    H111226   7.833   0.456   5.941
 3761TIP3    H211227   7.967   0.525   5.922
 3762TIP3   OH211228   0.969   4.999   2.953
 3762TIP3    H111229   1.054   4.988   2.997
 3762TIP3    H211230   0.970   5.089   2.921
 3763TIP3   OH211231   2.428   6.899   5.469
 3763TIP3    H111232   2.426   6.981   5.419
 3763TIP3    H211233   2.406   6.926   5.559
 3764TIP3   OH211234   8.209   7.644   3.939
 3764TIP3    H111235   8.172   7.673   3.855
 3764TIP3    H211236   8.141   7.589   3.977
 3765TIP3   OH211237   3.914   3.132   3.410
 3765TIP3    H111238   3.859   3.193   3.459
 3765TIP3    H211239   3.876   3.046   3.426
 3766TIP3   OH211240   5.124   5.609   6.420
 3766TIP3    H111241   5.144   5.590   6.511
 3766TIP3    H211242   5.081   5.694   6.421
 3767TIP3   OH211243   3.514   0.553   6.562
 3767TIP3    H111244   3.607   0.548   6.541
 3767TIP3    H211245   3.469   0.552   6.478
 3768TIP3   OH211246   6.219   6.066   3.334
 3768TIP3    H111247   6.296   6.117   3.311
 3768TIP3    H211248   6.242   6.022   3.416
 3769TIP3   OH211249   5.518   5.727   2.466
 3769TIP3    H111250   5.468   5.770   2.396
 3769TIP3    H211251   5.515   5.789   2.539
 3770TIP3   OH211252   8.173   6.582   1.699
 3770TIP3    H111253   8.118   6.564   1.622
 3770TIP3    H211254   8.165   6.676   1.712
 3771TIP3   OH211255   3.502   0.506   2.176
 3771TIP3    H111256   3.476   0.598   2.186
 3771TIP3    H211257   3.548   0.503   2.093
 3772TIP3   OH211258   3.842   5.600   0.437
 3772TIP3    H111259   3.907   5.647   0.384
 3772TIP3    H211260   3.811   5.666   0.499
 3773TIP3   OH211261   1.104   5.323   5.295
 3773TIP3    H111262   1.040   5.295   5.230
 3773TIP3    H211263   1.051   5.355   5.368
 3774TIP3   OH211264   1.375   4.793   0.537
 3774TIP3    H111265   1.416   4.811   0.452
 3774TIP3    H211266   1.418   4.853   0.598
 3775TIP3   OH211267   4.823   4.317   5.601
 3775TIP3    H111268   4.894   4.321   5.664
 3775TIP3    H211269   4.847   4.380   5.533
 3776TIP3   OH211270   4.529   2.127   5.892
 3776TIP3    H111271   4.536   2.219   5.866
 3776TIP3    H211272   4.530   2.129   5.988
 3777TIP3   OH211273   2.151   6.831   4.931
 3777TIP3    H111274   2.206   6.843   4.853
 3777TIP3    H211275   2.174   6.744   4.963
 3778TIP3   OH211276   8.200   6.192   3.926
 3778TIP3    H111277   8.237   6.178   3.839
 3778TIP3    H211278   8.164   6.107   3.951
 3779TIP3   OH211279   7.349   0.531   3.371
 3779TIP3    H111280   7.308   0.455   3.413
 3779TIP3    H211281   7.349   0.599   3.438
 3780TIP3   OH211282   7.650   1.971   2.561
 3780TIP3    H111283   7.740   1.994   2.585
 3780TIP3    H211284   7.607   2.055   2.545
 3781TIP3   OH211285   7.678   6.023   5.094
 3781TIP3    H111286   7.697   6.052   5.183
 3781TIP3    H211287   7.700   5.930   5.094
 3782TIP3   OH211288   7.750   7.664   5.273
 3782TIP3    H111289   7.741   7.733   5.339
 3782TIP3    H211290   7.691   7.595   5.302
 3783TIP3   OH211291   1.727   1.024   5.015
 3783TIP3    H111292   1.636   1.047   4.997
 3783TIP3    H211293   1.724   0.932   5.041
 3784TIP3   OH211294   0.921   0.607   2.679
 3784TIP3    H111295   0.840   0.565   2.652
 3784TIP3    H211296   0.986   0.582   2.614
 3785TIP3   OH211297   7.152   2.003   1.815
 3785TIP3    H111298   7.161   2.001   1.719
 3785TIP3    H211299   7.232   2.047   1.845
 3786TIP3   OH211300   6.145   1.832   5.845
 3786TIP3    H111301   6.198   1.829   5.765
 3786TIP3    H211302   6.055   1.839   5.814
 3787TIP3   OH211303   1.802   6.534   5.537
 3787TIP3    H111304   1.882   6.564   5.579
 3787TIP3    H211305   1.831   6.467   5.475
 3788TIP3   OH211306   3.057   2.756   2.911
 3788TIP3    H111307   3.089   2.713   2.832
 3788TIP3    H211308   2.992   2.696   2.947
 3789TIP3   OH211309   3.368   2.844   4.877
 3789TIP3    H111310   3.366   2.788   4.799
 3789TIP3    H211311   3.282   2.887   4.877
 3790TIP3   OH211312   0.570   3.741   1.876
 3790TIP3    H111313   0.478   3.718   1.888
 3790TIP3    H211314   0.596   3.780   1.959
 3791TIP3   OH211315   5.144   2.278   5.453
 3791TIP3    H111316   5.133   2.352   5.512
 3791TIP3    H211317   5.203   2.310   5.385
 3792TIP3   OH211318   0.197   5.885   5.608
 3792TIP3    H111319   0.204   5.951   5.677
 3792TIP3    H211320   0.230   5.805   5.648
 3793TIP3   OH211321   4.293   3.323   4.570
 3793TIP3    H111322   4.367   3.355   4.622
 3793TIP3    H211323   4.238   3.276   4.632
 3794TIP3   OH211324   0.270   6.317   4.868
 3794TIP3    H111325   0.192   6.364   4.900
 3794TIP3    H211326   0.247   6.294   4.778
 3795TIP3   OH211327   2.045   7.037   3.422
 3795TIP3    H111328   2.025   7.059   3.331
 3795TIP3    H211329   2.094   7.113   3.454
 3796TIP3   OH211330   3.033   0.080   0.933
 3796TIP3    H111331   2.971   0.143   0.894
 3796TIP3    H211332   2.986   0.043   1.008
 3797TIP3   OH211333   4.766   3.451   4.643
 3797TIP3    H111334   4.760   3.451   4.547
 3797TIP3    H211335   4.686   3.494   4.672
 3798TIP3   OH211336   0.243   0.066   5.657
 3798TIP3    H111337   0.312   0.098   5.598
 3798TIP3    H211338   0.175   0.133   5.653
 3799TIP3   OH211339   3.311   2.609   5.923
 3799TIP3    H111340   3.322   2.532   5.978
 3799TIP3    H211341   3.307   2.575   5.833
 3800TIP3   OH211342   1.314   0.865   5.594
 3800TIP3    H111343   1.252   0.935   5.574
 3800TIP3    H211344   1.263   0.785   5.585
 3801TIP3   OH211345   1.525   7.801   1.749
 3801TIP3    H111346   1.616   7.829   1.750
 3801TIP3    H211347   1.522   7.731   1.684
 3802TIP3   OH211348   4.352   0.074   1.043
 3802TIP3    H111349   4.332   0.015   0.970
 3802TIP3    H211350   4.274   0.129   1.051
 3803TIP3   OH211351   6.462   2.158   5.886
 3803TIP3    H111352   6.538   2.176   5.941
 3803TIP3    H211353   6.452   2.235   5.831
 3804TIP3   OH211354   7.281   5.959   4.303
 3804TIP3    H111355   7.212   5.926   4.360
 3804TIP3    H211356   7.272   6.054   4.307
 3805TIP3   OH211357   0.159   0.134   1.840
 3805TIP3    H111358   0.095   0.079   1.884
 3805TIP3    H211359   0.149   0.114   1.747
 3806TIP3   OH211360   4.648   7.811   5.352
 3806TIP3    H111361   4.594   7.739   5.387
 3806TIP3    H211362   4.642   7.880   5.419
 3807TIP3   OH211363   2.686   3.601   3.921
 3807TIP3    H111364   2.779   3.595   3.946
 3807TIP3    H211365   2.660   3.511   3.905
 3808TIP3   OH211366   2.243   7.196   6.508
 3808TIP3    H111367   2.264   7.132   6.440
 3808TIP3    H211368   2.242   7.144   6.589
 3809TIP3   OH211369   8.008   0.556   3.553
 3809TIP3    H111370   8.073   0.486   3.545
 3809TIP3    H211371   7.970   0.542   3.640
 3810TIP3   OH211372   6.542   2.432   6.102
 3810TIP3    H111373   6.577   2.466   6.184
 3810TIP3    H211374   6.541   2.337   6.114
 3811TIP3   OH211375   2.529   3.816   0.967
 3811TIP3    H111376   2.438   3.834   0.942
 3811TIP3    H211377   2.568   3.779   0.887
 3812TIP3   OH211378   1.929   0.051   0.442
 3812TIP3    H111379   1.862   0.009   0.387
 3812TIP3    H211380   1.890   0.054   0.529
 3813TIP3   OH211381   1.098   1.012   5.032
 3813TIP3    H111382   1.067   1.025   4.942
 3813TIP3    H211383   1.103   1.100   5.069
 3814TIP3   OH211384   1.475   0.424   3.263
 3814TIP3    H111385   1.509   0.483   3.196
 3814TIP3    H211386   1.479   0.337   3.223
 3815TIP3   OH211387   8.031   7.038   4.457
 3815TIP3    H111388   8.091   6.987   4.403
 3815TIP3    H211389   7.954   7.052   4.401
 3816TIP3   OH211390   6.256   0.546   5.417
 3816TIP3    H111391   6.189   0.529   5.350
 3816TIP3    H211392   6.218   0.510   5.498
 3817TIP3   OH211393   2.051   0.689   6.762
 3817TIP3    H111394   1.975   0.665   6.710
 3817TIP3    H211395   2.032   0.655   6.849
 3818TIP3   OH211396   0.274   3.727   1.478
 3818TIP3    H111397   0.280   3.645   1.527
 3818TIP3    H211398   0.323   3.712   1.398
 3819TIP3   OH211399   6.058   1.618   3.883
 3819TIP3    H111400   6.045   1.602   3.977
 3819TIP3    H211401   6.130   1.560   3.859
 3820TIP3   OH211402   8.212   6.699   5.001
 3820TIP3    H111403   8.180   6.665   5.084
 3820TIP3    H211404   8.133   6.709   4.947
 3821TIP3   OH211405   4.501   5.759   2.151
 3821TIP3    H111406   4.589   5.784   2.179
 3821TIP3    H211407   4.491   5.669   2.181
 3822TIP3   OH211408   5.731   4.072   3.146
 3822TIP3    H111409   5.638   4.087   3.161
 3822TIP3    H211410   5.749   3.988   3.188
 3823TIP3   OH211411   2.944   1.294   4.826
 3823TIP3    H111412   2.880   1.232   4.792
 3823TIP3    H211413   2.957   1.267   4.917
 3824TIP3   OH211414   1.007   3.593   4.763
 3824TIP3    H111415   0.917   3.567   4.743
 3824TIP3    H211416   1.017   3.575   4.857
 3825TIP3   OH211417   5.379   2.417   0.627
 3825TIP3    H111418   5.398   2.507   0.653
 3825TIP3    H211419   5.314   2.387   0.690
 3826TIP3   OH211420   3.553   2.031   1.086
 3826TIP3    H111421   3.462   2.053   1.110
 3826TIP3    H211422   3.553   2.035   0.990
 3827TIP3   OH211423   4.115   6.445   4.366
 3827TIP3    H111424   4.037   6.391   4.354
 3827TIP3    H211425   4.102   6.519   4.307
 3828TIP3   OH211426   7.252   3.907   5.704
 3828TIP3    H111427   7.286   3.936   5.788
 3828TIP3    H211428   7.165   3.872   5.725
 3829TIP3   OH211429   4.308   0.942   5.325
 3829TIP3    H111430   4.230   0.996   5.337
 3829TIP3    H211431   4.324   0.944   5.231
 3830TIP3   OH211432   4.336   4.484   0.565
 3830TIP3    H111433   4.343   4.402   0.516
 3830TIP3    H211434   4.358   4.459   0.655
 3831TIP3   OH211435   2.882   3.933   0.105
 3831TIP3    H111436   2.806   3.902   0.154
 3831TIP3    H211437   2.937   3.974   0.172
 3832TIP3   OH211438   7.074   3.402   1.536
 3832TIP3    H111439   7.061   3.328   1.595
 3832TIP3    H211440   7.054   3.479   1.588
 3833TIP3   OH211441   4.302   6.181   4.016
 3833TIP3    H111442   4.321   6.153   3.926
 3833TIP3    H211443   4.355   6.260   4.028
 3834TIP3   OH211444   2.005   0.141   2.986
 3834TIP3    H111445   1.913   0.120   3.002
 3834TIP3    H211446   2.004   0.234   2.960
 3835TIP3   OH211447   5.684   1.468   5.345
 3835TIP3    H111448   5.699   1.380   5.380
 3835TIP3    H211449   5.639   1.453   5.262
 3836TIP3   OH211450   2.631   0.368   2.415
 3836TIP3    H111451   2.633   0.342   2.507
 3836TIP3    H211452   2.694   0.440   2.409
 3837TIP3   OH211453   2.588   6.121   0.555
 3837TIP3    H111454   2.505   6.143   0.512
 3837TIP3    H211455   2.647   6.100   0.483
 3838TIP3   OH211456   1.841   4.015   1.661
 3838TIP3    H111457   1.834   4.103   1.698
 3838TIP3    H211458   1.910   4.022   1.595
 3839TIP3   OH211459   2.373   3.594   1.367
 3839TIP3    H111460   2.409   3.510   1.340
 3839TIP3    H211461   2.305   3.571   1.431
 3840TIP3   OH211462   4.702   3.829   0.483
 3840TIP3    H111463   4.772   3.873   0.531
 3840TIP3    H211464   4.693   3.880   0.402
 3841TIP3   OH211465   5.921   2.124   5.707
 3841TIP3    H111466   5.916   2.160   5.796
 3841TIP3    H211467   6.015   2.115   5.690
 3842TIP3   OH211468   0.410   1.441  -0.060
 3842TIP3    H111469   0.491   1.396  -0.082
 3842TIP3    H211470   0.411   1.447   0.036
 3843TIP3   OH211471   3.424   4.730   2.090
 3843TIP3    H111472   3.513   4.694   2.088
 3843TIP3    H211473   3.372   4.668   2.039
 3844TIP3   OH211474   1.455   7.369   6.212
 3844TIP3    H111475   1.524   7.417   6.258
 3844TIP3    H211476   1.460   7.280   6.249
 3845TIP3   OH211477   2.630   6.433   2.158
 3845TIP3    H111478   2.601   6.387   2.237
 3845TIP3    H211479   2.669   6.364   2.103
 3846TIP3   OH211480   3.189   6.660   3.312
 3846TIP3    H111481   3.259   6.620   3.364
 3846TIP3    H211482   3.200   6.754   3.326
 3847TIP3   OH211483   5.756   0.051   0.515
 3847TIP3    H111484   5.843   0.078   0.541
 3847TIP3    H211485   5.755  -0.044   0.528
 3848TIP3   OH211486   0.892   7.264   4.625
 3848TIP3    H111487   0.840   7.188   4.599
 3848TIP3    H211488   0.930   7.296   4.543
 3849TIP3   OH211489   5.858   4.755   0.450
 3849TIP3    H111490   5.806   4.679   0.425
 3849TIP3    H211491   5.931   4.755   0.388
 3850TIP3   OH211492   4.321   5.715   1.600
 3850TIP3    H111493   4.356   5.722   1.511
 3850TIP3    H211494   4.380   5.652   1.643
 3851TIP3   OH211495   1.289   3.988   4.577
 3851TIP3    H111496   1.304   4.034   4.660
 3851TIP3    H211497   1.213   3.932   4.594
 3852TIP3   OH211498   5.115   3.664   2.480
 3852TIP3    H111499   5.053   3.591   2.490
 3852TIP3    H211500   5.127   3.672   2.385
 3853TIP3   OH211501   2.307   2.762   1.396
 3853TIP3    H111502   2.273   2.836   1.448
 3853TIP3    H211503   2.233   2.738   1.339
 3854TIP3   OH211504   0.406   1.722   5.075
 3854TIP3    H111505   0.361   1.652   5.121
 3854TIP3    H211506   0.480   1.745   5.131
 3855TIP3   OH211507   7.842   3.797   5.842
 3855TIP3    H111508   7.935   3.774   5.840
 3855TIP3    H211509   7.800   3.734   5.783
 3856TIP3   OH211510   2.107   5.040   5.752
 3856TIP3    H111511   2.068   4.966   5.797
 3856TIP3    H211512   2.047   5.060   5.681
 3857TIP3   OH211513   3.366   3.320   0.276
 3857TIP3    H111514   3.346   3.372   0.354
 3857TIP3    H211515   3.393   3.235   0.310
 3858TIP3   OH211516   6.048   6.692   3.481
 3858TIP3    H111517   6.009   6.608   3.458
 3858TIP3    H211518   5.973   6.751   3.492
 3859TIP3   OH211519   1.214   2.779   6.249
 3859TIP3    H111520   1.154   2.819   6.186
 3859TIP3    H211521   1.283   2.739   6.196
 3860TIP3   OH211522   7.879   2.089   4.595
 3860TIP3    H111523   7.944   2.024   4.622
 3860TIP3    H211524   7.855   2.135   4.675
 3861TIP3   OH211525   3.452   7.417   6.174
 3861TIP3    H111526   3.501   7.493   6.204
 3861TIP3    H211527   3.362   7.449   6.164
 3862TIP3   OH211528   1.985   4.561   3.950
 3862TIP3    H111529   2.059   4.619   3.967
 3862TIP3    H211530   2.004   4.522   3.865
 3863TIP3   OH211531   6.209   7.088   5.045
 3863TIP3    H111532   6.143   7.123   4.984
 3863TIP3    H211533   6.158   7.054   5.119
 3864TIP3   OH211534   6.869   0.393   1.021
 3864TIP3    H111535   6.829   0.478   1.007
 3864TIP3    H211536   6.922   0.378   0.942
 3865TIP3   OH211537   8.066   2.706   5.358
 3865TIP3    H111538   8.156   2.685   5.384
 3865TIP3    H211539   8.025   2.736   5.439
 3866TIP3   OH211540   2.764   4.303   3.852
 3866TIP3    H111541   2.773   4.396   3.874
 3866TIP3    H211542   2.729   4.262   3.931
 3867TIP3   OH211543   1.451   6.234   4.124
 3867TIP3    H111544   1.435   6.151   4.078
 3867TIP3    H211545   1.547   6.242   4.125
 3868TIP3   OH211546   6.719   4.123   4.605
 3868TIP3    H111547   6.640   4.144   4.656
 3868TIP3    H211548   6.695   4.146   4.515
 3869TIP3   OH211549   0.308   1.618   4.505
 3869TIP3    H111550   0.333   1.704   4.538
 3869TIP3    H211551   0.309   1.628   4.409
 3870TIP3   OH211552   5.938   2.300   1.207
 3870TIP3    H111553   5.856   2.305   1.256
 3870TIP3    H211554   5.957   2.206   1.201
 3871TIP3   OH211555   2.282   6.358   3.038
 3871TIP3    H111556   2.198   6.391   3.069
 3871TIP3    H211557   2.266   6.265   3.023
 3872TIP3   OH211558   6.426   2.402   0.783
 3872TIP3    H111559   6.389   2.489   0.770
 3872TIP3    H211560   6.520   2.416   0.793
 3873TIP3   OH211561   0.489   2.829   3.944
 3873TIP3    H111562   0.462   2.903   3.997
 3873TIP3    H211563   0.573   2.802   3.982
 3874TIP3   OH211564   3.657   5.398   2.546
 3874TIP3    H111565   3.741   5.376   2.586
 3874TIP3    H211566   3.674   5.479   2.497
 3875TIP3   OH211567   1.373   1.158   5.262
 3875TIP3    H111568   1.320   1.238   5.257
 3875TIP3    H211569   1.409   1.148   5.174
 3876TIP3   OH211570   0.807   6.528   4.211
 3876TIP3    H111571   0.814   6.609   4.260
 3876TIP3    H211572   0.840   6.460   4.270
 3877TIP3   OH211573   6.968   5.829   4.021
 3877TIP3    H111574   7.028   5.772   4.070
 3877TIP3    H211575   7.012   5.914   4.020
 3878TIP3   OH211576   0.607   6.999   2.669
 3878TIP3    H111577   0.637   6.993   2.578
 3878TIP3    H211578   0.558   7.081   2.673
 3879TIP3   OH211579   5.115   0.459   5.797
 3879TIP3    H111580   5.069   0.381   5.829
 3879TIP3    H211581   5.157   0.496   5.874
 3880TIP3   OH211582   0.417   7.333   4.257
 3880TIP3    H111583   0.472   7.284   4.195
 3880TIP3    H211584   0.473   7.346   4.333
 3881TIP3   OH211585   3.332   5.073   3.289
 3881TIP3    H111586   3.362   5.097   3.201
 3881TIP3    H211587   3.412   5.051   3.336
 3882TIP3   OH211588   2.245   2.800   4.690
 3882TIP3    H111589   2.287   2.855   4.757
 3882TIP3    H211590   2.282   2.830   4.608
 3883TIP3   OH211591   0.625   2.333   1.076
 3883TIP3    H111592   0.704   2.316   1.026
 3883TIP3    H211593   0.558   2.280   1.033
 3884TIP3   OH211594   5.410   2.487   3.514
 3884TIP3    H111595   5.414   2.407   3.461
 3884TIP3    H211596   5.480   2.542   3.479
 3885TIP3   OH211597   8.236   2.007   5.238
 3885TIP3    H111598   8.215   1.951   5.164
 3885TIP3    H211599   8.202   2.093   5.214
 3886TIP3   OH211600   4.137   6.672   5.116
 3886TIP3    H111601   4.216   6.618   5.121
 3886TIP3    H211602   4.163   6.747   5.063
 3887TIP3   OH211603   6.728   3.119   4.645
 3887TIP3    H111604   6.803   3.093   4.592
 3887TIP3    H211605   6.690   3.193   4.598
 3888TIP3   OH211606   6.840   1.646   1.301
 3888TIP3    H111607   6.778   1.593   1.252
 3888TIP3    H211608   6.926   1.606   1.283
 3889TIP3   OH211609   4.015   2.618   2.829
 3889TIP3    H111610   3.955   2.656   2.893
 3889TIP3    H211611   4.016   2.681   2.757
 3890TIP3   OH211612   8.301   3.085   1.246
 3890TIP3    H111613   8.299   3.103   1.340
 3890TIP3    H211614   8.225   3.029   1.230
 3891TIP3   OH211615   2.341   5.360   3.490
 3891TIP3    H111616   2.288   5.434   3.520
 3891TIP3    H211617   2.294   5.328   3.413
 3892TIP3   OH211618   8.229   4.763  -0.024
 3892TIP3    H111619   8.240   4.727   0.064
 3892TIP3    H211620   8.142   4.732  -0.052
 3893TIP3   OH211621   2.772   0.885   4.498
 3893TIP3    H111622   2.797   0.812   4.555
 3893TIP3    H211623   2.826   0.874   4.420
 3894TIP3   OH211624   0.881   4.988   0.469
 3894TIP3    H111625   0.881   5.000   0.375
 3894TIP3    H211626   0.819   4.917   0.485
 3895TIP3   OH211627   1.028   4.303   0.405
 3895TIP3    H111628   0.956   4.241   0.417
 3895TIP3    H211629   1.105   4.247   0.390
 3896TIP3   OH211630   3.425   5.531   5.280
 3896TIP3    H111631   3.379   5.524   5.196
 3896TIP3    H211632   3.480   5.454   5.284
 3897TIP3   OH211633   0.652   4.149   1.734
 3897TIP3    H111634   0.604   4.183   1.659
 3897TIP3    H211635   0.587   4.098   1.783
 3898TIP3   OH211636   2.796   7.177   2.094
 3898TIP3    H111637   2.707   7.174   2.058
 3898TIP3    H211638   2.818   7.085   2.111
 3899TIP3   OH211639   3.617   6.945   1.201
 3899TIP3    H111640   3.583   7.027   1.236
 3899TIP3    H211641   3.563   6.928   1.124
 3900TIP3   OH211642   6.556   6.417   1.848
 3900TIP3    H111643   6.647   6.390   1.833
 3900TIP3    H211644   6.532   6.376   1.931
 3901TIP3   OH211645   2.655   3.225   6.322
 3901TIP3    H111646   2.682   3.206   6.233
 3901TIP3    H211647   2.706   3.302   6.348
 3902TIP3   OH211648   3.929   7.048   3.284
 3902TIP3    H111649   3.919   6.993   3.362
 3902TIP3    H211650   4.005   7.012   3.238
 3903TIP3   OH211651   7.274   6.299   5.298
 3903TIP3    H111652   7.294   6.262   5.384
 3903TIP3    H211653   7.325   6.380   5.294
 3904TIP3   OH211654   6.841   4.852   4.747
 3904TIP3    H111655   6.758   4.843   4.795
 3904TIP3    H211656   6.890   4.917   4.797
 3905TIP3   OH211657   5.695   4.555   0.357
 3905TIP3    H111658   5.664   4.594   0.275
 3905TIP3    H211659   5.621   4.501   0.386
 3906TIP3   OH211660   0.334   2.148   0.428
 3906TIP3    H111661   0.341   2.171   0.521
 3906TIP3    H211662   0.242   2.130   0.414
 3907TIP3   OH211663   3.956   1.970   6.374
 3907TIP3    H111664   3.952   2.014   6.459
 3907TIP3    H211665   4.049   1.949   6.363
 3908TIP3   OH211666   3.374   1.170   2.328
 3908TIP3    H111667   3.332   1.170   2.242
 3908TIP3    H211668   3.443   1.236   2.320
 3909TIP3   OH211669   6.776   2.705   5.636
 3909TIP3    H111670   6.734   2.777   5.683
 3909TIP3    H211671   6.843   2.673   5.696
 3910TIP3   OH211672   1.929   2.774   0.503
 3910TIP3    H111673   2.022   2.773   0.528
 3910TIP3    H211674   1.906   2.681   0.494
 3911TIP3   OH211675   3.158   0.387   2.565
 3911TIP3    H111676   3.209   0.340   2.499
 3911TIP3    H211677   3.070   0.352   2.557
 3912TIP3   OH211678   3.303   7.172   3.250
 3912TIP3    H111679   3.385   7.123   3.253
 3912TIP3    H211680   3.323   7.256   3.292
 3913TIP3   OH211681   6.066   7.683   0.868
 3913TIP3    H111682   6.155   7.652   0.850
 3913TIP3    H211683   6.078   7.756   0.929
 3914TIP3   OH211684   7.014   6.349   1.410
 3914TIP3    H111685   6.944   6.309   1.359
 3914TIP3    H211686   7.035   6.429   1.362
 3915TIP3   OH211687   5.980   1.856   0.910
 3915TIP3    H111688   6.073   1.841   0.895
 3915TIP3    H211689   5.963   1.943   0.873
 3916TIP3   OH211690   4.569   0.682   1.863
 3916TIP3    H111691   4.483   0.657   1.829
 3916TIP3    H211692   4.585   0.622   1.935
 3917TIP3   OH211693   6.071   3.930   3.298
 3917TIP3    H111694   6.164   3.932   3.320
 3917TIP3    H211695   6.065   3.867   3.226
 3918TIP3   OH211696   4.284   7.833   4.924
 3918TIP3    H111697   4.318   7.852   5.011
 3918TIP3    H211698   4.363   7.828   4.868
 3919TIP3   OH211699   5.115   2.361   2.999
 3919TIP3    H111700   5.172   2.380   3.073
 3919TIP3    H211701   5.161   2.294   2.949
 3920TIP3   OH211702   6.736   1.014   2.849
 3920TIP3    H111703   6.793   1.021   2.773
 3920TIP3    H211704   6.662   1.070   2.829
 3921TIP3   OH211705   5.991   3.605   4.955
 3921TIP3    H111706   6.070   3.659   4.957
 3921TIP3    H211707   5.927   3.658   4.907
 3922TIP3   OH211708   1.448   0.786   4.420
 3922TIP3    H111709   1.505   0.809   4.346
 3922TIP3    H211710   1.365   0.829   4.400
 3923TIP3   OH211711   0.170   7.770   3.841
 3923TIP3    H111712   0.098   7.734   3.894
 3923TIP3    H211713   0.206   7.841   3.894
 3924TIP3   OH211714   3.668   5.781   1.586
 3924TIP3    H111715   3.629   5.773   1.673
 3924TIP3    H211716   3.593   5.785   1.527
 3925TIP3   OH211717   6.653   1.111   5.872
 3925TIP3    H111718   6.610   1.155   5.799
 3925TIP3    H211719   6.745   1.135   5.864
 3926TIP3   OH211720   7.028   0.915   0.055
 3926TIP3    H111721   7.083   0.920  -0.023
 3926TIP3    H211722   7.089   0.899   0.127
 3927TIP3   OH211723   4.211   0.386   5.858
 3927TIP3    H111724   4.186   0.301   5.895
 3927TIP3    H211725   4.201   0.448   5.930
 3928TIP3   OH211726   5.557   0.886   2.252
 3928TIP3    H111727   5.526   0.823   2.316
 3928TIP3    H211728   5.496   0.960   2.260
 3929TIP3   OH211729   7.464   4.874   4.454
 3929TIP3    H111730   7.487   4.791   4.412
 3929TIP3    H211731   7.425   4.848   4.537
 3930TIP3   OH211732   8.005   4.228   4.603
 3930TIP3    H111733   7.928   4.175   4.581
 3930TIP3    H211734   7.976   4.283   4.676
 3931TIP3   OH211735   4.465   7.195   3.564
 3931TIP3    H111736   4.495   7.273   3.612
 3931TIP3    H211737   4.382   7.221   3.525
 3932TIP3   OH211738   6.589   6.064   4.114
 3932TIP3    H111739   6.603   6.058   4.208
 3932TIP3    H211740   6.676   6.071   4.076
 3933TIP3   OH211741   0.052   1.937   0.015
 3933TIP3    H111742   0.105   1.872  -0.030
 3933TIP3    H211743   0.071   1.922   0.108
 3934TIP3   OH211744   5.895   6.542   5.014
 3934TIP3    H111745   5.979   6.504   4.990
 3934TIP3    H211746   5.913   6.636   5.023
 3935TIP3   OH211747   1.918   6.247   2.290
 3935TIP3    H111748   1.917   6.203   2.375
 3935TIP3    H211749   1.836   6.222   2.248
 3936TIP3   OH211750   0.593   1.520   0.413
 3936TIP3    H111751   0.531   1.447   0.407
 3936TIP3    H211752   0.628   1.530   0.325
 3937TIP3   OH211753   8.144   2.097   3.688
 3937TIP3    H111754   8.213   2.047   3.645
 3937TIP3    H211755   8.167   2.189   3.670
 3938TIP3   OH211756   5.148   0.416   5.544
 3938TIP3    H111757   5.238   0.447   5.535
 3938TIP3    H211758   5.128   0.429   5.637
 3939TIP3   OH211759   4.965   4.779   2.288
 3939TIP3    H111760   4.968   4.865   2.245
 3939TIP3    H211761   5.049   4.738   2.267
 3940TIP3   OH211762   6.545   0.818   4.664
 3940TIP3    H111763   6.590   0.737   4.690
 3940TIP3    H211764   6.460   0.814   4.708
 3941TIP3   OH211765   5.339   0.046   6.480
 3941TIP3    H111766   5.293  -0.027   6.439
 3941TIP3    H211767   5.367   0.101   6.407
 3942TIP3   OH211768   2.811   3.990   6.332
 3942TIP3    H111769   2.749   3.997   6.259
 3942TIP3    H211770   2.874   4.061   6.317
 3943TIP3   OH211771   1.507   6.356   0.242
 3943TIP3    H111772   1.528   6.340   0.150
 3943TIP3    H211773   1.584   6.402   0.277
 3944TIP3   OH211774   6.893   6.594   3.589
 3944TIP3    H111775   6.924   6.504   3.597
 3944TIP3    H211776   6.885   6.626   3.679
 3945TIP3   OH211777   4.799   4.750   0.789
 3945TIP3    H111778   4.835   4.681   0.734
 3945TIP3    H211779   4.778   4.707   0.872
 3946TIP3   OH211780   2.903   0.622   4.997
 3946TIP3    H111781   2.952   0.564   5.054
 3946TIP3    H211782   2.841   0.666   5.055
 3947TIP3   OH211783   0.365   1.451   2.536
 3947TIP3    H111784   0.415   1.519   2.493
 3947TIP3    H211785   0.420   1.373   2.530
 3948TIP3   OH211786   3.608   1.276   4.210
 3948TIP3    H111787   3.639   1.218   4.140
 3948TIP3    H211788   3.586   1.358   4.165
 3949TIP3   OH211789   8.075   4.892   3.132
 3949TIP3    H111790   8.143   4.915   3.194
 3949TIP3    H211791   8.019   4.970   3.128
 3950TIP3   OH211792   2.201   2.434   6.663
 3950TIP3    H111793   2.160   2.511   6.624
 3950TIP3    H211794   2.193   2.447   6.757
 3951TIP3   OH211795   0.089   4.390   1.285
 3951TIP3    H111796   0.010   4.369   1.235
 3951TIP3    H211797   0.112   4.308   1.330
 3952TIP3   OH211798   7.590   4.094   2.742
 3952TIP3    H111799   7.498   4.105   2.765
 3952TIP3    H211800   7.594   4.008   2.700
 3953TIP3   OH211801   0.411   1.623   1.101
 3953TIP3    H111802   0.335   1.646   1.154
 3953TIP3    H211803   0.406   1.528   1.092
 3954TIP3   OH211804   0.227   5.259   4.253
 3954TIP3    H111805   0.193   5.178   4.292
 3954TIP3    H211806   0.267   5.231   4.171
 3955TIP3   OH211807   5.284   5.608   1.024
 3955TIP3    H111808   5.379   5.603   1.034
 3955TIP3    H211809   5.250   5.549   1.091
 3956TIP3   OH211810   2.395   6.031   2.826
 3956TIP3    H111811   2.352   6.024   2.912
 3956TIP3    H211812   2.442   5.948   2.816
 3957TIP3   OH211813   1.129   0.820   3.552
 3957TIP3    H111814   1.158   0.741   3.505
 3957TIP3    H211815   1.062   0.858   3.495
 3958TIP3   OH211816   3.643   5.738   5.234
 3958TIP3    H111817   3.596   5.659   5.261
 3958TIP3    H211818   3.575   5.798   5.204
 3959TIP3   OH211819   3.259   0.471   5.635
 3959TIP3    H111820   3.337   0.436   5.679
 3959TIP3    H211821   3.274   0.565   5.633
 3960TIP3   OH211822   5.696   5.971   5.559
 3960TIP3    H111823   5.766   5.908   5.544
 3960TIP3    H211824   5.707   5.999   5.650
 3961TIP3   OH211825   3.574   5.170   5.797
 3961TIP3    H111826   3.500   5.134   5.748
 3961TIP3    H211827   3.619   5.227   5.735
 3962TIP3   OH211828   5.973   5.636   0.765
 3962TIP3    H111829   5.927   5.554   0.784
 3962TIP3    H211830   5.961   5.689   0.844
 3963TIP3   OH211831   5.973   6.604   0.282
 3963TIP3    H111832   6.046   6.610   0.220
 3963TIP3    H211833   5.911   6.545   0.240
 3964TIP3   OH211834   0.358   4.454   3.609
 3964TIP3    H111835   0.345   4.495   3.523
 3964TIP3    H211836   0.431   4.502   3.648
 3965TIP3   OH211837   1.531   0.191   3.102
 3965TIP3    H111838   1.541   0.142   3.020
 3965TIP3    H211839   1.531   0.124   3.170
 3966TIP3   OH211840   6.142   7.388   0.676
 3966TIP3    H111841   6.077   7.426   0.617
 3966TIP3    H211842   6.196   7.462   0.703
 3967TIP3   OH211843   1.114   2.409   2.857
 3967TIP3    H111844   1.123   2.495   2.817
 3967TIP3    H211845   1.021   2.390   2.851
 3968TIP3   OH211846   6.422   3.907   3.676
 3968TIP3    H111847   6.478   3.933   3.603
 3968TIP3    H211848   6.459   3.825   3.707
 3969TIP3   OH211849   0.108   1.030   0.303
 3969TIP3    H111850   0.073   0.947   0.273
 3969TIP3    H211851   0.203   1.019   0.300
 3970TIP3   OH211852   7.084   5.775   3.312
 3970TIP3    H111853   7.026   5.805   3.382
 3970TIP3    H211854   7.150   5.723   3.358
 3971TIP3   OH211855   5.647   4.662   5.274
 3971TIP3    H111856   5.709   4.724   5.235
 3971TIP3    H211857   5.702   4.592   5.309
 3972TIP3   OH211858   4.854   4.641   6.055
 3972TIP3    H111859   4.788   4.602   6.112
 3972TIP3    H211860   4.841   4.598   5.971
 3973TIP3   OH211861   5.212   1.359   2.569
 3973TIP3    H111862   5.245   1.292   2.509
 3973TIP3    H211863   5.192   1.434   2.512
 3974TIP3   OH211864   6.348   6.981   4.105
 3974TIP3    H111865   6.256   7.004   4.095
 3974TIP3    H211866   6.395   7.064   4.093
 3975TIP3   OH211867   1.635   3.466   2.085
 3975TIP3    H111868   1.630   3.561   2.092
 3975TIP3    H211869   1.647   3.436   2.175
 3976TIP3   OH211870   5.905   4.509   2.609
 3976TIP3    H111871   5.943   4.597   2.612
 3976TIP3    H211872   5.853   4.502   2.690
 3977TIP3   OH211873   5.304   1.317   6.484
 3977TIP3    H111874   5.348   1.358   6.558
 3977TIP3    H211875   5.301   1.224   6.506
 3978TIP3   OH211876   1.021   6.502   5.939
 3978TIP3    H111877   1.100   6.472   5.893
 3978TIP3    H211878   0.962   6.529   5.869
 3979TIP3   OH211879   0.463   0.468   3.846
 3979TIP3    H111880   0.446   0.562   3.848
 3979TIP3    H211881   0.537   0.459   3.786
 3980TIP3   OH211882   5.181   2.925   6.337
 3980TIP3    H111883   5.164   2.942   6.430
 3980TIP3    H211884   5.277   2.927   6.330
 3981TIP3   OH211885   0.383   1.495   3.330
 3981TIP3    H111886   0.412   1.424   3.387
 3981TIP3    H211887   0.405   1.466   3.242
 3982TIP3   OH211888   1.478   6.467   6.139
 3982TIP3    H111889   1.460   6.374   6.122
 3982TIP3    H211890   1.412   6.514   6.088
 3983TIP3   OH211891   4.555   5.201   0.096
 3983TIP3    H111892   4.594   5.149   0.166
 3983TIP3    H211893   4.617   5.195   0.023
 3984TIP3   OH211894   3.539   4.784   0.919
 3984TIP3    H111895   3.550   4.840   0.842
 3984TIP3    H211896   3.459   4.735   0.902
 3985TIP3   OH211897   5.329   6.271   4.255
 3985TIP3    H111898   5.370   6.185   4.264
 3985TIP3    H211899   5.330   6.308   4.343
 3986TIP3   OH211900   2.048   3.583   1.299
 3986TIP3    H111901   2.084   3.521   1.362
 3986TIP3    H211902   2.030   3.662   1.350
 3987TIP3   OH211903   7.513   4.189   5.655
 3987TIP3    H111904   7.434   4.232   5.689
 3987TIP3    H211905   7.563   4.166   5.734
 3988TIP3   OH211906   1.000   3.106   3.047
 3988TIP3    H111907   1.033   3.178   2.993
 3988TIP3    H211908   1.044   3.116   3.131
 3989TIP3   OH211909   1.944   6.535   0.719
 3989TIP3    H111910   1.938   6.618   0.766
 3989TIP3    H211911   2.034   6.507   0.732
 3990TIP3   OH211912   3.093   2.387   0.330
 3990TIP3    H111913   3.039   2.444   0.384
 3990TIP3    H211914   3.039   2.367   0.254
 3991TIP3   OH211915   1.701   4.617   0.568
 3991TIP3    H111916   1.656   4.579   0.492
 3991TIP3    H211917   1.789   4.578   0.565
 3992TIP3   OH211918   6.595   4.391   5.660
 3992TIP3    H111919   6.624   4.451   5.591
 3992TIP3    H211920   6.625   4.432   5.741
 3993TIP3   OH211921   2.065   0.381   0.705
 3993TIP3    H111922   2.066   0.287   0.721
 3993TIP3    H211923   2.150   0.400   0.665
 3994TIP3   OH211924   0.442   4.552   4.944
 3994TIP3    H111925   0.482   4.466   4.942
 3994TIP3    H211926   0.401   4.558   5.030
 3995TIP3   OH211927   2.481   3.869   2.583
 3995TIP3    H111928   2.482   3.955   2.539
 3995TIP3    H211929   2.566   3.865   2.627
 3996TIP3   OH211930   2.869   3.465   1.075
 3996TIP3    H111931   2.796   3.476   1.136
 3996TIP3    H211932   2.850   3.526   1.004
 3997TIP3   OH211933   2.991   3.099   1.150
 3997TIP3    H111934   3.062   3.163   1.158
 3997TIP3    H211935   3.021   3.024   1.201
 3998TIP3   OH211936   7.628   7.626   0.724
 3998TIP3    H111937   7.612   7.541   0.684
 3998TIP3    H211938   7.712   7.655   0.687
 3999TIP3   OH211939   3.577   3.796   6.727
 3999TIP3    H111940   3.498   3.744   6.742
 3999TIP3    H211941   3.562   3.837   6.642
 4000TIP3   OH211942   0.986   7.399   5.622
 4000TIP3    H111943   0.921   7.447   5.672
 4000TIP3    H211944   0.936   7.355   5.553
 4001TIP3   OH211945   0.739   4.985   4.632
 4001TIP3    H111946   0.796   5.006   4.706
 4001TIP3    H211947   0.651   5.010   4.662
 4002TIP3   OH211948   5.754   0.614   1.268
 4002TIP3    H111949   5.758   0.569   1.183
 4002TIP3    H211950   5.786   0.550   1.331
 4003TIP3   OH211951   3.885   3.011   4.522
 4003TIP3    H111952   3.814   3.012   4.457
 4003TIP3    H211953   3.949   3.074   4.489
 4004TIP3   OH211954   0.250   5.434   5.156
 4004TIP3    H111955   0.186   5.408   5.222
 4004TIP3    H211956   0.199   5.480   5.089
 4005TIP3   OH211957   6.065   5.438   3.040
 4005TIP3    H111958   6.006   5.488   3.096
 4005TIP3    H211959   6.086   5.499   2.968
 4006TIP3   OH211960   0.895   3.784   1.845
 4006TIP3    H111961   0.904   3.878   1.860
 4006TIP3    H211962   0.979   3.748   1.870
 4007TIP3   OH211963   7.377   2.386   5.240
 4007TIP3    H111964   7.363   2.480   5.233
 4007TIP3    H211965   7.449   2.367   5.180
 4008TIP3   OH211966   5.552   2.126   1.733
 4008TIP3    H111967   5.646   2.143   1.741
 4008TIP3    H211968   5.526   2.091   1.818
 4009TIP3   OH211969   1.221   5.854   6.654
 4009TIP3    H111970   1.196   5.765   6.678
 4009TIP3    H211971   1.140   5.905   6.665
 4010TIP3   OH211972   4.204   6.475   3.442
 4010TIP3    H111973   4.218   6.380   3.446
 4010TIP3    H211974   4.248   6.509   3.520
 4011TIP3   OH211975   0.472   1.400   1.585
 4011TIP3    H111976   0.414   1.476   1.580
 4011TIP3    H211977   0.413   1.325   1.599
 4012TIP3   OH211978   1.285   7.668   4.308
 4012TIP3    H111979   1.231   7.653   4.231
 4012TIP3    H211980   1.301   7.763   4.309
 4013TIP3   OH211981   5.475   0.253   2.533
 4013TIP3    H111982   5.439   0.257   2.444
 4013TIP3    H211983   5.552   0.197   2.525
 4014TIP3   OH211984   7.309   7.735   0.679
 4014TIP3    H111985   7.257   7.777   0.747
 4014TIP3    H211986   7.394   7.718   0.721
 4015TIP3   OH211987   0.020   3.864   6.151
 4015TIP3    H111988   0.053   3.796   6.093
 4015TIP3    H211989  -0.075   3.850   6.154
 4016TIP3   OH211990   7.133   3.591   1.281
 4016TIP3    H111991   7.106   3.523   1.343
 4016TIP3    H211992   7.196   3.644   1.329
 4017TIP3   OH211993   0.017   2.924   2.947
 4017TIP3    H111994   0.053   2.920   2.858
 4017TIP3    H211995  -0.042   2.849   2.953
 4018TIP3   OH211996   2.446   3.352   0.180
 4018TIP3    H111997   2.527   3.400   0.164
 4018TIP3    H211998   2.459   3.267   0.140
 4019TIP3   OH211999   3.375   7.116   6.301
 4019TIP3    H112000   3.468   7.096   6.310
 4019TIP3    H212001   3.346   7.062   6.227
 4020TIP3   OH212002   0.537   1.927   2.623
 4020TIP3    H112003   0.460   1.978   2.647
 4020TIP3    H212004   0.510   1.836   2.636
 4021TIP3   OH212005   3.803   1.462   3.925
 4021TIP3    H112006   3.849   1.390   3.881
 4021TIP3    H212007   3.871   1.507   3.975
 4022TIP3   OH212008   0.171   5.219   2.862
 4022TIP3    H112009   0.219   5.189   2.785
 4022TIP3    H212010   0.173   5.144   2.922
 4023TIP3   OH212011   4.028   4.102   0.022
 4023TIP3    H112012   4.091   4.035  -0.006
 4023TIP3    H212013   3.953   4.052   0.053
 4024TIP3   OH212014   7.224   5.583   5.389
 4024TIP3    H112015   7.231   5.520   5.461
 4024TIP3    H212016   7.166   5.651   5.422
 4025TIP3   OH212017   2.792   5.264   5.802
 4025TIP3    H112018   2.830   5.306   5.879
 4025TIP3    H212019   2.716   5.216   5.835
 4026TIP3   OH212020   6.411   7.024   3.394
 4026TIP3    H112021   6.482   6.961   3.407
 4026TIP3    H212022   6.343   6.995   3.455
 4027TIP3   OH212023   0.671   4.477   6.586
 4027TIP3    H112024   0.650   4.399   6.637
 4027TIP3    H212025   0.766   4.472   6.573
 4028TIP3   OH212026   2.599   6.477   0.820
 4028TIP3    H112027   2.586   6.521   0.903
 4028TIP3    H212028   2.682   6.512   0.787
 4029TIP3   OH212029   7.276   0.025   4.784
 4029TIP3    H112030   7.327   0.096   4.824
 4029TIP3    H212031   7.272   0.048   4.692
 4030TIP3   OH212032   8.198   3.381   0.411
 4030TIP3    H112033   8.276   3.339   0.446
 4030TIP3    H212034   8.145   3.402   0.488
 4031TIP3   OH212035   8.007   6.293   1.461
 4031TIP3    H112036   8.079   6.242   1.498
 4031TIP3    H212037   8.027   6.384   1.483
 4032TIP3   OH212038   8.187   5.499   3.591
 4032TIP3    H112039   8.267   5.446   3.598
 4032TIP3    H212040   8.200   5.551   3.511
 4033TIP3   OH212041   3.469   0.517   0.175
 4033TIP3    H112042   3.454   0.612   0.170
 4033TIP3    H212043   3.428   0.483   0.096
 4034TIP3   OH212044   1.314   7.724   5.572
 4034TIP3    H112045   1.261   7.804   5.577
 4034TIP3    H212046   1.393   7.746   5.621
 4035TIP3   OH212047   1.000   4.436   0.919
 4035TIP3    H112048   0.939   4.490   0.970
 4035TIP3    H212049   1.018   4.488   0.841
 4036TIP3   OH212050   7.451   4.209   6.084
 4036TIP3    H112051   7.527   4.200   6.026
 4036TIP3    H212052   7.408   4.290   6.055
 4037TIP3   OH212053   5.756   7.399   4.725
 4037TIP3    H112054   5.708   7.386   4.643
 4037TIP3    H212055   5.846   7.417   4.696
 4038TIP3   OH212056   4.225   5.185   5.062
 4038TIP3    H112057   4.190   5.274   5.065
 4038TIP3    H212058   4.276   5.178   5.143
 4039TIP3   OH212059   7.212   0.209   6.231
 4039TIP3    H112060   7.227   0.282   6.292
 4039TIP3    H212061   7.300   0.179   6.209
 4040TIP3   OH212062   1.898   5.090   2.040
 4040TIP3    H112063   1.979   5.096   2.090
 4040TIP3    H212064   1.846   5.166   2.070
 4041TIP3   OH212065   7.486   5.357   5.734
 4041TIP3    H112066   7.471   5.323   5.822
 4041TIP3    H212067   7.506   5.450   5.747
 4042TIP3   OH212068   8.248   4.858   1.290
 4042TIP3    H112069   8.179   4.921   1.308
 4042TIP3    H212070   8.214   4.774   1.322
 4043TIP3   OH212071   5.013   6.542   4.776
 4043TIP3    H112072   5.024   6.634   4.751
 4043TIP3    H212073   5.018   6.493   4.694
 4044TIP3   OH212074   2.078   1.543   4.084
 4044TIP3    H112075   2.008   1.594   4.124
 4044TIP3    H212076   2.146   1.539   4.151
 4045TIP3   OH212077   6.802   6.298   1.784
 4045TIP3    H112078   6.782   6.219   1.735
 4045TIP3    H212079   6.809   6.269   1.875
 4046TIP3   OH212080   3.524   7.391   2.213
 4046TIP3    H112081   3.598   7.452   2.209
 4046TIP3    H212082   3.535   7.334   2.137
 4047TIP3   OH212083   1.547   4.520   2.602
 4047TIP3    H112084   1.556   4.497   2.510
 4047TIP3    H212085   1.525   4.437   2.645
 4048TIP3   OH212086   2.350   7.598   0.199
 4048TIP3    H112087   2.331   7.513   0.238
 4048TIP3    H212088   2.420   7.634   0.253
 4049TIP3   OH212089   7.617   2.740   2.083
 4049TIP3    H112090   7.528   2.772   2.068
 4049TIP3    H212091   7.606   2.647   2.105
 4050TIP3   OH212092   2.463   3.583   3.634
 4050TIP3    H112093   2.432   3.603   3.545
 4050TIP3    H212094   2.387   3.546   3.679
 4051TIP3   OH212095   3.532   7.359   6.468
 4051TIP3    H112096   3.494   7.272   6.477
 4051TIP3    H212097   3.545   7.370   6.373
 4052TIP3   OH212098   7.470   4.382   0.951
 4052TIP3    H112099   7.498   4.331   0.876
 4052TIP3    H212100   7.545   4.438   0.972
 4053TIP3   OH212101   5.234   6.337   2.313
 4053TIP3    H112102   5.153   6.374   2.347
 4053TIP3    H212103   5.299   6.406   2.328
 4054TIP3   OH212104   5.336   1.961   6.395
 4054TIP3    H112105   5.257   1.906   6.397
 4054TIP3    H212106   5.318   2.030   6.459
 4055TIP3   OH212107   5.853   1.008   1.086
 4055TIP3    H112108   5.782   1.037   1.144
 4055TIP3    H212109   5.871   1.084   1.032
 4056TIP3   OH212110   3.377   3.115   4.654
 4056TIP3    H112111   3.386   3.059   4.577
 4056TIP3    H212112   3.422   3.196   4.629
 4057TIP3   OH212113   3.994   4.805   5.908
 4057TIP3    H112114   3.981   4.894   5.939
 4057TIP3    H212115   4.089   4.791   5.915
 4058TIP3   OH212116   0.872   7.105   1.655
 4058TIP3    H112117   0.793   7.057   1.683
 4058TIP3    H212118   0.925   7.039   1.611
 4059TIP3   OH212119   3.774   3.858   3.175
 4059TIP3    H112120   3.836   3.854   3.102
 4059TIP3    H212121   3.688   3.863   3.132
 4060TIP3   OH212122   4.345   4.171   3.124
 4060TIP3    H112123   4.422   4.170   3.182
 4060TIP3    H212124   4.364   4.239   3.060
 4061TIP3   OH212125   2.560   1.030   4.333
 4061TIP3    H112126   2.624   0.998   4.397
 4061TIP3    H212127   2.477   0.990   4.359
 4062TIP3   OH212128   4.411   5.293   4.311
 4062TIP3    H112129   4.388   5.221   4.371
 4062TIP3    H212130   4.503   5.310   4.329
 4063TIP3   OH212131   1.331   2.318   0.218
 4063TIP3    H112132   1.348   2.225   0.202
 4063TIP3    H212133   1.248   2.335   0.174
 4064TIP3   OH212134   4.140   1.334   0.287
 4064TIP3    H112135   4.166   1.401   0.224
 4064TIP3    H212136   4.176   1.364   0.370
 4065TIP3   OH212137   0.969   2.993   2.364
 4065TIP3    H112138   0.918   2.912   2.366
 4065TIP3    H212139   1.059   2.965   2.349
 4066TIP3   OH212140   5.237   1.376   2.094
 4066TIP3    H112141   5.330   1.383   2.116
 4066TIP3    H212142   5.236   1.353   2.002
 4067TIP3   OH212143   5.390   0.687   0.092
 4067TIP3    H112144   5.403   0.592   0.085
 4067TIP3    H212145   5.302   0.696   0.129
 4068TIP3   OH212146   6.047   6.209   5.209
 4068TIP3    H112147   5.995   6.132   5.187
 4068TIP3    H212148   6.132   6.174   5.233
 4069TIP3   OH212149   1.936   1.153   2.088
 4069TIP3    H112150   1.880   1.094   2.037
 4069TIP3    H212151   1.974   1.098   2.156
 4070TIP3   OH212152   8.150   5.093   4.327
 4070TIP3    H112153   8.057   5.072   4.324
 4070TIP3    H212154   8.154   5.180   4.368
 4071TIP3   OH212155   0.117   5.444   0.985
 4071TIP3    H112156   0.150   5.365   0.941
 4071TIP3    H212157   0.103   5.416   1.075
 4072TIP3   OH212158   7.178   2.538   3.376
 4072TIP3    H112159   7.166   2.443   3.369
 4072TIP3    H212160   7.222   2.550   3.460
 4073TIP3   OH212161   3.863   5.218   4.937
 4073TIP3    H112162   3.888   5.260   4.855
 4073TIP3    H212163   3.878   5.284   5.004
 4074TIP3   OH212164   0.662   5.277   2.775
 4074TIP3    H112165   0.640   5.352   2.720
 4074TIP3    H212166   0.758   5.279   2.780
 4075TIP3   OH212167   4.188   6.327   5.861
 4075TIP3    H112168   4.113   6.300   5.808
 4075TIP3    H212169   4.170   6.419   5.883
 4076TIP3   OH212170   4.820   2.803   4.662
 4076TIP3    H112171   4.894   2.743   4.651
 4076TIP3    H212172   4.748   2.760   4.616
 4077TIP3   OH212173   2.181   7.158   6.138
 4077TIP3    H112174   2.141   7.075   6.161
 4077TIP3    H212175   2.272   7.151   6.169
 4078TIP3   OH212176   3.323   0.179   1.600
 4078TIP3    H112177   3.358   0.093   1.579
 4078TIP3    H212178   3.245   0.162   1.653
 4079TIP3   OH212179   4.562   6.463   3.465
 4079TIP3    H112180   4.577   6.499   3.378
 4079TIP3    H212181   4.517   6.380   3.449
 4080TIP3   OH212182   1.650   5.564   3.166
 4080TIP3    H112183   1.579   5.544   3.226
 4080TIP3    H212184   1.730   5.551   3.218
 4081TIP3   OH212185   6.862   1.213   0.544
 4081TIP3    H112186   6.791   1.278   0.536
 4081TIP3    H212187   6.843   1.149   0.475
 4082TIP3   OH212188   2.529   4.696   4.339
 4082TIP3    H112189   2.444   4.737   4.320
 4082TIP3    H212190   2.592   4.767   4.331
 4083TIP3   OH212191   0.926   6.840   0.282
 4083TIP3    H112192   0.877   6.772   0.235
 4083TIP3    H212193   0.965   6.794   0.356
 4084TIP3   OH212194   7.777   1.467   0.769
 4084TIP3    H112195   7.788   1.445   0.676
 4084TIP3    H212196   7.682   1.466   0.782
 4085TIP3   OH212197   1.290   3.954   6.137
 4085TIP3    H112198   1.336   4.036   6.158
 4085TIP3    H212199   1.282   3.955   6.042
 4086TIP3   OH212200   5.939   0.669   2.713
 4086TIP3    H112201   6.035   0.665   2.705
 4086TIP3    H212202   5.921   0.629   2.799
 4087TIP3   OH212203   3.126   0.505   3.415
 4087TIP3    H112204   3.203   0.450   3.410
 4087TIP3    H212205   3.100   0.503   3.507
 4088TIP3   OH212206   6.887   2.793   0.263
 4088TIP3    H112207   6.842   2.755   0.187
 4088TIP3    H212208   6.931   2.871   0.229
 4089TIP3   OH212209   2.542   1.403   0.400
 4089TIP3    H112210   2.533   1.325   0.455
 4089TIP3    H212211   2.454   1.419   0.366
 4090TIP3   OH212212   7.873   3.728   5.351
 4090TIP3    H112213   7.884   3.652   5.408
 4090TIP3    H212214   7.873   3.803   5.410
 4091TIP3   OH212215   2.163   1.437   3.757
 4091TIP3    H112216   2.125   1.366   3.706
 4091TIP3    H212217   2.228   1.394   3.813
 4092TIP3   OH212218   3.946   1.073   2.904
 4092TIP3    H112219   3.882   1.084   2.974
 4092TIP3    H212220   4.029   1.056   2.949
 4093TIP3   OH212221   2.699   0.452   1.776
 4093TIP3    H112222   2.746   0.422   1.854
 4093TIP3    H212223   2.689   0.547   1.788
 4094TIP3   OH212224   4.383   1.778   3.118
 4094TIP3    H112225   4.309   1.723   3.090
 4094TIP3    H212226   4.433   1.792   3.038
 4095TIP3   OH212227   8.224   6.771   6.333
 4095TIP3    H112228   8.260   6.857   6.350
 4095TIP3    H212229   8.156   6.786   6.267
 4096TIP3   OH212230   3.538   6.109   1.069
 4096TIP3    H112231   3.628   6.078   1.057
 4096TIP3    H212232   3.514   6.145   0.984
 4097TIP3   OH212233   6.403   3.446   5.631
 4097TIP3    H112234   6.471   3.437   5.699
 4097TIP3    H212235   6.327   3.479   5.678
 4098TIP3   OH212236   6.272   5.144   2.548
 4098TIP3    H112237   6.325   5.074   2.587
 4098TIP3    H212238   6.241   5.196   2.622
 4099TIP3   OH212239   6.747   3.853   4.644
 4099TIP3    H112240   6.710   3.819   4.725
 4099TIP3    H212241   6.741   3.948   4.653
 4100TIP3   OH212242   7.720   6.644   1.609
 4100TIP3    H112243   7.767   6.724   1.632
 4100TIP3    H212244   7.709   6.597   1.691
 4101TIP3   OH212245   7.012   5.789   5.406
 4101TIP3    H112246   7.028   5.813   5.497
 4101TIP3    H212247   7.013   5.871   5.358
 4102TIP3   OH212248   2.838   5.284   3.556
 4102TIP3    H112249   2.837   5.269   3.650
 4102TIP3    H212250   2.925   5.320   3.538
 4103TIP3   OH212251   2.996   4.393   2.489
 4103TIP3    H112252   3.025   4.382   2.398
 4103TIP3    H212253   2.985   4.488   2.499
 4104TIP3   OH212254   5.112   2.858   2.850
 4104TIP3    H112255   5.181   2.889   2.793
 4104TIP3    H212256   5.157   2.808   2.918
 4105TIP3   OH212257   6.359   6.032   6.029
 4105TIP3    H112258   6.432   6.010   5.971
 4105TIP3    H212259   6.350   6.127   6.020
 4106TIP3   OH212260   0.045   7.592   2.868
 4106TIP3    H112261   0.087   7.578   2.782
 4106TIP3    H212262   0.109   7.560   2.931
 4107TIP3   OH212263   5.427   4.769   3.262
 4107TIP3    H112264   5.335   4.790   3.249
 4107TIP3    H212265   5.430   4.729   3.349
 4108TIP3   OH212266   6.989   2.683   2.162
 4108TIP3    H112267   7.028   2.596   2.168
 4108TIP3    H212268   6.894   2.667   2.160
 4109TIP3   OH212269   6.845   3.737   1.958
 4109TIP3    H112270   6.783   3.736   2.032
 4109TIP3    H212271   6.908   3.804   1.980
 4110TIP3   OH212272   7.877   4.587   5.714
 4110TIP3    H112273   7.798   4.619   5.758
 4110TIP3    H212274   7.938   4.661   5.718
 4111TIP3   OH212275   0.910   2.317   2.567
 4111TIP3    H112276   0.876   2.232   2.540
 4111TIP3    H212277   0.885   2.325   2.659
 4112TIP3   OH212278   3.774   4.580   4.099
 4112TIP3    H112279   3.815   4.666   4.090
 4112TIP3    H212280   3.836   4.519   4.058
 4113TIP3   OH212281   1.929   5.725   1.082
 4113TIP3    H112282   1.965   5.674   1.009
 4113TIP3    H212283   1.846   5.682   1.103
 4114TIP3   OH212284   6.873   1.001   5.581
 4114TIP3    H112285   6.941   1.013   5.647
 4114TIP3    H212286   6.896   0.919   5.538
 4115TIP3   OH212287   2.229   0.576   0.499
 4115TIP3    H112288   2.185   0.500   0.459
 4115TIP3    H212289   2.171   0.649   0.481
 4116TIP3   OH212290   1.484   3.699   0.243
 4116TIP3    H112291   1.562   3.660   0.205
 4116TIP3    H212292   1.411   3.655   0.199
 4117TIP3   OH212293   7.342   1.539   1.412
 4117TIP3    H112294   7.329   1.634   1.419
 4117TIP3    H212295   7.437   1.529   1.400
 4118TIP3   OH212296   4.749   2.066   4.671
 4118TIP3    H112297   4.765   2.080   4.578
 4118TIP3    H212298   4.666   2.112   4.688
 4119TIP3   OH212299   1.675   5.367   6.293
 4119TIP3    H112300   1.703   5.311   6.221
 4119TIP3    H212301   1.667   5.308   6.368
 4120TIP3   OH212302   4.530   3.806   2.585
 4120TIP3    H112303   4.477   3.774   2.512
 4120TIP3    H212304   4.545   3.899   2.565
 4121TIP3   OH212305   5.081   5.235   2.057
 4121TIP3    H112306   5.154   5.270   2.005
 4121TIP3    H212307   5.062   5.304   2.121
 4122TIP3   OH212308   2.683   4.604   2.850
 4122TIP3    H112309   2.678   4.554   2.769
 4122TIP3    H212310   2.608   4.664   2.845
 4123TIP3   OH212311   5.125   0.127   4.873
 4123TIP3    H112312   5.072   0.049   4.889
 4123TIP3    H212313   5.129   0.172   4.957
 4124TIP3   OH212314   3.555   0.477   2.530
 4124TIP3    H112315   3.530   0.568   2.511
 4124TIP3    H212316   3.500   0.425   2.472
 4125TIP3   OH212317   0.662   2.009   5.177
 4125TIP3    H112318   0.670   1.980   5.086
 4125TIP3    H212319   0.572   1.988   5.201
 4126TIP3   OH212320   1.379   6.706   0.793
 4126TIP3    H112321   1.377   6.739   0.883
 4126TIP3    H212322   1.344   6.778   0.741
 4127TIP3   OH212323   3.863   3.219   4.078
 4127TIP3    H112324   3.876   3.306   4.116
 4127TIP3    H212325   3.951   3.184   4.067
 4128TIP3   OH212326   6.669   2.317   4.217
 4128TIP3    H112327   6.616   2.239   4.231
 4128TIP3    H212328   6.747   2.302   4.270
 4129TIP3   OH212329   8.142   7.041   0.975
 4129TIP3    H112330   8.173   7.064   0.887
 4129TIP3    H212331   8.103   7.123   1.008
 4130TIP3   OH212332   4.727   6.501   6.018
 4130TIP3    H112333   4.772   6.423   5.986
 4130TIP3    H212334   4.673   6.469   6.090
 4131TIP3   OH212335   6.610   1.896   5.612
 4131TIP3    H112336   6.599   1.890   5.517
 4131TIP3    H212337   6.645   1.984   5.626
 4132TIP3   OH212338   0.358   7.341   2.274
 4132TIP3    H112339   0.310   7.334   2.356
 4132TIP3    H212340   0.437   7.288   2.288
 4133TIP3   OH212341   5.790   6.820   6.574
 4133TIP3    H112342   5.865   6.769   6.603
 4133TIP3    H212343   5.827   6.905   6.550
 4134TIP3   OH212344   6.353   7.039   3.778
 4134TIP3    H112345   6.352   7.135   3.777
 4134TIP3    H212346   6.284   7.014   3.717
 4135TIP3   OH212347   1.722   6.757   1.893
 4135TIP3    H112348   1.768   6.681   1.929
 4135TIP3    H212349   1.791   6.808   1.851
 4136TIP3   OH212350   4.831   7.757   5.158
 4136TIP3    H112351   4.838   7.837   5.105
 4136TIP3    H212352   4.771   7.781   5.230
 4137TIP3   OH212353   7.998   3.102   3.023
 4137TIP3    H112354   7.941   3.100   2.946
 4137TIP3    H212355   8.083   3.130   2.989
 4138TIP3   OH212356   2.709   1.908   3.219
 4138TIP3    H112357   2.742   1.850   3.288
 4138TIP3    H212358   2.624   1.871   3.195
 4139TIP3   OH212359   7.896   6.098   2.465
 4139TIP3    H112360   7.882   6.132   2.554
 4139TIP3    H212361   7.820   6.128   2.416
 4140TIP3   OH212362   4.547   1.272   5.608
 4140TIP3    H112363   4.471   1.323   5.633
 4140TIP3    H212364   4.531   1.246   5.517
 4141TIP3   OH212365   3.198   3.179   0.610
 4141TIP3    H112366   3.103   3.165   0.612
 4141TIP3    H212367   3.209   3.264   0.567
 4142TIP3   OH212368   7.803   5.210   2.068
 4142TIP3    H112369   7.765   5.251   2.146
 4142TIP3    H212370   7.731   5.205   2.005
 4143TIP3   OH212371   1.451   1.005   0.792
 4143TIP3    H112372   1.361   0.972   0.796
 4143TIP3    H212373   1.467   1.019   0.698
 4144TIP3   OH212374   0.668   1.033   3.526
 4144TIP3    H112375   0.625   0.948   3.528
 4144TIP3    H212376   0.686   1.053   3.618
 4145TIP3   OH212377   6.373   2.051   0.735
 4145TIP3    H112378   6.429   2.126   0.756
 4145TIP3    H212379   6.303   2.088   0.682
 4146TIP3   OH212380   2.442   7.618   6.433
 4146TIP3    H112381   2.377   7.610   6.364
 4146TIP3    H212382   2.398   7.588   6.512
 4147TIP3   OH212383   8.015   6.726   1.204
 4147TIP3    H112384   8.029   6.718   1.110
 4147TIP3    H212385   7.948   6.794   1.213
 4148TIP3   OH212386   1.054   2.140   0.832
 4148TIP3    H112387   0.966   2.104   0.846
 4148TIP3    H212388   1.107   2.064   0.807
 4149TIP3   OH212389   4.523   4.728   0.686
 4149TIP3    H112390   4.613   4.723   0.717
 4149TIP3    H212391   4.503   4.822   0.686
 4150TIP3   OH212392   1.339   4.315   6.155
 4150TIP3    H112393   1.404   4.255   6.192
 4150TIP3    H212394   1.289   4.345   6.231
 4151TIP3   OH212395   1.232   3.984   5.844
 4151TIP3    H112396   1.166   3.917   5.859
 4151TIP3    H212397   1.284   3.951   5.771
 4152TIP3   OH212398   2.346   1.709   2.387
 4152TIP3    H112399   2.383   1.632   2.431
 4152TIP3    H212400   2.417   1.740   2.330
 4153TIP3   OH212401   6.833   0.863   3.818
 4153TIP3    H112402   6.808   0.825   3.733
 4153TIP3    H212403   6.823   0.791   3.880
 4154TIP3   OH212404   5.003   6.769   4.610
 4154TIP3    H112405   4.908   6.773   4.602
 4154TIP3    H212406   5.034   6.744   4.523
 4155TIP3   OH212407   6.810   4.167   5.346
 4155TIP3    H112408   6.802   4.200   5.435
 4155TIP3    H212409   6.836   4.075   5.356
 4156TIP3   OH212410   3.998   0.791   2.406
 4156TIP3    H112411   4.011   0.868   2.461
 4156TIP3    H212412   3.921   0.811   2.354
 4157TIP3   OH212413   4.627   0.575   6.448
 4157TIP3    H112414   4.600   0.560   6.538
 4157TIP3    H212415   4.588   0.659   6.424
 4158TIP3   OH212416   4.219   3.246   0.176
 4158TIP3    H112417   4.291   3.258   0.114
 4158TIP3    H212418   4.188   3.335   0.194
 4159TIP3   OH212419   7.963   1.507   6.208
 4159TIP3    H112420   7.902   1.466   6.269
 4159TIP3    H212421   7.909   1.569   6.159
 4160TIP3   OH212422   4.234   7.648   2.263
 4160TIP3    H112423   4.311   7.607   2.225
 4160TIP3    H212424   4.258   7.740   2.273
 4161TIP3   OH212425   5.917   5.351   4.702
 4161TIP3    H112426   6.001   5.378   4.740
 4161TIP3    H212427   5.931   5.356   4.607
 4162TIP3   OH212428   5.118   0.710   4.008
 4162TIP3    H112429   5.119   0.697   4.103
 4162TIP3    H212430   5.172   0.638   3.974
 4163TIP3   OH212431   2.494   3.355   1.277
 4163TIP3    H112432   2.581   3.383   1.304
 4163TIP3    H212433   2.482   3.393   1.190
 4164TIP3   OH212434   0.907   5.989   3.728
 4164TIP3    H112435   0.876   5.901   3.750
 4164TIP3    H212436   0.981   6.004   3.787
 4165TIP3   OH212437   7.127   1.595   4.665
 4165TIP3    H112438   7.077   1.555   4.594
 4165TIP3    H212439   7.079   1.572   4.744
 4166TIP3   OH212440   6.068   1.310   6.183
 4166TIP3    H112441   6.015   1.357   6.247
 4166TIP3    H212442   6.013   1.237   6.155
 4167TIP3   OH212443   7.995   2.680   2.155
 4167TIP3    H112444   8.081   2.645   2.175
 4167TIP3    H212445   7.937   2.604   2.154
 4168TIP3   OH212446   7.552   1.777   6.006
 4168TIP3    H112447   7.608   1.853   6.020
 4168TIP3    H212448   7.464   1.807   6.032
 4169TIP3   OH212449   0.571   4.322   5.008
 4169TIP3    H112450   0.510   4.250   4.992
 4169TIP3    H212451   0.586   4.321   5.102
 4170TIP3   OH212452   5.937   4.696   3.327
 4170TIP3    H112453   5.925   4.756   3.253
 4170TIP3    H212454   5.885   4.619   3.304
 4171TIP3   OH212455   6.096   1.598   2.481
 4171TIP3    H112456   6.132   1.537   2.546
 4171TIP3    H212457   6.028   1.646   2.529
 4172TIP3   OH212458   7.673   2.708   4.373
 4172TIP3    H112459   7.635   2.636   4.322
 4172TIP3    H212460   7.655   2.685   4.464
 4173TIP3   OH212461   1.280   1.706   3.506
 4173TIP3    H112462   1.302   1.656   3.428
 4173TIP3    H212463   1.258   1.793   3.473
 4174TIP3   OH212464   2.942   4.056   2.574
 4174TIP3    H112465   2.947   4.098   2.488
 4174TIP3    H212466   3.025   4.008   2.582
 4175TIP3   OH212467   0.939   7.535   0.469
 4175TIP3    H112468   1.000   7.609   0.475
 4175TIP3    H212469   0.969   7.486   0.392
 4176TIP3   OH212470   2.977   7.225   0.533
 4176TIP3    H112471   2.964   7.295   0.469
 4176TIP3    H212472   2.925   7.251   0.609
 4177TIP3   OH212473   0.849   5.164   3.837
 4177TIP3    H112474   0.869   5.088   3.893
 4177TIP3    H212475   0.782   5.212   3.886
 4178TIP3   OH212476   3.919   4.617   1.434
 4178TIP3    H112477   3.850   4.566   1.392
 4178TIP3    H212478   3.998   4.566   1.419
 4179TIP3   OH212479   0.493   2.983   2.984
 4179TIP3    H112480   0.480   2.889   2.976
 4179TIP3    H212481   0.445   3.021   2.911
 4180TIP3   OH212482   6.810   3.756   3.612
 4180TIP3    H112483   6.759   3.685   3.571
 4180TIP3    H212484   6.898   3.720   3.621
 4181TIP3   OH212485   7.101   7.628   0.959
 4181TIP3    H112486   7.196   7.637   0.956
 4181TIP3    H212487   7.072   7.690   1.025
 4182TIP3   OH212488   4.299   6.659   2.860
 4182TIP3    H112489   4.306   6.745   2.901
 4182TIP3    H212490   4.322   6.597   2.929
 4183TIP3   OH212491   7.367   6.211   4.303
 4183TIP3    H112492   7.426   6.238   4.373
 4183TIP3    H212493   7.295   6.275   4.306
 4184TIP3   OH212494   1.717   6.031   6.029
 4184TIP3    H112495   1.803   6.023   6.069
 4184TIP3    H212496   1.726   6.103   5.967
 4185TIP3   OH212497   7.962   4.530   1.717
 4185TIP3    H112498   7.932   4.473   1.645
 4185TIP3    H212499   7.925   4.616   1.696
 4186TIP3   OH212500   2.379   7.348   5.509
 4186TIP3    H112501   2.400   7.433   5.469
 4186TIP3    H212502   2.285   7.354   5.527
 4187TIP3   OH212503   3.643   6.022   4.450
 4187TIP3    H112504   3.670   6.075   4.524
 4187TIP3    H212505   3.689   6.059   4.375
 4188TIP3   OH212506   5.289   5.921   3.216
 4188TIP3    H112507   5.342   5.979   3.271
 4188TIP3    H212508   5.353   5.873   3.163
 4189TIP3   OH212509   2.788   1.239   3.840
 4189TIP3    H112510   2.793   1.203   3.752
 4189TIP3    H212511   2.765   1.164   3.895
 4190TIP3   OH212512   2.827   7.050   2.419
 4190TIP3    H112513   2.920   7.043   2.437
 4190TIP3    H212514   2.793   6.961   2.426
 4191TIP3   OH212515   7.838   4.127   1.688
 4191TIP3    H112516   7.770   4.106   1.624
 4191TIP3    H212517   7.826   4.063   1.757
 4192TIP3   OH212518   3.852   3.672   0.876
 4192TIP3    H112519   3.880   3.586   0.847
 4192TIP3    H212520   3.874   3.675   0.969
 4193TIP3   OH212521   4.209   4.037   0.285
 4193TIP3    H112522   4.176   3.962   0.333
 4193TIP3    H212523   4.135   4.099   0.283
 4194TIP3   OH212524   7.354   7.307   6.603
 4194TIP3    H112525   7.422   7.363   6.566
 4194TIP3    H212526   7.333   7.348   6.688
 4195TIP3   OH212527   4.297   0.618   1.810
 4195TIP3    H112528   4.291   0.567   1.891
 4195TIP3    H212529   4.351   0.565   1.752
 4196TIP3   OH212530   7.532   1.332   0.058
 4196TIP3    H112531   7.449   1.294   0.085
 4196TIP3    H212532   7.563   1.380   0.135
 4197TIP3   OH212533   2.365   7.435   6.613
 4197TIP3    H112534   2.426   7.384   6.665
 4197TIP3    H212535   2.332   7.374   6.548
 4198TIP3   OH212536   1.497   5.598   5.254
 4198TIP3    H112537   1.514   5.633   5.166
 4198TIP3    H212538   1.441   5.522   5.239
 4199TIP3   OH212539   1.847   0.630   3.845
 4199TIP3    H112540   1.924   0.660   3.796
 4199TIP3    H212541   1.774   0.638   3.783
 4200TIP3   OH212542   0.682   3.202   5.940
 4200TIP3    H112543   0.615   3.163   5.884
 4200TIP3    H212544   0.637   3.225   6.020
 4201TIP3   OH212545   0.116   5.817   0.080
 4201TIP3    H112546   0.107   5.791   0.172
 4201TIP3    H212547   0.028   5.847   0.055
 4202TIP3   OH212548   1.282   0.573   1.514
 4202TIP3    H112549   1.214   0.634   1.485
 4202TIP3    H212550   1.359   0.595   1.462
 4203TIP3   OH212551   8.130   0.165   1.153
 4203TIP3    H112552   8.040   0.170   1.121
 4203TIP3    H212553   8.180   0.133   1.078
 4204TIP3   OH212554   0.045   2.129   1.788
 4204TIP3    H112555   0.106   2.148   1.717
 4204TIP3    H212556   0.083   2.171   1.865
 4205TIP3   OH212557   4.922   5.078   0.412
 4205TIP3    H112558   4.898   5.113   0.326
 4205TIP3    H212559   4.960   5.153   0.459
 4206TIP3   OH212560   8.020   3.908   4.953
 4206TIP3    H112561   8.061   3.988   4.920
 4206TIP3    H212562   8.048   3.840   4.891
 4207TIP3   OH212563   1.755   4.686   1.819
 4207TIP3    H112564   1.675   4.646   1.784
 4207TIP3    H212565   1.813   4.692   1.744
 4208TIP3   OH212566   2.108   4.702   0.210
 4208TIP3    H112567   2.132   4.740   0.126
 4208TIP3    H212568   2.080   4.776   0.264
 4209TIP3   OH212569   6.748   1.285   6.126
 4209TIP3    H112570   6.663   1.312   6.091
 4209TIP3    H212571   6.780   1.220   6.064
 4210TIP3   OH212572   5.343   5.373   2.316
 4210TIP3    H112573   5.413   5.435   2.337
 4210TIP3    H212574   5.377   5.324   2.241
 4211TIP3   OH212575   2.874   7.665   0.150
 4211TIP3    H112576   2.856   7.628   0.064
 4211TIP3    H212577   2.889   7.589   0.206
 4212TIP3   OH212578   0.241   7.192   4.651
 4212TIP3    H112579   0.315   7.137   4.624
 4212TIP3    H212580   0.185   7.196   4.574
 4213TIP3   OH212581   0.191   0.749   0.390
 4213TIP3    H112582   0.231   0.663   0.405
 4213TIP3    H212583   0.235   0.783   0.312
 4214TIP3   OH212584   0.597   1.386   6.269
 4214TIP3    H112585   0.600   1.392   6.364
 4214TIP3    H212586   0.592   1.292   6.251
 4215TIP3   OH212587   7.000   1.687   0.561
 4215TIP3    H112588   6.937   1.670   0.491
 4215TIP3    H212589   7.085   1.662   0.522
 4216TIP3   OH212590   3.082   5.013   5.735
 4216TIP3    H112591   2.998   5.046   5.701
 4216TIP3    H212592   3.057   4.948   5.801
 4217TIP3   OH212593   7.265   2.983   5.213
 4217TIP3    H112594   7.347   3.006   5.169
 4217TIP3    H212595   7.288   2.905   5.265
 4218TIP3   OH212596   5.931   5.185   3.010
 4218TIP3    H112597   5.950   5.273   3.042
 4218TIP3    H212598   6.016   5.141   3.011
 4219TIP3   OH212599   5.976   1.234   1.649
 4219TIP3    H112600   5.992   1.311   1.594
 4219TIP3    H212601   6.053   1.179   1.636
 4220TIP3   OH212602   5.423   6.043   0.153
 4220TIP3    H112603   5.412   6.092   0.071
 4220TIP3    H212604   5.512   6.061   0.181
 4221TIP3   OH212605   3.325   6.348   4.820
 4221TIP3    H112606   3.344   6.295   4.743
 4221TIP3    H212607   3.232   6.370   4.813
 4222TIP3   OH212608   4.465   0.491   5.822
 4222TIP3    H112609   4.388   0.439   5.844
 4222TIP3    H212610   4.520   0.488   5.901
 4223TIP3   OH212611   1.370   1.198   3.273
 4223TIP3    H112612   1.320   1.143   3.334
 4223TIP3    H212613   1.338   1.287   3.289
 4224TIP3   OH212614   4.118   4.398   6.369
 4224TIP3    H112615   4.045   4.453   6.343
 4224TIP3    H212616   4.160   4.373   6.287
 4225TIP3   OH212617   7.147   4.022   0.906
 4225TIP3    H112618   7.170   4.070   0.826
 4225TIP3    H212619   7.223   3.969   0.926
 4226TIP3   OH212620   1.670   2.673   6.759
 4226TIP3    H112621   1.588   2.654   6.714
 4226TIP3    H212622   1.732   2.611   6.722
 4227TIP3   OH212623   3.394   3.857   4.592
 4227TIP3    H112624   3.325   3.863   4.658
 4227TIP3    H212625   3.366   3.915   4.522
 4228TIP3   OH212626   7.793   1.180   2.315
 4228TIP3    H112627   7.733   1.193   2.388
 4228TIP3    H212628   7.825   1.268   2.295
 4229TIP3   OH212629   3.829   0.565   2.017
 4229TIP3    H112630   3.762   0.554   1.950
 4229TIP3    H212631   3.852   0.658   2.013
 4230TIP3   OH212632   6.038   2.524   5.357
 4230TIP3    H112633   6.082   2.459   5.412
 4230TIP3    H212634   6.084   2.520   5.273
 4231TIP3   OH212635   7.508   1.933   5.298
 4231TIP3    H112636   7.425   1.885   5.298
 4231TIP3    H212637   7.556   1.896   5.372
 4232TIP3   OH212638   0.015   0.764   2.039
 4232TIP3    H112639  -0.025   0.688   2.081
 4232TIP3    H212640   0.015   0.832   2.107
 4233TIP3   OH212641   7.385   5.114   2.131
 4233TIP3    H112642   7.437   5.149   2.058
 4233TIP3    H212643   7.296   5.109   2.095
 4234TIP3   OH212644   3.598   3.689   0.363
 4234TIP3    H112645   3.609   3.614   0.421
 4234TIP3    H212646   3.679   3.739   0.373
 4235TIP3   OH212647   5.051   2.737   3.860
 4235TIP3    H112648   4.968   2.734   3.813
 4235TIP3    H212649   5.084   2.647   3.857
 4236TIP3   OH212650   3.852   4.821   6.273
 4236TIP3    H112651   3.936   4.866   6.264
 4236TIP3    H212652   3.833   4.789   6.185
 4237TIP3   OH212653   6.432   2.579   3.761
 4237TIP3    H112654   6.458   2.549   3.848
 4237TIP3    H212655   6.357   2.524   3.738
 4238TIP3   OH212656   5.187   1.396   1.814
 4238TIP3    H112657   5.112   1.341   1.839
 4238TIP3    H212658   5.235   1.343   1.751
 4239TIP3   OH212659   2.418   7.777   6.079
 4239TIP3    H112660   2.393   7.867   6.100
 4239TIP3    H212661   2.487   7.786   6.013
 4240TIP3   OH212662   1.284   5.907   5.800
 4240TIP3    H112663   1.223   5.904   5.726
 4240TIP3    H212664   1.370   5.918   5.760
 4241TIP3   OH212665   5.729   5.014   6.595
 4241TIP3    H112666   5.666   4.945   6.619
 4241TIP3    H212667   5.760   5.048   6.678
 4242TIP3   OH212668   6.872   2.452   2.393
 4242TIP3    H112669   6.860   2.477   2.485
 4242TIP3    H212670   6.826   2.369   2.385
 4243TIP3   OH212671   1.537   3.638   0.533
 4243TIP3    H112672   1.460   3.674   0.577
 4243TIP3    H212673   1.503   3.601   0.451
 4244TIP3   OH212674   0.612   4.497   0.484
 4244TIP3    H112675   0.703   4.527   0.484
 4244TIP3    H212676   0.610   4.424   0.546
 4245TIP3   OH212677   0.945   0.398   5.205
 4245TIP3    H112678   0.932   0.332   5.273
 4245TIP3    H212679   1.021   0.448   5.235
 4246TIP3   OH212680   3.904   6.945   1.181
 4246TIP3    H112681   3.815   6.913   1.188
 4246TIP3    H212682   3.926   6.977   1.268
 4247TIP3   OH212683   8.116   1.216   2.584
 4247TIP3    H112684   8.041   1.273   2.573
 4247TIP3    H212685   8.131   1.214   2.679
 4248TIP3   OH212686   5.921   2.565   1.596
 4248TIP3    H112687   5.863   2.590   1.524
 4248TIP3    H212688   5.983   2.503   1.557
 4249TIP3   OH212689   7.496   5.401   4.864
 4249TIP3    H112690   7.549   5.325   4.842
 4249TIP3    H212691   7.530   5.471   4.808
 4250TIP3   OH212692   0.512   4.355   1.349
 4250TIP3    H112693   0.604   4.383   1.350
 4250TIP3    H212694   0.511   4.272   1.397
 4251TIP3   OH212695   2.398   3.762   6.495
 4251TIP3    H112696   2.362   3.678   6.466
 4251TIP3    H212697   2.488   3.741   6.523
 4252TIP3   OH212698   8.237   5.435   5.023
 4252TIP3    H112699   8.237   5.468   5.113
 4252TIP3    H212700   8.225   5.341   5.032
 4253TIP3   OH212701   4.355   3.661   2.412
 4253TIP3    H112702   4.374   3.568   2.400
 4253TIP3    H212703   4.337   3.694   2.324
 4254TIP3   OH212704   0.433   0.450   2.852
 4254TIP3    H112705   0.486   0.412   2.783
 4254TIP3    H212706   0.357   0.392   2.859
 4255TIP3   OH212707   6.935   6.317   6.729
 4255TIP3    H112708   7.020   6.326   6.687
 4255TIP3    H212709   6.943   6.365   6.811
 4256TIP3   OH212710   0.946   1.902   1.351
 4256TIP3    H112711   0.898   1.865   1.426
 4256TIP3    H212712   1.035   1.915   1.384
 4257TIP3   OH212713   2.894   7.512   3.572
 4257TIP3    H112714   2.885   7.578   3.503
 4257TIP3    H212715   2.860   7.431   3.533
 4258TIP3   OH212716   7.235   1.694   0.317
 4258TIP3    H112717   7.172   1.766   0.328
 4258TIP3    H212718   7.319   1.732   0.343
 4259TIP3   OH212719   5.075   5.289   5.135
 4259TIP3    H112720   4.984   5.293   5.166
 4259TIP3    H212721   5.127   5.306   5.213
 4260TIP3   OH212722   1.390   0.461   1.932
 4260TIP3    H112723   1.458   0.494   1.874
 4260TIP3    H212724   1.434   0.395   1.986
 4261TIP3   OH212725   0.978   5.683   1.120
 4261TIP3    H112726   0.946   5.594   1.130
 4261TIP3    H212727   0.962   5.725   1.205
 4262TIP3   OH212728   8.186   7.531   0.746
 4262TIP3    H112729   8.118   7.552   0.809
 4262TIP3    H212730   8.201   7.613   0.699
 4263TIP3   OH212731   5.798   2.425   6.214
 4263TIP3    H112732   5.791   2.471   6.130
 4263TIP3    H212733   5.780   2.334   6.194
 4264TIP3   OH212734   4.729   4.181   0.091
 4264TIP3    H112735   4.685   4.098   0.112
 4264TIP3    H212736   4.793   4.157   0.025
 4265TIP3   OH212737   1.476   3.710   2.462
 4265TIP3    H112738   1.384   3.734   2.448
 4265TIP3    H212739   1.491   3.638   2.400
 4266TIP3   OH212740   2.028   4.231   4.109
 4266TIP3    H112741   2.100   4.279   4.067
 4266TIP3    H212742   2.021   4.270   4.196
 4267TIP3   OH212743   7.815   7.559   0.508
 4267TIP3    H112744   7.814   7.463   0.509
 4267TIP3    H212745   7.850   7.582   0.423
 4268TIP3   OH212746   4.809   2.070   4.169
 4268TIP3    H112747   4.785   1.998   4.227
 4268TIP3    H212748   4.798   2.035   4.081
 4269TIP3   OH212749   0.925   1.195   2.099
 4269TIP3    H112750   0.903   1.208   2.192
 4269TIP3    H212751   0.979   1.271   2.076
 4270TIP3   OH212752   2.635   5.426   2.817
 4270TIP3    H112753   2.664   5.516   2.801
 4270TIP3    H212754   2.704   5.388   2.872
 4271TIP3   OH212755   6.599   2.894   0.673
 4271TIP3    H112756   6.684   2.936   0.681
 4271TIP3    H212757   6.577   2.900   0.580
 4272TIP3   OH212758   5.142   5.375   1.451
 4272TIP3    H112759   5.159   5.374   1.357
 4272TIP3    H212760   5.129   5.283   1.474
 4273TIP3   OH212761   6.865   0.973   3.290
 4273TIP3    H112762   6.780   0.929   3.290
 4273TIP3    H212763   6.897   0.962   3.200
 4274TIP3   OH212764   4.893   4.900   4.893
 4274TIP3    H112765   4.933   4.980   4.858
 4274TIP3    H212766   4.932   4.890   4.980
 4275TIP3   OH212767   4.678   3.262   1.714
 4275TIP3    H112768   4.664   3.203   1.789
 4275TIP3    H212769   4.626   3.224   1.644
 4276TIP3   OH212770   1.825   3.204   5.700
 4276TIP3    H112771   1.842   3.143   5.628
 4276TIP3    H212772   1.856   3.288   5.666
 4277TIP3   OH212773   0.669   4.941   6.726
 4277TIP3    H112774   0.698   4.937   6.635
 4277TIP3    H212775   0.733   4.888   6.774
 4278TIP3   OH212776   1.570   7.055   1.154
 4278TIP3    H112777   1.589   6.967   1.121
 4278TIP3    H212778   1.520   7.042   1.234
 4279TIP3   OH212779   3.784   5.536   5.886
 4279TIP3    H112780   3.779   5.597   5.960
 4279TIP3    H212781   3.718   5.569   5.824
 4280TIP3   OH212782   7.019   3.942   4.806
 4280TIP3    H112783   6.926   3.956   4.824
 4280TIP3    H212784   7.064   4.009   4.858
 4281TIP3   OH212785   7.256   4.177   2.117
 4281TIP3    H112786   7.203   4.135   2.049
 4281TIP3    H212787   7.277   4.263   2.081
 4282TIP3   OH212788   5.349   0.432   0.390
 4282TIP3    H112789   5.379   0.342   0.381
 4282TIP3    H212790   5.270   0.437   0.338
 4283TIP3   OH212791   0.166   6.787   0.400
 4283TIP3    H112792   0.165   6.847   0.474
 4283TIP3    H212793   0.079   6.748   0.399
 4284TIP3   OH212794   1.927   6.529   4.688
 4284TIP3    H112795   1.965   6.593   4.629
 4284TIP3    H212796   1.893   6.581   4.761
 4285TIP3   OH212797   4.268   7.239   5.519
 4285TIP3    H112798   4.335   7.193   5.469
 4285TIP3    H212799   4.249   7.181   5.593
 4286TIP3   OH212800   6.078   3.795   1.685
 4286TIP3    H112801   6.017   3.823   1.617
 4286TIP3    H212802   6.023   3.748   1.749
 4287TIP3   OH212803   5.130   0.743   4.557
 4287TIP3    H112804   5.223   0.756   4.538
 4287TIP3    H212805   5.086   0.754   4.473
 4288TIP3   OH212806   3.045   1.520   5.886
 4288TIP3    H112807   3.051   1.607   5.846
 4288TIP3    H212808   2.957   1.515   5.922
 4289TIP3   OH212809   1.877   2.189   3.884
 4289TIP3    H112810   1.798   2.162   3.837
 4289TIP3    H212811   1.896   2.115   3.943
 4290TIP3   OH212812   5.380   0.387   2.219
 4290TIP3    H112813   5.451   0.443   2.186
 4290TIP3    H212814   5.302   0.442   2.216
 4291TIP3   OH212815   1.297   1.214   0.350
 4291TIP3    H112816   1.389   1.241   0.353
 4291TIP3    H212817   1.278   1.184   0.439
 4292TIP3   OH212818   1.487   2.878   5.607
 4292TIP3    H112819   1.449   2.903   5.523
 4292TIP3    H212820   1.433   2.923   5.672
 4293TIP3   OH212821   7.560   6.816   0.782
 4293TIP3    H112822   7.644   6.851   0.810
 4293TIP3    H212823   7.497   6.886   0.802
 4294TIP3   OH212824   2.682   0.231   1.263
 4294TIP3    H112825   2.590   0.257   1.264
 4294TIP3    H212826   2.718   0.273   1.185
 4295TIP3   OH212827   2.321   5.755   2.496
 4295TIP3    H112828   2.268   5.780   2.420
 4295TIP3    H212829   2.404   5.801   2.483
 4296TIP3   OH212830   6.508   7.160   1.061
 4296TIP3    H112831   6.557   7.150   0.980
 4296TIP3    H212832   6.575   7.169   1.129
 4297TIP3   OH212833   1.417   2.434   2.017
 4297TIP3    H112834   1.479   2.448   2.088
 4297TIP3    H212835   1.344   2.387   2.057
 4298TIP3   OH212836   4.688   7.454   2.514
 4298TIP3    H112837   4.713   7.382   2.572
 4298TIP3    H212838   4.752   7.452   2.443
 4299TIP3   OH212839   6.578   0.745   2.059
 4299TIP3    H112840   6.491   0.776   2.036
 4299TIP3    H212841   6.595   0.783   2.145
 4300TIP3   OH212842   7.010   7.549   0.214
 4300TIP3    H112843   7.003   7.603   0.292
 4300TIP3    H212844   6.920   7.532   0.188
 4301TIP3   OH212845   1.252   2.924   5.400
 4301TIP3    H112846   1.227   2.841   5.359
 4301TIP3    H212847   1.231   2.913   5.492
 4302TIP3   OH212848   5.821   3.025   6.180
 4302TIP3    H112849   5.793   3.069   6.260
 4302TIP3    H212850   5.761   3.057   6.113
 4303TIP3   OH212851   3.380   2.769   6.643
 4303TIP3    H112852   3.314   2.836   6.662
 4303TIP3    H212853   3.464   2.812   6.660
 4304TIP3   OH212854   5.293   5.491   4.374
 4304TIP3    H112855   5.364   5.528   4.426
 4304TIP3    H212856   5.333   5.418   4.327
 4305TIP3   OH212857   4.920   0.722   6.709
 4305TIP3    H112858   4.940   0.763   6.625
 4305TIP3    H212859   4.972   0.772   6.772
 4306TIP3   OH212860   2.979   3.957   3.388
 4306TIP3    H112861   2.994   3.891   3.320
 4306TIP3    H212862   3.044   3.938   3.455
 4307TIP3   OH212863   7.898   1.181   0.828
 4307TIP3    H112864   7.815   1.135   0.816
 4307TIP3    H212865   7.964   1.112   0.833
 4308TIP3   OH212866   2.385   1.034   6.249
 4308TIP3    H112867   2.421   1.056   6.163
 4308TIP3    H212868   2.459   1.000   6.299
 4309TIP3   OH212869   1.858   7.613   4.750
 4309TIP3    H112870   1.873   7.705   4.770
 4309TIP3    H212871   1.783   7.613   4.690
 4310TIP3   OH212872   3.135   2.347   4.530
 4310TIP3    H112873   3.176   2.282   4.588
 4310TIP3    H212874   3.061   2.381   4.580
 4311TIP3   OH212875   4.447   6.860   1.400
 4311TIP3    H112876   4.533   6.897   1.423
 4311TIP3    H212877   4.384   6.913   1.449
 4312TIP3   OH212878   2.516   1.785   2.821
 4312TIP3    H112879   2.561   1.730   2.886
 4312TIP3    H212880   2.424   1.780   2.847
 4313TIP3   OH212881   2.514   6.518   2.427
 4313TIP3    H112882   2.431   6.483   2.458
 4313TIP3    H212883   2.496   6.610   2.406
 4314TIP3   OH212884   2.111   6.552   4.118
 4314TIP3    H112885   2.028   6.545   4.073
 4314TIP3    H212886   2.142   6.462   4.127
 4315TIP3   OH212887   5.709   5.622   3.062
 4315TIP3    H112888   5.708   5.553   2.996
 4315TIP3    H212889   5.771   5.592   3.128
 4316TIP3   OH212890   4.462   0.849   3.684
 4316TIP3    H112891   4.480   0.797   3.605
 4316TIP3    H212892   4.425   0.786   3.746
 4317TIP3   OH212893   2.481   3.826   0.183
 4317TIP3    H112894   2.433   3.878   0.248
 4317TIP3    H212895   2.413   3.773   0.140
 4318TIP3   OH212896   0.773   2.643   2.931
 4318TIP3    H112897   0.771   2.651   3.026
 4318TIP3    H212898   0.799   2.730   2.900
 4319TIP3   OH212899   3.084   4.755   5.980
 4319TIP3    H112900   2.999   4.786   6.012
 4319TIP3    H212901   3.121   4.707   6.054
 4320TIP3   OH212902   5.785   6.165   5.769
 4320TIP3    H112903   5.714   6.196   5.826
 4320TIP3    H212904   5.856   6.143   5.829
 4321TIP3   OH212905   8.106   4.956   4.996
 4321TIP3    H112906   8.092   4.874   5.043
 4321TIP3    H212907   8.146   4.929   4.913
 4322TIP3   OH212908   0.881   2.567   0.670
 4322TIP3    H112909   0.869   2.588   0.578
 4322TIP3    H212910   0.828   2.631   0.717
 4323TIP3   OH212911   1.578   5.647   6.572
 4323TIP3    H112912   1.610   5.672   6.485
 4323TIP3    H212913   1.656   5.615   6.618
 4324TIP3   OH212914   4.251   4.580   4.545
 4324TIP3    H112915   4.343   4.558   4.532
 4324TIP3    H212916   4.248   4.616   4.634
 4325TIP3   OH212917   2.177   5.299   2.382
 4325TIP3    H112918   2.152   5.354   2.457
 4325TIP3    H212919   2.212   5.361   2.318
 4326TIP3   OH212920   4.232   1.344   3.194
 4326TIP3    H112921   4.191   1.273   3.245
 4326TIP3    H212922   4.169   1.363   3.125
 4327TIP3   OH212923   7.124   6.588   6.568
 4327TIP3    H112924   7.115   6.507   6.518
 4327TIP3    H212925   7.036   6.607   6.601
 4328TIP3   OH212926   7.334   2.513   4.678
 4328TIP3    H112927   7.417   2.555   4.657
 4328TIP3    H212928   7.271   2.585   4.683
 4329TIP3   OH212929   3.988   3.972   1.903
 4329TIP3    H112930   4.001   3.908   1.974
 4329TIP3    H212931   4.049   3.944   1.835
 4330TIP3   OH212932   0.822   6.898   6.582
 4330TIP3    H112933   0.858   6.811   6.597
 4330TIP3    H212934   0.800   6.899   6.489
 4331TIP3   OH212935   5.943   5.159   5.891
 4331TIP3    H112936   5.967   5.250   5.873
 4331TIP3    H212937   5.904   5.162   5.979
 4332TIP3   OH212938   1.453   3.202   1.288
 4332TIP3    H112939   1.542   3.177   1.311
 4332TIP3    H212940   1.414   3.231   1.370
 4333TIP3   OH212941   7.183   6.027   3.321
 4333TIP3    H112942   7.267   5.985   3.339
 4333TIP3    H212943   7.140   5.969   3.258
 4334TIP3   OH212944   3.416   6.193   2.682
 4334TIP3    H112945   3.488   6.243   2.721
 4334TIP3    H212946   3.405   6.119   2.742
 4335TIP3   OH212947   4.200   1.235   4.279
 4335TIP3    H112948   4.115   1.195   4.260
 4335TIP3    H212949   4.196   1.259   4.371
 4336TIP3   OH212950   3.502   6.196   5.057
 4336TIP3    H112951   3.490   6.248   5.137
 4336TIP3    H212952   3.471   6.253   4.987
 4337TIP3   OH212953   5.192   1.184   2.314
 4337TIP3    H112954   5.220   1.234   2.237
 4337TIP3    H212955   5.260   1.117   2.324
 4338TIP3   OH212956   8.105   5.885   4.486
 4338TIP3    H112957   8.176   5.888   4.551
 4338TIP3    H212958   8.029   5.854   4.535
 4339TIP3   OH212959   3.937   0.437   2.511
 4339TIP3    H112960   3.881   0.440   2.433
 4339TIP3    H212961   3.902   0.505   2.568
 4340TIP3   OH212962   2.336   0.865   1.550
 4340TIP3    H112963   2.390   0.794   1.586
 4340TIP3    H212964   2.255   0.822   1.523
 4341TIP3   OH212965   4.131   4.694   2.860
 4341TIP3    H112966   4.151   4.649   2.942
 4341TIP3    H212967   4.127   4.787   2.884
 4342TIP3   OH212968   1.762   6.043   2.707
 4342TIP3    H112969   1.729   5.956   2.686
 4342TIP3    H212970   1.685   6.099   2.708
 4343TIP3   OH212971   3.266   1.860   3.001
 4343TIP3    H112972   3.299   1.828   3.085
 4343TIP3    H212973   3.275   1.955   3.007
 4344TIP3   OH212974   2.644   3.048   4.455
 4344TIP3    H112975   2.642   3.105   4.532
 4344TIP3    H212976   2.609   2.964   4.485
 4345TIP3   OH212977   3.714   4.340   5.231
 4345TIP3    H112978   3.674   4.426   5.240
 4345TIP3    H212979   3.798   4.356   5.189
 4346TIP3   OH212980  -0.006   5.743   6.188
 4346TIP3    H112981  -0.091   5.787   6.189
 4346TIP3    H212982   0.034   5.770   6.106
 4347TIP3   OH212983   8.146   7.231   2.085
 4347TIP3    H112984   8.241   7.240   2.079
 4347TIP3    H212985   8.118   7.307   2.137
 4348TIP3   OH212986   5.284   3.594   5.168
 4348TIP3    H112987   5.375   3.619   5.190
 4348TIP3    H212988   5.237   3.677   5.166
 4349TIP3   OH212989   4.591   6.069   5.293
 4349TIP3    H112990   4.558   5.993   5.341
 4349TIP3    H212991   4.666   6.035   5.244
 4350TIP3   OH212992   6.534   0.809   0.835
 4350TIP3    H112993   6.491   0.745   0.891
 4350TIP3    H212994   6.462   0.853   0.790
 4351TIP3   OH212995   0.951   6.673   6.194
 4351TIP3    H112996   0.964   6.643   6.103
 4351TIP3    H212997   0.858   6.659   6.210
 4352TIP3   OH212998   6.141   1.639   0.669
 4352TIP3    H112999   6.140   1.627   0.574
 4352TIP3    H213000   6.070   1.584   0.701
 4353TIP3   OH213001   4.824   1.259   6.312
 4353TIP3    H113002   4.823   1.176   6.360
 4353TIP3    H213003   4.915   1.269   6.284
 4354TIP3   OH213004   0.949   7.574   3.022
 4354TIP3    H113005   0.922   7.649   3.074
 4354TIP3    H213006   0.979   7.611   2.939
 4355TIP3   OH213007   3.422   5.126   5.053
 4355TIP3    H113008   3.429   5.033   5.071
 4355TIP3    H213009   3.335   5.150   5.085
 4356TIP3   OH213010   5.388   1.930   3.914
 4356TIP3    H113011   5.324   1.999   3.897
 4356TIP3    H213012   5.456   1.945   3.848
 4357TIP3   OH213013   2.142   2.987   2.031
 4357TIP3    H113014   2.158   3.062   1.974
 4357TIP3    H213015   2.187   3.010   2.113
 4358TIP3   OH213016   0.518   7.154   0.328
 4358TIP3    H113017   0.467   7.132   0.406
 4358TIP3    H213018   0.567   7.074   0.308
 4359TIP3   OH213019   4.455   6.128   1.556
 4359TIP3    H113020   4.496   6.200   1.603
 4359TIP3    H213021   4.513   6.113   1.481
 4360TIP3   OH213022   3.652   3.536   2.477
 4360TIP3    H113023   3.592   3.493   2.537
 4360TIP3    H213024   3.687   3.610   2.527
 4361TIP3   OH213025   1.702   6.195   2.106
 4361TIP3    H113026   1.654   6.195   2.024
 4361TIP3    H213027   1.663   6.123   2.157
 4362TIP3   OH213028   4.365   6.429   6.163
 4362TIP3    H113029   4.271   6.436   6.179
 4362TIP3    H213030   4.383   6.493   6.094
 4363TIP3   OH213031   1.768   7.648   5.758
 4363TIP3    H113032   1.794   7.595   5.683
 4363TIP3    H213033   1.749   7.734   5.721
 4364TIP3   OH213034   1.069   1.613   4.123
 4364TIP3    H113035   1.153   1.607   4.078
 4364TIP3    H213036   1.070   1.540   4.185
 4365TIP3   OH213037   0.655   0.578   5.704
 4365TIP3    H113038   0.560   0.566   5.709
 4365TIP3    H213039   0.665   0.670   5.680
 4366TIP3   OH213040   6.624   4.467   0.501
 4366TIP3    H113041   6.530   4.484   0.507
 4366TIP3    H213042   6.634   4.419   0.419
 4367TIP3   OH213043   5.819   3.486   6.765
 4367TIP3    H113044   5.869   3.491   6.846
 4367TIP3    H213045   5.781   3.574   6.755
 4368TIP3   OH213046   7.316   2.713   4.955
 4368TIP3    H113047   7.282   2.713   5.044
 4368TIP3    H213048   7.396   2.661   4.959
 4369TIP3   OH213049   6.019   1.691   1.131
 4369TIP3    H113050   6.023   1.756   1.061
 4369TIP3    H213051   5.969   1.734   1.200
 4370TIP3   OH213052   5.766   2.281   5.495
 4370TIP3    H113053   5.754   2.246   5.407
 4370TIP3    H213054   5.836   2.228   5.533
 4371TIP3   OH213055   5.423   3.566   3.481
 4371TIP3    H113056   5.418   3.540   3.389
 4371TIP3    H213057   5.506   3.614   3.488
 4372TIP3   OH213058   4.548   3.122   5.110
 4372TIP3    H113059   4.536   3.192   5.173
 4372TIP3    H213060   4.563   3.044   5.164
 4373TIP3   OH213061   0.876   4.527   3.496
 4373TIP3    H113062   0.909   4.588   3.430
 4373TIP3    H213063   0.781   4.531   3.488
 4374TIP3   OH213064   8.230   1.836   2.917
 4374TIP3    H113065   8.275   1.889   2.983
 4374TIP3    H213066   8.160   1.792   2.965
 4375TIP3   OH213067   5.089   1.356   5.898
 4375TIP3    H113068   5.126   1.399   5.821
 4375TIP3    H213069   5.034   1.286   5.863
 4376TIP3   OH213070   0.128   6.617   5.249
 4376TIP3    H113071   0.154   6.675   5.177
 4376TIP3    H213072   0.183   6.539   5.237
 4377TIP3   OH213073   1.793   1.369   2.465
 4377TIP3    H113074   1.699   1.379   2.480
 4377TIP3    H213075   1.811   1.277   2.485
 4378TIP3   OH213076   4.805   0.293   2.152
 4378TIP3    H113077   4.763   0.274   2.236
 4378TIP3    H213078   4.810   0.208   2.108
 4379TIP3   OH213079   4.804   6.115   2.082
 4379TIP3    H113080   4.873   6.179   2.065
 4379TIP3    H213081   4.804   6.103   2.177
 4380TIP3   OH213082   2.609   2.517   5.867
 4380TIP3    H113083   2.517   2.525   5.840
 4380TIP3    H213084   2.659   2.550   5.792
 4381TIP3   OH213085   3.870   0.812   1.606
 4381TIP3    H113086   3.855   0.814   1.511
 4381TIP3    H213087   3.922   0.733   1.620
 4382TIP3   OH213088   5.215   4.292   2.834
 4382TIP3    H113089   5.176   4.376   2.856
 4382TIP3    H213090   5.305   4.298   2.868
 4383TIP3   OH213091   8.011   7.534   1.427
 4383TIP3    H113092   8.012   7.587   1.507
 4383TIP3    H213093   8.024   7.444   1.458
 4384TIP3   OH213094   0.176   1.868   5.316
 4384TIP3    H113095   0.117   1.793   5.329
 4384TIP3    H213096   0.117   1.943   5.306
 4385TIP3   OH213097   8.179   1.911   5.986
 4385TIP3    H113098   8.254   1.856   5.962
 4385TIP3    H213099   8.140   1.867   6.061
 4386TIP3   OH213100   2.275   1.915   3.788
 4386TIP3    H113101   2.211   1.985   3.802
 4386TIP3    H213102   2.223   1.839   3.762
 4387TIP3   OH213103   2.538   7.270   5.937
 4387TIP3    H113104   2.614   7.316   5.901
 4387TIP3    H213105   2.556   7.265   6.031
 4388TIP3   OH213106   1.311   1.455   5.468
 4388TIP3    H113107   1.243   1.441   5.533
 4388TIP3    H213108   1.376   1.386   5.486
 4389TIP3   OH213109   4.251   5.515   2.439
 4389TIP3    H113110   4.286   5.446   2.494
 4389TIP3    H213111   4.170   5.478   2.402
 4390TIP3   OH213112   2.489   3.894   5.190
 4390TIP3    H113113   2.467   3.952   5.117
 4390TIP3    H213114   2.508   3.810   5.149
 4391TIP3   OH213115   0.778   4.730   4.565
 4391TIP3    H113116   0.699   4.676   4.565
 4391TIP3    H213117   0.746   4.820   4.570
 4392TIP3   OH213118   2.658   1.081   0.160
 4392TIP3    H113119   2.652   1.085   0.256
 4392TIP3    H213120   2.715   1.154   0.136
 4393TIP3   OH213121   7.124   5.756   2.369
 4393TIP3    H113122   7.092   5.790   2.285
 4393TIP3    H213123   7.054   5.778   2.431
 4394TIP3   OH213124   2.225   5.172   3.762
 4394TIP3    H113125   2.146   5.133   3.799
 4394TIP3    H213126   2.219   5.264   3.787
 4395TIP3   OH213127   6.939   5.187   0.632
 4395TIP3    H113128   6.984   5.102   0.627
 4395TIP3    H213129   6.856   5.168   0.676
 4396TIP3   OH213130   1.945   5.635   4.003
 4396TIP3    H113131   1.910   5.676   4.082
 4396TIP3    H213132   2.004   5.701   3.967
 4397TIP3   OH213133   4.930   6.319   6.049
 4397TIP3    H113134   4.915   6.226   6.066
 4397TIP3    H213135   5.015   6.322   6.005
 4398TIP3   OH213136   3.716   6.494   6.203
 4398TIP3    H113137   3.772   6.516   6.129
 4398TIP3    H213138   3.681   6.408   6.182
 4399TIP3   OH213139   2.892   4.473   4.643
 4399TIP3    H113140   2.967   4.462   4.585
 4399TIP3    H213141   2.924   4.449   4.729
 4400TIP3   OH213142   2.267   6.699   3.942
 4400TIP3    H113143   2.240   6.644   4.015
 4400TIP3    H213144   2.233   6.786   3.963
 4401TIP3   OH213145   6.561   1.363   3.814
 4401TIP3    H113146   6.626   1.294   3.800
 4401TIP3    H213147   6.482   1.316   3.841
 4402TIP3   OH213148   2.370   4.015   3.947
 4402TIP3    H113149   2.324   3.935   3.921
 4402TIP3    H213150   2.460   3.986   3.963
 4403TIP3   OH213151   7.489   6.474   3.423
 4403TIP3    H113152   7.504   6.568   3.426
 4403TIP3    H213153   7.394   6.465   3.428
 4404TIP3   OH213154   7.918   5.600   2.725
 4404TIP3    H113155   7.990   5.659   2.704
 4404TIP3    H213156   7.855   5.656   2.772
 4405TIP3   OH213157   1.311   1.565   5.800
 4405TIP3    H113158   1.235   1.624   5.800
 4405TIP3    H213159   1.363   1.592   5.875
 4406TIP3   OH213160   6.663   3.975   2.229
 4406TIP3    H113161   6.747   3.993   2.271
 4406TIP3    H213162   6.598   3.995   2.296
 4407TIP3   OH213163   7.879   2.668   6.176
 4407TIP3    H113164   7.868   2.674   6.271
 4407TIP3    H213165   7.837   2.747   6.142
 4408TIP3   OH213166   3.904   4.712   2.595
 4408TIP3    H113167   3.832   4.764   2.632
 4408TIP3    H213168   3.946   4.772   2.533
 4409TIP3   OH213169   4.930   3.238   1.881
 4409TIP3    H113170   4.850   3.194   1.854
 4409TIP3    H213171   4.963   3.184   1.953
 4410TIP3   OH213172   2.954   4.030   4.316
 4410TIP3    H113173   2.865   4.016   4.350
 4410TIP3    H213174   2.942   4.085   4.239
 4411TIP3   OH213175   2.085   6.545   5.607
 4411TIP3    H113176   2.146   6.584   5.545
 4411TIP3    H213177   2.115   6.578   5.693
 4412TIP3   OH213178   7.347   7.128   5.452
 4412TIP3    H113179   7.336   7.220   5.477
 4412TIP3    H213180   7.311   7.122   5.364
 4413TIP3   OH213181   7.238   0.012   3.915
 4413TIP3    H113182   7.181  -0.026   3.982
 4413TIP3    H213183   7.218   0.106   3.916
 4414TIP3   OH213184   6.420   3.163   0.558
 4414TIP3    H113185   6.505   3.119   0.567
 4414TIP3    H213186   6.400   3.157   0.465
 4415TIP3   OH213187   4.351   2.272   6.624
 4415TIP3    H113188   4.442   2.302   6.630
 4415TIP3    H213189   4.319   2.272   6.714
 4416TIP3   OH213190   4.788   6.582   6.395
 4416TIP3    H113191   4.758   6.501   6.355
 4416TIP3    H213192   4.883   6.581   6.384
 4417TIP3   OH213193   0.537   6.767   2.361
 4417TIP3    H113194   0.515   6.794   2.272
 4417TIP3    H213195   0.602   6.831   2.392
 4418TIP3   OH213196   0.667   4.832   0.730
 4418TIP3    H113197   0.605   4.857   0.799
 4418TIP3    H213198   0.728   4.772   0.772
 4419TIP3   OH213199   3.153   7.199   5.062
 4419TIP3    H113200   3.107   7.131   5.013
 4419TIP3    H213201   3.246   7.176   5.055
 4420TIP3   OH213202   7.008   6.862   5.471
 4420TIP3    H113203   6.970   6.929   5.415
 4420TIP3    H213204   7.068   6.909   5.528
 4421TIP3   OH213205   1.927   3.956   0.401
 4421TIP3    H113206   1.901   4.029   0.456
 4421TIP3    H213207   1.854   3.894   0.407
 4422TIP3   OH213208   2.885   0.489   4.513
 4422TIP3    H113209   2.873   0.513   4.604
 4422TIP3    H213210   2.873   0.394   4.511
 4423TIP3   OH213211   8.207   1.311   3.423
 4423TIP3    H113212   8.239   1.298   3.513
 4423TIP3    H213213   8.281   1.348   3.376
 4424TIP3   OH213214   2.627   4.010   3.664
 4424TIP3    H113215   2.561   4.073   3.692
 4424TIP3    H213216   2.691   4.009   3.734
 4425TIP3   OH213217   4.934   1.304   5.572
 4425TIP3    H113218   4.877   1.291   5.648
 4425TIP3    H213219   4.951   1.398   5.572
 4426TIP3   OH213220   0.319   4.317   1.931
 4426TIP3    H113221   0.353   4.227   1.934
 4426TIP3    H213222   0.368   4.360   1.861
 4427TIP3   OH213223   6.050   7.369   1.102
 4427TIP3    H113224   6.051   7.387   1.008
 4427TIP3    H213225   6.142   7.360   1.126
 4428TIP3   OH213226   2.382   5.338   4.065
 4428TIP3    H113227   2.448   5.269   4.077
 4428TIP3    H213228   2.302   5.301   4.102
 4429TIP3   OH213229   7.823   0.223   6.138
 4429TIP3    H113230   7.729   0.235   6.125
 4429TIP3    H213231   7.834   0.212   6.232
 4430TIP3   OH213232   1.745   6.927   4.762
 4430TIP3    H113233   1.689   7.001   4.739
 4430TIP3    H213234   1.826   6.968   4.794
 4431TIP3   OH213235   0.384   5.942   5.973
 4431TIP3    H113236   0.349   6.000   5.904
 4431TIP3    H213237   0.469   5.915   5.940
 4432TIP3   OH213238   0.887   0.365   4.605
 4432TIP3    H113239   0.898   0.432   4.538
 4432TIP3    H213240   0.960   0.379   4.666
 4433TIP3   OH213241   5.178   5.459   0.566
 4433TIP3    H113242   5.182   5.363   0.570
 4433TIP3    H213243   5.267   5.486   0.547
 4434TIP3   OH213244   3.568   0.581   6.274
 4434TIP3    H113245   3.637   0.594   6.339
 4434TIP3    H213246   3.614   0.578   6.190
 4435TIP3   OH213247   4.772   1.409   1.438
 4435TIP3    H113248   4.699   1.424   1.499
 4435TIP3    H213249   4.740   1.443   1.355
 4436TIP3   OH213250   5.437   6.663   6.324
 4436TIP3    H113251   5.368   6.685   6.261
 4436TIP3    H213252   5.455   6.746   6.369
 4437TIP3   OH213253   2.532   4.822   0.786
 4437TIP3    H113254   2.600   4.882   0.814
 4437TIP3    H213255   2.472   4.816   0.861
 4438TIP3   OH213256   7.157   7.035   3.240
 4438TIP3    H113257   7.073   6.994   3.220
 4438TIP3    H213258   7.170   7.099   3.170
 4439TIP3   OH213259   3.771   1.319   5.433
 4439TIP3    H113260   3.841   1.257   5.454
 4439TIP3    H213261   3.748   1.299   5.342
 4440TIP3   OH213262   4.120   1.158   6.481
 4440TIP3    H113263   4.155   1.232   6.432
 4440TIP3    H213264   4.090   1.196   6.564
 4441TIP3   OH213265   2.109   0.344   2.639
 4441TIP3    H113266   2.079   0.423   2.684
 4441TIP3    H213267   2.029   0.294   2.623
 4442TIP3   OH213268   6.738   4.582   6.710
 4442TIP3    H113269   6.706   4.531   6.636
 4442TIP3    H213270   6.681   4.659   6.712
 4443TIP3   OH213271   3.396   6.553   3.625
 4443TIP3    H113272   3.333   6.491   3.588
 4443TIP3    H213273   3.468   6.554   3.562
 4444TIP3   OH213274   3.249   2.759   3.700
 4444TIP3    H113275   3.212   2.721   3.780
 4444TIP3    H213276   3.302   2.689   3.662
 4445TIP3   OH213277   7.997   2.937   2.779
 4445TIP3    H113278   7.991   2.859   2.724
 4445TIP3    H213279   8.086   2.969   2.765
 4446TIP3   OH213280   5.093   4.361   3.868
 4446TIP3    H113281   5.013   4.404   3.898
 4446TIP3    H213282   5.154   4.369   3.942
 4447TIP3   OH213283   1.499   2.520   0.203
 4447TIP3    H113284   1.530   2.521   0.294
 4447TIP3    H213285   1.438   2.446   0.200
 4448TIP3   OH213286   2.522   5.333   4.325
 4448TIP3    H113287   2.456   5.326   4.394
 4448TIP3    H213288   2.474   5.363   4.248
 4449TIP3   OH213289   5.136   1.012   0.217
 4449TIP3    H113290   5.173   1.100   0.222
 4449TIP3    H213291   5.184   0.969   0.146
 4450TIP3   OH213292   4.054   0.382   3.423
 4450TIP3    H113293   4.065   0.476   3.439
 4450TIP3    H213294   3.963   0.372   3.395
 4451TIP3   OH213295   6.640   5.485   1.848
 4451TIP3    H113296   6.714   5.476   1.908
 4451TIP3    H213297   6.626   5.397   1.814
 4452TIP3   OH213298   1.033   4.275   5.655
 4452TIP3    H113299   1.000   4.320   5.577
 4452TIP3    H213300   0.999   4.186   5.647
 4453TIP3   OH213301   0.609   5.001   4.993
 4453TIP3    H113302   0.592   5.068   4.926
 4453TIP3    H213303   0.522   4.982   5.030
 4454TIP3   OH213304   5.689   1.951   5.009
 4454TIP3    H113305   5.653   2.005   5.080
 4454TIP3    H213306   5.695   2.011   4.934
 4455TIP3   OH213307   1.231   2.745   1.163
 4455TIP3    H113308   1.216   2.650   1.165
 4455TIP3    H213309   1.145   2.783   1.178
 4456TIP3   OH213310   4.681   1.767   5.416
 4456TIP3    H113311   4.612   1.711   5.380
 4456TIP3    H213312   4.654   1.856   5.392
 4457TIP3   OH213313   3.223   5.251   5.601
 4457TIP3    H113314   3.215   5.174   5.657
 4457TIP3    H213315   3.209   5.325   5.660
 4458TIP3   OH213316   7.503   7.701   4.134
 4458TIP3    H113317   7.456   7.648   4.069
 4458TIP3    H213318   7.457   7.785   4.134
 4459TIP3   OH213319   1.181   0.188   4.902
 4459TIP3    H113320   1.105   0.226   4.946
 4459TIP3    H213321   1.193   0.243   4.824
 4460TIP3   OH213322   2.816   5.673   2.093
 4460TIP3    H113323   2.819   5.595   2.147
 4460TIP3    H213324   2.835   5.642   2.005
 4461TIP3   OH213325   1.185   3.594   3.800
 4461TIP3    H113326   1.144   3.670   3.842
 4461TIP3    H213327   1.166   3.606   3.707
 4462TIP3   OH213328   4.239   7.484   0.099
 4462TIP3    H113329   4.318   7.528   0.070
 4462TIP3    H213330   4.252   7.469   0.193
 4463TIP3   OH213331   5.333   2.145   3.141
 4463TIP3    H113332   5.299   2.074   3.195
 4463TIP3    H213333   5.413   2.110   3.103
 4464TIP3   OH213334   4.311   5.363   5.888
 4464TIP3    H113335   4.322   5.410   5.806
 4464TIP3    H213336   4.349   5.420   5.954
 4465TIP3   OH213337   5.495   7.543   5.947
 4465TIP3    H113338   5.547   7.619   5.920
 4465TIP3    H213339   5.437   7.577   6.015
 4466TIP3   OH213340   7.790   1.317   3.873
 4466TIP3    H113341   7.845   1.380   3.918
 4466TIP3    H213342   7.850   1.249   3.842
 4467TIP3   OH213343   1.552   2.004   5.491
 4467TIP3    H113344   1.633   1.959   5.515
 4467TIP3    H213345   1.486   1.935   5.486
 4468TIP3   OH213346   6.015   0.780   2.343
 4468TIP3    H113347   5.970   0.856   2.379
 4468TIP3    H213348   6.104   0.810   2.326
 4469TIP3   OH213349   0.751   2.801   3.976
 4469TIP3    H113350   0.821   2.759   3.927
 4469TIP3    H213351   0.795   2.860   4.038
 4470TIP3   OH213352   0.226   6.213   1.047
 4470TIP3    H113353   0.274   6.285   1.005
 4470TIP3    H213354   0.293   6.164   1.094
 4471TIP3   OH213355   0.485   3.744   3.446
 4471TIP3    H113356   0.533   3.807   3.499
 4471TIP3    H213357   0.479   3.784   3.359
 4472TIP3   OH213358   0.026   6.956   5.525
 4472TIP3    H113359   0.090   6.943   5.456
 4472TIP3    H213360   0.074   7.001   5.594
 4473TIP3   OH213361   1.477   5.959   1.280
 4473TIP3    H113362   1.413   5.949   1.350
 4473TIP3    H213363   1.457   5.888   1.218
 4474TIP3   OH213364   6.459   1.189   4.987
 4474TIP3    H113365   6.522   1.226   4.925
 4474TIP3    H213366   6.440   1.102   4.952
 4475TIP3   OH213367   2.099   1.972   4.329
 4475TIP3    H113368   2.047   1.913   4.383
 4475TIP3    H213369   2.187   1.936   4.331
 4476TIP3   OH213370   4.907   0.869   0.587
 4476TIP3    H113371   4.911   0.776   0.607
 4476TIP3    H213372   4.986   0.886   0.536
 4477TIP3   OH213373   3.688   3.806   2.532
 4477TIP3    H113374   3.600   3.778   2.509
 4477TIP3    H213375   3.683   3.826   2.626
 4478TIP3   OH213376   7.115   4.852   2.342
 4478TIP3    H113377   7.084   4.814   2.424
 4478TIP3    H213378   7.210   4.839   2.343
 4479TIP3   OH213379   6.707   7.710   2.627
 4479TIP3    H113380   6.643   7.782   2.625
 4479TIP3    H213381   6.708   7.677   2.538
 4480TIP3   OH213382   7.178   7.367   2.611
 4480TIP3    H113383   7.089   7.339   2.631
 4480TIP3    H213384   7.169   7.421   2.532
 4481TIP3   OH213385   4.402   4.060   2.288
 4481TIP3    H113386   4.464   4.118   2.330
 4481TIP3    H213387   4.449   4.025   2.212
 4482TIP3   OH213388   2.119   5.771   4.658
 4482TIP3    H113389   2.092   5.858   4.685
 4482TIP3    H213390   2.212   5.766   4.682
 4483TIP3   OH213391   5.191   3.367   2.828
 4483TIP3    H113392   5.206   3.364   2.734
 4483TIP3    H213393   5.100   3.395   2.837
 4484TIP3   OH213394   4.420   2.504   2.238
 4484TIP3    H113395   4.447   2.451   2.313
 4484TIP3    H213396   4.469   2.466   2.164
 4485TIP3   OH213397   5.512   0.923   5.657
 4485TIP3    H113398   5.606   0.905   5.661
 4485TIP3    H213399   5.506   1.018   5.651
 4486TIP3   OH213400   0.458   3.039   0.602
 4486TIP3    H113401   0.412   2.955   0.606
 4486TIP3    H213402   0.466   3.057   0.508
 4487TIP3   OH213403   3.868   0.914   1.180
 4487TIP3    H113404   3.828   0.967   1.111
 4487TIP3    H213405   3.797   0.859   1.213
 4488TIP3   OH213406   2.691   5.341   4.971
 4488TIP3    H113407   2.693   5.382   5.058
 4488TIP3    H213408   2.692   5.414   4.910
 4489TIP3   OH213409   3.947   5.750   4.760
 4489TIP3    H113410   3.954   5.698   4.680
 4489TIP3    H213411   3.855   5.776   4.765
 4490TIP3   OH213412   1.611   4.116   1.963
 4490TIP3    H113413   1.626   4.202   2.004
 4490TIP3    H213414   1.516   4.103   1.970
 4491TIP3   OH213415   0.037   1.074   5.190
 4491TIP3    H113416   0.117   1.026   5.170
 4491TIP3    H213417   0.016   1.120   5.109
 4492TIP3   OH213418   5.214   5.658   5.380
 4492TIP3    H113419   5.240   5.735   5.431
 4492TIP3    H213420   5.287   5.644   5.319
 4493TIP3   OH213421   6.368   4.677   4.041
 4493TIP3    H113422   6.322   4.755   4.009
 4493TIP3    H213423   6.458   4.688   4.011
 4494TIP3   OH213424   6.214   7.286   6.209
 4494TIP3    H113425   6.141   7.230   6.183
 4494TIP3    H213426   6.174   7.354   6.262
 4495TIP3   OH213427   2.207   7.119   1.835
 4495TIP3    H113428   2.167   7.043   1.792
 4495TIP3    H213429   2.177   7.194   1.784
 4496TIP3   OH213430   7.823   7.239   2.245
 4496TIP3    H113431   7.784   7.212   2.161
 4496TIP3    H213432   7.754   7.290   2.288
 4497TIP3   OH213433   2.462   5.030   6.471
 4497TIP3    H113434   2.513   5.080   6.535
 4497TIP3    H213435   2.387   5.085   6.451
 4498TIP3   OH213436   7.496   7.274   3.278
 4498TIP3    H113437   7.529   7.312   3.197
 4498TIP3    H213438   7.562   7.295   3.344
 4499TIP3   OH213439   3.679   0.688   4.301
 4499TIP3    H113440   3.757   0.634   4.291
 4499TIP3    H213441   3.677   0.711   4.394
 4500TIP3   OH213442   2.039   0.681   6.194
 4500TIP3    H113443   2.054   0.732   6.274
 4500TIP3    H213444   2.002   0.598   6.225
 4501TIP3   OH213445   4.153   1.301   1.505
 4501TIP3    H113446   4.167   1.206   1.510
 4501TIP3    H213447   4.211   1.330   1.435
 4502TIP3   OH213448   6.097   3.065   4.010
 4502TIP3    H113449   6.142   3.149   4.012
 4502TIP3    H213450   6.147   3.012   3.947
 4503TIP3   OH213451   1.454   2.196   3.914
 4503TIP3    H113452   1.425   2.105   3.902
 4503TIP3    H213453   1.513   2.213   3.841
 4504TIP3   OH213454   2.685   4.063   6.087
 4504TIP3    H113455   2.709   4.148   6.048
 4504TIP3    H213456   2.590   4.060   6.081
 4505TIP3   OH213457   7.733   1.862   2.271
 4505TIP3    H113458   7.684   1.826   2.197
 4505TIP3    H213459   7.766   1.786   2.317
 4506TIP3   OH213460   6.170   1.606   5.251
 4506TIP3    H113461   6.190   1.683   5.303
 4506TIP3    H213462   6.100   1.562   5.299
 4507TIP3   OH213463   2.171   6.635   2.048
 4507TIP3    H113464   2.173   6.540   2.037
 4507TIP3    H213465   2.152   6.648   2.141
 4508TIP3   OH213466   4.432   5.954   4.070
 4508TIP3    H113467   4.477   5.949   4.154
 4508TIP3    H213468   4.408   6.047   4.061
 4509TIP3   OH213469   2.927   7.232   4.579
 4509TIP3    H113470   2.920   7.144   4.616
 4509TIP3    H213471   2.838   7.251   4.547
 4510TIP3   OH213472   4.774   2.411   2.663
 4510TIP3    H113473   4.689   2.397   2.705
 4510TIP3    H213474   4.829   2.447   2.733
 4511TIP3   OH213475   0.489   7.044   5.030
 4511TIP3    H113476   0.491   7.079   5.119
 4511TIP3    H213477   0.399   7.060   5.000
 4512TIP3   OH213478   4.482   6.040   4.999
 4512TIP3    H113479   4.432   5.987   5.061
 4512TIP3    H213480   4.564   6.059   5.045
 4513TIP3   OH213481   5.155   5.226   3.014
 4513TIP3    H113482   5.200   5.188   2.938
 4513TIP3    H213483   5.128   5.313   2.985
 4514TIP3   OH213484   4.513   7.628   1.126
 4514TIP3    H113485   4.446   7.607   1.191
 4514TIP3    H213486   4.592   7.582   1.156
 4515TIP3   OH213487   1.706   1.058   0.331
 4515TIP3    H113488   1.753   1.127   0.284
 4515TIP3    H213489   1.670   1.002   0.263
 4516TIP3   OH213490   7.113   7.170   1.938
 4516TIP3    H113491   7.207   7.189   1.944
 4516TIP3    H213492   7.072   7.255   1.923
 4517TIP3   OH213493   4.506  -0.007   0.302
 4517TIP3    H113494   4.416  -0.039   0.291
 4517TIP3    H213495   4.499   0.060   0.370
 4518TIP3   OH213496   4.676   4.913   1.074
 4518TIP3    H113497   4.599   4.895   1.129
 4518TIP3    H213498   4.649   4.986   1.019
 4519TIP3   OH213499   7.909   4.219   6.755
 4519TIP3    H113500   7.883   4.194   6.666
 4519TIP3    H213501   7.932   4.137   6.798
 4520TIP3   OH213502   7.895   1.455   2.305
 4520TIP3    H113503   7.845   1.440   2.224
 4520TIP3    H213504   7.840   1.514   2.356
 4521TIP3   OH213505   2.805   6.304   1.774
 4521TIP3    H113506   2.869   6.352   1.722
 4521TIP3    H213507   2.722   6.315   1.726
 4522TIP3   OH213508   6.302   1.770   2.537
 4522TIP3    H113509   6.240   1.699   2.521
 4522TIP3    H213510   6.273   1.840   2.478
 4523TIP3   OH213511   8.102   3.520   1.886
 4523TIP3    H113512   8.125   3.436   1.924
 4523TIP3    H213513   8.047   3.563   1.952
 4524TIP3   OH213514   4.624   1.352   2.632
 4524TIP3    H113515   4.670   1.279   2.673
 4524TIP3    H213516   4.675   1.370   2.553
 4525TIP3   OH213517   7.290   1.141   0.733
 4525TIP3    H113518   7.264   1.231   0.713
 4525TIP3    H213519   7.383   1.138   0.710
 4526TIP3   OH213520   0.595   7.685   3.199
 4526TIP3    H113521   0.682   7.704   3.165
 4526TIP3    H213522   0.551   7.638   3.128
 4527TIP3   OH213523   4.136   5.717   3.617
 4527TIP3    H113524   4.229   5.716   3.594
 4527TIP3    H213525   4.111   5.624   3.618
 4528TIP3   OH213526   4.995   0.237   1.136
 4528TIP3    H113527   4.999   0.267   1.227
 4528TIP3    H213528   5.071   0.180   1.127
 4529TIP3   OH213529   0.060   3.845   1.335
 4529TIP3    H113530   0.140   3.812   1.378
 4529TIP3    H213531  -0.003   3.773   1.345
 4530TIP3   OH213532   6.282   6.453   3.086
 4530TIP3    H113533   6.249   6.391   3.021
 4530TIP3    H213534   6.323   6.398   3.153
 4531TIP3   OH213535   0.830   3.613   5.554
 4531TIP3    H113536   0.836   3.535   5.610
 4531TIP3    H213537   0.794   3.680   5.612
 4532TIP3   OH213538   0.749   2.379   4.921
 4532TIP3    H113539   0.806   2.379   4.844
 4532TIP3    H213540   0.790   2.317   4.981
 4533TIP3   OH213541   0.973   2.236   5.913
 4533TIP3    H113542   1.028   2.158   5.912
 4533TIP3    H213543   0.933   2.239   5.827
 4534TIP3   OH213544   2.216   0.038   5.483
 4534TIP3    H113545   2.121   0.049   5.493
 4534TIP3    H213546   2.242  -0.016   5.557
 4535TIP3   OH213547   1.221   1.969   6.305
 4535TIP3    H113548   1.277   1.921   6.365
 4535TIP3    H213549   1.279   2.031   6.261
 4536TIP3   OH213550   4.166   0.818   0.089
 4536TIP3    H113551   4.233   0.831   0.021
 4536TIP3    H213552   4.104   0.756   0.049
 4537TIP3   OH213553   3.963   0.199   0.529
 4537TIP3    H113554   3.953   0.174   0.621
 4537TIP3    H213555   4.055   0.180   0.509
 4538TIP3   OH213556   3.470   7.561   2.564
 4538TIP3    H113557   3.410   7.494   2.531
 4538TIP3    H213558   3.545   7.512   2.597
 4539TIP3   OH213559   7.198   3.645   5.430
 4539TIP3    H113560   7.233   3.569   5.384
 4539TIP3    H213561   7.246   3.719   5.393
 4540TIP3   OH213562   0.952   1.677   6.431
 4540TIP3    H113563   0.959   1.595   6.480
 4540TIP3    H213564   1.041   1.711   6.427
 4541TIP3   OH213565   0.606   7.059   6.717
 4541TIP3    H113566   0.638   7.135   6.669
 4541TIP3    H213567   0.671   6.990   6.700
 4542TIP3   OH213568   2.406   0.149   1.827
 4542TIP3    H113569   2.426   0.218   1.890
 4542TIP3    H213570   2.492   0.117   1.799
 4543TIP3   OH213571   7.901   0.134   0.170
 4543TIP3    H113572   7.884   0.044   0.195
 4543TIP3    H213573   7.985   0.130   0.123
 4544TIP3   OH213574   1.115   0.924   3.824
 4544TIP3    H113575   1.117   0.899   3.732
 4544TIP3    H213576   1.054   0.997   3.828
 4545TIP3   OH213577   4.107   7.767   2.015
 4545TIP3    H113578   4.063   7.744   2.097
 4545TIP3    H213579   4.041   7.750   1.948
 4546TIP3   OH213580   0.965   5.440   6.614
 4546TIP3    H113581   0.983   5.361   6.665
 4546TIP3    H213582   0.910   5.493   6.671
 4547TIP3   OH213583   3.069   3.252   3.001
 4547TIP3    H113584   3.117   3.193   2.943
 4547TIP3    H213585   2.988   3.272   2.953
 4548TIP3   OH213586   3.784   1.564   5.119
 4548TIP3    H113587   3.787   1.645   5.068
 4548TIP3    H213588   3.823   1.588   5.204
 4549TIP3   OH213589   1.002   5.726   2.925
 4549TIP3    H113590   0.934   5.793   2.920
 4549TIP3    H213591   1.040   5.737   3.013
 4550TIP3   OH213592   0.609   2.561   5.084
 4550TIP3    H113593   0.674   2.502   5.046
 4550TIP3    H213594   0.542   2.571   5.016
 4551TIP3   OH213595  -0.003   0.131   6.338
 4551TIP3    H113596  -0.047   0.052   6.370
 4551TIP3    H213597  -0.018   0.131   6.244
 4552TIP3   OH213598   4.481   2.198   4.711
 4552TIP3    H113599   4.423   2.142   4.660
 4552TIP3    H213600   4.475   2.165   4.800
 4553TIP3   OH213601   5.010   1.007   5.057
 4553TIP3    H113602   4.921   1.042   5.051
 4553TIP3    H213603   5.052   1.060   5.125
 4554TIP3   OH213604   6.784   4.464   6.254
 4554TIP3    H113605   6.839   4.420   6.190
 4554TIP3    H213606   6.830   4.547   6.272
 4555TIP3   OH213607   2.686   7.525   5.982
 4555TIP3    H113608   2.711   7.598   6.039
 4555TIP3    H213609   2.616   7.560   5.928
 4556TIP3   OH213610   3.168   7.316   5.391
 4556TIP3    H113611   3.091   7.319   5.449
 4556TIP3    H213612   3.157   7.390   5.332
 4557TIP3   OH213613   2.412   3.997   4.448
 4557TIP3    H113614   2.409   4.087   4.482
 4557TIP3    H213615   2.368   4.002   4.363
 4558TIP3   OH213616   4.306   1.506   2.888
 4558TIP3    H113617   4.240   1.499   2.819
 4558TIP3    H213618   4.264   1.554   2.958
 4559TIP3   OH213619   2.199   1.824   0.621
 4559TIP3    H113620   2.183   1.768   0.696
 4559TIP3    H213621   2.271   1.782   0.574
 4560TIP3   OH213622   8.260   0.231   3.971
 4560TIP3    H113623   8.249   0.186   4.055
 4560TIP3    H213624   8.184   0.204   3.919
 4561TIP3   OH213625   0.722   0.615   5.144
 4561TIP3    H113626   0.791   0.556   5.113
 4561TIP3    H213627   0.699   0.581   5.231
 4562TIP3   OH213628   7.528   5.613   2.432
 4562TIP3    H113629   7.615   5.597   2.469
 4562TIP3    H213630   7.493   5.526   2.416
 4563TIP3   OH213631   8.331   7.144   3.658
 4563TIP3    H113632   8.394   7.184   3.599
 4563TIP3    H213633   8.249   7.142   3.609
 4564TIP3   OH213634   4.109   4.436   6.637
 4564TIP3    H113635   4.114   4.428   6.542
 4564TIP3    H213636   4.192   4.401   6.668
 4565TIP3   OH213637   6.210   1.880   3.799
 4565TIP3    H113638   6.292   1.869   3.752
 4565TIP3    H213639   6.188   1.792   3.830
 4566TIP3   OH213640   7.219   3.472   1.844
 4566TIP3    H113641   7.191   3.404   1.905
 4566TIP3    H213642   7.137   3.509   1.810
 4567TIP3   OH213643   1.946   7.441   5.225
 4567TIP3    H113644   1.940   7.510   5.159
 4567TIP3    H213645   1.980   7.486   5.303
 4568TIP3   OH213646   1.766   0.269   3.410
 4568TIP3    H113647   1.693   0.207   3.405
 4568TIP3    H213648   1.787   0.289   3.319
 4569TIP3   OH213649   5.112   2.109   4.321
 4569TIP3    H113650   5.118   2.049   4.247
 4569TIP3    H213651   5.083   2.192   4.282
 4570TIP3   OH213652   3.280   7.541   4.263
 4570TIP3    H113653   3.273   7.613   4.199
 4570TIP3    H213654   3.203   7.487   4.247
 4571TIP3   OH213655   4.183   0.787   3.925
 4571TIP3    H113656   4.181   0.692   3.921
 4571TIP3    H213657   4.274   0.808   3.946
 4572TIP3   OH213658   1.925   3.711   3.613
 4572TIP3    H113659   1.950   3.720   3.705
 4572TIP3    H213660   1.945   3.620   3.591
 4573TIP3   OH213661   6.924   1.812   5.037
 4573TIP3    H113662   6.972   1.836   4.958
 4573TIP3    H213663   6.859   1.882   5.048
 4574TIP3   OH213664   0.553   3.076   0.047
 4574TIP3    H113665   0.634   3.051   0.091
 4574TIP3    H213666   0.582   3.129  -0.028
 4575TIP3   OH213667   0.542   1.445   5.495
 4575TIP3    H113668   0.476   1.384   5.528
 4575TIP3    H213669   0.568   1.497   5.571
 4576TIP3   OH213670   7.101   1.597   0.102
 4576TIP3    H113671   7.151   1.599   0.184
 4576TIP3    H213672   7.092   1.688   0.076
 4577TIP3   OH213673   6.743  -0.032   0.206
 4577TIP3    H113674   6.817  -0.083   0.240
 4577TIP3    H213675   6.756   0.055   0.242
 4578TIP3   OH213676   8.120   2.375   5.675
 4578TIP3    H113677   8.099   2.317   5.748
 4578TIP3    H213678   8.036   2.413   5.649
 4579TIP3   OH213679   0.518   0.602   1.461
 4579TIP3    H113680   0.537   0.657   1.536
 4579TIP3    H213681   0.593   0.543   1.455
 4580TIP3   OH213682   5.567   3.578   1.161
 4580TIP3    H113683   5.577   3.484   1.146
 4580TIP3    H213684   5.630   3.599   1.230
 4581TIP3   OH213685   1.106   2.577   3.643
 4581TIP3    H113686   1.185   2.605   3.689
 4581TIP3    H213687   1.118   2.609   3.553
 4582TIP3   OH213688   4.896   7.509   1.743
 4582TIP3    H113689   4.818   7.562   1.754
 4582TIP3    H213690   4.960   7.547   1.804
 4583TIP3   OH213691   6.658   5.429   3.972
 4583TIP3    H113692   6.748   5.419   4.003
 4583TIP3    H213693   6.604   5.414   4.049
 4584TIP3   OH213694   7.902   3.382   1.431
 4584TIP3    H113695   7.913   3.335   1.514
 4584TIP3    H213696   7.813   3.415   1.434
 4585TIP3   OH213697   4.704   1.669   1.303
 4585TIP3    H113698   4.724   1.754   1.341
 4585TIP3    H213699   4.616   1.648   1.336
 4586TIP3   OH213700   3.017   1.190   3.168
 4586TIP3    H113701   2.930   1.226   3.152
 4586TIP3    H213702   3.057   1.250   3.231
 4587TIP3   OH213703   6.101   5.577   6.186
 4587TIP3    H113704   6.189   5.609   6.164
 4587TIP3    H213705   6.083   5.617   6.271
 4588TIP3   OH213706   6.525   6.355   4.655
 4588TIP3    H113707   6.562   6.388   4.737
 4588TIP3    H213708   6.595   6.366   4.590
 4589TIP3   OH213709   7.829   1.357  -0.086
 4589TIP3    H113710   7.779   1.366  -0.167
 4589TIP3    H213711   7.767   1.379  -0.016
 4590TIP3   OH213712   5.505   2.615   3.253
 4590TIP3    H113713   5.535   2.584   3.167
 4590TIP3    H213714   5.432   2.556   3.275
 4591TIP3   OH213715   4.418   1.188   1.301
 4591TIP3    H113716   4.367   1.118   1.262
 4591TIP3    H213717   4.365   1.267   1.289
 4592TIP3   OH213718   8.032   1.673   2.581
 4592TIP3    H113719   7.997   1.688   2.493
 4592TIP3    H213720   7.955   1.665   2.636
 4593TIP3   OH213721   5.968   3.269   5.605
 4593TIP3    H113722   6.032   3.237   5.542
 4593TIP3    H213723   5.890   3.216   5.589
 4594TIP3   OH213724   2.393   1.124   3.846
 4594TIP3    H113725   2.386   1.211   3.884
 4594TIP3    H213726   2.378   1.138   3.752
 4595TIP3   OH213727   0.233   2.830   0.658
 4595TIP3    H113728   0.175   2.844   0.733
 4595TIP3    H213729   0.194   2.757   0.610
 4596TIP3   OH213730   6.649   6.346   2.404
 4596TIP3    H113731   6.691   6.432   2.408
 4596TIP3    H213732   6.652   6.314   2.495
 4597TIP3   OH213733   2.318   5.955   0.070
 4597TIP3    H113734   2.345   5.914   0.152
 4597TIP3    H213735   2.358   6.042   0.072
 4598TIP3   OH213736   4.845   7.409   0.916
 4598TIP3    H113737   4.930   7.425   0.957
 4598TIP3    H213738   4.864   7.350   0.843
 4599TIP3   OH213739   7.121   6.843   1.634
 4599TIP3    H113740   7.143   6.863   1.543
 4599TIP3    H213741   7.172   6.764   1.653
 4600TIP3   OH213742   4.768   1.805   4.278
 4600TIP3    H113743   4.685   1.814   4.325
 4600TIP3    H213744   4.755   1.730   4.220
 4601TIP3   OH213745   7.788   1.425   2.069
 4601TIP3    H113746   7.763   1.461   1.984
 4601TIP3    H213747   7.808   1.333   2.051
 4602TIP3   OH213748   3.220   1.422   2.297
 4602TIP3    H113749   3.273   1.501   2.309
 4602TIP3    H213750   3.261   1.357   2.354
 4603TIP3   OH213751   7.020   4.307   0.545
 4603TIP3    H113752   6.971   4.377   0.588
 4603TIP3    H213753   7.112   4.325   0.564
 4604TIP3   OH213754   5.045   3.501   0.198
 4604TIP3    H113755   5.006   3.427   0.245
 4604TIP3    H213756   5.139   3.482   0.200
 4605TIP3   OH213757   3.708   5.703   6.102
 4605TIP3    H113758   3.655   5.714   6.180
 4605TIP3    H213759   3.787   5.755   6.120
 4606TIP3   OH213760   3.661   4.592   4.746
 4606TIP3    H113761   3.657   4.687   4.740
 4606TIP3    H213762   3.751   4.574   4.774
 4607TIP3   OH213763   6.493   6.978   5.003
 4607TIP3    H113764   6.432   6.951   4.935
 4607TIP3    H213765   6.449   7.050   5.048
 4608TIP3   OH213766   4.981   4.358   3.610
 4608TIP3    H113767   5.018   4.349   3.698
 4608TIP3    H213768   4.941   4.445   3.610
 4609TIP3   OH213769   0.047   5.121   5.568
 4609TIP3    H113770  -0.035   5.171   5.559
 4609TIP3    H213771   0.052   5.070   5.487
 4610TIP3   OH213772   5.544   6.277   0.340
 4610TIP3    H113773   5.460   6.233   0.354
 4610TIP3    H213774   5.546   6.295   0.246
 4611TIP3   OH213775   1.720   5.079   4.872
 4611TIP3    H113776   1.692   5.166   4.901
 4611TIP3    H213777   1.668   5.019   4.925
 4612TIP3   OH213778   6.497   3.002   0.088
 4612TIP3    H113779   6.586   3.029   0.065
 4612TIP3    H213780   6.458   2.974   0.006
 4613TIP3   OH213781   0.063   7.426   5.460
 4613TIP3    H113782   0.136   7.376   5.497
 4613TIP3    H213783   0.078   7.516   5.488
 4614TIP3   OH213784   5.284   5.802   2.312
 4614TIP3    H113785   5.272   5.896   2.315
 4614TIP3    H213786   5.204   5.766   2.350
 4615TIP3   OH213787   2.328   7.582   5.400
 4615TIP3    H113788   2.235   7.592   5.419
 4615TIP3    H213789   2.360   7.672   5.392
 4616TIP3   OH213790   0.038   3.949   4.200
 4616TIP3    H113791   0.108   4.014   4.202
 4616TIP3    H213792  -0.040   3.997   4.227
 4617TIP3   OH213793   2.441   2.362   6.083
 4617TIP3    H113794   2.509   2.353   6.017
 4617TIP3    H213795   2.486   2.396   6.160
 4618TIP3   OH213796   1.011   1.448   2.127
 4618TIP3    H113797   0.970   1.518   2.177
 4618TIP3    H213798   1.013   1.481   2.037
 4619TIP3   OH213799   4.083   2.941   6.658
 4619TIP3    H113800   4.138   2.941   6.580
 4619TIP3    H213801   4.134   2.987   6.724
 4620TIP3   OH213802   6.531   7.434   1.300
 4620TIP3    H113803   6.576   7.423   1.384
 4620TIP3    H213804   6.601   7.455   1.238
 4621TIP3   OH213805   4.855   3.242   5.647
 4621TIP3    H113806   4.814   3.278   5.568
 4621TIP3    H213807   4.945   3.225   5.621
 4622TIP3   OH213808   0.501   3.610   1.310
 4622TIP3    H113809   0.449   3.658   1.245
 4622TIP3    H213810   0.463   3.522   1.310
 4623TIP3   OH213811   0.506   3.534   5.754
 4623TIP3    H113812   0.581   3.572   5.800
 4623TIP3    H213813   0.460   3.483   5.821
 4624TIP3   OH213814   5.662   6.544   3.500
 4624TIP3    H113815   5.615   6.622   3.469
 4624TIP3    H213816   5.599   6.473   3.488
 4625TIP3   OH213817   2.025   6.083   4.123
 4625TIP3    H113818   2.016   6.048   4.034
 4625TIP3    H213819   2.031   6.005   4.179
 4626TIP3   OH213820   8.182   7.058   6.285
 4626TIP3    H113821   8.132   7.061   6.203
 4626TIP3    H213822   8.115   7.050   6.354
 4627TIP3   OH213823   3.977   6.478   2.401
 4627TIP3    H113824   3.975   6.479   2.497
 4627TIP3    H213825   3.894   6.518   2.375
 4628TIP3   OH213826   6.014   6.575   3.072
 4628TIP3    H113827   6.077   6.502   3.075
 4628TIP3    H213828   6.058   6.643   3.022
 4629TIP3   OH213829   1.015   6.840   2.938
 4629TIP3    H113830   1.051   6.853   2.850
 4629TIP3    H213831   0.921   6.831   2.925
 4630TIP3   OH213832   6.292   2.535   5.933
 4630TIP3    H113833   6.366   2.535   5.994
 4630TIP3    H213834   6.231   2.471   5.970
 4631TIP3   OH213835   3.954   1.044   1.800
 4631TIP3    H113836   3.919   0.992   1.728
 4631TIP3    H213837   4.043   1.011   1.812
 4632TIP3   OH213838   4.504   1.015   1.773
 4632TIP3    H113839   4.548   0.933   1.795
 4632TIP3    H213840   4.476   1.003   1.682
 4633TIP3   OH213841   5.761   1.032  -0.025
 4633TIP3    H113842   5.694   1.034   0.043
 4633TIP3    H213843   5.841   1.056   0.019
 4634TIP3   OH213844   5.466   5.890   1.292
 4634TIP3    H113845   5.388   5.907   1.239
 4634TIP3    H213846   5.535   5.942   1.251
 4635TIP3   OH213847   7.151   4.718   3.694
 4635TIP3    H113848   7.138   4.657   3.767
 4635TIP3    H213849   7.072   4.772   3.694
 4636TIP3   OH213850   7.240   7.035   4.897
 4636TIP3    H113851   7.162   7.073   4.938
 4636TIP3    H213852   7.214   7.021   4.806
 4637TIP3   OH213853   6.116   0.287   1.438
 4637TIP3    H113854   6.085   0.342   1.367
 4637TIP3    H213855   6.144   0.348   1.506
 4638TIP3   OH213856   1.044   4.987   6.414
 4638TIP3    H113857   0.950   4.977   6.401
 4638TIP3    H213858   1.078   5.002   6.326
 4639TIP3   OH213859   5.165   5.873   1.525
 4639TIP3    H113860   5.144   5.925   1.448
 4639TIP3    H213861   5.081   5.840   1.556
 4640TIP3   OH213862   5.142   1.979   0.193
 4640TIP3    H113863   5.166   2.066   0.162
 4640TIP3    H213864   5.067   1.954   0.139
 4641TIP3   OH213865   0.539   6.509   2.441
 4641TIP3    H113866   0.560   6.600   2.420
 4641TIP3    H213867   0.471   6.484   2.377
 4642TIP3   OH213868   3.032   4.819   6.478
 4642TIP3    H113869   3.092   4.763   6.526
 4642TIP3    H213870   3.037   4.904   6.522
 4643TIP3   OH213871   7.364   0.681   2.120
 4643TIP3    H113872   7.296   0.615   2.106
 4643TIP3    H213873   7.334   0.729   2.198
 4644TIP3   OH213874   4.896   3.509   2.482
 4644TIP3    H113875   4.856   3.586   2.523
 4644TIP3    H213876   4.835   3.438   2.501
 4645TIP3   OH213877   5.789   1.070   1.431
 4645TIP3    H113878   5.811   1.154   1.392
 4645TIP3    H213879   5.853   1.059   1.502
 4646TIP3   OH213880   8.061   5.768   4.233
 4646TIP3    H113881   8.074   5.813   4.317
 4646TIP3    H213882   7.992   5.704   4.251
 4647TIP3   OH213883   7.144   5.843   6.211
 4647TIP3    H113884   7.223   5.838   6.266
 4647TIP3    H213885   7.082   5.784   6.254
 4648TIP3   OH213886   1.747   3.718   6.063
 4648TIP3    H113887   1.724   3.636   6.020
 4648TIP3    H213888   1.810   3.759   6.005
 4649TIP3   OH213889   6.029   0.531   5.234
 4649TIP3    H113890   6.022   0.619   5.271
 4649TIP3    H213891   5.948   0.520   5.184
 4650TIP3   OH213892   7.954   5.586   1.624
 4650TIP3    H113893   8.049   5.571   1.619
 4650TIP3    H213894   7.920   5.509   1.670
 4651TIP3   OH213895   5.802   4.526   6.121
 4651TIP3    H113896   5.724   4.543   6.069
 4651TIP3    H213897   5.868   4.585   6.087
 4652TIP3   OH213898   2.747   5.804   0.043
 4652TIP3    H113899   2.765   5.801   0.137
 4652TIP3    H213900   2.693   5.726   0.026
 4653TIP3   OH213901   0.332   7.900   2.859
 4653TIP3    H113902   0.396   7.885   2.790
 4653TIP3    H213903   0.373   7.866   2.939
 4654TIP3   OH213904   5.828   7.714   6.538
 4654TIP3    H113905   5.759   7.779   6.550
 4654TIP3    H213906   5.898   7.742   6.597
 4655TIP3   OH213907   7.677   0.560   2.780
 4655TIP3    H113908   7.622   0.524   2.849
 4655TIP3    H213909   7.673   0.655   2.792
 4656TIP3   OH213910   3.925   4.603   4.863
 4656TIP3    H113911   4.006   4.571   4.824
 4656TIP3    H213912   3.917   4.554   4.945
 4657TIP3   OH213913   0.901   3.431   3.958
 4657TIP3    H113914   0.895   3.521   3.928
 4657TIP3    H213915   0.828   3.422   4.020
 4658TIP3   OH213916   5.610   6.284   2.026
 4658TIP3    H113917   5.597   6.199   2.066
 4658TIP3    H213918   5.689   6.274   1.972
 4659TIP3   OH213919   1.171   6.781   5.831
 4659TIP3    H113920   1.204   6.862   5.792
 4659TIP3    H213921   1.090   6.807   5.875
 4660TIP3   OH213922   1.220   3.859   0.327
 4660TIP3    H113923   1.262   3.773   0.320
 4660TIP3    H213924   1.203   3.884   0.236
 4661TIP3   OH213925   3.191   2.903   3.139
 4661TIP3    H113926   3.142   2.888   3.219
 4661TIP3    H213927   3.166   2.830   3.082
 4662TIP3   OH213928   4.425   7.746   6.335
 4662TIP3    H113929   4.390   7.820   6.286
 4662TIP3    H213930   4.520   7.754   6.329
 4663TIP3   OH213931   7.539   3.429   0.896
 4663TIP3    H113932   7.561   3.361   0.959
 4663TIP3    H213933   7.607   3.496   0.907
 4664TIP3   OH213934   5.427   2.127   1.021
 4664TIP3    H113935   5.341   2.168   1.029
 4664TIP3    H213936   5.442   2.085   1.105
 4665TIP3   OH213937   1.246   4.143   2.056
 4665TIP3    H113938   1.207   4.225   2.024
 4665TIP3    H213939   1.263   4.092   1.977
 4666TIP3   OH213940   1.596   7.043   1.672
 4666TIP3    H113941   1.581   7.096   1.751
 4666TIP3    H213942   1.666   6.983   1.696
 4667TIP3   OH213943   7.926   7.189   3.775
 4667TIP3    H113944   7.943   7.276   3.811
 4667TIP3    H213945   7.995   7.177   3.710
 4668TIP3   OH213946   4.099   4.523   0.224
 4668TIP3    H113947   4.162   4.544   0.155
 4668TIP3    H213948   4.054   4.606   0.241
 4669TIP3   OH213949   4.263   5.416   6.196
 4669TIP3    H113950   4.272   5.490   6.257
 4669TIP3    H213951   4.211   5.451   6.124
 4670TIP3   OH213952   0.410   7.508   0.549
 4670TIP3    H113953   0.478   7.470   0.495
 4670TIP3    H213954   0.457   7.557   0.617
 4671TIP3   OH213955   2.094   1.624   6.044
 4671TIP3    H113956   2.174   1.672   6.022
 4671TIP3    H213957   2.052   1.608   5.960
 4672TIP3   OH213958   2.238   6.087   3.046
 4672TIP3    H113959   2.156   6.063   3.004
 4672TIP3    H213960   2.264   6.009   3.095
 4673TIP3   OH213961   4.175   2.168   5.333
 4673TIP3    H113962   4.212   2.211   5.255
 4673TIP3    H213963   4.251   2.132   5.379
 4674TIP3   OH213964   5.572   2.805   1.675
 4674TIP3    H113965   5.651   2.793   1.728
 4674TIP3    H213966   5.582   2.893   1.638
 4675TIP3   OH213967   0.681   1.954   6.671
 4675TIP3    H113968   0.671   1.929   6.763
 4675TIP3    H213969   0.651   1.878   6.621
 4676TIP3   OH213970   5.583   7.706   5.534
 4676TIP3    H113971   5.568   7.630   5.591
 4676TIP3    H213972   5.665   7.743   5.566
 4677TIP3   OH213973   0.148   2.516   3.669
 4677TIP3    H113974   0.197   2.491   3.591
 4677TIP3    H213975   0.201   2.583   3.711
 4678TIP3   OH213976   1.221   4.267   4.135
 4678TIP3    H113977   1.181   4.297   4.053
 4678TIP3    H213978   1.293   4.329   4.151
 4679TIP3   OH213979   6.919   2.043   1.095
 4679TIP3    H113980   7.003   2.029   1.137
 4679TIP3    H213981   6.940   2.057   1.002
 4680TIP3   OH213982   7.645   2.235   1.790
 4680TIP3    H113983   7.626   2.143   1.777
 4680TIP3    H213984   7.670   2.242   1.882
 4681TIP3   OH213985   5.759   2.537   5.958
 4681TIP3    H113986   5.695   2.466   5.967
 4681TIP3    H213987   5.811   2.513   5.882
 4682TIP3   OH213988   5.501   5.920   0.851
 4682TIP3    H113989   5.586   5.881   0.871
 4682TIP3    H213990   5.472   5.875   0.771
 4683TIP3   OH213991   2.095   4.230   2.722
 4683TIP3    H113992   2.111   4.325   2.721
 4683TIP3    H213993   2.144   4.196   2.648
 4684TIP3   OH213994   3.482   4.691   3.788
 4684TIP3    H113995   3.575   4.695   3.765
 4684TIP3    H213996   3.436   4.704   3.705
 4685TIP3   OH213997   3.008   3.835   0.675
 4685TIP3    H113998   2.986   3.846   0.582
 4685TIP3    H213999   3.085   3.777   0.675
 4686TIP3   OH214000   6.076   1.644   4.600
 4686TIP3    H114001   6.164   1.654   4.636
 4686TIP3    H214002   6.024   1.711   4.643
 4687TIP3   OH214003   7.078   1.926   0.330
 4687TIP3    H114004   7.120   2.005   0.296
 4687TIP3    H214005   6.993   1.923   0.286
 4688TIP3   OH214006   7.722   2.347   0.052
 4688TIP3    H114007   7.717   2.255   0.078
 4688TIP3    H214008   7.777   2.389   0.118
 4689TIP3   OH214009   2.570   1.496   1.848
 4689TIP3    H114010   2.507   1.481   1.919
 4689TIP3    H214011   2.527   1.459   1.770
 4690TIP3   OH214012   7.109   4.794   0.213
 4690TIP3    H114013   7.184   4.803   0.272
 4690TIP3    H214014   7.035   4.778   0.270
 4691TIP3   OH214015   5.915   1.338   1.893
 4691TIP3    H114016   5.865   1.420   1.896
 4691TIP3    H214017   5.919   1.316   1.800
 4692TIP3   OH214018   2.717   3.293   4.606
 4692TIP3    H114019   2.807   3.300   4.638
 4692TIP3    H214020   2.721   3.329   4.517
 4693TIP3   OH214021   2.358   2.082   6.056
 4693TIP3    H114022   2.363   2.177   6.046
 4693TIP3    H214023   2.446   2.051   6.034
 4694TIP3   OH214024   8.013   5.424   2.181
 4694TIP3    H114025   7.987   5.377   2.261
 4694TIP3    H214026   8.030   5.513   2.211
 4695TIP3   OH214027   3.360   3.631   6.784
 4695TIP3    H114028   3.337   3.683   6.861
 4695TIP3    H214029   3.278   3.588   6.758
 4696TIP3   OH214030   4.727   4.104   0.339
 4696TIP3    H114031   4.728   4.165   0.266
 4696TIP3    H214032   4.640   4.064   0.335
 4697TIP3   OH214033   6.658   3.555   3.486
 4697TIP3    H114034   6.594   3.525   3.422
 4697TIP3    H214035   6.713   3.478   3.503
 4698TIP3   OH214036   7.310   3.532   2.813
 4698TIP3    H114037   7.245   3.536   2.883
 4698TIP3    H214038   7.327   3.438   2.801
 4699TIP3   OH214039   1.680   4.428   4.434
 4699TIP3    H114040   1.710   4.508   4.390
 4699TIP3    H214041   1.711   4.357   4.377
 4700TIP3   OH214042   7.335   3.732   0.610
 4700TIP3    H114043   7.325   3.685   0.527
 4700TIP3    H214044   7.285   3.813   0.598
 4701TIP3   OH214045   3.990   2.058   1.107
 4701TIP3    H114046   4.040   2.018   1.036
 4701TIP3    H214047   3.900   2.063   1.074
 4702TIP3   OH214048   1.164   2.636   3.376
 4702TIP3    H114049   1.145   2.722   3.338
 4702TIP3    H214050   1.133   2.573   3.310
 4703TIP3   OH214051   0.346  -0.020   3.769
 4703TIP3    H114052   0.377   0.067   3.796
 4703TIP3    H214053   0.267  -0.035   3.821
 4704TIP3   OH214054   2.045   5.556   0.841
 4704TIP3    H114055   2.080   5.474   0.878
 4704TIP3    H214056   2.118   5.593   0.792
 4705TIP3   OH214057   7.819   3.019   3.832
 4705TIP3    H114058   7.828   2.956   3.761
 4705TIP3    H214059   7.809   3.104   3.788
 4706TIP3   OH214060   0.991   2.111   1.677
 4706TIP3    H114061   1.058   2.179   1.670
 4706TIP3    H214062   0.988   2.071   1.590
 4707TIP3   OH214063   0.315   5.647   0.419
 4707TIP3    H114064   0.404   5.681   0.430
 4707TIP3    H214065   0.258   5.721   0.439
 4708TIP3   OH214066  -0.102   1.179   1.306
 4708TIP3    H114067  -0.136   1.128   1.380
 4708TIP3    H214068  -0.008   1.186   1.324
 4709TIP3   OH214069   3.597   5.293   2.153
 4709TIP3    H114070   3.628   5.353   2.085
 4709TIP3    H214071   3.677   5.267   2.199
 4710TIP3   OH214072   3.666   7.369   5.363
 4710TIP3    H114073   3.619   7.384   5.445
 4710TIP3    H214074   3.678   7.457   5.326
 4711TIP3   OH214075   3.917   0.408   1.140
 4711TIP3    H114076   3.956   0.485   1.182
 4711TIP3    H214077   3.827   0.406   1.173
 4712TIP3   OH214078   4.534   7.119   2.320
 4712TIP3    H114079   4.504   7.210   2.309
 4712TIP3    H214080   4.629   7.126   2.331
 4713TIP3   OH214081   0.148   3.771   5.788
 4713TIP3    H114082   0.122   3.727   5.869
 4713TIP3    H214083   0.109   3.859   5.796
 4714TIP3   OH214084   5.974   0.051   3.569
 4714TIP3    H114085   6.048   0.079   3.515
 4714TIP3    H214086   6.012   0.031   3.654
 4715TIP3   OH214087   4.394   6.753   4.770
 4715TIP3    H114088   4.431   6.837   4.743
 4715TIP3    H214089   4.468   6.705   4.807
 4716TIP3   OH214090   5.728   4.986   6.316
 4716TIP3    H114091   5.679   4.906   6.296
 4716TIP3    H214092   5.740   4.984   6.411
 4717TIP3   OH214093   0.145   1.144   3.581
 4717TIP3    H114094   0.065   1.140   3.633
 4717TIP3    H214095   0.215   1.136   3.645
 4718TIP3   OH214096   0.347   3.917   0.828
 4718TIP3    H114097   0.324   3.989   0.770
 4718TIP3    H214098   0.268   3.904   0.882
 4719TIP3   OH214099   4.158   0.121   5.968
 4719TIP3    H114100   4.165   0.164   6.054
 4719TIP3    H214101   4.104   0.044   5.984
 4720TIP3   OH214102   3.468   2.945   5.110
 4720TIP3    H114103   3.526   3.018   5.089
 4720TIP3    H214104   3.435   2.915   5.025
 4721TIP3   OH214105   3.283   1.098   6.567
 4721TIP3    H114106   3.338   1.046   6.626
 4721TIP3    H214107   3.323   1.185   6.569
 4722TIP3   OH214108   2.975   6.794   1.892
 4722TIP3    H114109   2.955   6.887   1.906
 4722TIP3    H214110   2.890   6.756   1.868
 4723TIP3   OH214111   4.441   1.504   3.406
 4723TIP3    H114112   4.369   1.496   3.345
 4723TIP3    H214113   4.498   1.430   3.386
 4724TIP3   OH214114   3.643   3.845   4.735
 4724TIP3    H114115   3.620   3.797   4.815
 4724TIP3    H214116   3.560   3.852   4.687
 4725TIP3   OH214117   6.962   7.079   1.663
 4725TIP3    H114118   6.988   6.988   1.650
 4725TIP3    H214119   7.016   7.110   1.736
 4726TIP3   OH214120   2.624   7.407   2.555
 4726TIP3    H114121   2.658   7.366   2.476
 4726TIP3    H214122   2.529   7.411   2.542
 4727TIP3   OH214123   7.847   2.456   2.172
 4727TIP3    H114124   7.886   2.369   2.179
 4727TIP3    H214125   7.782   2.459   2.242
 4728TIP3   OH214126   2.453   4.021   2.344
 4728TIP3    H114127   2.501   4.047   2.265
 4728TIP3    H214128   2.446   3.926   2.337
 4729TIP3   OH214129   1.557   5.315   4.736
 4729TIP3    H114130   1.593   5.404   4.744
 4729TIP3    H214131   1.465   5.325   4.760
 4730TIP3   OH214132   6.459   3.011   4.143
 4730TIP3    H114133   6.417   3.071   4.204
 4730TIP3    H214134   6.505   3.068   4.081
 4731TIP3   OH214135   0.887   0.165   2.324
 4731TIP3    H114136   0.962   0.112   2.296
 4731TIP3    H214137   0.830   0.168   2.247
 4732TIP3   OH214138   6.417   5.571   3.230
 4732TIP3    H114139   6.404   5.518   3.151
 4732TIP3    H214140   6.331   5.608   3.249
 4733TIP3   OH214141   1.048   5.982   0.636
 4733TIP3    H114142   1.062   5.933   0.717
 4733TIP3    H214143   0.953   5.988   0.628
 4734TIP3   OH214144   6.168   4.836   5.129
 4734TIP3    H114145   6.236   4.838   5.197
 4734TIP3    H214146   6.216   4.825   5.048
 4735TIP3   OH214147   6.748   6.307   0.754
 4735TIP3    H114148   6.825   6.274   0.706
 4735TIP3    H214149   6.676   6.250   0.726
 4736TIP3   OH214150   5.032   2.035   5.522
 4736TIP3    H114151   5.017   2.078   5.607
 4736TIP3    H214152   5.070   2.104   5.467
 4737TIP3   OH214153   8.151   5.282   5.903
 4737TIP3    H114154   8.143   5.258   5.811
 4737TIP3    H214155   8.238   5.250   5.929
 4738TIP3   OH214156   2.440   3.024   0.106
 4738TIP3    H114157   2.422   2.959   0.038
 4738TIP3    H214158   2.365   3.018   0.164
 4739TIP3   OH214159   4.535   6.193   3.386
 4739TIP3    H114160   4.552   6.137   3.310
 4739TIP3    H214161   4.620   6.199   3.430
 4740TIP3   OH214162   0.095   7.357   0.858
 4740TIP3    H114163   0.114   7.380   0.949
 4740TIP3    H214164   0.028   7.419   0.831
 4741TIP3   OH214165   0.804   7.714   3.652
 4741TIP3    H114166   0.731   7.663   3.688
 4741TIP3    H214167   0.824   7.671   3.569
 4742TIP3   OH214168   5.020   7.371   4.106
 4742TIP3    H114169   4.951   7.305   4.099
 4742TIP3    H214170   5.064   7.369   4.021
 4743TIP3   OH214171   0.488   5.443   5.500
 4743TIP3    H114172   0.466   5.350   5.507
 4743TIP3    H214173   0.576   5.450   5.536
 4744TIP3   OH214174   4.657   6.785   4.154
 4744TIP3    H114175   4.659   6.690   4.163
 4744TIP3    H214176   4.657   6.800   4.059
 4745TIP3   OH214177   5.528   6.468   6.509
 4745TIP3    H114178   5.470   6.393   6.497
 4745TIP3    H214179   5.483   6.541   6.467
 4746TIP3   OH214180   8.245   6.546   3.722
 4746TIP3    H114181   8.330   6.534   3.764
 4746TIP3    H214182   8.267   6.574   3.633
 4747TIP3   OH214183   5.116   0.711   2.899
 4747TIP3    H114184   5.115   0.799   2.936
 4747TIP3    H214185   5.026   0.697   2.869
 4748TIP3   OH214186   2.677   4.053   1.295
 4748TIP3    H114187   2.673   4.048   1.199
 4748TIP3    H214188   2.658   3.964   1.324
 4749TIP3   OH214189   3.903   4.035   6.295
 4749TIP3    H114190   3.983   4.050   6.344
 4749TIP3    H214191   3.930   3.988   6.216
 4750TIP3   OH214192   8.161   4.400   1.870
 4750TIP3    H114193   8.201   4.475   1.914
 4750TIP3    H214194   8.090   4.437   1.819
 4751TIP3   OH214195   7.966   4.485   6.101
 4751TIP3    H114196   7.957   4.576   6.132
 4751TIP3    H214197   8.032   4.447   6.157
 4752TIP3   OH214198   5.439   7.752   6.490
 4752TIP3    H114199   5.398   7.671   6.520
 4752TIP3    H214200   5.496   7.778   6.561
 4753TIP3   OH214201   2.235   3.176   4.383
 4753TIP3    H114202   2.246   3.081   4.378
 4753TIP3    H214203   2.162   3.195   4.324
 4754TIP3   OH214204   7.254   2.979   2.975
 4754TIP3    H114205   7.267   2.959   2.882
 4754TIP3    H214206   7.343   2.978   3.012
 4755TIP3   OH214207   1.382   2.222   1.867
 4755TIP3    H114208   1.423   2.148   1.912
 4755TIP3    H214209   1.437   2.297   1.891
 4756TIP3   OH214210   7.884   4.590   1.308
 4756TIP3    H114211   7.917   4.527   1.244
 4756TIP3    H214212   7.855   4.536   1.382
 4757TIP3   OH214213   1.110   6.021   3.885
 4757TIP3    H114214   1.170   6.095   3.870
 4757TIP3    H214215   1.152   5.970   3.955
 4758TIP3   OH214216   2.620   2.413   4.910
 4758TIP3    H114217   2.546   2.352   4.903
 4758TIP3    H214218   2.696   2.358   4.927
 4759TIP3   OH214219   5.618   4.854   1.580
 4759TIP3    H114220   5.654   4.943   1.588
 4759TIP3    H214221   5.618   4.836   1.486
 4760TIP3   OH214222   6.424   7.181   4.663
 4760TIP3    H114223   6.473   7.222   4.592
 4760TIP3    H214224   6.389   7.101   4.624
 4761TIP3   OH214225   4.268   0.421   0.960
 4761TIP3    H114226   4.176   0.410   0.937
 4761TIP3    H214227   4.316   0.394   0.882
 4762TIP3   OH214228   1.904   0.818   4.125
 4762TIP3    H114229   1.830   0.866   4.161
 4762TIP3    H214230   1.976   0.881   4.125
 4763TIP3   OH214231   5.260   6.531   3.275
 4763TIP3    H114232   5.205   6.458   3.245
 4763TIP3    H214233   5.244   6.600   3.211
 4764TIP3   OH214234   2.070   7.132   4.637
 4764TIP3    H114235   2.037   7.086   4.714
 4764TIP3    H214236   2.037   7.222   4.647
 4765TIP3   OH214237   0.289   7.027   2.424
 4765TIP3    H114238   0.257   6.984   2.345
 4765TIP3    H214239   0.296   7.119   2.400
 4766TIP3   OH214240   7.223   6.182   3.677
 4766TIP3    H114241   7.284   6.255   3.690
 4766TIP3    H214242   7.276   6.104   3.694
 4767TIP3   OH214243   6.283   6.628   5.506
 4767TIP3    H114244   6.236   6.547   5.525
 4767TIP3    H214245   6.247   6.692   5.568
 4768TIP3   OH214246   7.933   7.093   0.045
 4768TIP3    H114247   7.998   7.148   0.001
 4768TIP3    H214248   7.850   7.139   0.031
 4769TIP3   OH214249   6.095   2.871   5.975
 4769TIP3    H114250   6.063   2.831   5.894
 4769TIP3    H214251   6.017   2.881   6.030
 4770TIP3   OH214252   5.361   1.916   6.751
 4770TIP3    H114253   5.369   1.824   6.728
 4770TIP3    H214254   5.277   1.943   6.713
 4771TIP3   OH214255   8.263   0.950   6.146
 4771TIP3    H114256   8.299   0.862   6.156
 4771TIP3    H214257   8.198   0.957   6.216
 4772TIP3   OH214258   1.620   0.227   5.616
 4772TIP3    H114259   1.640   0.177   5.695
 4772TIP3    H214260   1.703   0.268   5.591
 4773TIP3   OH214261   3.032   1.330   2.680
 4773TIP3    H114262   3.066   1.298   2.763
 4773TIP3    H214263   3.061   1.420   2.674
 4774TIP3   OH214264   4.991   3.486   4.440
 4774TIP3    H114265   4.963   3.571   4.476
 4774TIP3    H214266   4.911   3.436   4.431
 4775TIP3   OH214267   1.715   3.631   2.619
 4775TIP3    H114268   1.629   3.656   2.583
 4775TIP3    H214269   1.719   3.536   2.608
 4776TIP3   OH214270   1.106   0.999   1.113
 4776TIP3    H114271   1.116   1.018   1.206
 4776TIP3    H214272   1.019   1.034   1.091
 4777TIP3   OH214273   5.090   5.452   2.244
 4777TIP3    H114274   5.165   5.404   2.280
 4777TIP3    H214275   5.040   5.480   2.321
 4778TIP3   OH214276   3.280   7.670   2.355
 4778TIP3    H114277   3.260   7.644   2.445
 4778TIP3    H214278   3.375   7.682   2.354
 4779TIP3   OH214279   6.981   1.045   4.248
 4779TIP3    H114280   6.958   0.955   4.269
 4779TIP3    H214281   6.995   1.045   4.153
 4780TIP3   OH214282   6.637   1.470   1.171
 4780TIP3    H114283   6.657   1.403   1.237
 4780TIP3    H214284   6.565   1.433   1.120
 4781TIP3   OH214285   5.669   3.040   5.303
 4781TIP3    H114286   5.689   3.134   5.305
 4781TIP3    H214287   5.718   3.006   5.228
 4782TIP3   OH214288   1.203   1.071   4.770
 4782TIP3    H114289   1.217   0.976   4.765
 4782TIP3    H214290   1.165   1.094   4.686
 4783TIP3   OH214291   4.993   6.074   5.821
 4783TIP3    H114292   4.917   6.125   5.847
 4783TIP3    H214293   5.060   6.095   5.886
 4784TIP3   OH214294   7.778   3.035   4.556
 4784TIP3    H114295   7.753   3.006   4.468
 4784TIP3    H214296   7.874   3.041   4.553
 4785TIP3   OH214297   0.191   2.525   1.485
 4785TIP3    H114298   0.232   2.505   1.569
 4785TIP3    H214299   0.157   2.614   1.495
 4786TIP3   OH214300   8.119   4.647   0.911
 4786TIP3    H114301   8.149   4.655   0.820
 4786TIP3    H214302   8.190   4.601   0.956
 4787TIP3   OH214303   3.142   4.979   5.394
 4787TIP3    H114304   3.161   5.038   5.321
 4787TIP3    H214305   3.046   4.982   5.403
 4788TIP3   OH214306   2.925   2.123   0.884
 4788TIP3    H114307   2.888   2.142   0.971
 4788TIP3    H214308   2.980   2.046   0.898
 4789TIP3   OH214309   3.678   4.985   2.072
 4789TIP3    H114310   3.587   5.007   2.086
 4789TIP3    H214311   3.687   4.979   1.977
 4790TIP3   OH214312   4.368   6.760   2.366
 4790TIP3    H114313   4.447   6.768   2.420
 4790TIP3    H214314   4.343   6.668   2.374
 4791TIP3   OH214315   3.137   3.254   3.769
 4791TIP3    H114316   3.044   3.268   3.750
 4791TIP3    H214317   3.146   3.159   3.778
 4792TIP3   OH214318   7.378   0.472   5.012
 4792TIP3    H114319   7.307   0.442   5.069
 4792TIP3    H214320   7.405   0.556   5.050
 4793TIP3   OH214321   2.658   4.600   0.367
 4793TIP3    H114322   2.621   4.571   0.450
 4793TIP3    H214323   2.583   4.611   0.309
 4794TIP3   OH214324   8.172   2.351   3.379
 4794TIP3    H114325   8.106   2.292   3.415
 4794TIP3    H214326   8.123   2.427   3.350
 4795TIP3   OH214327   3.016   3.693   6.265
 4795TIP3    H114328   3.011   3.748   6.186
 4795TIP3    H214329   3.107   3.702   6.294
 4796TIP3   OH214330   8.313   5.564   3.021
 4796TIP3    H114331   8.248   5.536   3.086
 4796TIP3    H214332   8.297   5.508   2.946
 4797TIP3   OH214333   1.219   2.100   6.031
 4797TIP3    H114334   1.298   2.096   6.085
 4797TIP3    H214335   1.252   2.108   5.942
 4798TIP3   OH214336   7.502   6.705   6.037
 4798TIP3    H114337   7.571   6.640   6.024
 4798TIP3    H214338   7.535   6.784   5.996
 4799TIP3   OH214339   2.107   3.430   0.491
 4799TIP3    H114340   2.138   3.501   0.547
 4799TIP3    H214341   2.063   3.369   0.551
 4800TIP3   OH214342   7.356   3.304   2.301
 4800TIP3    H114343   7.365   3.239   2.231
 4800TIP3    H214344   7.311   3.377   2.260
 4801TIP3   OH214345   5.217   6.536   1.018
 4801TIP3    H114346   5.150   6.601   1.038
 4801TIP3    H214347   5.219   6.478   1.095
 4802TIP3   OH214348   6.320   3.466   0.276
 4802TIP3    H114349   6.343   3.381   0.315
 4802TIP3    H214350   6.400   3.518   0.283
 4803TIP3   OH214351   5.892   2.344   1.924
 4803TIP3    H114352   5.864   2.284   1.854
 4803TIP3    H214353   5.816   2.401   1.938
 4804TIP3   OH214354   0.353   5.117   2.643
 4804TIP3    H114355   0.431   5.103   2.696
 4804TIP3    H214356   0.333   5.030   2.607
 4805TIP3   OH214357   4.827   0.025   6.045
 4805TIP3    H114358   4.803  -0.067   6.052
 4805TIP3    H214359   4.805   0.063   6.130
 4806TIP3   OH214360   5.321   1.999   1.613
 4806TIP3    H114361   5.336   1.906   1.630
 4806TIP3    H214362   5.407   2.039   1.625
 4807TIP3   OH214363   5.570   3.821   4.712
 4807TIP3    H114364   5.496   3.816   4.652
 4807TIP3    H214365   5.537   3.782   4.793
 4808TIP3   OH214366   5.190   0.327   2.639
 4808TIP3    H114367   5.099   0.306   2.659
 4808TIP3    H214368   5.198   0.315   2.545
 4809TIP3   OH214369   7.040   6.265   4.532
 4809TIP3    H114370   7.092   6.343   4.513
 4809TIP3    H214371   7.087   6.222   4.604
 4810TIP3   OH214372   0.546   4.415   5.287
 4810TIP3    H114373   0.520   4.502   5.258
 4810TIP3    H214374   0.475   4.387   5.345
 4811TIP3   OH214375   1.117   3.858   3.236
 4811TIP3    H114376   1.057   3.840   3.163
 4811TIP3    H214377   1.105   3.951   3.255
 4812TIP3   OH214378   2.737   2.941   3.498
 4812TIP3    H114379   2.739   2.865   3.440
 4812TIP3    H214380   2.755   3.015   3.440
 4813TIP3   OH214381   0.772   5.250   2.416
 4813TIP3    H114382   0.725   5.329   2.388
 4813TIP3    H214383   0.715   5.178   2.391
 4814TIP3   OH214384   0.457   1.274   4.004
 4814TIP3    H114385   0.423   1.201   3.952
 4814TIP3    H214386   0.463   1.347   3.942
 4815TIP3   OH214387   3.732   7.240   5.144
 4815TIP3    H114388   3.693   7.304   5.203
 4815TIP3    H214389   3.818   7.221   5.183
 4816TIP3   OH214390   5.372   3.838   6.200
 4816TIP3    H114391   5.450   3.895   6.201
 4816TIP3    H214392   5.360   3.815   6.108
 4817TIP3   OH214393   1.806   2.508   5.959
 4817TIP3    H114394   1.867   2.578   5.933
 4817TIP3    H214395   1.740   2.552   6.012
 4818TIP3   OH214396   7.617   0.586   2.088
 4818TIP3    H114397   7.629   0.632   2.172
 4818TIP3    H214398   7.525   0.599   2.066
 4819TIP3   OH214399   3.853   0.510   4.820
 4819TIP3    H114400   3.853   0.595   4.777
 4819TIP3    H214401   3.779   0.514   4.881
 4820TIP3   OH214402   3.097   2.000   1.768
 4820TIP3    H114403   3.067   2.003   1.677
 4820TIP3    H214404   3.122   1.908   1.781
 4821TIP3   OH214405   1.792   0.829   1.649
 4821TIP3    H114406   1.786   0.912   1.601
 4821TIP3    H214407   1.808   0.856   1.740
 4822TIP3   OH214408   6.707   7.239   2.046
 4822TIP3    H114409   6.697   7.144   2.058
 4822TIP3    H214410   6.726   7.249   1.953
 4823TIP3   OH214411   4.698   0.209   2.417
 4823TIP3    H114412   4.657   0.133   2.458
 4823TIP3    H214413   4.721   0.266   2.490
 4824TIP3   OH214414   7.883   7.672   4.673
 4824TIP3    H114415   7.906   7.593   4.624
 4824TIP3    H214416   7.848   7.639   4.756
 4825TIP3   OH214417   0.732   1.870   5.763
 4825TIP3    H114418   0.808   1.923   5.740
 4825TIP3    H214419   0.678   1.927   5.817
 4826TIP3   OH214420   8.131   5.151   6.692
 4826TIP3    H114421   8.204   5.211   6.707
 4826TIP3    H214422   8.128   5.098   6.772
 4827TIP3   OH214423   6.473   0.447   4.581
 4827TIP3    H114424   6.393   0.498   4.572
 4827TIP3    H214425   6.484   0.405   4.496
 4828TIP3   OH214426   7.103   2.271   5.266
 4828TIP3    H114427   7.183   2.321   5.250
 4828TIP3    H214428   7.101   2.207   5.195
 4829TIP3   OH214429   6.263   5.914   0.221
 4829TIP3    H114430   6.220   5.854   0.161
 4829TIP3    H214431   6.197   5.935   0.286
 4830TIP3   OH214432   1.888   2.961   3.309
 4830TIP3    H114433   1.920   3.042   3.271
 4830TIP3    H214434   1.793   2.965   3.299
 4831TIP3   OH214435   6.336   4.512   0.522
 4831TIP3    H114436   6.333   4.605   0.541
 4831TIP3    H214437   6.274   4.473   0.584
 4832TIP3   OH214438   4.742   6.483   4.643
 4832TIP3    H114439   4.738   6.546   4.716
 4832TIP3    H214440   4.700   6.404   4.678
 4833TIP3   OH214441   4.223   1.214   2.259
 4833TIP3    H114442   4.182   1.282   2.206
 4833TIP3    H214443   4.215   1.134   2.206
 4834TIP3   OH214444   5.926   3.916   0.847
 4834TIP3    H114445   5.830   3.918   0.838
 4834TIP3    H214446   5.956   3.989   0.794
 4835TIP3   OH214447   1.252   4.658   5.604
 4835TIP3    H114448   1.277   4.601   5.531
 4835TIP3    H214449   1.298   4.620   5.679
 4836TIP3   OH214450   3.482   2.580   0.334
 4836TIP3    H114451   3.412   2.620   0.386
 4836TIP3    H214452   3.551   2.646   0.333
 4837TIP3   OH214453   0.669   2.788   2.274
 4837TIP3    H114454   0.630   2.716   2.324
 4837TIP3    H214455   0.761   2.787   2.300
 4838TIP3   OH214456   6.001   4.029   6.417
 4838TIP3    H114457   5.975   4.113   6.455
 4838TIP3    H214458   5.981   4.038   6.324
 4839TIP3   OH214459   8.007   0.210   2.713
 4839TIP3    H114460   8.000   0.152   2.637
 4839TIP3    H214461   7.967   0.292   2.685
 4840TIP3   OH214462   6.573   2.014   2.537
 4840TIP3    H114463   6.612   2.095   2.568
 4840TIP3    H214464   6.496   2.042   2.488
 4841TIP3   OH214465   1.444   1.416   6.134
 4841TIP3    H114466   1.464   1.340   6.080
 4841TIP3    H214467   1.480   1.491   6.085
 4842TIP3   OH214468   1.842   1.099   2.532
 4842TIP3    H114469   1.893   1.070   2.608
 4842TIP3    H214470   1.797   1.020   2.501
 4843TIP3   OH214471   3.571   1.953   3.434
 4843TIP3    H114472   3.551   2.026   3.375
 4843TIP3    H214473   3.662   1.932   3.415
 4844TIP3   OH214474   5.738   6.559   2.849
 4844TIP3    H114475   5.751   6.471   2.884
 4844TIP3    H214476   5.750   6.617   2.925
 4845TIP3   OH214477   4.638   3.735   3.003
 4845TIP3    H114478   4.561   3.716   3.057
 4845TIP3    H214479   4.636   3.667   2.935
 4846TIP3   OH214480   2.543   5.285   3.684
 4846TIP3    H114481   2.484   5.351   3.649
 4846TIP3    H214482   2.531   5.209   3.626
 4847TIP3   OH214483   3.527   1.273   5.943
 4847TIP3    H114484   3.620   1.295   5.941
 4847TIP3    H214485   3.522   1.200   6.005
 4848TIP3   OH214486   3.612   6.841   3.714
 4848TIP3    H114487   3.697   6.870   3.682
 4848TIP3    H214488   3.631   6.762   3.765
 4849TIP3   OH214489   2.446   4.198   3.766
 4849TIP3    H114490   2.492   4.274   3.803
 4849TIP3    H214491   2.423   4.145   3.842
 4850TIP3   OH214492   3.330   2.055   0.585
 4850TIP3    H114493   3.269   2.064   0.511
 4850TIP3    H214494   3.311   1.967   0.620
 4851TIP3   OH214495   3.571   1.583   0.767
 4851TIP3    H114496   3.666   1.593   0.771
 4851TIP3    H214497   3.536   1.670   0.784
 4852TIP3   OH214498   6.798   4.008   2.905
 4852TIP3    H114499   6.749   4.091   2.905
 4852TIP3    H214500   6.736   3.943   2.874
 4853TIP3   OH214501   2.863   5.686   0.999
 4853TIP3    H114502   2.856   5.704   1.092
 4853TIP3    H214503   2.774   5.664   0.971
 4854TIP3   OH214504   3.684   7.281   1.500
 4854TIP3    H114505   3.732   7.360   1.522
 4854TIP3    H214506   3.683   7.230   1.581
 4855TIP3   OH214507   7.259   4.867   5.037
 4855TIP3    H114508   7.282   4.869   5.129
 4855TIP3    H214509   7.228   4.956   5.018
 4856TIP3   OH214510   7.753   4.127   5.363
 4856TIP3    H114511   7.729   4.095   5.276
 4856TIP3    H214512   7.674   4.115   5.416
 4857TIP3   OH214513   0.658   6.228   0.653
 4857TIP3    H114514   0.735   6.281   0.674
 4857TIP3    H214515   0.597   6.289   0.611
 4858TIP3   OH214516   7.884   4.779   1.577
 4858TIP3    H114517   7.816   4.735   1.525
 4858TIP3    H214518   7.865   4.872   1.568
 4859TIP3   OH214519   4.107   4.281   0.596
 4859TIP3    H114520   4.087   4.371   0.568
 4859TIP3    H214521   4.130   4.289   0.688
 4860TIP3   OH214522   1.032   6.103   0.011
 4860TIP3    H114523   1.008   6.065   0.096
 4860TIP3    H214524   0.992   6.045  -0.054
 4861TIP3   OH214525   6.936   0.691   2.549
 4861TIP3    H114526   6.914   0.675   2.458
 4861TIP3    H214527   7.030   0.674   2.554
 4862TIP3   OH214528   1.580   3.067   5.284
 4862TIP3    H114529   1.492   3.102   5.281
 4862TIP3    H214530   1.637   3.144   5.284
 4863TIP3   OH214531   5.816   7.715   0.773
 4863TIP3    H114532   5.778   7.707   0.860
 4863TIP3    H214533   5.902   7.674   0.781
 4864TIP3   OH214534   4.777   7.745   3.693
 4864TIP3    H114535   4.787   7.666   3.746
 4864TIP3    H214536   4.807   7.720   3.605
 4865TIP3   OH214537   5.891   3.746   6.291
 4865TIP3    H114538   5.979   3.724   6.261
 4865TIP3    H214539   5.857   3.806   6.225
 4866TIP3   OH214540   3.945   2.274   5.245
 4866TIP3    H114541   4.022   2.233   5.285
 4866TIP3    H214542   3.978   2.312   5.163
 4867TIP3   OH214543   0.157   4.776   4.188
 4867TIP3    H114544   0.159   4.683   4.209
 4867TIP3    H214545   0.073   4.789   4.143
 4868TIP3   OH214546   2.969   6.571   3.504
 4868TIP3    H114547   3.037   6.625   3.463
 4868TIP3    H214548   2.974   6.593   3.597
 4869TIP3   OH214549   5.086   6.534   4.072
 4869TIP3    H114550   5.120   6.580   3.996
 4869TIP3    H214551   5.027   6.596   4.114
 4870TIP3   OH214552   7.327   0.664   5.277
 4870TIP3    H114553   7.256   0.609   5.310
 4870TIP3    H214554   7.393   0.662   5.346
 4871TIP3   OH214555   4.545   3.931   2.085
 4871TIP3    H114556   4.627   3.909   2.131
 4871TIP3    H214557   4.511   3.847   2.056
 4872TIP3   OH214558   3.953   1.626   2.117
 4872TIP3    H114559   3.881   1.667   2.069
 4872TIP3    H214560   3.923   1.625   2.208
 4873TIP3   OH214561   3.367   0.553   4.440
 4873TIP3    H114562   3.326   0.467   4.429
 4873TIP3    H214563   3.386   0.582   4.351
 4874TIP3   OH214564   7.692   2.693   0.715
 4874TIP3    H114565   7.736   2.611   0.693
 4874TIP3    H214566   7.641   2.672   0.794
 4875TIP3   OH214567   3.198   7.549   1.575
 4875TIP3    H114568   3.166   7.487   1.640
 4875TIP3    H214569   3.294   7.545   1.581
 4876TIP3   OH214570   0.198   0.876   1.375
 4876TIP3    H114571   0.193   0.796   1.323
 4876TIP3    H214572   0.292   0.889   1.389
 4877TIP3   OH214573   4.896   6.565   5.780
 4877TIP3    H114574   4.888   6.496   5.714
 4877TIP3    H214575   4.807   6.575   5.814
 4878TIP3   OH214576   2.791   6.593   2.015
 4878TIP3    H114577   2.776   6.560   1.927
 4878TIP3    H214578   2.726   6.548   2.069
 4879TIP3   OH214579   5.178   0.014   2.506
 4879TIP3    H114580   5.193   0.106   2.487
 4879TIP3    H214581   5.120  -0.016   2.436
 4880TIP3   OH214582   0.466   6.444   6.572
 4880TIP3    H114583   0.433   6.369   6.522
 4880TIP3    H214584   0.543   6.473   6.523
 4881TIP3   OH214585   6.827   1.936   2.869
 4881TIP3    H114586   6.823   1.877   2.944
 4881TIP3    H214587   6.784   2.016   2.898
 4882TIP3   OH214588   2.012   2.797   3.459
 4882TIP3    H114589   1.947   2.727   3.463
 4882TIP3    H214590   1.974   2.862   3.400
 4883TIP3   OH214591   7.348   5.403   2.548
 4883TIP3    H114592   7.339   5.324   2.494
 4883TIP3    H214593   7.258   5.433   2.562
 4884TIP3   OH214594   8.106   5.880   2.013
 4884TIP3    H114595   8.155   5.828   2.077
 4884TIP3    H214596   8.141   5.852   1.928
 4885TIP3   OH214597   2.112   4.056   5.211
 4885TIP3    H114598   2.147   4.110   5.281
 4885TIP3    H214599   2.133   4.104   5.131
 4886TIP3   OH214600   1.796   2.644   0.248
 4886TIP3    H114601   1.788   2.610   0.159
 4886TIP3    H214602   1.707   2.640   0.283
 4887TIP3   OH214603   5.556   0.329   0.676
 4887TIP3    H114604   5.466   0.324   0.646
 4887TIP3    H214605   5.557   0.398   0.742
 4888TIP3   OH214606   2.778   7.597   3.216
 4888TIP3    H114607   2.718   7.590   3.142
 4888TIP3    H214608   2.858   7.553   3.187
 4889TIP3   OH214609   8.036   1.773   3.091
 4889TIP3    H114610   7.944   1.796   3.077
 4889TIP3    H214611   8.034   1.703   3.156
 4890TIP3   OH214612   7.651   2.506   5.489
 4890TIP3    H114613   7.577   2.524   5.547
 4890TIP3    H214614   7.635   2.419   5.455
 4891TIP3   OH214615   6.460   5.092   1.976
 4891TIP3    H114616   6.377   5.066   1.936
 4891TIP3    H214617   6.475   5.027   2.044
 4892TIP3   OH214618   2.436   1.159   3.249
 4892TIP3    H114619   2.450   1.084   3.191
 4892TIP3    H214620   2.500   1.147   3.320
 4893TIP3   OH214621   4.123   7.550   6.535
 4893TIP3    H114622   4.145   7.643   6.535
 4893TIP3    H214623   4.121   7.526   6.628
 4894TIP3   OH214624   1.553   3.052   4.208
 4894TIP3    H114625   1.603   2.977   4.176
 4894TIP3    H214626   1.504   3.018   4.282
 4895TIP3   OH214627   5.081   6.953   4.341
 4895TIP3    H114628   5.129   7.035   4.331
 4895TIP3    H214629   5.093   6.928   4.432
 4896TIP3   OH214630   4.148   6.778   1.503
 4896TIP3    H114631   4.058   6.759   1.529
 4896TIP3    H214632   4.148   6.764   1.408
 4897TIP3   OH214633   4.512   0.205   5.211
 4897TIP3    H114634   4.487   0.114   5.225
 4897TIP3    H214635   4.475   0.252   5.285
 4898TIP3   OH214636   6.830   0.530   2.760
 4898TIP3    H114637   6.832   0.582   2.679
 4898TIP3    H214638   6.737   0.518   2.778
 4899TIP3   OH214639   8.157   1.210   4.122
 4899TIP3    H114640   8.237   1.201   4.070
 4899TIP3    H214641   8.174   1.159   4.201
 4900TIP3   OH214642   1.993   6.332   1.780
 4900TIP3    H114643   1.987   6.251   1.830
 4900TIP3    H214644   2.087   6.347   1.771
 4901TIP3   OH214645   6.945   3.625   5.802
 4901TIP3    H114646   6.917   3.695   5.744
 4901TIP3    H214647   7.004   3.668   5.865
 4902TIP3   OH214648   3.086   5.048   1.185
 4902TIP3    H114649   3.156   5.065   1.248
 4902TIP3    H214650   3.020   4.999   1.234
 4903TIP3   OH214651   1.339   4.426   0.167
 4903TIP3    H114652   1.306   4.337   0.155
 4903TIP3    H214653   1.270   4.482   0.132
 4904TIP3   OH214654   2.270   1.295   4.571
 4904TIP3    H114655   2.193   1.242   4.552
 4904TIP3    H214656   2.330   1.278   4.499
 4905TIP3   OH214657   4.714   4.242   3.183
 4905TIP3    H114658   4.765   4.161   3.181
 4905TIP3    H214659   4.655   4.231   3.258
 4906TIP3   OH214660   0.337   1.278   5.620
 4906TIP3    H114661   0.329   1.193   5.577
 4906TIP3    H214662   0.396   1.263   5.693
 4907TIP3   OH214663   4.144   0.844   1.838
 4907TIP3    H114664   4.223   0.797   1.810
 4907TIP3    H214665   4.083   0.775   1.863
 4908TIP3   OH214666   6.536   6.001   6.561
 4908TIP3    H114667   6.575   6.043   6.485
 4908TIP3    H214668   6.609   5.957   6.605
 4909TIP3   OH214669   3.084   0.942   6.765
 4909TIP3    H114670   3.112   1.029   6.735
 4909TIP3    H214671   3.152   0.883   6.733
 4910TIP3   OH214672   4.813   1.850   3.966
 4910TIP3    H114673   4.890   1.904   3.950
 4910TIP3    H214674   4.824   1.775   3.907
 4911TIP3   OH214675   7.458   6.659   1.889
 4911TIP3    H114676   7.532   6.604   1.863
 4911TIP3    H214677   7.410   6.606   1.952
 4912TIP3   OH214678   3.777   0.913   4.802
 4912TIP3    H114679   3.830   0.915   4.882
 4912TIP3    H214680   3.740   1.001   4.796
 4913TIP3   OH214681   2.299   5.054   0.807
 4913TIP3    H114682   2.230   5.007   0.761
 4913TIP3    H214683   2.358   5.085   0.738
 4914TIP3   OH214684   4.943   2.980   0.756
 4914TIP3    H114685   4.957   2.888   0.779
 4914TIP3    H214686   4.961   3.028   0.836
 4915TIP3   OH214687   8.166   4.775   1.802
 4915TIP3    H114688   8.071   4.765   1.816
 4915TIP3    H214689   8.173   4.836   1.729
 4916TIP3   OH214690   2.057   2.008   4.649
 4916TIP3    H114691   1.968   2.004   4.614
 4916TIP3    H214692   2.047   2.037   4.739
 4917TIP3   OH214693   5.315   2.907   1.730
 4917TIP3    H114694   5.383   2.842   1.711
 4917TIP3    H214695   5.360   2.976   1.778
 4918TIP3   OH214696   6.369   1.905   1.323
 4918TIP3    H114697   6.462   1.921   1.333
 4918TIP3    H214698   6.337   1.980   1.271
 4919TIP3   OH214699   7.401   6.616   0.035
 4919TIP3    H114700   7.401   6.541  -0.024
 4919TIP3    H214701   7.315   6.656   0.023
 4920TIP3   OH214702   4.000   1.097   6.827
 4920TIP3    H114703   3.988   1.006   6.853
 4920TIP3    H214704   4.086   1.099   6.784
 4921TIP3   OH214705   2.767   1.551   3.450
 4921TIP3    H114706   2.770   1.612   3.523
 4921TIP3    H214707   2.848   1.500   3.458
 4922TIP3   OH214708   4.076   6.662   4.207
 4922TIP3    H114709   4.020   6.664   4.129
 4922TIP3    H214710   4.057   6.744   4.252
 4923TIP3   OH214711   4.417   0.954   0.712
 4923TIP3    H114712   4.474   1.030   0.718
 4923TIP3    H214713   4.334   0.983   0.751
 4924TIP3   OH214714   2.270   2.176   1.203
 4924TIP3    H114715   2.352   2.201   1.246
 4924TIP3    H214716   2.279   2.211   1.114
 4925TIP3   OH214717   0.980   2.146   4.477
 4925TIP3    H114718   1.070   2.123   4.502
 4925TIP3    H214719   0.928   2.073   4.509
 4926TIP3   OH214720   1.285   0.699   6.007
 4926TIP3    H114721   1.362   0.668   5.960
 4926TIP3    H214722   1.276   0.640   6.082
 4927TIP3   OH214723   3.243   4.405   5.771
 4927TIP3    H114724   3.337   4.409   5.752
 4927TIP3    H214725   3.237   4.356   5.853
 4928TIP3   OH214726   3.400   0.728   0.010
 4928TIP3    H114727   3.457   0.701  -0.062
 4928TIP3    H214728   3.439   0.809   0.043
 4929TIP3   OH214729   1.981   0.654   3.567
 4929TIP3    H114730   2.070   0.622   3.557
 4929TIP3    H214731   1.929   0.576   3.587
 4930TIP3   OH214732   7.759   2.163   6.401
 4930TIP3    H114733   7.789   2.200   6.318
 4930TIP3    H214734   7.781   2.229   6.466
 4931TIP3   OH214735   5.959   4.187   3.219
 4931TIP3    H114736   5.879   4.148   3.183
 4931TIP3    H214737   6.004   4.115   3.262
 4932TIP3   OH214738   1.650   5.584   2.089
 4932TIP3    H114739   1.625   5.540   2.008
 4932TIP3    H214740   1.634   5.677   2.072
 4933TIP3   OH214741   0.522   1.541   2.130
 4933TIP3    H114742   0.599   1.530   2.186
 4933TIP3    H214743   0.478   1.456   2.133
 4934TIP3   OH214744   1.823   0.470   1.718
 4934TIP3    H114745   1.846   0.480   1.810
 4934TIP3    H214746   1.743   0.523   1.707
 4935TIP3   OH214747   6.415   2.037   0.355
 4935TIP3    H114748   6.456   2.108   0.306
 4935TIP3    H214749   6.464   2.034   0.438
 4936TIP3   OH214750   7.280   1.810   1.486
 4936TIP3    H114751   7.295   1.793   1.579
 4936TIP3    H214752   7.361   1.847   1.454
 4937TIP3   OH214753   0.704   1.434   3.079
 4937TIP3    H114754   0.685   1.388   2.997
 4937TIP3    H214755   0.768   1.501   3.055
 4938TIP3   OH214756   6.222   4.344   4.730
 4938TIP3    H114757   6.283   4.382   4.667
 4938TIP3    H214758   6.162   4.416   4.751
 4939TIP3   OH214759   1.960   3.843   2.331
 4939TIP3    H114760   1.876   3.804   2.359
 4939TIP3    H214761   1.995   3.883   2.411
 4940TIP3   OH214762   6.456   2.457   4.757
 4940TIP3    H114763   6.498   2.422   4.679
 4940TIP3    H214764   6.438   2.548   4.737
 4941TIP3   OH214765   3.942   3.057   5.188
 4941TIP3    H114766   3.946   3.130   5.127
 4941TIP3    H214767   3.980   2.983   5.141
 4942TIP3   OH214768   5.980   1.310   5.788
 4942TIP3    H114769   5.956   1.271   5.704
 4942TIP3    H214770   6.043   1.249   5.826
 4943TIP3   OH214771   7.322   5.546   4.554
 4943TIP3    H114772   7.306   5.589   4.638
 4943TIP3    H214773   7.236   5.513   4.528
 4944TIP3   OH214774   6.809   0.139   4.848
 4944TIP3    H114775   6.893   0.118   4.890
 4944TIP3    H214776   6.743   0.100   4.906
 4945TIP3   OH214777   6.507   0.605   6.315
 4945TIP3    H114778   6.555   0.671   6.364
 4945TIP3    H214779   6.425   0.648   6.290
 4946TIP3   OH214780   2.775   5.635   2.725
 4946TIP3    H114781   2.856   5.620   2.774
 4946TIP3    H214782   2.796   5.609   2.635
 4947TIP3   OH214783   2.223   4.780   4.246
 4947TIP3    H114784   2.167   4.833   4.303
 4947TIP3    H214785   2.226   4.695   4.288
 4948TIP3   OH214786   6.651   5.728   4.948
 4948TIP3    H114787   6.725   5.778   4.913
 4948TIP3    H214788   6.648   5.648   4.895
 4949TIP3   OH214789   4.457   0.319   1.820
 4949TIP3    H114790   4.476   0.379   1.748
 4949TIP3    H214791   4.507   0.240   1.799
 4950TIP3   OH214792   0.400   3.780   0.299
 4950TIP3    H114793   0.477   3.774   0.243
 4950TIP3    H214794   0.414   3.860   0.350
 4951TIP3   OH214795   6.201   6.215   6.465
 4951TIP3    H114796   6.214   6.132   6.511
 4951TIP3    H214797   6.110   6.213   6.435
 4952TIP3   OH214798   4.184   2.926   3.484
 4952TIP3    H114799   4.241   2.850   3.496
 4952TIP3    H214800   4.108   2.908   3.538
 4953TIP3   OH214801   7.644   2.376   6.184
 4953TIP3    H114802   7.646   2.376   6.089
 4953TIP3    H214803   7.727   2.417   6.210
 4954TIP3   OH214804   6.010   4.601   5.773
 4954TIP3    H114805   6.009   4.679   5.717
 4954TIP3    H214806   6.085   4.550   5.742
 4955TIP3   OH214807   1.434   1.804   4.178
 4955TIP3    H114808   1.528   1.822   4.185
 4955TIP3    H214809   1.402   1.809   4.268
 4956TIP3   OH214810   1.167   7.252   1.076
 4956TIP3    H114811   1.071   7.256   1.079
 4956TIP3    H214812   1.196   7.340   1.099
 4957TIP3   OH214813   7.920   5.716   1.357
 4957TIP3    H114814   8.003   5.694   1.400
 4957TIP3    H214815   7.885   5.790   1.407
 4958TIP3   OH214816   7.642   4.143   5.910
 4958TIP3    H114817   7.711   4.202   5.879
 4958TIP3    H214818   7.687   4.080   5.966
 4959TIP3   OH214819   7.741   4.874   6.563
 4959TIP3    H114820   7.792   4.938   6.614
 4959TIP3    H214821   7.670   4.849   6.622
 4960TIP3   OH214822   5.073   4.869   3.420
 4960TIP3    H114823   5.006   4.831   3.362
 4960TIP3    H214824   5.026   4.935   3.470
 4961TIP3   OH214825   7.640   2.173   4.133
 4961TIP3    H114826   7.704   2.170   4.204
 4961TIP3    H214827   7.556   2.189   4.177
 4962TIP3   OH214828   7.884   0.668   6.522
 4962TIP3    H114829   7.920   0.692   6.607
 4962TIP3    H214830   7.793   0.697   6.526
 4963TIP3   OH214831   3.080   6.823   1.166
 4963TIP3    H114832   3.022   6.822   1.242
 4963TIP3    H214833   3.035   6.772   1.100
 4964TIP3   OH214834   1.147   3.130   6.253
 4964TIP3    H114835   1.229   3.134   6.303
 4964TIP3    H214836   1.172   3.101   6.166
 4965TIP3   OH214837   1.968   4.013   3.689
 4965TIP3    H114838   1.956   3.946   3.622
 4965TIP3    H214839   2.013   3.968   3.761
 4966TIP3   OH214840   7.045   4.235   0.272
 4966TIP3    H114841   7.140   4.227   0.268
 4966TIP3    H214842   7.027   4.263   0.362
 4967TIP3   OH214843   0.034   0.820   6.484
 4967TIP3    H114844   0.040   0.817   6.579
 4967TIP3    H214845  -0.030   0.889   6.467
 4968TIP3   OH214846   8.329   4.199   1.754
 4968TIP3    H114847   8.278   4.271   1.792
 4968TIP3    H214848   8.263   4.137   1.724
 4969TIP3   OH214849   2.817   3.856   0.407
 4969TIP3    H114850   2.774   3.771   0.418
 4969TIP3    H214851   2.746   3.920   0.404
 4970TIP3   OH214852   1.497   0.144   3.419
 4970TIP3    H114853   1.466   0.060   3.451
 4970TIP3    H214854   1.420   0.185   3.379
 4971TIP3   OH214855   3.752   6.071   4.930
 4971TIP3    H114856   3.700   6.133   4.982
 4971TIP3    H214857   3.764   6.115   4.845
 4972TIP3   OH214858   7.789   6.935   0.872
 4972TIP3    H114859   7.835   6.887   0.804
 4972TIP3    H214860   7.823   7.024   0.867
 4973TIP3   OH214861   1.357   3.800   0.864
 4973TIP3    H114862   1.446   3.767   0.878
 4973TIP3    H214863   1.317   3.797   0.951
 4974TIP3   OH214864   0.331   2.086   4.695
 4974TIP3    H114865   0.303   2.065   4.784
 4974TIP3    H214866   0.404   2.147   4.707
 4975TIP3   OH214867   5.434   1.554   6.350
 4975TIP3    H114868   5.469   1.477   6.306
 4975TIP3    H214869   5.373   1.592   6.286
 4976TIP3   OH214870   2.284   1.595   0.935
 4976TIP3    H114871   2.241   1.530   0.879
 4976TIP3    H214872   2.229   1.598   1.014
 4977TIP3   OH214873   3.367   6.934   3.518
 4977TIP3    H114874   3.303   7.005   3.515
 4977TIP3    H214875   3.418   6.945   3.438
 4978TIP3   OH214876   5.082   1.291   3.897
 4978TIP3    H114877   4.997   1.303   3.854
 4978TIP3    H214878   5.061   1.246   3.979
 4979TIP3   OH214879   6.796   2.585   6.720
 4979TIP3    H114880   6.761   2.674   6.718
 4979TIP3    H214881   6.888   2.596   6.742
 4980TIP3   OH214882   0.903   2.628   3.832
 4980TIP3    H114883   0.960   2.601   3.760
 4980TIP3    H214884   0.909   2.557   3.896
 4981TIP3   OH214885   5.237   6.638   0.156
 4981TIP3    H114886   5.273   6.661   0.070
 4981TIP3    H214887   5.243   6.542   0.159
 4982TIP3   OH214888   3.095   4.633   6.226
 4982TIP3    H114889   3.138   4.629   6.312
 4982TIP3    H214890   3.003   4.649   6.246
 4983TIP3   OH214891   5.111   7.135   3.553
 4983TIP3    H114892   5.046   7.066   3.569
 4983TIP3    H214893   5.083   7.174   3.470
 4984TIP3   OH214894   0.600   7.613   1.219
 4984TIP3    H114895   0.682   7.600   1.171
 4984TIP3    H214896   0.534   7.569   1.166
 4985TIP3   OH214897   7.358   1.720   1.725
 4985TIP3    H114898   7.394   1.635   1.751
 4985TIP3    H214899   7.393   1.781   1.790
 4986TIP3   OH214900   3.850   5.684   2.676
 4986TIP3    H114901   3.892   5.766   2.703
 4986TIP3    H214902   3.901   5.615   2.720
 4987TIP3   OH214903   2.973   1.967   2.028
 4987TIP3    H114904   2.992   2.053   2.064
 4987TIP3    H214905   3.024   1.963   1.947
 4988TIP3   OH214906   7.594   6.247   1.629
 4988TIP3    H114907   7.624   6.287   1.710
 4988TIP3    H214908   7.542   6.316   1.586
 4989TIP3   OH214909   7.220   0.776   3.657
 4989TIP3    H114910   7.197   0.765   3.564
 4989TIP3    H214911   7.142   0.815   3.695
 4990TIP3   OH214912   1.445   3.663   3.588
 4990TIP3    H114913   1.482   3.638   3.503
 4990TIP3    H214914   1.396   3.587   3.617
 4991TIP3   OH214915   1.896   6.887   2.828
 4991TIP3    H114916   1.900   6.809   2.883
 4991TIP3    H214917   1.898   6.852   2.738
 4992TIP3   OH214918   5.565   6.651   6.794
 4992TIP3    H114919   5.557   6.743   6.769
 4992TIP3    H214920   5.486   6.609   6.760
 4993TIP3   OH214921   7.654   6.640   0.137
 4993TIP3    H114922   7.582   6.600   0.089
 4993TIP3    H214923   7.733   6.603   0.096
 4994TIP3   OH214924   3.142   7.253   3.981
 4994TIP3    H114925   3.100   7.168   3.994
 4994TIP3    H214926   3.088   7.296   3.914
 4995TIP3   OH214927   6.034   0.092   4.367
 4995TIP3    H114928   5.949   0.050   4.356
 4995TIP3    H214929   6.087   0.029   4.416
 4996TIP3   OH214930   5.097   4.001   1.125
 4996TIP3    H114931   5.157   4.053   1.178
 4996TIP3    H214932   5.069   3.929   1.182
 4997TIP3   OH214933   1.706   2.491   5.635
 4997TIP3    H114934   1.724   2.413   5.688
 4997TIP3    H214935   1.792   2.534   5.628
 4998TIP3   OH214936   6.292   0.386   6.031
 4998TIP3    H114937   6.203   0.421   6.039
 4998TIP3    H214938   6.314   0.358   6.120
 4999TIP3   OH214939   6.057   4.565   1.049
 4999TIP3    H114940   5.990   4.496   1.049
 4999TIP3    H214941   6.131   4.525   1.004
 5000TIP3   OH214942   5.470   4.982   2.787
 5000TIP3    H114943   5.434   5.044   2.850
 5000TIP3    H214944   5.565   4.992   2.794
 5001TIP3   OH214945   3.215   4.723   0.741
 5001TIP3    H114946   3.232   4.638   0.781
 5001TIP3    H214947   3.279   4.729   0.670
 5002TIP3   OH214948   2.120   5.509   2.559
 5002TIP3    H114949   2.061   5.571   2.602
 5002TIP3    H214950   2.186   5.564   2.517
 5003TIP3   OH214951   5.828   7.560   5.927
 5003TIP3    H114952   5.872   7.576   6.011
 5003TIP3    H214953   5.881   7.609   5.864
 5004TIP3   OH214954   5.337   1.962   0.589
 5004TIP3    H114955   5.331   2.045   0.541
 5004TIP3    H214956   5.329   1.895   0.521
 5005TIP3   OH214957   4.882   3.841   6.678
 5005TIP3    H114958   4.882   3.923   6.727
 5005TIP3    H214959   4.974   3.823   6.660
 5006TIP3   OH214960   5.451   6.330   6.173
 5006TIP3    H114961   5.534   6.358   6.210
 5006TIP3    H214962   5.387   6.345   6.242
 5007TIP3   OH214963   4.234   6.129   2.674
 5007TIP3    H114964   4.239   6.133   2.579
 5007TIP3    H214965   4.141   6.135   2.694
 5008TIP3   OH214966   7.407   1.978   5.860
 5008TIP3    H114967   7.441   1.907   5.806
 5008TIP3    H214968   7.485   2.016   5.901
 5009TIP3   OH214969   7.837   3.200   4.040
 5009TIP3    H114970   7.837   3.170   3.949
 5009TIP3    H214971   7.908   3.151   4.082
 5010TIP3   OH214972   6.724   0.873   5.242
 5010TIP3    H114973   6.815   0.848   5.252
 5010TIP3    H214974   6.726   0.954   5.191
 5011TIP3   OH214975   3.785   3.032   2.854
 5011TIP3    H114976   3.734   3.068   2.927
 5011TIP3    H214977   3.845   2.970   2.895
 5012TIP3   OH214978   6.978   6.146   0.078
 5012TIP3    H114979   6.886   6.136   0.103
 5012TIP3    H214980   7.020   6.180   0.156
 5013TIP3   OH214981   1.893   6.387   6.645
 5013TIP3    H114982   1.956   6.417   6.710
 5013TIP3    H214983   1.925   6.300   6.619
 5014TIP3   OH214984   0.223   4.599   0.582
 5014TIP3    H114985   0.174   4.550   0.648
 5014TIP3    H214986   0.294   4.540   0.555
 5015TIP3   OH214987   7.737   1.094   3.281
 5015TIP3    H114988   7.670   1.096   3.349
 5015TIP3    H214989   7.804   1.155   3.313
 5016TIP3   OH214990   5.330   5.865   4.280
 5016TIP3    H114991   5.375   5.815   4.348
 5016TIP3    H214992   5.386   5.941   4.264
 5017TIP3   OH214993   4.223   0.182   3.353
 5017TIP3    H114994   4.312   0.212   3.340
 5017TIP3    H214995   4.174   0.260   3.380
 5018TIP3   OH214996   2.887   2.323   2.890
 5018TIP3    H114997   2.850   2.308   2.803
 5018TIP3    H214998   2.853   2.252   2.944
 5019TIP3   OH214999   5.345   4.139   6.006
 5019TIP3    H115000   5.340   4.227   6.043
 5019TIP3    H215001   5.259   4.101   6.020
 5020TIP3   OH215002   1.640   4.145   6.520
 5020TIP3    H115003   1.703   4.086   6.478
 5020TIP3    H215004   1.694   4.202   6.575
 5021TIP3   OH215005   1.387   7.081   5.089
 5021TIP3    H115006   1.368   7.159   5.037
 5021TIP3    H215007   1.318   7.019   5.065
 5022TIP3   OH215008   6.602   0.730   4.413
 5022TIP3    H115009   6.508   0.739   4.402
 5022TIP3    H215010   6.618   0.752   4.505
 5023TIP3   OH215011   2.229   5.525   5.766
 5023TIP3    H115012   2.228   5.438   5.806
 5023TIP3    H215013   2.239   5.585   5.840
 5024TIP3   OH215014   0.512   4.839   3.206
 5024TIP3    H115015   0.479   4.929   3.212
 5024TIP3    H215016   0.607   4.850   3.200
 5025TIP3   OH215017   5.583   3.619   3.087
 5025TIP3    H115018   5.600   3.532   3.123
 5025TIP3    H215019   5.524   3.603   3.013
 5026TIP3   OH215020   5.103   7.182   1.391
 5026TIP3    H115021   5.064   7.135   1.465
 5026TIP3    H215022   5.197   7.173   1.405
 5027TIP3   OH215023   6.133   5.412   4.196
 5027TIP3    H115024   6.180   5.376   4.121
 5027TIP3    H215025   6.061   5.461   4.157
 5028TIP3   OH215026   5.601   6.525   4.382
 5028TIP3    H115027   5.545   6.548   4.308
 5028TIP3    H215028   5.686   6.504   4.343
 5029TIP3   OH215029   2.472   6.800   0.817
 5029TIP3    H115030   2.474   6.856   0.740
 5029TIP3    H215031   2.549   6.827   0.868
 5030TIP3   OH215032   5.642   3.396   3.593
 5030TIP3    H115033   5.632   3.304   3.616
 5030TIP3    H215034   5.552   3.430   3.593
 5031TIP3   OH215035   4.101   2.999   5.433
 5031TIP3    H115036   4.046   3.037   5.364
 5031TIP3    H215037   4.190   3.017   5.404
 5032TIP3   OH215038   8.094   7.196   3.528
 5032TIP3    H115039   8.092   7.151   3.444
 5032TIP3    H215040   8.039   7.274   3.515
 5033TIP3   OH215041   5.842   2.855   5.168
 5033TIP3    H115042   5.902   2.919   5.129
 5033TIP3    H215043   5.819   2.797   5.095
 5034TIP3   OH215044   1.886   5.899   5.594
 5034TIP3    H115045   1.839   5.830   5.641
 5034TIP3    H215046   1.951   5.932   5.657
 5035TIP3   OH215047   7.896   0.898   2.087
 5035TIP3    H115048   7.822   0.840   2.106
 5035TIP3    H215049   7.951   0.848   2.026
 5036TIP3   OH215050   5.594   3.740   4.083
 5036TIP3    H115051   5.581   3.748   3.989
 5036TIP3    H215052   5.578   3.828   4.117
 5037TIP3   OH215053   7.478   3.545   3.088
 5037TIP3    H115054   7.525   3.617   3.046
 5037TIP3    H215055   7.393   3.583   3.112
 5038TIP3   OH215056   5.934   0.308   1.736
 5038TIP3    H115057   5.954   0.365   1.809
 5038TIP3    H215058   5.955   0.220   1.767
 5039TIP3   OH215059   6.978   0.129   0.864
 5039TIP3    H115060   7.042   0.198   0.881
 5039TIP3    H215061   6.983   0.072   0.940
 5040TIP3   OH215062   5.571   1.589   1.964
 5040TIP3    H115063   5.655   1.634   1.967
 5040TIP3    H215064   5.559   1.567   1.871
 5041TIP3   OH215065   4.903   4.677   4.735
 5041TIP3    H115066   4.893   4.747   4.799
 5041TIP3    H215067   4.932   4.720   4.655
 5042TIP3   OH215068   7.544   0.229   6.069
 5042TIP3    H115069   7.538   0.321   6.097
 5042TIP3    H215070   7.489   0.224   5.990
 5043TIP3   OH215071   7.674   1.074   3.771
 5043TIP3    H115072   7.581   1.061   3.753
 5043TIP3    H215073   7.684   1.169   3.778
 5044TIP3   OH215074   6.081   0.732   4.785
 5044TIP3    H115075   6.109   0.821   4.765
 5044TIP3    H215076   6.029   0.740   4.865
 5045TIP3   OH215077   5.522   6.184   2.675
 5045TIP3    H115078   5.476   6.216   2.752
 5045TIP3    H215079   5.458   6.192   2.604
 5046TIP3   OH215080   2.992   4.218   6.286
 5046TIP3    H115081   3.014   4.241   6.196
 5046TIP3    H215082   2.969   4.301   6.327
 5047TIP3   OH215083   1.548   3.586   1.659
 5047TIP3    H115084   1.586   3.541   1.734
 5047TIP3    H215085   1.554   3.679   1.680
 5048TIP3   OH215086   5.720   5.782   0.807
 5048TIP3    H115087   5.711   5.700   0.759
 5048TIP3    H215088   5.761   5.842   0.744
 5049TIP3   OH215089   5.290   6.383   1.971
 5049TIP3    H115090   5.244   6.412   2.050
 5049TIP3    H215091   5.338   6.306   1.999
 5050TIP3   OH215092   3.381   1.799   0.861
 5050TIP3    H115093   3.306   1.801   0.802
 5050TIP3    H215094   3.351   1.750   0.937
 5051TIP3   OH215095   7.324   5.780   6.409
 5051TIP3    H115096   7.387   5.811   6.474
 5051TIP3    H215097   7.354   5.692   6.386
 5052TIP3   OH215098   1.452   0.569   5.641
 5052TIP3    H115099   1.472   0.475   5.638
 5052TIP3    H215100   1.502   0.602   5.716
 5053TIP3   OH215101   3.187   1.616   0.255
 5053TIP3    H115102   3.207   1.574   0.338
 5053TIP3    H215103   3.188   1.545   0.191
 5054TIP3   OH215104   4.172   0.679   2.091
 5054TIP3    H115105   4.237   0.703   2.157
 5054TIP3    H215106   4.088   0.697   2.133
 5055TIP3   OH215107   4.443   5.264   1.633
 5055TIP3    H115108   4.369   5.230   1.684
 5055TIP3    H215109   4.403   5.294   1.551
 5056TIP3   OH215110   7.527   2.102   2.821
 5056TIP3    H115111   7.476   2.118   2.742
 5056TIP3    H215112   7.466   2.117   2.893
 5057TIP3   OH215113   2.743   6.362   4.235
 5057TIP3    H115114   2.796   6.301   4.288
 5057TIP3    H215115   2.790   6.367   4.152
 5058TIP3   OH215116   1.010   4.115   6.045
 5058TIP3    H115117   1.013   4.208   6.024
 5058TIP3    H215118   1.100   4.085   6.040
 5059TIP3   OH215119   3.225   5.529   1.845
 5059TIP3    H115120   3.232   5.548   1.938
 5059TIP3    H215121   3.138   5.491   1.834
 5060TIP3   OH215122   6.599   5.525   6.139
 5060TIP3    H115123   6.548   5.605   6.145
 5060TIP3    H215124   6.555   5.473   6.071
 5061TIP3   OH215125   6.199   1.011   4.681
 5061TIP3    H115126   6.125   1.065   4.709
 5061TIP3    H215127   6.238   1.059   4.609
 5062TIP3   OH215128   0.201   4.924   4.709
 5062TIP3    H115129   0.119   4.878   4.725
 5062TIP3    H215130   0.266   4.855   4.694
 5063TIP3   OH215131   7.149   1.412   5.028
 5063TIP3    H115132   7.182   1.498   5.003
 5063TIP3    H215133   7.223   1.353   5.013
 5064TIP3   OH215134   4.481   6.584   2.197
 5064TIP3    H115135   4.431   6.665   2.207
 5064TIP3    H215136   4.512   6.586   2.106
 5065TIP3   OH215137   4.470   1.983   2.242
 5065TIP3    H115138   4.524   2.013   2.315
 5065TIP3    H215139   4.380   2.000   2.270
 5066TIP3   OH215140   6.109   0.097   6.747
 5066TIP3    H115141   6.022   0.094   6.706
 5066TIP3    H215142   6.091   0.105   6.840
 5067TIP3   OH215143   2.163   5.714   1.691
 5067TIP3    H115144   2.093   5.663   1.648
 5067TIP3    H215145   2.138   5.805   1.678
 5068TIP3   OH215146   4.603   2.153   3.462
 5068TIP3    H115147   4.537   2.207   3.505
 5068TIP3    H215148   4.557   2.072   3.439
 5069TIP3   OH215149   3.914   5.779   1.769
 5069TIP3    H115150   3.854   5.810   1.701
 5069TIP3    H215151   3.954   5.859   1.804
 5070TIP3   OH215152   1.207   0.891   1.697
 5070TIP3    H115153   1.140   0.938   1.747
 5070TIP3    H215154   1.265   0.960   1.665
 5071TIP3   OH215155   1.410   0.226   5.837
 5071TIP3    H115156   1.488   0.231   5.782
 5071TIP3    H215157   1.337   0.240   5.777
 5072TIP3   OH215158   1.995   1.054   4.984
 5072TIP3    H115159   2.039   1.012   4.910
 5072TIP3    H215160   1.902   1.033   4.970
 5073TIP3   OH215161   6.962   3.608   3.354
 5073TIP3    H115162   7.019   3.602   3.430
 5073TIP3    H215163   6.925   3.520   3.345
 5074TIP3   OH215164   2.560   5.075   2.129
 5074TIP3    H115165   2.537   5.132   2.202
 5074TIP3    H215166   2.643   5.035   2.155
 5075TIP3   OH215167   1.742   2.364   6.741
 5075TIP3    H115168   1.704   2.386   6.826
 5075TIP3    H215169   1.670   2.323   6.692
 5076TIP3   OH215170   2.284   0.594   1.016
 5076TIP3    H115171   2.240   0.633   0.941
 5076TIP3    H215172   2.376   0.589   0.990
 5077TIP3   OH215173   1.082   0.567   6.711
 5077TIP3    H115174   1.045   0.650   6.738
 5077TIP3    H215175   1.008   0.506   6.713
 5078TIP3   OH215176   7.719   3.920   6.385
 5078TIP3    H115177   7.645   3.861   6.401
 5078TIP3    H215178   7.709   3.948   6.294
 5079TIP3   OH215179   3.559   2.186   4.988
 5079TIP3    H115180   3.643   2.231   4.975
 5079TIP3    H215181   3.572   2.136   5.068
 5080TIP3   OH215182   2.617   2.395   3.192
 5080TIP3    H115183   2.667   2.385   3.273
 5080TIP3    H215184   2.581   2.484   3.198
 5081TIP3   OH215185   2.997   2.821   5.857
 5081TIP3    H115186   3.058   2.833   5.784
 5081TIP3    H215187   2.983   2.727   5.861
 5082TIP3   OH215188   1.848   7.697   2.271
 5082TIP3    H115189   1.788   7.627   2.247
 5082TIP3    H215190   1.914   7.699   2.202
 5083TIP3   OH215191   0.453   5.668   2.325
 5083TIP3    H115192   0.427   5.699   2.412
 5083TIP3    H215193   0.371   5.667   2.275
 5084TIP3   OH215194   3.784   7.525   1.562
 5084TIP3    H115195   3.725   7.576   1.618
 5084TIP3    H215196   3.859   7.506   1.618
 5085TIP3   OH215197   1.246   3.331   3.473
 5085TIP3    H115198   1.159   3.350   3.507
 5085TIP3    H215199   1.304   3.343   3.549
 5086TIP3   OH215200   3.990   2.650   1.062
 5086TIP3    H115201   3.913   2.706   1.047
 5086TIP3    H215202   3.963   2.563   1.033
 5087TIP3   OH215203   4.779   6.128   3.557
 5087TIP3    H115204   4.725   6.051   3.576
 5087TIP3    H215205   4.869   6.097   3.563
 5088TIP3   OH215206   0.715   4.435   5.851
 5088TIP3    H115207   0.776   4.504   5.875
 5088TIP3    H215208   0.729   4.366   5.916
 5089TIP3   OH215209   3.833   0.823   5.150
 5089TIP3    H115210   3.846   0.742   5.100
 5089TIP3    H215211   3.817   0.794   5.239
 5090TIP3   OH215212   3.432   7.629   3.962
 5090TIP3    H115213   3.457   7.656   3.874
 5090TIP3    H215214   3.340   7.653   3.969
 5091TIP3   OH215215   0.190   6.795   4.679
 5091TIP3    H115216   0.234   6.866   4.726
 5091TIP3    H215217   0.168   6.832   4.593
 5092TIP3   OH215218   4.477   6.853   5.129
 5092TIP3    H115219   4.392   6.882   5.097
 5092TIP3    H215220   4.540   6.916   5.092
 5093TIP3   OH215221   1.640   5.138   6.102
 5093TIP3    H115222   1.661   5.111   6.012
 5093TIP3    H215223   1.545   5.148   6.102
 5094TIP3   OH215224   4.824   3.419   3.881
 5094TIP3    H115225   4.807   3.360   3.955
 5094TIP3    H215226   4.878   3.489   3.918
 5095TIP3   OH215227   3.670   7.569   4.974
 5095TIP3    H115228   3.627   7.594   5.056
 5095TIP3    H215229   3.702   7.481   4.990
 5096TIP3   OH215230   0.181   0.388   5.286
 5096TIP3    H115231   0.122   0.314   5.270
 5096TIP3    H215232   0.269   0.350   5.282
 5097TIP3   OH215233   7.932   2.345   4.479
 5097TIP3    H115234   7.995   2.413   4.504
 5097TIP3    H215235   7.983   2.283   4.428
 5098TIP3   OH215236   0.188   1.579   2.346
 5098TIP3    H115237   0.126   1.581   2.420
 5098TIP3    H215238   0.221   1.490   2.344
 5099TIP3   OH215239   8.109   5.226   5.645
 5099TIP3    H115240   8.039   5.162   5.661
 5099TIP3    H215241   8.082   5.272   5.566
 5100TIP3   OH215242   3.226   3.286   0.064
 5100TIP3    H115243   3.284   3.239   0.005
 5100TIP3    H215244   3.279   3.303   0.142
 5101TIP3   OH215245   5.877   1.405   2.787
 5101TIP3    H115246   5.929   1.385   2.865
 5101TIP3    H215247   5.814   1.333   2.780
 5102TIP3   OH215248   1.596   5.799   5.058
 5102TIP3    H115249   1.568   5.776   4.970
 5102TIP3    H215250   1.535   5.868   5.085
 5103TIP3   OH215251   1.150   5.443   1.602
 5103TIP3    H115252   1.187   5.386   1.535
 5103TIP3    H215253   1.225   5.468   1.656
 5104TIP3   OH215254   6.718   5.746   3.947
 5104TIP3    H115255   6.784   5.808   3.978
 5104TIP3    H215256   6.722   5.673   4.008
 5105TIP3   OH215257   7.832   3.096   0.462
 5105TIP3    H115258   7.812   3.177   0.510
 5105TIP3    H215259   7.927   3.087   0.468
 5106TIP3   OH215260   8.102   3.625   0.080
 5106TIP3    H115261   8.112   3.532   0.061
 5106TIP3    H215262   8.007   3.638   0.088
 5107TIP3   OH215263   2.745   3.426   3.352
 5107TIP3    H115264   2.778   3.403   3.439
 5107TIP3    H215265   2.673   3.488   3.370
 5108TIP3   OH215266   2.928   0.854   6.251
 5108TIP3    H115267   2.919   0.920   6.183
 5108TIP3    H215268   2.969   0.900   6.325
 5109TIP3   OH215269   3.672   1.381   2.637
 5109TIP3    H115270   3.618   1.330   2.697
 5109TIP3    H215271   3.746   1.324   2.617
 5110TIP3   OH215272   4.604   5.507   4.061
 5110TIP3    H115273   4.544   5.581   4.071
 5110TIP3    H215274   4.559   5.434   4.103
 5111TIP3   OH215275   3.880   7.164   3.783
 5111TIP3    H115276   3.806   7.110   3.757
 5111TIP3    H215277   3.876   7.167   3.879
 5112TIP3   OH215278   3.997   1.383   1.235
 5112TIP3    H115279   3.942   1.403   1.311
 5112TIP3    H215280   3.942   1.401   1.159
 5113TIP3   OH215281   1.119   6.583   0.727
 5113TIP3    H115282   1.094   6.663   0.681
 5113TIP3    H215283   1.189   6.610   0.787
 5114TIP3   OH215284   2.802   4.965   2.461
 5114TIP3    H115285   2.803   4.979   2.366
 5114TIP3    H215286   2.778   5.050   2.498
 5115TIP3   OH215287   2.046   3.946   6.485
 5115TIP3    H115288   2.028   3.955   6.579
 5115TIP3    H215289   2.141   3.940   6.479
 5116TIP3   OH215290   4.745   7.777   3.206
 5116TIP3    H115291   4.824   7.775   3.151
 5116TIP3    H215292   4.677   7.738   3.151
 5117TIP3   OH215293   7.267   4.367   4.918
 5117TIP3    H115294   7.229   4.446   4.956
 5117TIP3    H215295   7.357   4.391   4.897
 5118TIP3   OH215296   3.243   6.246   5.832
 5118TIP3    H115297   3.238   6.237   5.928
 5118TIP3    H215298   3.262   6.339   5.819
 5119TIP3   OH215299   4.910   7.825   0.349
 5119TIP3    H115300   4.983   7.784   0.303
 5119TIP3    H215301   4.837   7.764   0.338
 5120TIP3   OH215302   4.265   2.550   5.175
 5120TIP3    H115303   4.344   2.512   5.215
 5120TIP3    H215304   4.288   2.562   5.083
 5121TIP3   OH215305   1.432   4.128   3.719
 5121TIP3    H115306   1.431   4.054   3.658
 5121TIP3    H215307   1.340   4.152   3.730
 5122TIP3   OH215308   0.962   0.556   0.539
 5122TIP3    H115309   1.027   0.486   0.545
 5122TIP3    H215310   0.962   0.596   0.626
 5123TIP3   OH215311   7.672   2.256   3.142
 5123TIP3    H115312   7.584   2.275   3.110
 5123TIP3    H215313   7.713   2.342   3.152
 5124TIP3   OH215314   2.518   3.754   2.257
 5124TIP3    H115315   2.431   3.717   2.239
 5124TIP3    H215316   2.578   3.697   2.209
 5125TIP3   OH215317   7.028   3.308   0.549
 5125TIP3    H115318   6.983   3.393   0.545
 5125TIP3    H215319   7.084   3.314   0.627
 5126TIP3   OH215320   6.214   3.040   0.894
 5126TIP3    H115321   6.244   3.001   0.813
 5126TIP3    H215322   6.175   2.967   0.943
 5127TIP3   OH215323   0.913   2.264   5.656
 5127TIP3    H115324   0.906   2.225   5.569
 5127TIP3    H215325   0.843   2.328   5.660
 5128TIP3   OH215326   7.560   1.934   3.907
 5128TIP3    H115327   7.499   1.998   3.946
 5128TIP3    H215328   7.633   1.929   3.969
 5129TIP3   OH215329   7.265   2.423   2.526
 5129TIP3    H115330   7.234   2.493   2.583
 5129TIP3    H215331   7.199   2.354   2.535
 5130TIP3   OH215332   7.114   2.563   3.098
 5130TIP3    H115333   7.111   2.545   3.191
 5130TIP3    H215334   7.205   2.591   3.082
 5131TIP3   OH215335   7.389   4.629   5.172
 5131TIP3    H115336   7.352   4.686   5.239
 5131TIP3    H215337   7.338   4.648   5.093
 5132TIP3   OH215338   3.487   3.419   4.072
 5132TIP3    H115339   3.397   3.429   4.042
 5132TIP3    H215340   3.481   3.368   4.153
 5133TIP3   OH215341   1.941   2.187   1.050
 5133TIP3    H115342   1.871   2.253   1.055
 5133TIP3    H215343   1.968   2.174   1.141
 5134TIP3   OH215344   1.091   4.785   4.829
 5134TIP3    H115345   1.174   4.833   4.825
 5134TIP3    H215346   1.114   4.694   4.810
 5135TIP3   OH215347   7.329   7.344   4.640
 5135TIP3    H115348   7.279   7.423   4.621
 5135TIP3    H215349   7.337   7.344   4.736
 5136TIP3   OH215350   3.161   1.893   4.403
 5136TIP3    H115351   3.094   1.961   4.409
 5136TIP3    H215352   3.240   1.932   4.440
 5137TIP3   OH215353   0.451   4.199   5.837
 5137TIP3    H115354   0.509   4.183   5.763
 5137TIP3    H215355   0.510   4.200   5.913
 5138TIP3   OH215356   3.477   6.821   6.416
 5138TIP3    H115357   3.556   6.843   6.465
 5138TIP3    H215358   3.510   6.792   6.330
 5139TIP3   OH215359   3.904   2.029   0.748
 5139TIP3    H115360   3.940   2.107   0.704
 5139TIP3    H215361   3.811   2.048   0.757
 5140TIP3   OH215362   1.446   6.014   3.958
 5140TIP3    H115363   1.390   5.939   3.936
 5140TIP3    H215364   1.471   6.051   3.874
 5141TIP3   OH215365   0.462   4.898   6.388
 5141TIP3    H115366   0.404   4.822   6.384
 5141TIP3    H215367   0.503   4.892   6.475
 5142TIP3   OH215368   4.184   6.976   0.780
 5142TIP3    H115369   4.161   6.914   0.711
 5142TIP3    H215370   4.270   6.947   0.810
 5143TIP3   OH215371   5.448   4.311   2.217
 5143TIP3    H115372   5.528   4.261   2.201
 5143TIP3    H215373   5.476   4.385   2.272
 5144TIP3   OH215374   5.321   3.811   4.550
 5144TIP3    H115375   5.296   3.882   4.491
 5144TIP3    H215376   5.363   3.746   4.493
 5145TIP3   OH215377   3.881   4.188   3.097
 5145TIP3    H115378   3.951   4.134   3.135
 5145TIP3    H215379   3.895   4.183   3.003
 5146TIP3   OH215380   6.899   1.712   3.665
 5146TIP3    H115381   6.967   1.653   3.634
 5146TIP3    H215382   6.944   1.795   3.680
 5147TIP3   OH215383   3.964   3.281   5.014
 5147TIP3    H115384   4.058   3.292   5.000
 5147TIP3    H215385   3.930   3.251   4.930
 5148TIP3   OH215386   8.196   4.406   4.910
 5148TIP3    H115387   8.260   4.445   4.851
 5148TIP3    H215388   8.123   4.467   4.912
 5149TIP3   OH215389   2.355   1.958   4.888
 5149TIP3    H115390   2.336   1.900   4.814
 5149TIP3    H215391   2.433   1.920   4.929
 5150TIP3   OH215392   1.236   0.060   2.970
 5150TIP3    H115393   1.326   0.040   2.946
 5150TIP3    H215394   1.183   0.009   2.909
 5151TIP3   OH215395   0.702   1.120   1.327
 5151TIP3    H115396   0.762   1.122   1.402
 5151TIP3    H215397   0.740   1.056   1.267
 5152TIP3   OH215398   2.820   3.356   6.582
 5152TIP3    H115399   2.807   3.423   6.514
 5152TIP3    H215400   2.880   3.293   6.542
 5153TIP3   OH215401   5.436   6.035   5.763
 5153TIP3    H115402   5.510   6.090   5.788
 5153TIP3    H215403   5.443   5.959   5.820
 5154TIP3   OH215404   0.703   4.384   3.242
 5154TIP3    H115405   0.686   4.459   3.299
 5154TIP3    H215406   0.616   4.356   3.213
 5155TIP3   OH215407   7.520   2.812   6.276
 5155TIP3    H115408   7.584   2.754   6.319
 5155TIP3    H215409   7.484   2.864   6.348
 5156TIP3   OH215410   2.784   1.320   0.091
 5156TIP3    H115411   2.859   1.270   0.060
 5156TIP3    H215412   2.816   1.410   0.097
 5157TIP3   OH215413   1.018   6.651   3.436
 5157TIP3    H115414   1.037   6.594   3.361
 5157TIP3    H215415   1.089   6.714   3.437
 5158TIP3   OH215416   1.954   6.747   5.966
 5158TIP3    H115417   1.930   6.800   5.889
 5158TIP3    H215418   1.945   6.807   6.040
 5159TIP3   OH215419   7.415   0.727   2.941
 5159TIP3    H115420   7.494   0.780   2.931
 5159TIP3    H215421   7.443   0.638   2.921
 5160TIP3   OH215422   7.212   2.806   5.783
 5160TIP3    H115423   7.192   2.897   5.758
 5160TIP3    H215424   7.287   2.814   5.842
 5161TIP3   OH215425   2.520   5.257   3.314
 5161TIP3    H115426   2.501   5.296   3.399
 5161TIP3    H215427   2.473   5.173   3.316
 5162TIP3   OH215428   1.791   5.442   5.323
 5162TIP3    H115429   1.758   5.366   5.371
 5162TIP3    H215430   1.728   5.512   5.343
 5163TIP3   OH215431   5.375   0.052   4.795
 5163TIP3    H115432   5.415   0.118   4.737
 5163TIP3    H215433   5.285   0.083   4.807
 5164TIP3   OH215434   6.370   2.857   1.193
 5164TIP3    H115435   6.311   2.930   1.177
 5164TIP3    H215436   6.416   2.844   1.110
 5165TIP3   OH215437   4.553   3.107   6.231
 5165TIP3    H115438   4.541   3.191   6.276
 5165TIP3    H215439   4.479   3.054   6.260
 5166TIP3   OH215440   1.790   2.296   4.453
 5166TIP3    H115441   1.731   2.317   4.526
 5166TIP3    H215442   1.833   2.378   4.432
 5167TIP3   OH215443   1.694   7.102   0.897
 5167TIP3    H115444   1.747   7.175   0.929
 5167TIP3    H215445   1.645   7.072   0.974
 5168TIP3   OH215446   0.160   6.522   4.358
 5168TIP3    H115447   0.242   6.475   4.340
 5168TIP3    H215448   0.139   6.568   4.277
 5169TIP3   OH215449   4.582   0.095   2.081
 5169TIP3    H115450   4.609   0.078   2.172
 5169TIP3    H215451   4.624   0.025   2.031
 5170TIP3   OH215452   6.115   7.217   3.758
 5170TIP3    H115453   6.134   7.288   3.819
 5170TIP3    H215454   6.019   7.208   3.762
 5171TIP3   OH215455   2.601   2.693   3.833
 5171TIP3    H115456   2.550   2.660   3.908
 5171TIP3    H215457   2.691   2.698   3.866
 5172TIP3   OH215458   1.494   2.325   6.013
 5172TIP3    H115459   1.535   2.296   5.931
 5172TIP3    H215460   1.414   2.369   5.985
 5173TIP3   OH215461   7.705   6.527   1.866
 5173TIP3    H115462   7.789   6.488   1.889
 5173TIP3    H215463   7.671   6.562   1.949
 5174TIP3   OH215464   3.473   2.448   6.388
 5174TIP3    H115465   3.415   2.372   6.383
 5174TIP3    H215466   3.414   2.523   6.398
 5175TIP3   OH215467   2.402   5.458   6.100
 5175TIP3    H115468   2.372   5.388   6.042
 5175TIP3    H215469   2.365   5.538   6.063
 5176TIP3   OH215470   5.288   1.798   0.333
 5176TIP3    H115471   5.229   1.744   0.386
 5176TIP3    H215472   5.231   1.836   0.266
 5177TIP3   OH215473   3.564   5.086   4.810
 5177TIP3    H115474   3.653   5.116   4.825
 5177TIP3    H215475   3.517   5.107   4.891
 5178TIP3   OH215476   0.640   4.983   1.310
 5178TIP3    H115477   0.714   4.944   1.264
 5178TIP3    H215478   0.639   5.074   1.281
 5179TIP3   OH215479   3.213   3.029   6.724
 5179TIP3    H115480   3.131   3.060   6.686
 5179TIP3    H215481   3.206   3.050   6.817
 5180TIP3   OH215482   7.714   2.474   2.400
 5180TIP3    H115483   7.709   2.423   2.482
 5180TIP3    H215484   7.627   2.512   2.390
 5181TIP3   OH215485   7.449   5.984   3.479
 5181TIP3    H115486   7.391   5.925   3.526
 5181TIP3    H215487   7.485   6.042   3.546
 5182TIP3   OH215488   7.264   4.426   2.738
 5182TIP3    H115489   7.304   4.497   2.688
 5182TIP3    H215490   7.336   4.391   2.792
 5183TIP3   OH215491   1.942   3.705   2.744
 5183TIP3    H115492   1.864   3.689   2.690
 5183TIP3    H215493   1.908   3.735   2.828
 5184TIP3   OH215494   7.787   3.488   6.493
 5184TIP3    H115495   7.823   3.569   6.458
 5184TIP3    H215496   7.750   3.512   6.577
 5185TIP3   OH215497   3.771   1.974   4.736
 5185TIP3    H115498   3.846   1.970   4.677
 5185TIP3    H215499   3.753   1.883   4.758
 5186TIP3   OH215500   5.174   7.517   3.238
 5186TIP3    H115501   5.188   7.604   3.274
 5186TIP3    H215502   5.165   7.531   3.144
 5187TIP3   OH215503   7.472   5.882   6.198
 5187TIP3    H115504   7.431   5.830   6.267
 5187TIP3    H215505   7.502   5.961   6.242
 5188TIP3   OH215506   3.660   7.715   3.819
 5188TIP3    H115507   3.726   7.646   3.817
 5188TIP3    H215508   3.653   7.739   3.911
 5189TIP3   OH215509   8.095   2.381   1.988
 5189TIP3    H115510   8.087   2.339   1.902
 5189TIP3    H215511   8.033   2.332   2.043
 5190TIP3   OH215512   0.697   5.305   1.591
 5190TIP3    H115513   0.712   5.388   1.546
 5190TIP3    H215514   0.649   5.329   1.670
 5191TIP3   OH215515   0.830   6.272   5.166
 5191TIP3    H115516   0.769   6.214   5.210
 5191TIP3    H215517   0.774   6.330   5.113
 5192TIP3   OH215518   2.015   2.148   3.275
 5192TIP3    H115519   1.932   2.191   3.294
 5192TIP3    H215520   2.059   2.207   3.213
 5193TIP3   OH215521   1.862   5.185   0.431
 5193TIP3    H115522   1.785   5.163   0.483
 5193TIP3    H215523   1.839   5.268   0.388
 5194TIP3   OH215524   3.062   3.324   2.094
 5194TIP3    H115525   3.124   3.346   2.024
 5194TIP3    H215526   3.112   3.334   2.175
 5195TIP3   OH215527   3.254   6.482   2.048
 5195TIP3    H115528   3.328   6.468   1.989
 5195TIP3    H215529   3.292   6.523   2.126
 5196TIP3   OH215530   7.809   3.819   0.461
 5196TIP3    H115531   7.719   3.845   0.443
 5196TIP3    H215532   7.811   3.804   0.556
 5197TIP3   OH215533   6.748   6.049   1.386
 5197TIP3    H115534   6.658   6.044   1.354
 5197TIP3    H215535   6.784   6.128   1.346
 5198TIP3   OH215536   5.747   5.140   0.439
 5198TIP3    H115537   5.791   5.065   0.398
 5198TIP3    H215538   5.666   5.151   0.389
 5199TIP3   OH215539   2.543   1.388   0.803
 5199TIP3    H115540   2.574   1.403   0.892
 5199TIP3    H215541   2.557   1.470   0.757
 5200TIP3   OH215542   6.228   5.033   2.965
 5200TIP3    H115543   6.281   5.071   3.035
 5200TIP3    H215544   6.219   4.941   2.990
 5201TIP3   OH215545   6.339   6.253   3.672
 5201TIP3    H115546   6.337   6.222   3.581
 5201TIP3    H215547   6.429   6.283   3.685
 5202TIP3   OH215548   6.931   7.637   0.718
 5202TIP3    H115549   6.874   7.711   0.737
 5202TIP3    H215550   6.982   7.624   0.798
 5203TIP3   OH215551   1.901   1.692   5.829
 5203TIP3    H115552   1.856   1.613   5.859
 5203TIP3    H215553   1.851   1.719   5.752
 5204TIP3   OH215554   5.648   5.231   3.287
 5204TIP3    H115555   5.741   5.253   3.274
 5204TIP3    H215556   5.603   5.272   3.213
 5205TIP3   OH215557   0.513   2.562   1.158
 5205TIP3    H115558   0.470   2.569   1.073
 5205TIP3    H215559   0.542   2.471   1.163
 5206TIP3   OH215560   6.117   3.725   2.811
 5206TIP3    H115561   6.183   3.710   2.743
 5206TIP3    H215562   6.063   3.646   2.810
 5207TIP3   OH215563   0.745   5.581   1.539
 5207TIP3    H115564   0.828   5.607   1.578
 5207TIP3    H215565   0.685   5.653   1.557
 5208TIP3   OH215566   8.167   1.953   4.335
 5208TIP3    H115567   8.179   1.868   4.377
 5208TIP3    H215568   8.230   1.953   4.262
 5209TIP3   OH215569   1.215   0.884   0.868
 5209TIP3    H115570   1.160   0.915   0.795
 5209TIP3    H215571   1.158   0.892   0.945
 5210TIP3   OH215572   4.506   5.853   4.795
 5210TIP3    H115573   4.482   5.929   4.848
 5210TIP3    H215574   4.544   5.890   4.715
 5211TIP3   OH215575   4.961   6.427   0.573
 5211TIP3    H115576   4.962   6.357   0.639
 5211TIP3    H215577   5.050   6.462   0.575
 5212TIP3   OH215578   6.930   6.044   5.681
 5212TIP3    H115579   6.895   6.065   5.594
 5212TIP3    H215580   6.863   6.077   5.741
 5213TIP3   OH215581   3.180   3.159   3.223
 5213TIP3    H115582   3.194   3.080   3.171
 5213TIP3    H215583   3.141   3.221   3.161
 5214TIP3   OH215584   1.492   5.048   2.959
 5214TIP3    H115585   1.555   5.119   2.975
 5214TIP3    H215586   1.428   5.086   2.900
 5215TIP3   OH215587   6.447   3.286   6.024
 5215TIP3    H115588   6.423   3.372   6.057
 5215TIP3    H215589   6.366   3.236   6.025
 5216TIP3   OH215590   4.282   5.154   3.033
 5216TIP3    H115591   4.318   5.068   3.013
 5216TIP3    H215592   4.339   5.216   2.987
 5217TIP3   OH215593   0.827   1.764   4.230
 5217TIP3    H115594   0.788   1.829   4.172
 5217TIP3    H215595   0.894   1.722   4.178
 5218TIP3   OH215596   4.952   5.776   2.375
 5218TIP3    H115597   5.002   5.770   2.294
 5218TIP3    H215598   4.862   5.796   2.347
 5219TIP3   OH215599   1.647   5.319   3.018
 5219TIP3    H115600   1.624   5.364   2.936
 5219TIP3    H215601   1.706   5.378   3.062
 5220TIP3   OH215602   0.417   7.661   1.837
 5220TIP3    H115603   0.377   7.736   1.794
 5220TIP3    H215604   0.362   7.647   1.915
 5221TIP3   OH215605   5.522   4.287   2.602
 5221TIP3    H115606   5.599   4.317   2.554
 5221TIP3    H215607   5.551   4.279   2.693
 5222TIP3   OH215608   6.831   3.964   3.795
 5222TIP3    H115609   6.887   4.039   3.777
 5222TIP3    H215610   6.821   3.920   3.711
 5223TIP3   OH215611   7.322   5.315   0.165
 5223TIP3    H115612   7.230   5.334   0.148
 5223TIP3    H215613   7.345   5.248   0.101
 5224TIP3   OH215614   2.638   3.375   3.653
 5224TIP3    H115615   2.555   3.337   3.624
 5224TIP3    H215616   2.619   3.468   3.665
 5225TIP3   OH215617   3.180   7.711   6.107
 5225TIP3    H115618   3.105   7.657   6.081
 5225TIP3    H215619   3.152   7.752   6.189
 5226TIP3   OH215620   4.749   6.963   2.712
 5226TIP3    H115621   4.759   6.869   2.732
 5226TIP3    H215622   4.770   7.007   2.794
 5227TIP3   OH215623   4.003   1.455   4.989
 5227TIP3    H115624   3.921   1.485   5.027
 5227TIP3    H215625   4.068   1.469   5.058
 5228TIP3   OH215626   4.108   2.226   1.582
 5228TIP3    H115627   4.145   2.215   1.669
 5228TIP3    H215628   4.129   2.144   1.537
 5229TIP3   OH215629   5.286   1.670   5.087
 5229TIP3    H115630   5.328   1.660   5.172
 5229TIP3    H215631   5.213   1.730   5.103
 5230TIP3   OH215632   3.022   0.347   1.879
 5230TIP3    H115633   3.020   0.435   1.917
 5230TIP3    H215634   3.053   0.361   1.790
 5231TIP3   OH215635   8.200   6.537   0.327
 5231TIP3    H115636   8.208   6.631   0.316
 5231TIP3    H215637   8.205   6.523   0.421
 5232TIP3   OH215638   7.558   3.671   6.216
 5232TIP3    H115639   7.590   3.582   6.201
 5232TIP3    H215640   7.577   3.718   6.135
 5233TIP3   OH215641   3.497   6.007   6.131
 5233TIP3    H115642   3.426   5.944   6.144
 5233TIP3    H215643   3.489   6.034   6.040
 5234TIP3   OH215644   7.490   5.009   1.184
 5234TIP3    H115645   7.426   5.080   1.172
 5234TIP3    H215646   7.552   5.021   1.112
 5235TIP3   OH215647   3.112   0.994   6.400
 5235TIP3    H115648   3.157   1.049   6.335
 5235TIP3    H215649   3.175   0.986   6.472
 5236TIP3   OH215650   3.784   5.837   6.790
 5236TIP3    H115651   3.854   5.835   6.725
 5236TIP3    H215652   3.708   5.800   6.745
 5237TIP3   OH215653   2.501   3.784   4.679
 5237TIP3    H115654   2.595   3.776   4.689
 5237TIP3    H215655   2.489   3.848   4.609
 5238TIP3   OH215656   3.574   4.047   5.839
 5238TIP3    H115657   3.527   4.056   5.756
 5238TIP3    H215658   3.510   4.010   5.900
 5239TIP3   OH215659   3.645   4.761   5.358
 5239TIP3    H115660   3.607   4.683   5.317
 5239TIP3    H215661   3.651   4.738   5.451
 5240TIP3   OH215662   6.819   7.297   5.488
 5240TIP3    H115663   6.815   7.348   5.408
 5240TIP3    H215664   6.815   7.362   5.558
 5241TIP3   OH215665   6.573   6.553   5.078
 5241TIP3    H115666   6.488   6.594   5.094
 5241TIP3    H215667   6.595   6.509   5.160
 5242TIP3   OH215668   6.028   1.540   2.217
 5242TIP3    H115669   6.066   1.540   2.305
 5242TIP3    H215670   5.938   1.512   2.230
 5243TIP3   OH215671   2.493   5.624   3.752
 5243TIP3    H115672   2.575   5.581   3.776
 5243TIP3    H215673   2.488   5.701   3.808
 5244TIP3   OH215674   5.246   7.066   6.595
 5244TIP3    H115675   5.248   6.997   6.528
 5244TIP3    H215676   5.316   7.041   6.656
 5245TIP3   OH215677   2.252   3.473   1.119
 5245TIP3    H115678   2.198   3.531   1.173
 5245TIP3    H215679   2.197   3.452   1.044
 5246TIP3   OH215680   2.299   6.199   5.012
 5246TIP3    H115681   2.352   6.142   4.957
 5246TIP3    H215682   2.227   6.227   4.955
 5247TIP3   OH215683   1.526   1.503   1.206
 5247TIP3    H115684   1.585   1.473   1.275
 5247TIP3    H215685   1.576   1.571   1.160
 5248TIP3   OH215686   4.137   7.039   3.645
 5248TIP3    H115687   4.138   7.024   3.740
 5248TIP3    H215688   4.044   7.042   3.623
 5249TIP3   OH215689   1.544   1.733   3.757
 5249TIP3    H115690   1.556   1.745   3.663
 5249TIP3    H215691   1.478   1.664   3.765
 5250TIP3   OH215692   5.474   1.565   2.333
 5250TIP3    H115693   5.427   1.648   2.331
 5250TIP3    H215694   5.467   1.532   2.243
 5251TIP3   OH215695   2.980   0.037   1.495
 5251TIP3    H115696   3.067   0.038   1.454
 5251TIP3    H215697   2.972  -0.052   1.529
 5252TIP3   OH215698   2.015   3.001   5.198
 5252TIP3    H115699   2.058   2.929   5.151
 5252TIP3    H215700   2.044   3.080   5.152
 5253TIP3   OH215701   5.194   0.292   4.129
 5253TIP3    H115702   5.191   0.201   4.100
 5253TIP3    H215703   5.283   0.321   4.108
 5254TIP3   OH215704   5.467   5.817   5.944
 5254TIP3    H115705   5.483   5.868   6.023
 5254TIP3    H215706   5.551   5.774   5.926
 5255TIP3   OH215707   5.744   7.327   2.200
 5255TIP3    H115708   5.818   7.288   2.155
 5255TIP3    H215709   5.752   7.298   2.291
 5256TIP3   OH215710   1.152   3.084   3.370
 5256TIP3    H115711   1.157   3.052   3.460
 5256TIP3    H215712   1.209   3.161   3.369
 5257TIP3   OH215713   4.780   2.615   6.199
 5257TIP3    H115714   4.856   2.672   6.211
 5257TIP3    H215715   4.707   2.662   6.238
 5258TIP3   OH215716   7.744   7.180   3.134
 5258TIP3    H115717   7.704   7.094   3.147
 5258TIP3    H215718   7.674   7.234   3.096
 5259TIP3   OH215719   4.262   1.126   5.956
 5259TIP3    H115720   4.311   1.197   5.996
 5259TIP3    H215721   4.322   1.087   5.892
 5260TIP3   OH215722   0.588   5.832   0.268
 5260TIP3    H115723   0.559   5.923   0.277
 5260TIP3    H215724   0.621   5.808   0.355
 5261TIP3   OH215725   4.666   2.087   6.572
 5261TIP3    H115726   4.644   2.003   6.614
 5261TIP3    H215727   4.749   2.069   6.527
 5262TIP3   OH215728   8.002   1.378   5.583
 5262TIP3    H115729   8.086   1.416   5.608
 5262TIP3    H215730   7.998   1.296   5.633
 5263TIP3   OH215731   4.355   1.369   6.041
 5263TIP3    H115732   4.425   1.372   6.105
 5263TIP3    H215733   4.316   1.457   6.044
 5264TIP3   OH215734   0.397   5.126   3.713
 5264TIP3    H115735   0.434   5.213   3.697
 5264TIP3    H215736   0.375   5.093   3.626
 5265TIP3   OH215737   4.015   0.596   5.109
 5265TIP3    H115738   3.946   0.530   5.115
 5265TIP3    H215739   4.092   0.547   5.081
 5266TIP3   OH215740   8.186   5.520   1.172
 5266TIP3    H115741   8.115   5.527   1.109
 5266TIP3    H215742   8.162   5.446   1.227
 5267TIP3   OH215743   0.002   7.111   6.031
 5267TIP3    H115744   0.042   7.034   6.071
 5267TIP3    H215745  -0.010   7.173   6.104
 5268TIP3   OH215746   6.540   5.272   0.604
 5268TIP3    H115747   6.560   5.355   0.562
 5268TIP3    H215748   6.624   5.228   0.613
 5269TIP3   OH215749   4.199   7.747   0.362
 5269TIP3    H115750   4.199   7.775   0.454
 5269TIP3    H215751   4.230   7.656   0.366
 5270TIP3   OH215752   0.292   2.906   2.140
 5270TIP3    H115753   0.272   3.000   2.135
 5270TIP3    H215754   0.211   2.866   2.170
 5271TIP3   OH215755   2.227   6.230   5.781
 5271TIP3    H115756   2.209   6.263   5.693
 5271TIP3    H215757   2.312   6.266   5.804
 5272TIP3   OH215758   4.887   1.522   3.421
 5272TIP3    H115759   4.947   1.508   3.347
 5272TIP3    H215760   4.885   1.617   3.432
 5273TIP3   OH215761   1.870   1.976   0.271
 5273TIP3    H115762   1.913   2.003   0.352
 5273TIP3    H215763   1.938   1.933   0.220
 5274TIP3   OH215764   4.442   0.187   4.527
 5274TIP3    H115765   4.408   0.185   4.617
 5274TIP3    H215766   4.396   0.115   4.483
 5275TIP3   OH215767   6.609   5.895   1.183
 5275TIP3    H115768   6.571   5.856   1.262
 5275TIP3    H215769   6.569   5.845   1.111
 5276TIP3   OH215770   0.925   4.196   1.724
 5276TIP3    H115771   0.830   4.211   1.719
 5276TIP3    H215772   0.939   4.163   1.813
 5277TIP3   OH215773   6.389   7.367   5.189
 5277TIP3    H115774   6.302   7.371   5.149
 5277TIP3    H215775   6.385   7.289   5.245
 5278TIP3   OH215776   4.583   4.306   1.506
 5278TIP3    H115777   4.502   4.351   1.483
 5278TIP3    H215778   4.650   4.373   1.499
 5279TIP3   OH215779   2.447   7.135   6.256
 5279TIP3    H115780   2.501   7.212   6.240
 5279TIP3    H215781   2.490   7.090   6.328
 5280TIP3   OH215782   4.841   2.509   1.604
 5280TIP3    H115783   4.778   2.454   1.651
 5280TIP3    H215784   4.888   2.448   1.547
 5281TIP3   OH215785   1.375   7.447   2.255
 5281TIP3    H115786   1.407   7.519   2.201
 5281TIP3    H215787   1.404   7.368   2.209
 5282TIP3   OH215788   3.957   2.361   0.209
 5282TIP3    H115789   3.897   2.322   0.272
 5282TIP3    H215790   3.971   2.292   0.144
 5283TIP3   OH215791   6.067   2.680   2.549
 5283TIP3    H115792   5.975   2.688   2.575
 5283TIP3    H215793   6.085   2.586   2.556
 5284TIP3   OH215794   7.372   7.581   6.539
 5284TIP3    H115795   7.283   7.552   6.521
 5284TIP3    H215796   7.363   7.640   6.614
 5285TIP3   OH215797   6.107   2.363   6.057
 5285TIP3    H115798   6.085   2.434   6.117
 5285TIP3    H215799   6.179   2.316   6.100
 5286TIP3   OH215800   2.261   7.830   3.240
 5286TIP3    H115801   2.190   7.802   3.299
 5286TIP3    H215802   2.247   7.779   3.161
 5287TIP3   OH215803   4.430   0.647   2.527
 5287TIP3    H115804   4.452   0.576   2.588
 5287TIP3    H215805   4.336   0.637   2.511
 5288TIP3   OH215806   7.097   2.596   2.702
 5288TIP3    H115807   7.011   2.565   2.674
 5288TIP3    H215808   7.086   2.690   2.717
 5289TIP3   OH215809   1.781   6.841   2.346
 5289TIP3    H115810   1.687   6.856   2.358
 5289TIP3    H215811   1.815   6.828   2.434
 5290TIP3   OH215812   0.299   2.946   1.364
 5290TIP3    H115813   0.345   2.865   1.343
 5290TIP3    H215814   0.368   3.011   1.375
 5291TIP3   OH215815   3.813   2.935   3.588
 5291TIP3    H115816   3.724   2.940   3.623
 5291TIP3    H215817   3.859   3.009   3.627
 5292TIP3   OH215818   3.213   6.665   5.568
 5292TIP3    H115819   3.266   6.638   5.643
 5292TIP3    H215820   3.125   6.632   5.589
 5293TIP3   OH215821   7.438   1.561   1.088
 5293TIP3    H115822   7.356   1.514   1.103
 5293TIP3    H215823   7.482   1.560   1.173
 5294TIP3   OH215824   1.944   1.769   4.470
 5294TIP3    H115825   1.978   1.733   4.551
 5294TIP3    H215826   1.884   1.838   4.498
 5295TIP3   OH215827   5.666   2.892   0.919
 5295TIP3    H115828   5.609   2.935   0.856
 5295TIP3    H215829   5.752   2.892   0.877
 5296TIP3   OH215830   1.532   1.180   6.565
 5296TIP3    H115831   1.501   1.091   6.586
 5296TIP3    H215832   1.455   1.224   6.530
 5297TIP3   OH215833   8.254   1.895   1.220
 5297TIP3    H115834   8.256   1.962   1.289
 5297TIP3    H215835   8.235   1.814   1.266
 5298TIP3   OH215836   7.700   3.909   4.683
 5298TIP3    H115837   7.718   3.815   4.676
 5298TIP3    H215838   7.715   3.929   4.775
 5299TIP3   OH215839   2.551   7.620   3.690
 5299TIP3    H115840   2.603   7.662   3.758
 5299TIP3    H215841   2.518   7.540   3.730
 5300TIP3   OH215842   8.051   5.936   6.139
 5300TIP3    H115843   8.031   5.961   6.049
 5300TIP3    H215844   7.976   5.883   6.167
 5301TIP3   OH215845   5.262   7.275   0.991
 5301TIP3    H115846   5.215   7.193   1.006
 5301TIP3    H215847   5.310   7.291   1.073
 5302TIP3   OH215848   7.616   3.564   4.565
 5302TIP3    H115849   7.614   3.470   4.579
 5302TIP3    H215850   7.708   3.588   4.579
 5303TIP3   OH215851   3.389   5.840   1.025
 5303TIP3    H115852   3.401   5.919   1.077
 5303TIP3    H215853   3.359   5.774   1.088
 5304TIP3   OH215854   7.571   4.910   5.365
 5304TIP3    H115855   7.581   4.843   5.432
 5304TIP3    H215856   7.657   4.951   5.358
 5305TIP3   OH215857   5.724   4.569   3.640
 5305TIP3    H115858   5.770   4.537   3.563
 5305TIP3    H215859   5.666   4.638   3.607
 5306TIP3   OH215860   6.304   4.646   6.228
 5306TIP3    H115861   6.346   4.690   6.301
 5306TIP3    H215862   6.247   4.712   6.189
 5307TIP3   OH215863   1.897   5.481   3.665
 5307TIP3    H115864   1.858   5.396   3.645
 5307TIP3    H215865   1.975   5.461   3.717
 5308TIP3   OH215866   0.423   2.846   2.421
 5308TIP3    H115867   0.443   2.842   2.327
 5308TIP3    H215868   0.334   2.879   2.425
 5309TIP3   OH215869   2.117   1.059   3.941
 5309TIP3    H115870   2.097   1.139   3.989
 5309TIP3    H215871   2.206   1.073   3.908
 5310TIP3   OH215872   1.420   0.661   5.288
 5310TIP3    H115873   1.413   0.709   5.370
 5310TIP3    H215874   1.466   0.721   5.229
 5311TIP3   OH215875   3.905   7.680   3.185
 5311TIP3    H115876   3.979   7.650   3.133
 5311TIP3    H215877   3.916   7.634   3.269
 5312TIP3   OH215878   5.523   5.089   4.660
 5312TIP3    H115879   5.604   5.056   4.698
 5312TIP3    H215880   5.531   5.068   4.567
 5313TIP3   OH215881   3.797   2.829   1.035
 5313TIP3    H115882   3.705   2.855   1.040
 5313TIP3    H215883   3.844   2.911   1.020
 5314TIP3   OH215884   5.555   7.086   2.375
 5314TIP3    H115885   5.621   7.042   2.321
 5314TIP3    H215886   5.548   7.032   2.454
 5315TIP3   OH215887   3.211   4.721   2.954
 5315TIP3    H115888   3.118   4.702   2.948
 5315TIP3    H215889   3.231   4.715   3.048
 5316TIP3   OH215890   7.209   0.793   2.394
 5316TIP3    H115891   7.206   0.723   2.328
 5316TIP3    H215892   7.219   0.747   2.477
 5317TIP3   OH215893   3.725   6.342   3.661
 5317TIP3    H115894   3.718   6.250   3.685
 5317TIP3    H215895   3.657   6.355   3.595
 5318TIP3   OH215896   7.138   2.298   6.332
 5318TIP3    H115897   7.062   2.247   6.361
 5318TIP3    H215898   7.189   2.237   6.279
 5319TIP3   OH215899   2.233   3.345   4.604
 5319TIP3    H115900   2.259   3.428   4.566
 5319TIP3    H215901   2.219   3.287   4.529
 5320TIP3   OH215902   0.470   6.892   2.925
 5320TIP3    H115903   0.431   6.945   2.995
 5320TIP3    H215904   0.449   6.939   2.845
 5321TIP3   OH215905   2.060   1.091   6.009
 5321TIP3    H115906   2.102   1.010   6.039
 5321TIP3    H215907   2.132   1.148   5.984
 5322TIP3   OH215908   7.662   6.285   0.100
 5322TIP3    H115909   7.698   6.223   0.036
 5322TIP3    H215910   7.597   6.234   0.149
 5323TIP3   OH215911   1.697   2.299   2.354
 5323TIP3    H115912   1.639   2.264   2.422
 5323TIP3    H215913   1.693   2.235   2.283
 5324TIP3   OH215914   0.686   1.374   0.146
 5324TIP3    H115915   0.769   1.375   0.194
 5324TIP3    H215916   0.712   1.373   0.054
 5325TIP3   OH215917   0.456   6.575   4.952
 5325TIP3    H115918   0.411   6.659   4.952
 5325TIP3    H215919   0.387   6.509   4.948
 5326TIP3   OH215920   2.039   5.521   4.553
 5326TIP3    H115921   2.099   5.595   4.548
 5326TIP3    H215922   2.060   5.479   4.637
 5327TIP3   OH215923   4.338   6.589   1.414
 5327TIP3    H115924   4.242   6.585   1.412
 5327TIP3    H215925   4.357   6.679   1.440
 5328TIP3   OH215926   2.140   1.879   1.312
 5328TIP3    H115927   2.184   1.803   1.275
 5328TIP3    H215928   2.197   1.953   1.291
 5329TIP3   OH215929   2.044   6.775   3.429
 5329TIP3    H115930   2.042   6.870   3.429
 5329TIP3    H215931   2.042   6.750   3.521
 5330TIP3   OH215932   0.451   3.151   1.718
 5330TIP3    H115933   0.455   3.223   1.780
 5330TIP3    H215934   0.370   3.105   1.739
 5331TIP3   OH215935   3.291   6.763   5.305
 5331TIP3    H115936   3.263   6.704   5.375
 5331TIP3    H215937   3.233   6.839   5.313
 5332TIP3   OH215938   2.468   6.401   4.226
 5332TIP3    H115939   2.414   6.471   4.263
 5332TIP3    H215940   2.556   6.440   4.221
 5333TIP3   OH215941   4.146   4.749   5.480
 5333TIP3    H115942   4.142   4.690   5.555
 5333TIP3    H215943   4.088   4.822   5.504
 5334TIP3   OH215944   0.209   4.310   5.129
 5334TIP3    H115945   0.171   4.296   5.043
 5334TIP3    H215946   0.212   4.223   5.169
 5335TIP3   OH215947   5.978   4.766   5.315
 5335TIP3    H115948   5.905   4.806   5.268
 5335TIP3    H215949   6.056   4.794   5.267
 5336TIP3   OH215950   1.672   2.854   0.941
 5336TIP3    H115951   1.699   2.889   0.856
 5336TIP3    H215952   1.585   2.892   0.956
 5337TIP3   OH215953   0.680   5.821   2.985
 5337TIP3    H115954   0.669   5.910   3.019
 5337TIP3    H215955   0.647   5.824   2.896
 5338TIP3   OH215956   4.302   2.413   2.614
 5338TIP3    H115957   4.311   2.500   2.576
 5338TIP3    H215958   4.213   2.385   2.589
 5339TIP3   OH215959   4.523   5.447   3.121
 5339TIP3    H115960   4.476   5.466   3.040
 5339TIP3    H215961   4.529   5.531   3.166
 5340TIP3   OH215962   3.531   0.043   0.530
 5340TIP3    H115963   3.565   0.130   0.513
 5340TIP3    H215964   3.504   0.010   0.444
 5341TIP3   OH215965   1.721   1.334   4.728
 5341TIP3    H115966   1.726   1.383   4.809
 5341TIP3    H215967   1.638   1.286   4.734
 5342TIP3   OH215968   4.618   6.419   2.803
 5342TIP3    H115969   4.606   6.420   2.898
 5342TIP3    H215970   4.616   6.327   2.779
 5343TIP3   OH215971   7.384   3.756   3.748
 5343TIP3    H115972   7.327   3.795   3.815
 5343TIP3    H215973   7.426   3.682   3.792
 5344TIP3   OH215974   2.891   3.750   5.252
 5344TIP3    H115975   2.845   3.670   5.275
 5344TIP3    H215976   2.822   3.817   5.249
 5345TIP3   OH215977   6.747   1.244   5.335
 5345TIP3    H115978   6.784   1.316   5.284
 5345TIP3    H215979   6.747   1.169   5.275
 5346TIP3   OH215980   3.537   3.979   0.809
 5346TIP3    H115981   3.487   3.897   0.806
 5346TIP3    H215982   3.534   4.006   0.901
 5347TIP3   OH215983   5.840   2.765   4.190
 5347TIP3    H115984   5.837   2.860   4.183
 5347TIP3    H215985   5.783   2.733   4.120
 5348TIP3   OH215986   3.024   3.146   0.203
 5348TIP3    H115987   3.079   3.091   0.258
 5348TIP3    H215988   3.086   3.197   0.151
 5349TIP3   OH215989   3.507   2.161   2.911
 5349TIP3    H115990   3.444   2.137   2.843
 5349TIP3    H215991   3.455   2.209   2.976
 5350TIP3   OH215992   1.388   0.474   5.080
 5350TIP3    H115993   1.375   0.480   5.175
 5350TIP3    H215994   1.307   0.435   5.047
 5351TIP3   OH215995   8.225   0.153   3.050
 5351TIP3    H115996   8.140   0.179   3.015
 5351TIP3    H215997   8.258   0.087   2.989
 5352TIP3   OH215998   6.704   1.530   0.710
 5352TIP3    H115999   6.700   1.487   0.625
 5352TIP3    H216000   6.613   1.547   0.734
 5353TIP3   OH216001   5.007   4.893   1.844
 5353TIP3    H116002   4.918   4.911   1.815
 5353TIP3    H216003   5.029   4.808   1.806
 5354TIP3   OH216004   6.085   7.550   6.112
 5354TIP3    H116005   6.148   7.589   6.051
 5354TIP3    H216006   6.088   7.456   6.093
 5355TIP3   OH216007   2.820   3.122   4.263
 5355TIP3    H116008   2.742   3.120   4.318
 5355TIP3    H216009   2.887   3.078   4.316
 5356TIP3   OH216010   4.739   2.897   6.326
 5356TIP3    H116011   4.804   2.849   6.378
 5356TIP3    H216012   4.657   2.887   6.374
 5357TIP3   OH216013   4.590   6.186   6.699
 5357TIP3    H116014   4.575   6.152   6.787
 5357TIP3    H216015   4.515   6.154   6.648
 5358TIP3   OH216016   2.153   7.461   2.656
 5358TIP3    H116017   2.241   7.426   2.669
 5358TIP3    H216018   2.108   7.393   2.605
 5359TIP3   OH216019   7.742   0.211   4.694
 5359TIP3    H116020   7.717   0.123   4.665
 5359TIP3    H216021   7.659   0.252   4.720
 5360TIP3   OH216022   7.283   7.599   2.412
 5360TIP3    H116023   7.373   7.567   2.420
 5360TIP3    H216024   7.246   7.550   2.339
 5361TIP3   OH216025   6.562   2.519   1.803
 5361TIP3    H116026   6.599   2.597   1.761
 5361TIP3    H216027   6.506   2.480   1.736
 5362TIP3   OH216028   6.293   4.022   5.299
 5362TIP3    H116029   6.318   4.083   5.369
 5362TIP3    H216030   6.371   3.968   5.286
 5363TIP3   OH216031   4.189   3.823   3.191
 5363TIP3    H116032   4.154   3.749   3.141
 5363TIP3    H216033   4.270   3.790   3.229
 5364TIP3   OH216034   4.642   1.156   2.923
 5364TIP3    H116035   4.708   1.222   2.899
 5364TIP3    H216036   4.672   1.076   2.881
 5365TIP3   OH216037   6.037   5.962   0.391
 5365TIP3    H116038   5.955   5.918   0.368
 5365TIP3    H216039   6.011   6.052   0.411
 5366TIP3   OH216040   8.189   4.883   2.802
 5366TIP3    H116041   8.100   4.862   2.828
 5366TIP3    H216042   8.196   4.978   2.814
 5367TIP3   OH216043   0.580   2.010   0.717
 5367TIP3    H116044   0.487   2.004   0.741
 5367TIP3    H216045   0.580   2.024   0.622
 5368TIP3   OH216046   0.842   7.626   4.452
 5368TIP3    H116047   0.799   7.603   4.535
 5368TIP3    H216048   0.827   7.720   4.443
 5369TIP3   OH216049   5.927   6.593   1.382
 5369TIP3    H116050   5.986   6.637   1.443
 5369TIP3    H216051   5.955   6.623   1.295
 5370TIP3   OH216052   2.860   2.242   1.502
 5370TIP3    H116053   2.928   2.218   1.438
 5370TIP3    H216054   2.908   2.254   1.584
 5371TIP3   OH216055   6.375   4.871   3.790
 5371TIP3    H116056   6.393   4.951   3.741
 5371TIP3    H216057   6.356   4.805   3.723
 5372TIP3   OH216058   3.339   0.357   6.254
 5372TIP3    H116059   3.416   0.401   6.290
 5372TIP3    H216060   3.323   0.400   6.170
 5373TIP3   OH216061   0.460   1.511   3.844
 5373TIP3    H116062   0.525   1.562   3.892
 5373TIP3    H216063   0.390   1.574   3.825
 5374TIP3   OH216064   2.402   2.996   3.320
 5374TIP3    H116065   2.386   2.924   3.381
 5374TIP3    H216066   2.491   3.025   3.340
 5375TIP3   OH216067   5.805   7.156   4.854
 5375TIP3    H116068   5.781   7.079   4.803
 5375TIP3    H216069   5.756   7.228   4.813
 5376TIP3   OH216070   7.176   2.347   4.495
 5376TIP3    H116071   7.187   2.252   4.492
 5376TIP3    H216072   7.245   2.378   4.553
 5377TIP3   OH216073   0.172   4.995   4.355
 5377TIP3    H116074   0.154   4.917   4.303
 5377TIP3    H216075   0.248   4.972   4.408
 5378TIP3   OH216076   6.713   6.099   0.103
 5378TIP3    H116077   6.680   6.023   0.055
 5378TIP3    H216078   6.672   6.092   0.189
 5379TIP3   OH216079   7.222   5.889   0.299
 5379TIP3    H116080   7.290   5.889   0.367
 5379TIP3    H216081   7.164   5.962   0.324
 5380TIP3   OH216082   7.513   2.852   3.292
 5380TIP3    H116083   7.427   2.890   3.311
 5380TIP3    H216084   7.573   2.901   3.349
 5381TIP3   OH216085   1.639   7.587   0.889
 5381TIP3    H116086   1.728   7.611   0.916
 5381TIP3    H216087   1.632   7.615   0.798
 5382TIP3   OH216088   2.118   6.744   1.118
 5382TIP3    H116089   2.121   6.659   1.073
 5382TIP3    H216090   2.082   6.724   1.205
 5383TIP3   OH216091   7.204   0.820   1.149
 5383TIP3    H116092   7.159   0.882   1.206
 5383TIP3    H216093   7.262   0.874   1.095
 5384TIP3   OH216094   3.759   4.022   5.612
 5384TIP3    H116095   3.703   4.043   5.687
 5384TIP3    H216096   3.840   3.989   5.651
 5385TIP3   OH216097   2.292   2.826   5.871
 5385TIP3    H116098   2.243   2.889   5.923
 5385TIP3    H216099   2.319   2.874   5.793
 5386TIP3   OH216100   0.525   0.811   3.485
 5386TIP3    H116101   0.464   0.813   3.411
 5386TIP3    H216102   0.551   0.719   3.492
 5387TIP3   OH216103   3.951   5.760   1.085
 5387TIP3    H116104   3.999   5.755   1.167
 5387TIP3    H216105   3.948   5.669   1.054
 5388TIP3   OH216106   1.380   5.258   4.087
 5388TIP3    H116107   1.448   5.227   4.146
 5388TIP3    H216108   1.305   5.277   4.144
 5389TIP3   OH216109   3.386   5.173   4.175
 5389TIP3    H116110   3.338   5.210   4.249
 5389TIP3    H216111   3.478   5.173   4.203
 5390TIP3   OH216112   4.154   6.598   5.920
 5390TIP3    H116113   4.133   6.678   5.871
 5390TIP3    H216114   4.228   6.623   5.976
 5391TIP3   OH216115   4.322   5.694   4.659
 5391TIP3    H116116   4.361   5.686   4.572
 5391TIP3    H216117   4.376   5.759   4.704
 5392TIP3   OH216118   4.815   5.175   1.047
 5392TIP3    H116119   4.890   5.180   0.988
 5392TIP3    H216120   4.829   5.094   1.096
 5393TIP3   OH216121   2.586   1.609   1.448
 5393TIP3    H116122   2.563   1.520   1.420
 5393TIP3    H216123   2.665   1.597   1.501
 5394TIP3   OH216124   3.386   5.934   4.437
 5394TIP3    H116125   3.467   5.984   4.426
 5394TIP3    H216126   3.412   5.843   4.425
 5395TIP3   OH216127   2.643   5.913   6.416
 5395TIP3    H116128   2.609   5.877   6.334
 5395TIP3    H216129   2.646   6.008   6.401
 5396TIP3   OH216130   1.987   5.678   3.374
 5396TIP3    H116131   2.067   5.701   3.421
 5396TIP3    H216132   1.940   5.761   3.366
 5397TIP3   OH216133   1.677   0.653   1.947
 5397TIP3    H116134   1.665   0.574   1.895
 5397TIP3    H216135   1.647   0.724   1.891
 5398TIP3   OH216136   7.043   5.325   0.129
 5398TIP3    H116137   7.011   5.414   0.142
 5398TIP3    H216138   7.032   5.282   0.213
 5399TIP3   OH216139   0.670   2.943   5.771
 5399TIP3    H116140   0.715   2.860   5.790
 5399TIP3    H216141   0.618   2.960   5.850
 5400TIP3   OH216142   4.571   7.579   0.605
 5400TIP3    H116143   4.590   7.567   0.698
 5400TIP3    H216144   4.528   7.665   0.601
 5401TIP3   OH216145   6.192   2.496   5.132
 5401TIP3    H116146   6.257   2.565   5.119
 5401TIP3    H216147   6.217   2.427   5.071
 5402TIP3   OH216148   0.271   6.314   2.719
 5402TIP3    H116149   0.246   6.240   2.663
 5402TIP3    H216150   0.190   6.341   2.761
 5403TIP3   OH216151   7.602   1.970   1.720
 5403TIP3    H116152   7.604   1.942   1.812
 5403TIP3    H216153   7.650   1.901   1.674
 5404TIP3   OH216154   3.689   2.933   2.602
 5404TIP3    H116155   3.735   2.961   2.681
 5404TIP3    H216156   3.750   2.953   2.531
 5405TIP3   OH216157   6.530   1.860   0.805
 5405TIP3    H116158   6.476   1.936   0.783
 5405TIP3    H216159   6.518   1.848   0.899
 5406TIP3   OH216160   0.123   1.221   5.766
 5406TIP3    H116161   0.113   1.290   5.832
 5406TIP3    H216162   0.205   1.242   5.722
 5407TIP3   OH216163   5.353   2.943   2.419
 5407TIP3    H116164   5.304   2.870   2.455
 5407TIP3    H216165   5.299   3.020   2.438
 5408TIP3   OH216166   5.565   5.443   4.173
 5408TIP3    H116167   5.590   5.526   4.213
 5408TIP3    H216168   5.648   5.401   4.150
 5409TIP3   OH216169   7.157   0.115   1.432
 5409TIP3    H116170   7.218   0.183   1.461
 5409TIP3    H216171   7.091   0.161   1.381
 5410TIP3   OH216172   4.179   0.580   2.448
 5410TIP3    H116173   4.111   0.645   2.430
 5410TIP3    H216174   4.134   0.496   2.445
 5411TIP3   OH216175   6.984   4.315   2.809
 5411TIP3    H116176   7.020   4.226   2.819
 5411TIP3    H216177   7.010   4.341   2.720
 5412TIP3   OH216178   7.868   0.685   1.728
 5412TIP3    H116179   7.891   0.642   1.810
 5412TIP3    H216180   7.776   0.709   1.737
 5413TIP3   OH216181   5.124   7.084   1.132
 5413TIP3    H116182   5.033   7.094   1.102
 5413TIP3    H216183   5.129   7.138   1.211
 5414TIP3   OH216184   2.411   3.186   5.243
 5414TIP3    H116185   2.505   3.173   5.256
 5414TIP3    H216186   2.399   3.179   5.149
 5415TIP3   OH216187   0.331   3.981   0.499
 5415TIP3    H116188   0.294   4.045   0.559
 5415TIP3    H216189   0.404   3.943   0.547
 5416TIP3   OH216190   8.071   2.855   5.004
 5416TIP3    H116191   8.094   2.911   5.078
 5416TIP3    H216192   8.139   2.873   4.939
 5417TIP3   OH216193   0.220   3.129   1.058
 5417TIP3    H116194   0.170   3.098   1.134
 5417TIP3    H216195   0.293   3.069   1.051
 5418TIP3   OH216196   3.974   1.409   3.072
 5418TIP3    H116197   3.899   1.351   3.058
 5418TIP3    H216198   3.946   1.468   3.142
 5419TIP3   OH216199   3.255   0.749   5.054
 5419TIP3    H116200   3.310   0.772   4.978
 5419TIP3    H216201   3.317   0.742   5.127
 5420TIP3   OH216202   2.187   1.997   2.777
 5420TIP3    H116203   2.182   1.950   2.693
 5420TIP3    H216204   2.136   2.077   2.762
 5421TIP3   OH216205   6.795   5.508   1.129
 5421TIP3    H116206   6.709   5.508   1.170
 5421TIP3    H216207   6.778   5.535   1.038
 5422TIP3   OH216208   8.276   4.665   6.434
 5422TIP3    H116209   8.368   4.688   6.448
 5422TIP3    H216210   8.263   4.587   6.488
 5423TIP3   OH216211   5.159   6.535   5.829
 5423TIP3    H116212   5.065   6.533   5.809
 5423TIP3    H216213   5.167   6.598   5.900
 5424TIP3   OH216214   2.306   7.736   1.509
 5424TIP3    H116215   2.240   7.684   1.554
 5424TIP3    H216216   2.257   7.808   1.469
 5425TIP3   OH216217   3.914   6.044   2.063
 5425TIP3    H116218   3.933   6.029   1.970
 5425TIP3    H216219   3.944   6.134   2.079
 5426TIP3   OH216220   6.525   3.387   0.728
 5426TIP3    H116221   6.477   3.318   0.681
 5426TIP3    H216222   6.459   3.452   0.749
 5427TIP3   OH216223   3.696   5.138   3.881
 5427TIP3    H116224   3.720   5.139   3.974
 5427TIP3    H216225   3.675   5.047   3.862
 5428TIP3   OH216226   6.778   6.095   5.886
 5428TIP3    H116227   6.747   6.179   5.920
 5428TIP3    H216228   6.702   6.038   5.889
 5429TIP3   OH216229   6.310   1.886   6.218
 5429TIP3    H116230   6.401   1.913   6.209
 5429TIP3    H216231   6.304   1.852   6.307
 5430TIP3   OH216232   7.571   3.288   3.648
 5430TIP3    H116233   7.475   3.284   3.646
 5430TIP3    H216234   7.594   3.357   3.586
 5431TIP3   OH216235   0.880   4.680   6.376
 5431TIP3    H116236   0.968   4.691   6.411
 5431TIP3    H216237   0.892   4.638   6.291
 5432TIP3   OH216238   3.533   6.465   2.809
 5432TIP3    H116239   3.442   6.489   2.822
 5432TIP3    H216240   3.563   6.435   2.895
 5433TIP3   OH216241   4.575   7.579   3.977
 5433TIP3    H116242   4.560   7.673   3.987
 5433TIP3    H216243   4.623   7.571   3.895
 5434TIP3   OH216244   3.911   6.555   6.037
 5434TIP3    H116245   3.987   6.551   5.979
 5434TIP3    H216246   3.880   6.645   6.029
 5435TIP3   OH216247   4.657   7.586   1.834
 5435TIP3    H116248   4.637   7.578   1.927
 5435TIP3    H216249   4.593   7.648   1.801
 5436TIP3   OH216250   0.879   0.431   3.493
 5436TIP3    H116251   0.901   0.355   3.440
 5436TIP3    H216252   0.952   0.439   3.555
 5437TIP3   OH216253   5.664   0.023   2.926
 5437TIP3    H116254   5.728  -0.016   2.985
 5437TIP3    H216255   5.679  -0.021   2.842
 5438TIP3   OH216256   1.167   6.577   5.138
 5438TIP3    H116257   1.114   6.577   5.218
 5438TIP3    H216258   1.237   6.515   5.156
 5439TIP3   OH216259   5.505   6.876   6.514
 5439TIP3    H116260   5.534   6.958   6.475
 5439TIP3    H216261   5.555   6.869   6.595
 5440TIP3   OH216262   4.310   6.293   5.422
 5440TIP3    H116263   4.358   6.286   5.340
 5440TIP3    H216264   4.258   6.373   5.412
 5441TIP3   OH216265   4.921   2.355   1.365
 5441TIP3    H116266   4.948   2.368   1.274
 5441TIP3    H216267   4.844   2.298   1.360
 5442TIP3   OH216268   5.709   2.223   1.367
 5442TIP3    H116269   5.639   2.249   1.426
 5442TIP3    H216270   5.757   2.156   1.415
 5443TIP3   OH216271   1.635   6.657   3.018
 5443TIP3    H116272   1.693   6.707   3.075
 5443TIP3    H216273   1.603   6.586   3.074
 5444TIP3   OH216274   5.958   2.468   2.838
 5444TIP3    H116275   6.018   2.415   2.890
 5444TIP3    H216276   5.967   2.435   2.749
 5445TIP3   OH216277   6.258   4.790   1.525
 5445TIP3    H116278   6.195   4.741   1.579
 5445TIP3    H216279   6.262   4.876   1.567
 5446TIP3   OH216280   2.296   5.471   4.918
 5446TIP3    H116281   2.386   5.498   4.935
 5446TIP3    H216282   2.262   5.444   5.003
 5447TIP3   OH216283   0.984   1.701   5.629
 5447TIP3    H116284   0.973   1.732   5.719
 5447TIP3    H216285   1.009   1.609   5.638
 5448TIP3   OH216286   2.842   6.576   0.729
 5448TIP3    H116287   2.800   6.657   0.700
 5448TIP3    H216288   2.934   6.586   0.704
 5449TIP3   OH216289   4.451   0.492   1.599
 5449TIP3    H116290   4.464   0.432   1.526
 5449TIP3    H216291   4.499   0.571   1.575
 5450TIP3   OH216292   0.858   1.737   2.025
 5450TIP3    H116293   0.762   1.729   2.025
 5450TIP3    H216294   0.874   1.828   2.000
 5451TIP3   OH216295   0.327   5.681   6.096
 5451TIP3    H116296   0.316   5.765   6.052
 5451TIP3    H216297   0.386   5.699   6.169
 5452TIP3   OH216298   2.446   6.321   1.036
 5452TIP3    H116299   2.420   6.276   0.956
 5452TIP3    H216300   2.397   6.403   1.035
 5453TIP3   OH216301   0.514   0.409   2.041
 5453TIP3    H116302   0.500   0.481   2.103
 5453TIP3    H216303   0.430   0.398   1.996
 5454TIP3   OH216304   3.273   4.247   5.988
 5454TIP3    H116305   3.204   4.299   6.029
 5454TIP3    H216306   3.341   4.241   6.056
 5455TIP3   OH216307   1.705   5.967   4.305
 5455TIP3    H116308   1.622   5.926   4.328
 5455TIP3    H216309   1.767   5.935   4.371
 5456TIP3   OH216310   2.653   1.059   0.454
 5456TIP3    H116311   2.618   0.975   0.483
 5456TIP3    H216312   2.586   1.122   0.479
 5457TIP3   OH216313   4.084   0.322   6.462
 5457TIP3    H116314   4.128   0.292   6.542
 5457TIP3    H216315   4.112   0.261   6.394
 5458TIP3   OH216316   7.872   7.633   0.224
 5458TIP3    H116317   7.813   7.567   0.187
 5458TIP3    H216318   7.927   7.660   0.150
 5459TIP3   OH216319   3.124   6.035   6.653
 5459TIP3    H116320   3.124   6.019   6.748
 5459TIP3    H216321   3.036   6.068   6.634
 5460TIP3   OH216322   6.725   6.947   0.299
 5460TIP3    H116323   6.675   7.002   0.359
 5460TIP3    H216324   6.747   7.005   0.226
 5461TIP3   OH216325   5.200   3.399   5.564
 5461TIP3    H116326   5.150   3.337   5.511
 5461TIP3    H216327   5.209   3.357   5.649
 5462TIP3   OH216328   5.073   7.608   6.440
 5462TIP3    H116329   5.155   7.570   6.405
 5462TIP3    H216330   5.010   7.536   6.436
 5463TIP3   OH216331   6.853   5.802   6.512
 5463TIP3    H116332   6.812   5.875   6.466
 5463TIP3    H216333   6.802   5.792   6.592
 5464TIP3   OH216334   7.372   5.624   1.910
 5464TIP3    H116335   7.389   5.619   1.816
 5464TIP3    H216336   7.363   5.532   1.937
 5465TIP3   OH216337   4.227   2.059   2.700
 5465TIP3    H116338   4.139   2.095   2.702
 5465TIP3    H216339   4.276   2.111   2.762
 5466TIP3   OH216340   0.764   7.000   4.571
 5466TIP3    H116341   0.846   6.950   4.568
 5466TIP3    H216342   0.732   6.987   4.660
 5467TIP3   OH216343   1.678   2.029   0.869
 5467TIP3    H116344   1.739   2.097   0.839
 5467TIP3    H216345   1.695   1.955   0.810
 5468TIP3   OH216346   2.843   3.490   6.351
 5468TIP3    H116347   2.760   3.530   6.327
 5468TIP3    H216348   2.906   3.562   6.349
 5469TIP3   OH216349   3.690   0.170   2.122
 5469TIP3    H116350   3.762   0.206   2.174
 5469TIP3    H216351   3.671   0.238   2.057
 5470TIP3   OH216352   7.550   1.502   4.624
 5470TIP3    H116353   7.487   1.501   4.552
 5470TIP3    H216354   7.612   1.432   4.603
 5471TIP3   OH216355   7.539   2.455   6.434
 5471TIP3    H116356   7.449   2.481   6.412
 5471TIP3    H216357   7.565   2.398   6.362
 5472TIP3   OH216358   3.777   1.261   6.635
 5472TIP3    H116359   3.818   1.239   6.718
 5472TIP3    H216360   3.808   1.193   6.574
 5473TIP3   OH216361   5.763   5.802   2.848
 5473TIP3    H116362   5.770   5.744   2.924
 5473TIP3    H216363   5.828   5.769   2.786
 5474TIP3   OH216364   6.222   4.382   6.432
 5474TIP3    H116365   6.172   4.305   6.460
 5474TIP3    H216366   6.172   4.418   6.359
 5475TIP3   OH216367   5.974   4.299   6.501
 5475TIP3    H116368   5.887   4.332   6.528
 5475TIP3    H216369   5.981   4.324   6.409
 5476TIP3   OH216370   0.342   2.906   0.980
 5476TIP3    H116371   0.360   2.816   1.008
 5476TIP3    H216372   0.250   2.905   0.953
 5477TIP3   OH216373   5.923   5.042   5.175
 5477TIP3    H116374   5.948   5.124   5.219
 5477TIP3    H216375   5.967   5.046   5.090
 5478TIP3   OH216376   2.186   2.311   2.417
 5478TIP3    H116377   2.096   2.310   2.450
 5478TIP3    H216378   2.225   2.389   2.456
 5479TIP3   OH216379   6.953   0.182   5.585
 5479TIP3    H116380   6.947   0.148   5.496
 5479TIP3    H216381   6.861   0.195   5.612
 5480TIP3   OH216382   3.053   5.745   2.221
 5480TIP3    H116383   2.967   5.730   2.180
 5480TIP3    H216384   3.093   5.813   2.168
 5481TIP3   OH216385   4.561   3.359   2.078
 5481TIP3    H116386   4.602   3.428   2.027
 5481TIP3    H216387   4.630   3.329   2.138
 5482TIP3   OH216388   2.157   4.108   0.325
 5482TIP3    H116389   2.100   4.085   0.252
 5482TIP3    H216390   2.100   4.103   0.402
 5483TIP3   OH216391   6.607   3.919   3.465
 5483TIP3    H116392   6.644   3.908   3.378
 5483TIP3    H216393   6.659   3.862   3.521
 5484TIP3   OH216394   5.480   5.503   1.871
 5484TIP3    H116395   5.481   5.547   1.956
 5484TIP3    H216396   5.515   5.567   1.810
 5485TIP3   OH216397   6.477   0.093   0.718
 5485TIP3    H116398   6.541   0.105   0.788
 5485TIP3    H216399   6.517   0.028   0.660
 5486TIP3   OH216400   6.229   2.913   5.249
 5486TIP3    H116401   6.276   2.831   5.233
 5486TIP3    H216402   6.223   2.919   5.344
 5487TIP3   OH216403   0.567   3.150   5.572
 5487TIP3    H116404   0.490   3.201   5.597
 5487TIP3    H216405   0.580   3.089   5.646
 5488TIP3   OH216406   4.858   6.208   4.412
 5488TIP3    H116407   4.893   6.242   4.330
 5488TIP3    H216408   4.768   6.240   4.416
 5489TIP3   OH216409   8.246   0.445   0.252
 5489TIP3    H116410   8.216   0.532   0.277
 5489TIP3    H216411   8.166   0.393   0.245
 5490TIP3   OH216412   6.015   2.917   3.442
 5490TIP3    H116413   6.027   3.002   3.485
 5490TIP3    H216414   6.100   2.874   3.453
 5491TIP3   OH216415   4.479   7.569   4.997
 5491TIP3    H116416   4.486   7.637   5.064
 5491TIP3    H216417   4.496   7.615   4.915
 5492TIP3   OH216418   7.528   6.154   3.669
 5492TIP3    H116419   7.603   6.194   3.626
 5492TIP3    H216420   7.516   6.206   3.749
 5493TIP3   OH216421   1.701   2.352   1.067
 5493TIP3    H116422   1.654   2.290   1.123
 5493TIP3    H216423   1.635   2.415   1.039
 5494TIP3   OH216424   7.287   3.423   3.550
 5494TIP3    H116425   7.360   3.485   3.549
 5494TIP3    H216426   7.302   3.365   3.476
 5495TIP3   OH216427   4.623   2.810   2.092
 5495TIP3    H116428   4.704   2.836   2.048
 5495TIP3    H216429   4.643   2.723   2.128
 5496TIP3   OH216430   0.273   5.429   6.130
 5496TIP3    H116431   0.196   5.425   6.187
 5496TIP3    H216432   0.284   5.522   6.111
 5497TIP3   OH216433   4.912   3.271   6.766
 5497TIP3    H116434   4.905   3.184   6.805
 5497TIP3    H216435   4.924   3.255   6.672
 5498TIP3   OH216436   5.664   0.397   0.446
 5498TIP3    H116437   5.656   0.324   0.508
 5498TIP3    H216438   5.574   0.430   0.437
 5499TIP3   OH216439   0.685   4.625   1.161
 5499TIP3    H116440   0.615   4.689   1.168
 5499TIP3    H216441   0.668   4.563   1.232
 5500TIP3   OH216442   8.106   5.951   4.025
 5500TIP3    H116443   8.089   5.869   4.073
 5500TIP3    H216444   8.085   6.020   4.087
 5501TIP3   OH216445  -0.013   0.837   0.156
 5501TIP3    H116446   0.059   0.776   0.144
 5501TIP3    H216447  -0.026   0.877   0.070
 5502TIP3   OH216448   7.244   2.170   2.721
 5502TIP3    H116449   7.157   2.172   2.682
 5502TIP3    H216450   7.234   2.215   2.805
 5503TIP3   OH216451   2.395   2.165   5.261
 5503TIP3    H116452   2.308   2.193   5.291
 5503TIP3    H216453   2.436   2.126   5.338
 5504TIP3   OH216454   7.981   7.441   3.437
 5504TIP3    H116455   7.976   7.490   3.355
 5504TIP3    H216456   8.053   7.482   3.485
 5505TIP3   OH216457   2.404   2.230   4.965
 5505TIP3    H116458   2.377   2.249   5.055
 5505TIP3    H216459   2.361   2.148   4.944
 5506TIP3   OH216460   3.174   3.419   2.629
 5506TIP3    H116461   3.249   3.399   2.572
 5506TIP3    H216462   3.107   3.356   2.604
 5507TIP3   OH216463   3.569   4.351   1.233
 5507TIP3    H116464   3.519   4.295   1.293
 5507TIP3    H216465   3.512   4.427   1.218
 5508TIP3   OH216466   3.418   7.138   1.654
 5508TIP3    H116467   3.373   7.057   1.630
 5508TIP3    H216468   3.476   7.112   1.725
 5509TIP3   OH216469   5.232   3.250   3.429
 5509TIP3    H116470   5.252   3.314   3.361
 5509TIP3    H216471   5.164   3.291   3.482
 5510TIP3   OH216472   1.518   3.845   5.938
 5510TIP3    H116473   1.587   3.824   6.000
 5510TIP3    H216474   1.466   3.765   5.932
 5511TIP3   OH216475   0.427   2.666   4.890
 5511TIP3    H116476   0.350   2.652   4.946
 5511TIP3    H216477   0.403   2.740   4.834
 5512TIP3   OH216478   2.018   0.945   5.237
 5512TIP3    H116479   2.074   0.984   5.305
 5512TIP3    H216480   2.028   1.003   5.162
 5513TIP3   OH216481   3.724   2.281   6.421
 5513TIP3    H116482   3.660   2.338   6.378
 5513TIP3    H216483   3.772   2.339   6.480
 5514TIP3   OH216484   7.168   3.700   0.155
 5514TIP3    H116485   7.205   3.673   0.071
 5514TIP3    H216486   7.161   3.618   0.205
 5515TIP3   OH216487   2.646   1.565   5.662
 5515TIP3    H116488   2.714   1.625   5.692
 5515TIP3    H216489   2.669   1.546   5.571
 5516TIP3   OH216490   1.918   7.650   6.526
 5516TIP3    H116491   1.990   7.595   6.558
 5516TIP3    H216492   1.908   7.626   6.434
 5517TIP3   OH216493   0.618   5.674   3.976
 5517TIP3    H116494   0.601   5.756   4.023
 5517TIP3    H216495   0.602   5.605   4.041
 5518TIP3   OH216496   1.632   2.642   6.105
 5518TIP3    H116497   1.654   2.588   6.181
 5518TIP3    H216498   1.582   2.715   6.142
 5519TIP3   OH216499   7.321   2.584   4.374
 5519TIP3    H116500   7.399   2.539   4.343
 5519TIP3    H216501   7.287   2.528   4.443
 5520TIP3   OH216502   2.546   0.849   5.435
 5520TIP3    H116503   2.609   0.778   5.422
 5520TIP3    H216504   2.478   0.832   5.370
 5521TIP3   OH216505   5.703   6.932   2.197
 5521TIP3    H116506   5.709   6.961   2.106
 5521TIP3    H216507   5.792   6.907   2.220
 5522TIP3   OH216508   5.865   5.136   0.023
 5522TIP3    H116509   5.957   5.152   0.043
 5522TIP3    H216510   5.843   5.201  -0.044
 5523TIP3   OH216511   2.782   4.529   1.331
 5523TIP3    H116512   2.704   4.473   1.333
 5523TIP3    H216513   2.840   4.488   1.268
 5524TIP3   OH216514   4.217   4.168   2.594
 5524TIP3    H116515   4.297   4.176   2.541
 5524TIP3    H216516   4.238   4.100   2.658
 5525TIP3   OH216517   4.823   6.986   2.097
 5525TIP3    H116518   4.793   7.054   2.158
 5525TIP3    H216519   4.913   7.012   2.076
 5526TIP3   OH216520   2.346   1.339   3.979
 5526TIP3    H116521   2.395   1.419   3.998
 5526TIP3    H216522   2.331   1.300   4.065
 5527TIP3   OH216523   5.224   7.769   1.364
 5527TIP3    H116524   5.234   7.862   1.344
 5527TIP3    H216525   5.311   7.740   1.392
 5528TIP3   OH216526   4.980   3.895   4.391
 5528TIP3    H116527   5.016   3.841   4.321
 5528TIP3    H216528   4.945   3.831   4.454
 5529TIP3   OH216529   5.248   0.508   1.616
 5529TIP3    H116530   5.343   0.524   1.609
 5529TIP3    H216531   5.241   0.425   1.662
 5530TIP3   OH216532   3.169   3.401   0.965
 5530TIP3    H116533   3.161   3.496   0.970
 5530TIP3    H216534   3.169   3.372   1.056
 5531TIP3   OH216535   7.661   1.751   1.234
 5531TIP3    H116536   7.748   1.784   1.255
 5531TIP3    H216537   7.658   1.665   1.276
 5532TIP3   OH216538   2.037   2.825   4.189
 5532TIP3    H116539   2.088   2.865   4.260
 5532TIP3    H216540   2.098   2.763   4.147
 5533TIP3   OH216541   3.731   3.114   2.168
 5533TIP3    H116542   3.759   3.181   2.231
 5533TIP3    H216543   3.636   3.112   2.177
 5534TIP3   OH216544   7.437   4.497   1.813
 5534TIP3    H116545   7.438   4.578   1.762
 5534TIP3    H216546   7.497   4.514   1.885
 5535TIP3   OH216547   6.947   7.368   2.101
 5535TIP3    H116548   6.944   7.390   2.008
 5535TIP3    H216549   6.865   7.322   2.118
 5536TIP3   OH216550   7.186   0.014   0.643
 5536TIP3    H116551   7.240   0.093   0.652
 5536TIP3    H216552   7.097   0.045   0.659
 5537TIP3   OH216553   7.225   6.458   3.413
 5537TIP3    H116554   7.161   6.444   3.482
 5537TIP3    H216555   7.185   6.420   3.335
 5538TIP3   OH216556   0.169   6.424   0.122
 5538TIP3    H116557   0.207   6.425   0.210
 5538TIP3    H216558   0.100   6.491   0.125
 5539TIP3   OH216559   1.467   5.542   6.199
 5539TIP3    H116560   1.539   5.488   6.230
 5539TIP3    H216561   1.407   5.548   6.273
 5540TIP3   OH216562   6.495   1.271   2.349
 5540TIP3    H116563   6.504   1.339   2.415
 5540TIP3    H216564   6.405   1.280   2.317
 5541TIP3   OH216565   1.525   0.475   0.965
 5541TIP3    H116566   1.567   0.467   0.880
 5541TIP3    H216567   1.480   0.560   0.961
 5542TIP3   OH216568   3.831   6.735   0.177
 5542TIP3    H116569   3.845   6.822   0.216
 5542TIP3    H216570   3.736   6.726   0.174
 5543TIP3   OH216571   1.468   5.230   6.598
 5543TIP3    H116572   1.556   5.198   6.578
 5543TIP3    H216573   1.479   5.281   6.678
 5544TIP3   OH216574   7.457   1.534   0.458
 5544TIP3    H116575   7.409   1.501   0.534
 5544TIP3    H216576   7.440   1.629   0.458
 5545TIP3   OH216577   4.533   6.129   6.141
 5545TIP3    H116578   4.579   6.210   6.164
 5545TIP3    H216579   4.489   6.149   6.058
 5546TIP3   OH216580   3.022   1.226   0.062
 5546TIP3    H116581   3.039   1.198   0.152
 5546TIP3    H216582   3.096   1.282   0.040
 5547TIP3   OH216583   2.435   3.272   6.492
 5547TIP3    H116584   2.506   3.236   6.439
 5547TIP3    H216585   2.358   3.220   6.468
 5548TIP3   OH216586   4.534   1.271   2.352
 5548TIP3    H116587   4.603   1.336   2.359
 5548TIP3    H216588   4.461   1.318   2.311
 5549TIP3   OH216589   0.615   6.547   2.695
 5549TIP3    H116590   0.540   6.585   2.741
 5549TIP3    H216591   0.582   6.524   2.609
 5550TIP3   OH216592   3.703   5.565   1.329
 5550TIP3    H116593   3.782   5.565   1.383
 5550TIP3    H216594   3.674   5.656   1.329
 5551TIP3   OH216595   7.509   1.354   2.109
 5551TIP3    H116596   7.603   1.356   2.090
 5551TIP3    H216597   7.503   1.334   2.202
 5552TIP3   OH216598   2.577   1.380   3.537
 5552TIP3    H116599   2.529   1.430   3.470
 5552TIP3    H216600   2.660   1.427   3.546
 5553TIP3   OH216601   8.275   4.511   3.991
 5553TIP3    H116602   8.223   4.550   3.921
 5553TIP3    H216603   8.274   4.417   3.972
 5554TIP3   OH216604   1.719   3.630   5.673
 5554TIP3    H116605   1.725   3.630   5.577
 5554TIP3    H216606   1.712   3.723   5.696
 5555TIP3   OH216607   2.274   3.952   3.099
 5555TIP3    H116608   2.335   3.983   3.166
 5555TIP3    H216609   2.218   3.888   3.144
 5556TIP3   OH216610   7.550   2.979   0.595
 5556TIP3    H116611   7.575   2.921   0.667
 5556TIP3    H216612   7.575   3.067   0.625
 5557TIP3   OH216613   0.112   1.535   3.594
 5557TIP3    H116614   0.074   1.577   3.516
 5557TIP3    H216615   0.199   1.573   3.601
 5558TIP3   OH216616   1.936   5.228   3.211
 5558TIP3    H116617   1.941   5.224   3.306
 5558TIP3    H216618   1.930   5.321   3.190
 5559TIP3   OH216619   7.894   5.445   3.354
 5559TIP3    H116620   7.866   5.467   3.442
 5559TIP3    H216621   7.814   5.414   3.310
 5560TIP3   OH216622   1.109   1.892   3.869
 5560TIP3    H116623   1.134   1.941   3.948
 5560TIP3    H216624   1.188   1.891   3.816
 5561TIP3   OH216625   4.986   2.157   3.607
 5561TIP3    H116626   4.963   2.179   3.517
 5561TIP3    H216627   4.908   2.115   3.642
 5562TIP3   OH216628   2.313   4.492   5.776
 5562TIP3    H116629   2.384   4.463   5.719
 5562TIP3    H216630   2.241   4.432   5.758
 5563TIP3   OH216631   7.502   6.137   0.872
 5563TIP3    H116632   7.531   6.100   0.956
 5563TIP3    H216633   7.437   6.076   0.840
 5564TIP3   OH216634   4.076   5.460   3.644
 5564TIP3    H116635   4.024   5.434   3.721
 5564TIP3    H216636   4.164   5.428   3.662
 5565TIP3   OH216637   0.515   0.764   0.405
 5565TIP3    H116638   0.603   0.729   0.390
 5565TIP3    H216639   0.509   0.773   0.500
 5566TIP3   OH216640   2.153   4.770   3.952
 5566TIP3    H116641   2.220   4.829   3.918
 5566TIP3    H216642   2.146   4.792   4.044
 5567TIP3   OH216643   2.296   7.314   1.430
 5567TIP3    H116644   2.215   7.337   1.384
 5567TIP3    H216645   2.362   7.371   1.391
 5568TIP3   OH216646   2.748   0.473   2.852
 5568TIP3    H116647   2.768   0.472   2.945
 5568TIP3    H216648   2.673   0.414   2.842
 5569TIP3   OH216649   3.042   1.939   4.063
 5569TIP3    H116650   2.982   1.978   3.999
 5569TIP3    H216651   3.090   2.013   4.100
 5570TIP3   OH216652   8.089   6.634   4.275
 5570TIP3    H116653   8.151   6.703   4.297
 5570TIP3    H216654   8.010   6.681   4.247
 5571TIP3   OH216655   6.931   1.860   6.283
 5571TIP3    H116656   6.964   1.840   6.370
 5571TIP3    H216657   6.850   1.809   6.276
 5572TIP3   OH216658   2.816   3.408   4.351
 5572TIP3    H116659   2.838   3.359   4.272
 5572TIP3    H216660   2.879   3.481   4.352
 5573TIP3   OH216661   7.213   4.798   4.610
 5573TIP3    H116662   7.141   4.861   4.616
 5573TIP3    H216663   7.170   4.713   4.602
 5574TIP3   OH216664   3.244   6.263   1.679
 5574TIP3    H116665   3.287   6.213   1.609
 5574TIP3    H216666   3.169   6.305   1.636
 5575TIP3   OH216667   6.447   6.437   5.839
 5575TIP3    H116668   6.367   6.394   5.809
 5575TIP3    H216669   6.472   6.493   5.765
 5576TIP3   OH216670   2.337   6.164   0.839
 5576TIP3    H116671   2.332   6.239   0.779
 5576TIP3    H216672   2.246   6.134   0.846
 5577TIP3   OH216673   3.299   4.804   0.328
 5577TIP3    H116674   3.317   4.774   0.239
 5577TIP3    H216675   3.214   4.848   0.322
 5578TIP3   OH216676   6.069   5.516   1.741
 5578TIP3    H116677   6.089   5.423   1.751
 5578TIP3    H216678   5.976   5.518   1.718
 5579TIP3   OH216679   3.067   3.365   1.265
 5579TIP3    H116680   2.997   3.390   1.204
 5579TIP3    H216681   3.022   3.329   1.341
 5580TIP3   OH216682   0.797   0.882   1.269
 5580TIP3    H116683   0.741   0.849   1.340
 5580TIP3    H216684   0.886   0.854   1.294
 5581TIP3   OH216685   6.677   3.482   5.710
 5581TIP3    H116686   6.741   3.548   5.683
 5581TIP3    H216687   6.725   3.426   5.771
 5582TIP3   OH216688   0.134   6.079   5.418
 5582TIP3    H116689   0.044   6.089   5.449
 5582TIP3    H216690   0.175   6.020   5.481
 5583TIP3   OH216691   6.449   5.128   4.093
 5583TIP3    H116692   6.453   5.049   4.147
 5583TIP3    H216693   6.503   5.192   4.140
 5584TIP3   OH216694   3.795   1.619   6.004
 5584TIP3    H116695   3.789   1.678   6.079
 5584TIP3    H216696   3.776   1.674   5.928
 5585TIP3   OH216697   1.277   5.992   3.255
 5585TIP3    H116698   1.262   6.081   3.224
 5585TIP3    H216699   1.266   5.997   3.350
 5586TIP3   OH216700   4.778   5.306   5.250
 5586TIP3    H116701   4.745   5.232   5.300
 5586TIP3    H216702   4.713   5.321   5.181
 5587TIP3   OH216703   2.975   4.253   4.142
 5587TIP3    H116704   3.063   4.222   4.161
 5587TIP3    H216705   2.987   4.317   4.072
 5588TIP3   OH216706   0.496   7.768   6.636
 5588TIP3    H116707   0.406   7.737   6.641
 5588TIP3    H216708   0.493   7.843   6.576
 5589TIP3   OH216709   4.606   1.790   4.935
 5589TIP3    H116710   4.539   1.736   4.977
 5589TIP3    H216711   4.638   1.736   4.862
 5590TIP3   OH216712   1.884   6.858   4.097
 5590TIP3    H116713   1.864   6.780   4.149
 5590TIP3    H216714   1.821   6.856   4.025
 5591TIP3   OH216715   7.914   3.470   1.166
 5591TIP3    H116716   7.846   3.406   1.145
 5591TIP3    H216717   7.907   3.480   1.261
 5592TIP3   OH216718   7.575   3.651   1.589
 5592TIP3    H116719   7.529   3.593   1.650
 5592TIP3    H216720   7.521   3.729   1.583
 5593TIP3   OH216721   8.261   1.529   5.305
 5593TIP3    H116722   8.346   1.493   5.331
 5593TIP3    H216723   8.199   1.457   5.321
 5594TIP3   OH216724   3.396   6.670   3.028
 5594TIP3    H116725   3.356   6.631   2.950
 5594TIP3    H216726   3.487   6.685   3.002
 5595TIP3   OH216727   4.090   7.708   2.495
 5595TIP3    H116728   4.127   7.747   2.574
 5595TIP3    H216729   4.164   7.665   2.452
 5596TIP3   OH216730   5.624   3.369   6.004
 5596TIP3    H116731   5.714   3.402   5.998
 5596TIP3    H216732   5.578   3.433   6.057
 5597TIP3   OH216733   6.019   7.078   1.018
 5597TIP3    H116734   6.015   7.172   1.000
 5597TIP3    H216735   5.953   7.062   1.085
 5598TIP3   OH216736   3.405   7.263   3.568
 5598TIP3    H116737   3.485   7.213   3.584
 5598TIP3    H216738   3.386   7.305   3.652
 5599TIP3   OH216739   0.340   3.532   1.661
 5599TIP3    H116740   0.432   3.541   1.639
 5599TIP3    H216741   0.336   3.551   1.755
 5600TIP3   OH216742   2.984   3.524   6.723
 5600TIP3    H116743   2.968   3.488   6.810
 5600TIP3    H216744   2.914   3.489   6.669
 5601TIP3   OH216745   3.458   3.318   3.700
 5601TIP3    H116746   3.492   3.402   3.669
 5601TIP3    H216747   3.418   3.278   3.623
 5602TIP3   OH216748   6.550   3.121   6.214
 5602TIP3    H116749   6.541   3.163   6.129
 5602TIP3    H216750   6.582   3.033   6.195
 5603TIP3   OH216751   5.960   0.681   1.042
 5603TIP3    H116752   5.988   0.701   1.131
 5603TIP3    H216753   5.933   0.765   1.005
 5604TIP3   OH216754   4.166   5.631   0.622
 5604TIP3    H116755   4.215   5.589   0.693
 5604TIP3    H216756   4.204   5.595   0.542
 5605TIP3   OH216757   3.785   6.025   1.137
 5605TIP3    H116758   3.828   6.111   1.138
 5605TIP3    H216759   3.824   5.978   1.210
 5606TIP3   OH216760   7.298   0.502   4.000
 5606TIP3    H116761   7.252   0.578   4.034
 5606TIP3    H216762   7.330   0.456   4.078
 5607TIP3   OH216763   6.792   5.294   1.531
 5607TIP3    H116764   6.832   5.209   1.512
 5607TIP3    H216765   6.700   5.274   1.546
 5608TIP3   OH216766   7.619   1.112   0.870
 5608TIP3    H116767   7.582   1.168   0.802
 5608TIP3    H216768   7.567   1.132   0.948
 5609TIP3   OH216769   2.202   3.082   6.437
 5609TIP3    H116770   2.109   3.068   6.455
 5609TIP3    H216771   2.208   3.089   6.342
 5610TIP3   OH216772   1.590   0.454   1.425
 5610TIP3    H116773   1.673   0.443   1.378
 5610TIP3    H216774   1.559   0.541   1.397
 5611TIP3   OH216775   6.945   7.361   0.724
 5611TIP3    H116776   6.934   7.374   0.818
 5611TIP3    H216777   6.919   7.444   0.685
 5612TIP3   OH216778   1.905   7.130   2.714
 5612TIP3    H116779   1.903   7.049   2.766
 5612TIP3    H216780   1.813   7.146   2.692
 5613TIP3   OH216781   4.869   2.182   5.706
 5613TIP3    H116782   4.943   2.214   5.757
 5613TIP3    H216783   4.837   2.258   5.657
 5614TIP3   OH216784   5.163   7.270   5.148
 5614TIP3    H116785   5.255   7.296   5.135
 5614TIP3    H216786   5.115   7.352   5.150
 5615TIP3   OH216787   4.632   4.782   4.043
 5615TIP3    H116788   4.688   4.833   3.984
 5615TIP3    H216789   4.627   4.835   4.123
 5616TIP3   OH216790   5.205   0.786   3.203
 5616TIP3    H116791   5.274   0.817   3.261
 5616TIP3    H216792   5.224   0.828   3.119
 5617TIP3   OH216793   5.951   0.844   3.757
 5617TIP3    H116794   6.016   0.852   3.827
 5617TIP3    H216795   5.867   0.842   3.804
 5618TIP3   OH216796   0.086   2.699   1.743
 5618TIP3    H116797   0.001   2.718   1.783
 5618TIP3    H216798   0.110   2.614   1.780
 5619TIP3   OH216799   0.641   7.110   3.018
 5619TIP3    H116800   0.617   7.032   2.968
 5619TIP3    H216801   0.633   7.083   3.110
 5620TIP3   OH216802   6.748   0.494   1.888
 5620TIP3    H116803   6.701   0.429   1.939
 5620TIP3    H216804   6.685   0.523   1.822
 5621TIP3   OH216805   2.215   3.927   4.704
 5621TIP3    H116806   2.155   3.971   4.764
 5621TIP3    H216807   2.172   3.930   4.619
 5622TIP3   OH216808   5.591   1.469   3.337
 5622TIP3    H116809   5.642   1.508   3.408
 5622TIP3    H216810   5.529   1.411   3.381
 5623TIP3   OH216811   0.137   4.146   5.983
 5623TIP3    H116812   0.121   4.240   5.979
 5623TIP3    H216813   0.175   4.124   5.897
 5624TIP3   OH216814   3.551   4.755   5.900
 5624TIP3    H116815   3.476   4.785   5.849
 5624TIP3    H216816   3.576   4.832   5.952
 5625TIP3   OH216817   2.878   5.031   0.248
 5625TIP3    H116818   2.841   5.042   0.161
 5625TIP3    H216819   2.972   5.045   0.237
 5626TIP3   OH216820   7.879   2.544   5.610
 5626TIP3    H116821   7.800   2.540   5.556
 5626TIP3    H216822   7.854   2.597   5.685
 5627TIP3   OH216823   5.500   2.063   1.990
 5627TIP3    H116824   5.521   2.105   2.074
 5627TIP3    H216825   5.484   1.972   2.011
 5628TIP3   OH216826   0.165   2.477   2.226
 5628TIP3    H116827   0.178   2.387   2.257
 5628TIP3    H216828   0.127   2.522   2.301
 5629TIP3   OH216829   0.857   0.410   3.985
 5629TIP3    H116830   0.787   0.472   4.004
 5629TIP3    H216831   0.889   0.434   3.898
 5630TIP3   OH216832   7.516   3.712   2.792
 5630TIP3    H116833   7.465   3.640   2.829
 5630TIP3    H216834   7.595   3.715   2.846
 5631TIP3   OH216835   6.420   0.160   5.386
 5631TIP3    H116836   6.334   0.198   5.404
 5631TIP3    H216837   6.420   0.077   5.433
 5632TIP3   OH216838   8.126   4.164   0.189
 5632TIP3    H116839   8.054   4.106   0.213
 5632TIP3    H216840   8.142   4.144   0.096
 5633TIP3   OH216841   7.310   6.619   1.651
 5633TIP3    H116842   7.369   6.644   1.722
 5633TIP3    H216843   7.252   6.553   1.691
 5634TIP3   OH216844   5.104   1.344   0.105
 5634TIP3    H116845   5.167   1.408   0.072
 5634TIP3    H216846   5.090   1.370   0.196
 5635TIP3   OH216847   5.207   6.741   6.010
 5635TIP3    H116848   5.167   6.765   6.094
 5635TIP3    H216849   5.218   6.824   5.964
 5636TIP3   OH216850   6.765   6.667   4.466
 5636TIP3    H116851   6.818   6.590   4.486
 5636TIP3    H216852   6.748   6.707   4.551
 5637TIP3   OH216853   1.899   4.366   1.266
 5637TIP3    H116854   1.994   4.362   1.264
 5637TIP3    H216855   1.871   4.321   1.186
 5638TIP3   OH216856   6.450   4.760   5.971
 5638TIP3    H116857   6.507   4.729   6.041
 5638TIP3    H216858   6.362   4.733   5.998
 5639TIP3   OH216859   6.460   5.405   3.796
 5639TIP3    H116860   6.504   5.373   3.717
 5639TIP3    H216861   6.532   5.425   3.856
 5640TIP3   OH216862   7.645   4.908   4.032
 5640TIP3    H116863   7.687   4.842   4.087
 5640TIP3    H216864   7.637   4.867   3.946
 5641TIP3   OH216865   8.027   3.544   6.239
 5641TIP3    H116866   7.986   3.459   6.226
 5641TIP3    H216867   8.121   3.528   6.228
 5642TIP3   OH216868   4.108   1.176   4.020
 5642TIP3    H116869   4.055   1.106   4.060
 5642TIP3    H216870   4.049   1.217   3.957
 5643TIP3   OH216871   6.103   0.629   1.313
 5643TIP3    H116872   6.196   0.641   1.334
 5643TIP3    H216873   6.057   0.660   1.391
 5644TIP3   OH216874   3.453   5.925   5.168
 5644TIP3    H116875   3.490   6.003   5.128
 5644TIP3    H216876   3.401   5.958   5.241
 5645TIP3   OH216877   1.768   0.839   0.862
 5645TIP3    H116878   1.816   0.764   0.826
 5645TIP3    H216879   1.677   0.824   0.837
 5646TIP3   OH216880   5.394   7.601   6.207
 5646TIP3    H116881   5.322   7.649   6.167
 5646TIP3    H216882   5.411   7.646   6.290
 5647TIP3   OH216883   6.641   7.307   5.104
 5647TIP3    H116884   6.549   7.332   5.117
 5647TIP3    H216885   6.653   7.310   5.009
 5648TIP3   OH216886   6.238   3.521   1.959
 5648TIP3    H116887   6.172   3.456   1.935
 5648TIP3    H216888   6.307   3.510   1.893
 5649TIP3   OH216889   5.386   3.166   5.583
 5649TIP3    H116890   5.387   3.222   5.506
 5649TIP3    H216891   5.456   3.199   5.639
 5650TIP3   OH216892   0.246   0.966   4.015
 5650TIP3    H116893   0.269   1.026   4.087
 5650TIP3    H216894   0.184   1.016   3.962
 5651TIP3   OH216895   6.554   2.696   3.026
 5651TIP3    H116896   6.584   2.608   3.001
 5651TIP3    H216897   6.622   2.729   3.085
 5652TIP3   OH216898   0.718   0.276   0.086
 5652TIP3    H116899   0.789   0.330   0.121
 5652TIP3    H216900   0.726   0.284  -0.009
 5653TIP3   OH216901   3.732   2.759   3.919
 5653TIP3    H116902   3.706   2.804   3.839
 5653TIP3    H216903   3.724   2.666   3.898
 5654TIP3   OH216904   3.450   5.477   2.369
 5654TIP3    H116905   3.476   5.394   2.330
 5654TIP3    H216906   3.479   5.472   2.460
 5655TIP3   OH216907   5.345   6.339   5.854
 5655TIP3    H116908   5.278   6.406   5.866
 5655TIP3    H216909   5.311   6.281   5.787
 5656TIP3   OH216910   7.206   7.359   0.215
 5656TIP3    H116911   7.276   7.414   0.181
 5656TIP3    H216912   7.129   7.415   0.216
 5657TIP3   OH216913   1.003   7.734   2.113
 5657TIP3    H116914   0.958   7.818   2.115
 5657TIP3    H216915   1.091   7.754   2.081
 5658TIP3   OH216916   1.287   3.099   5.210
 5658TIP3    H116917   1.278   3.051   5.128
 5658TIP3    H216918   1.256   3.038   5.277
 5659TIP3   OH216919   4.608   3.551   0.062
 5659TIP3    H116920   4.524   3.564   0.106
 5659TIP3    H216921   4.671   3.596   0.119
 5660TIP3   OH216922   3.553   5.452   2.793
 5660TIP3    H116923   3.566   5.365   2.832
 5660TIP3    H216924   3.597   5.446   2.707
 5661TIP3   OH216925   0.681   3.375   4.168
 5661TIP3    H116926   0.595   3.353   4.132
 5661TIP3    H216927   0.663   3.441   4.235
 5662TIP3   OH216928   7.747  -0.032   5.557
 5662TIP3    H116929   7.805  -0.075   5.495
 5662TIP3    H216930   7.716   0.047   5.512
 5663TIP3   OH216931   6.475   4.814   6.388
 5663TIP3    H116932   6.560   4.805   6.430
 5663TIP3    H216933   6.471   4.905   6.361
 5664TIP3   OH216934   0.099   4.835   1.063
 5664TIP3    H116935   0.073   4.750   1.027
 5664TIP3    H216936   0.041   4.850   1.137
 5665TIP3   OH216937   2.348   6.604   1.656
 5665TIP3    H116938   2.405   6.674   1.624
 5665TIP3    H216939   2.267   6.648   1.681
 5666TIP3   OH216940   7.404   2.291   3.475
 5666TIP3    H116941   7.379   2.294   3.383
 5666TIP3    H216942   7.498   2.273   3.475
 5667TIP3   OH216943   6.347   6.324   0.230
 5667TIP3    H116944   6.360   6.254   0.166
 5667TIP3    H216945   6.293   6.285   0.298
 5668TIP3   OH216946   3.068   5.652   4.476
 5668TIP3    H116947   3.107   5.711   4.542
 5668TIP3    H216948   3.140   5.632   4.417
 5669TIP3   OH216949   5.186   3.885   2.165
 5669TIP3    H116950   5.258   3.863   2.106
 5669TIP3    H216951   5.201   3.976   2.187
 5670TIP3   OH216952   2.031   1.240   6.515
 5670TIP3    H116953   1.940   1.263   6.497
 5670TIP3    H216954   2.059   1.189   6.439
 5671TIP3   OH216955   7.497   0.802   1.002
 5671TIP3    H116956   7.465   0.728   1.053
 5671TIP3    H216957   7.507   0.768   0.913
 5672TIP3   OH216958   7.865   0.970   6.418
 5672TIP3    H116959   7.793   0.970   6.481
 5672TIP3    H216960   7.845   0.898   6.358
 5673TIP3   OH216961   8.267   3.243   3.731
 5673TIP3    H116962   8.191   3.277   3.684
 5673TIP3    H216963   8.247   3.260   3.824
 5674TIP3   OH216964   7.455   2.721   0.529
 5674TIP3    H116965   7.526   2.683   0.477
 5674TIP3    H216966   7.480   2.813   0.541
 5675TIP3   OH216967   5.444   4.399   0.713
 5675TIP3    H116968   5.447   4.310   0.749
 5675TIP3    H216969   5.421   4.387   0.621
 5676TIP3   OH216970   1.891   3.353   3.110
 5676TIP3    H116971   1.943   3.308   3.177
 5676TIP3    H216972   1.866   3.436   3.151
 5677TIP3   OH216973   6.422   3.625   4.594
 5677TIP3    H116974   6.499   3.642   4.648
 5677TIP3    H216975   6.457   3.594   4.511
 5678TIP3   OH216976   1.543   5.473   0.324
 5678TIP3    H116977   1.622   5.464   0.271
 5678TIP3    H216978   1.547   5.563   0.357
 5679TIP3   OH216979   7.491   2.572   1.202
 5679TIP3    H116980   7.539   2.502   1.246
 5679TIP3    H216981   7.403   2.536   1.190
 5680TIP3   OH216982   7.123   7.389   5.339
 5680TIP3    H116983   7.148   7.310   5.291
 5680TIP3    H216984   7.034   7.407   5.309
 5681TIP3   OH216985   6.269   4.874   1.243
 5681TIP3    H116986   6.299   4.904   1.328
 5681TIP3    H216987   6.174   4.886   1.245
 5682TIP3   OH216988   4.254   0.151   2.013
 5682TIP3    H116989   4.170   0.112   2.036
 5682TIP3    H216990   4.289   0.094   1.944
 5683TIP3   OH216991   4.017   1.670   3.988
 5683TIP3    H116992   4.035   1.762   4.009
 5683TIP3    H216993   4.062   1.621   4.057
 5684TIP3   OH216994   7.889   0.054   3.461
 5684TIP3    H116995   7.975   0.050   3.420
 5684TIP3    H216996   7.871   0.148   3.470
 5685TIP3   OH216997   7.367   6.289   4.778
 5685TIP3    H116998   7.369   6.194   4.788
 5685TIP3    H216999   7.330   6.321   4.860
 5686TIP3   OH217000   1.290   0.056   4.404
 5686TIP3    H117001   1.215   0.079   4.460
 5686TIP3    H217002   1.324  -0.025   4.441
 5687TIP3   OH217003   4.503   0.710   4.873
 5687TIP3    H117004   4.565   0.754   4.930
 5687TIP3    H217005   4.535   0.620   4.868
 5688TIP3   OH217006   0.773   7.180   0.929
 5688TIP3    H117007   0.681   7.183   0.955
 5688TIP3    H217008   0.773   7.129   0.847
 5689TIP3   OH217009   0.140   3.114   1.507
 5689TIP3    H117010   0.175   3.170   1.577
 5689TIP3    H217011   0.205   3.045   1.497
 5690TIP3   OH217012   4.818   3.668   0.249
 5690TIP3    H117013   4.773   3.686   0.333
 5690TIP3    H217014   4.911   3.666   0.272
 5691TIP3   OH217015   1.986   7.165   5.446
 5691TIP3    H117016   2.014   7.199   5.361
 5691TIP3    H217017   1.963   7.074   5.430
 5692TIP3   OH217018   6.483   4.004   1.625
 5692TIP3    H117019   6.555   4.039   1.573
 5692TIP3    H217020   6.517   3.998   1.714
 5693TIP3   OH217021   1.127   4.682   6.473
 5693TIP3    H117022   1.154   4.601   6.516
 5693TIP3    H217023   1.182   4.750   6.512
 5694TIP3   OH217024   7.350   3.734   1.825
 5694TIP3    H117025   7.306   3.651   1.807
 5694TIP3    H217026   7.366   3.772   1.739
 5695TIP3   OH217027   5.207   5.995   4.535
 5695TIP3    H117028   5.247   6.005   4.622
 5695TIP3    H217029   5.268   5.939   4.488
 5696TIP3   OH217030   4.167   6.189   4.798
 5696TIP3    H117031   4.113   6.255   4.755
 5696TIP3    H217032   4.144   6.107   4.754
 5697TIP3   OH217033   4.561   5.226   1.189
 5697TIP3    H117034   4.628   5.293   1.206
 5697TIP3    H217035   4.580   5.196   1.100
 5698TIP3   OH217036   0.030   7.638   3.240
 5698TIP3    H117037   0.099   7.617   3.177
 5698TIP3    H217038   0.036   7.733   3.251
 5699TIP3   OH217039   3.915   3.013   2.490
 5699TIP3    H117040   3.969   3.044   2.417
 5699TIP3    H217041   3.860   3.088   2.513
 5700TIP3   OH217042   4.236   6.249   2.133
 5700TIP3    H117043   4.241   6.310   2.059
 5700TIP3    H217044   4.322   6.256   2.176
 5701TIP3   OH217045   1.003   0.836   5.758
 5701TIP3    H117046   1.007   0.873   5.846
 5701TIP3    H217047   1.076   0.774   5.754
 5702TIP3   OH217048   4.913   2.058   0.961
 5702TIP3    H117049   4.819   2.050   0.976
 5702TIP3    H217050   4.920   2.081   0.868
 5703TIP3   OH217051   3.315   0.104   3.818
 5703TIP3    H117052   3.257   0.179   3.834
 5703TIP3    H217053   3.350   0.082   3.904
 5704TIP3   OH217054   1.074   4.916   1.002
 5704TIP3    H117055   1.127   4.942   0.927
 5704TIP3    H217056   1.067   4.995   1.055
 5705TIP3   OH217057   7.608   5.330   3.788
 5705TIP3    H117058   7.558   5.269   3.734
 5705TIP3    H217059   7.542   5.376   3.840
 5706TIP3   OH217060   7.925   4.825   4.667
 5706TIP3    H117061   8.002   4.881   4.661
 5706TIP3    H217062   7.880   4.853   4.747
 5707TIP3   OH217063   1.718   5.448   3.980
 5707TIP3    H117064   1.641   5.493   3.944
 5707TIP3    H217065   1.786   5.515   3.984
 5708TIP3   OH217066   4.490   1.783   1.539
 5708TIP3    H117067   4.496   1.740   1.624
 5708TIP3    H217068   4.402   1.760   1.507
 5709TIP3   OH217069   4.454   0.799   4.044
 5709TIP3    H117070   4.460   0.716   4.091
 5709TIP3    H217071   4.403   0.855   4.102
 5710TIP3   OH217072   6.068   3.964   0.319
 5710TIP3    H117073   6.068   3.894   0.254
 5710TIP3    H217074   6.159   3.995   0.321
 5711TIP3   OH217075   1.030   2.267   4.215
 5711TIP3    H117076   0.989   2.353   4.211
 5711TIP3    H217077   1.031   2.246   4.308
 5712TIP3   OH217078   3.493   0.811   1.396
 5712TIP3    H117079   3.425   0.874   1.370
 5712TIP3    H217080   3.533   0.784   1.313
 5713TIP3   OH217081   8.153   3.345   3.952
 5713TIP3    H117082   8.139   3.267   4.006
 5713TIP3    H217083   8.216   3.397   4.000
 5714TIP3   OH217084   5.890   4.984   3.366
 5714TIP3    H117085   5.841   5.000   3.285
 5714TIP3    H217086   5.979   4.966   3.336
 5715TIP3   OH217087   6.679   3.613   1.719
 5715TIP3    H117088   6.731   3.669   1.777
 5715TIP3    H217089   6.700   3.524   1.747
 5716TIP3   OH217090   1.428   1.634   5.210
 5716TIP3    H117091   1.389   1.715   5.177
 5716TIP3    H217092   1.378   1.614   5.289
 5717TIP3   OH217093   2.831   7.400   3.876
 5717TIP3    H117094   2.858   7.445   3.795
 5717TIP3    H217095   2.736   7.407   3.877
 5718TIP3   OH217096   5.772   7.281   6.721
 5718TIP3    H117097   5.734   7.364   6.750
 5718TIP3    H217098   5.849   7.269   6.775
 5719TIP3   OH217099   0.035   4.135   6.239
 5719TIP3    H117100   0.074   4.166   6.157
 5719TIP3    H217101   0.010   4.044   6.221
 5720TIP3   OH217102   0.156   0.301   1.181
 5720TIP3    H117103   0.234   0.337   1.222
 5720TIP3    H217104   0.130   0.368   1.117
 5721TIP3   OH217105  -0.006   4.038   6.764
 5721TIP3    H117106   0.064   4.012   6.825
 5721TIP3    H217107   0.038   4.047   6.680
 5722TIP3   OH217108   3.343   4.955   4.036
 5722TIP3    H117109   3.392   4.888   4.083
 5722TIP3    H217110   3.353   5.034   4.089
 5723TIP3   OH217111   3.467   1.756   4.036
 5723TIP3    H117112   3.409   1.807   4.093
 5723TIP3    H217113   3.416   1.680   4.011
 5724TIP3   OH217114   2.176   4.877   6.267
 5724TIP3    H117115   2.165   4.819   6.342
 5724TIP3    H217116   2.241   4.942   6.295
 5725TIP3   OH217117   6.423   1.858   0.104
 5725TIP3    H117118   6.504   1.814   0.079
 5725TIP3    H217119   6.448   1.950   0.117
 5726TIP3   OH217120   6.764   3.434   6.629
 5726TIP3    H117121   6.699   3.374   6.595
 5726TIP3    H217122   6.750   3.435   6.723
 5727TIP3   OH217123   1.795   7.729   4.358
 5727TIP3    H117124   1.794   7.749   4.264
 5727TIP3    H217125   1.703   7.726   4.383
 5728TIP3   OH217126   2.476   2.950   1.891
 5728TIP3    H117127   2.459   2.886   1.959
 5728TIP3    H217128   2.571   2.947   1.877
 5729TIP3   OH217129   6.673   6.989   1.910
 5729TIP3    H117130   6.737   6.924   1.881
 5729TIP3    H217131   6.631   6.949   1.987
 5730TIP3   OH217132   5.221   2.170   0.440
 5730TIP3    H117133   5.159   2.108   0.400
 5730TIP3    H217134   5.167   2.245   0.465
 5731TIP3   OH217135   7.798   6.535   5.766
 5731TIP3    H117136   7.734   6.587   5.717
 5731TIP3    H217137   7.878   6.541   5.714
 5732TIP3   OH217138   5.104   1.968   3.224
 5732TIP3    H117139   5.117   1.930   3.138
 5732TIP3    H217140   5.043   1.909   3.268
 5733TIP3   OH217141   8.049   4.586   3.822
 5733TIP3    H117142   8.059   4.676   3.789
 5733TIP3    H217143   7.960   4.561   3.797
 5734TIP3   OH217144   7.015   1.472   6.119
 5734TIP3    H117145   6.929   1.438   6.094
 5734TIP3    H217146   7.023   1.553   6.068
 5735TIP3   OH217147   7.043   3.642   4.917
 5735TIP3    H117148   7.107   3.709   4.940
 5735TIP3    H217149   7.037   3.647   4.822
 5736TIP3   OH217150   6.657   1.712   0.012
 5736TIP3    H117151   6.689   1.734   0.100
 5736TIP3    H217152   6.712   1.639  -0.016
 5737TIP3   OH217153   3.487   5.431   1.258
 5737TIP3    H117154   3.444   5.504   1.213
 5737TIP3    H217155   3.571   5.466   1.287
 5738TIP3   OH217156   0.410   7.068   5.798
 5738TIP3    H117157   0.503   7.085   5.812
 5738TIP3    H217158   0.365   7.130   5.856
 5739TIP3   OH217159   7.256   3.711   3.308
 5739TIP3    H117160   7.215   3.710   3.222
 5739TIP3    H217161   7.216   3.639   3.356
 5740TIP3   OH217162   1.736   2.908   3.039
 5740TIP3    H117163   1.819   2.862   3.050
 5740TIP3    H217164   1.683   2.849   2.986
 5741TIP3   OH217165   7.844   3.281   3.716
 5741TIP3    H117166   7.882   3.362   3.749
 5741TIP3    H217167   7.750   3.293   3.725
 5742TIP3   OH217168   1.160   1.090   4.098
 5742TIP3    H117169   1.117   1.018   4.145
 5742TIP3    H217170   1.213   1.046   4.031
 5743TIP3   OH217171   5.557   1.452   0.571
 5743TIP3    H117172   5.595   1.539   0.566
 5743TIP3    H217173   5.520   1.448   0.660
 5744TIP3   OH217174   5.572   3.181   2.182
 5744TIP3    H117175   5.581   3.236   2.104
 5744TIP3    H217176   5.566   3.242   2.255
 5745TIP3   OH217177   0.512   4.111   1.490
 5745TIP3    H117178   0.432   4.088   1.537
 5745TIP3    H217179   0.506   4.062   1.408
 5746TIP3   OH217180   5.460   4.071   4.473
 5746TIP3    H117181   5.544   4.053   4.516
 5746TIP3    H217182   5.427   4.149   4.518
 5747TIP3   OH217183   8.174   2.848   1.056
 5747TIP3    H117184   8.125   2.871   0.977
 5747TIP3    H217185   8.109   2.847   1.126
 5748TIP3   OH217186   1.199   0.419   4.698
 5748TIP3    H117187   1.192   0.487   4.765
 5748TIP3    H217188   1.186   0.466   4.616
 5749TIP3   OH217189   6.986   3.813   0.826
 5749TIP3    H117190   7.043   3.871   0.877
 5749TIP3    H217191   7.008   3.832   0.735
 5750TIP3   OH217192   5.672   2.141   4.419
 5750TIP3    H117193   5.636   2.064   4.376
 5750TIP3    H217194   5.704   2.110   4.504
 5751TIP3   OH217195   7.007   0.646   4.662
 5751TIP3    H117196   6.920   0.606   4.659
 5751TIP3    H217197   7.011   0.688   4.748
 5752TIP3   OH217198   3.165   5.187   0.515
 5752TIP3    H117199   3.163   5.282   0.510
 5752TIP3    H217200   3.086   5.164   0.565
 5753TIP3   OH217201   3.231   4.308   1.555
 5753TIP3    H117202   3.248   4.248   1.482
 5753TIP3    H217203   3.175   4.259   1.614
 5754TIP3   OH217204   8.105   0.993   0.740
 5754TIP3    H117205   8.104   0.994   0.644
 5754TIP3    H217206   8.128   0.904   0.763
 5755TIP3   OH217207   2.511   6.822   1.588
 5755TIP3    H117208   2.479   6.907   1.560
 5755TIP3    H217209   2.568   6.793   1.517
 5756TIP3   OH217210   1.582   6.152   5.256
 5756TIP3    H117211   1.499   6.130   5.213
 5756TIP3    H217212   1.615   6.068   5.288
 5757TIP3   OH217213   5.621   5.968   1.647
 5757TIP3    H117214   5.642   5.993   1.558
 5757TIP3    H217215   5.646   6.044   1.700
 5758TIP3   OH217216   2.936   5.943   2.634
 5758TIP3    H117217   2.845   5.968   2.651
 5758TIP3    H217218   2.987   6.021   2.655
 5759TIP3   OH217219   6.184   3.092   1.765
 5759TIP3    H117220   6.163   3.000   1.775
 5759TIP3    H217221   6.199   3.104   1.671
 5760TIP3   OH217222   2.143   7.575   0.728
 5760TIP3    H117223   2.119   7.652   0.780
 5760TIP3    H217224   2.068   7.516   0.739
 5761TIP3   OH217225   5.894   4.139   3.901
 5761TIP3    H117226   5.982   4.115   3.932
 5761TIP3    H217227   5.854   4.056   3.875
 5762TIP3   OH217228   6.497   0.460   2.067
 5762TIP3    H117229   6.546   0.540   2.087
 5762TIP3    H217230   6.406   0.483   2.086
 5763TIP3   OH217231   4.813   7.695   1.097
 5763TIP3    H117232   4.885   7.753   1.120
 5763TIP3    H217233   4.829   7.670   1.007
 5764TIP3   OH217234   2.924   3.249   1.478
 5764TIP3    H117235   3.002   3.233   1.531
 5764TIP3    H217236   2.862   3.181   1.505
 5765TIP3   OH217237   3.735   7.824   2.962
 5765TIP3    H117238   3.799   7.813   3.032
 5765TIP3    H217239   3.706   7.735   2.942
 5766TIP3   OH217240   7.273   2.521   1.029
 5766TIP3    H117241   7.193   2.573   1.039
 5766TIP3    H217242   7.318   2.559   0.954
 5767TIP3   OH217243   7.202   5.001   6.455
 5767TIP3    H117244   7.230   4.922   6.409
 5767TIP3    H217245   7.248   4.999   6.539
 5768TIP3   OH217246   2.776   7.269   0.719
 5768TIP3    H117247   2.710   7.259   0.650
 5768TIP3    H217248   2.736   7.331   0.781
 5769TIP3   OH217249   1.067   3.660   6.044
 5769TIP3    H117250   1.066   3.572   6.083
 5769TIP3    H217251   1.059   3.719   6.118
 5770TIP3   OH217252   6.202   4.336   3.951
 5770TIP3    H117253   6.295   4.350   3.968
 5770TIP3    H217254   6.190   4.359   3.859
 5771TIP3   OH217255   0.523   5.091   2.952
 5771TIP3    H117256   0.521   5.099   3.047
 5771TIP3    H217257   0.577   5.164   2.922
 5772TIP3   OH217258   2.969   2.296   5.574
 5772TIP3    H117259   2.961   2.201   5.581
 5772TIP3    H217260   3.042   2.318   5.632
 5773TIP3   OH217261   7.961   7.725   6.228
 5773TIP3    H117262   7.985   7.697   6.140
 5773TIP3    H217263   7.869   7.699   6.238
 5774TIP3   OH217264   2.743   5.706   1.623
 5774TIP3    H117265   2.710   5.713   1.534
 5774TIP3    H217266   2.686   5.642   1.665
 5775TIP3   OH217267   8.173   1.532   0.242
 5775TIP3    H117268   8.232   1.460   0.263
 5775TIP3    H217269   8.165   1.531   0.147
 5776TIP3   OH217270   7.607   7.790   1.392
 5776TIP3    H117271   7.631   7.882   1.383
 5776TIP3    H217272   7.512   7.789   1.384
 5777TIP3   OH217273   4.418   7.058   2.558
 5777TIP3    H117274   4.454   7.097   2.478
 5777TIP3    H217275   4.326   7.084   2.557
 5778TIP3   OH217276   6.206   1.934   4.657
 5778TIP3    H117277   6.295   1.921   4.691
 5778TIP3    H217278   6.213   2.011   4.601
 5779TIP3   OH217279   6.340   4.009   0.348
 5779TIP3    H117280   6.374   3.920   0.346
 5779TIP3    H217281   6.369   4.044   0.432
 5780TIP3   OH217282   4.582   0.482   5.405
 5780TIP3    H117283   4.487   0.474   5.395
 5780TIP3    H217284   4.614   0.498   5.316
 5781TIP3   OH217285   4.178   0.858   0.357
 5781TIP3    H117286   4.229   0.938   0.346
 5781TIP3    H217287   4.165   0.826   0.268
 5782TIP3   OH217288   2.013   1.255   3.580
 5782TIP3    H117289   1.969   1.171   3.571
 5782TIP3    H217290   1.987   1.304   3.502
 5783TIP3   OH217291   2.940   3.236   2.646
 5783TIP3    H117292   3.019   3.202   2.688
 5783TIP3    H217293   2.896   3.286   2.715
 5784TIP3   OH217294   6.633   6.733   3.667
 5784TIP3    H117295   6.707   6.725   3.726
 5784TIP3    H217296   6.563   6.771   3.721
 5785TIP3   OH217297   3.848   3.847   1.084
 5785TIP3    H117298   3.810   3.928   1.119
 5785TIP3    H217299   3.859   3.864   0.990
 5786TIP3   OH217300   5.709   3.868   5.472
 5786TIP3    H117301   5.707   3.864   5.376
 5786TIP3    H217302   5.758   3.948   5.491
 5787TIP3   OH217303   1.037   7.670   4.982
 5787TIP3    H117304   1.023   7.597   5.043
 5787TIP3    H217305   1.075   7.740   5.036
 5788TIP3   OH217306   6.110   7.456   6.698
 5788TIP3    H117307   6.070   7.372   6.722
 5788TIP3    H217308   6.190   7.460   6.750
 5789TIP3   OH217309   6.029   1.213   3.211
 5789TIP3    H117310   5.986   1.147   3.265
 5789TIP3    H217311   5.957   1.262   3.171
 5790TIP3   OH217312   5.667   6.344   1.181
 5790TIP3    H117313   5.741   6.390   1.141
 5790TIP3    H217314   5.590   6.383   1.139
 5791TIP3   OH217315   7.976   6.186   5.112
 5791TIP3    H117316   8.042   6.252   5.093
 5791TIP3    H217317   7.912   6.195   5.042
 5792TIP3   OH217318   0.325   5.461   3.408
 5792TIP3    H117319   0.287   5.441   3.323
 5792TIP3    H217320   0.404   5.512   3.388
 5793TIP3   OH217321   0.353   2.239   3.694
 5793TIP3    H117322   0.406   2.313   3.724
 5793TIP3    H217323   0.282   2.233   3.758
 5794TIP3   OH217324   5.503   5.085  -0.028
 5794TIP3    H117325   5.411   5.101  -0.048
 5794TIP3    H217326   5.544   5.070  -0.113
 5795TIP3   OH217327   1.857   0.475   0.465
 5795TIP3    H117328   1.781   0.444   0.416
 5795TIP3    H217329   1.919   0.403   0.461
 5796TIP3   OH217330   0.586   1.977   2.908
 5796TIP3    H117331   0.592   1.942   2.820
 5796TIP3    H217332   0.625   1.910   2.964
 5797TIP3   OH217333   1.131   4.371   4.375
 5797TIP3    H117334   1.216   4.399   4.410
 5797TIP3    H217335   1.149   4.347   4.284
 5798TIP3   OH217336   6.639   4.760   0.521
 5798TIP3    H117337   6.642   4.665   0.508
 5798TIP3    H217338   6.546   4.782   0.515
 5799TIP3   OH217339   2.729   1.660   0.073
 5799TIP3    H117340   2.807   1.713   0.088
 5799TIP3    H217341   2.706   1.626   0.160
 5800TIP3   OH217342   3.162   4.436   2.242
 5800TIP3    H117343   3.226   4.393   2.298
 5800TIP3    H217344   3.211   4.463   2.164
 5801TIP3   OH217345   0.438   5.877   3.241
 5801TIP3    H117346   0.417   5.812   3.174
 5801TIP3    H217347   0.375   5.861   3.312
 5802TIP3   OH217348   8.157   1.259   6.460
 5802TIP3    H117349   8.218   1.324   6.495
 5802TIP3    H217350   8.082   1.261   6.520
 5803TIP3   OH217351   1.408   5.959   3.678
 5803TIP3    H117352   1.491   5.961   3.631
 5803TIP3    H217353   1.378   5.869   3.670
 5804TIP3   OH217354   3.318   1.528   1.068
 5804TIP3    H117355   3.293   1.586   1.140
 5804TIP3    H217356   3.348   1.448   1.112
 5805TIP3   OH217357   0.232   1.174   2.538
 5805TIP3    H117358   0.304   1.145   2.594
 5805TIP3    H217359   0.166   1.208   2.599
 5806TIP3   OH217360   7.413   0.066   4.524
 5806TIP3    H117361   7.419   0.158   4.549
 5806TIP3    H217362   7.500   0.031   4.542
 5807TIP3   OH217363   2.081   2.001   6.024
 5807TIP3    H117364   2.058   1.945   6.099
 5807TIP3    H217365   2.164   2.041   6.050
 5808TIP3   OH217366   6.110   2.681   3.721
 5808TIP3    H117367   6.033   2.643   3.764
 5808TIP3    H217368   6.117   2.633   3.639
 5809TIP3   OH217369   0.609   1.337   0.906
 5809TIP3    H117370   0.536   1.397   0.890
 5809TIP3    H217371   0.660   1.339   0.825
 5810TIP3   OH217372   3.839   5.511   3.010
 5810TIP3    H117373   3.800   5.469   2.933
 5810TIP3    H217374   3.915   5.456   3.030
 5811TIP3   OH217375   6.380   1.671   5.445
 5811TIP3    H117376   6.468   1.705   5.429
 5811TIP3    H217377   6.391   1.577   5.452
 5812TIP3   OH217378   0.716   7.284   6.546
 5812TIP3    H117379   0.702   7.361   6.491
 5812TIP3    H217380   0.802   7.251   6.520
 5813TIP3   OH217381   4.046   3.310   1.085
 5813TIP3    H117382   3.955   3.323   1.058
 5813TIP3    H217383   4.044   3.233   1.142
 5814TIP3   OH217384   7.081   6.924   1.359
 5814TIP3    H117385   6.987   6.922   1.378
 5814TIP3    H217386   7.086   6.922   1.264
 5815TIP3   OH217387   3.721   0.825   6.417
 5815TIP3    H117388   3.754   0.779   6.340
 5815TIP3    H217389   3.746   0.916   6.403
 5816TIP3   OH217390   1.352   3.846   2.940
 5816TIP3    H117391   1.351   3.919   3.002
 5816TIP3    H217392   1.376   3.770   2.993
 5817TIP3   OH217393   7.666   4.216   3.557
 5817TIP3    H117394   7.730   4.158   3.596
 5817TIP3    H217395   7.670   4.198   3.463
 5818TIP3   OH217396   2.864   3.629   0.789
 5818TIP3    H117397   2.889   3.708   0.742
 5818TIP3    H217398   2.939   3.570   0.781
 5819TIP3   OH217399   2.111   5.423   3.852
 5819TIP3    H117400   2.132   5.372   3.930
 5819TIP3    H217401   2.047   5.487   3.883
 5820TIP3   OH217402   5.317   2.645   2.980
 5820TIP3    H117403   5.393   2.697   3.007
 5820TIP3    H217404   5.267   2.631   3.061
 5821TIP3   OH217405   6.174   3.998   4.492
 5821TIP3    H117406   6.116   4.052   4.439
 5821TIP3    H217407   6.206   4.056   4.561
 5822TIP3   OH217408   6.525   2.975   3.216
 5822TIP3    H117409   6.594   2.910   3.233
 5822TIP3    H217410   6.443   2.925   3.225
 5823TIP3   OH217411   6.861   7.003   3.499
 5823TIP3    H117412   6.821   7.084   3.531
 5823TIP3    H217413   6.948   7.002   3.539
 5824TIP3   OH217414   8.296   4.511   5.211
 5824TIP3    H117415   8.280   4.601   5.184
 5824TIP3    H217416   8.316   4.464   5.129
 5825TIP3   OH217417   7.011   5.484   5.214
 5825TIP3    H117418   7.010   5.579   5.197
 5825TIP3    H217419   7.069   5.474   5.289
 5826TIP3   OH217420   7.958   1.526   0.401
 5826TIP3    H117421   7.982   1.474   0.477
 5826TIP3    H217422   8.033   1.518   0.342
 5827TIP3   OH217423   5.478   4.313   2.979
 5827TIP3    H117424   5.488   4.305   3.074
 5827TIP3    H217425   5.525   4.238   2.944
 5828TIP3   OH217426   0.676   1.590   5.697
 5828TIP3    H117427   0.667   1.684   5.712
 5828TIP3    H217428   0.767   1.571   5.719
 5829TIP3   OH217429   6.064   4.777   3.565
 5829TIP3    H117430   6.029   4.785   3.476
 5829TIP3    H217431   6.105   4.691   3.567
 5830TIP3   OH217432   0.527   5.357   3.637
 5830TIP3    H117433   0.489   5.424   3.692
 5830TIP3    H217434   0.550   5.402   3.556
 5831TIP3   OH217435   4.940   0.502   2.005
 5831TIP3    H117436   4.910   0.424   2.052
 5831TIP3    H217437   4.939   0.476   1.913
 5832TIP3   OH217438   1.351   4.593   5.014
 5832TIP3    H117439   1.420   4.529   5.031
 5832TIP3    H217440   1.305   4.560   4.937
 5833TIP3   OH217441   4.803   6.602   5.100
 5833TIP3    H117442   4.743   6.615   5.173
 5833TIP3    H217443   4.887   6.581   5.141
 5834TIP3   OH217444   1.291   6.963   0.725
 5834TIP3    H117445   1.332   7.028   0.782
 5834TIP3    H217446   1.300   6.999   0.637
 5835TIP3   OH217447   0.012   6.097   2.963
 5835TIP3    H117448  -0.067   6.136   3.001
 5835TIP3    H217449   0.073   6.170   2.955
 5836TIP3   OH217450   5.409   5.091   3.113
 5836TIP3    H117451   5.341   5.124   3.172
 5836TIP3    H217452   5.462   5.167   3.093
 5837TIP3   OH217453   5.383   2.266   4.937
 5837TIP3    H117454   5.346   2.186   4.974
 5837TIP3    H217455   5.312   2.305   4.886
 5838TIP3   OH217456   3.635   2.646   3.411
 5838TIP3    H117457   3.550   2.644   3.368
 5838TIP3    H217458   3.617   2.617   3.501
 5839TIP3   OH217459   6.022   6.612   1.985
 5839TIP3    H117460   6.094   6.601   1.922
 5839TIP3    H217461   5.953   6.655   1.936
 5840TIP3   OH217462   1.135   7.391   2.691
 5840TIP3    H117463   1.166   7.395   2.782
 5840TIP3    H217464   1.210   7.416   2.639
 5841TIP3   OH217465   5.365   1.632   3.964
 5841TIP3    H117466   5.449   1.593   3.938
 5841TIP3    H217467   5.381   1.726   3.961
 5842TIP3   OH217468   6.670   6.011   5.500
 5842TIP3    H117469   6.575   6.005   5.506
 5842TIP3    H217470   6.698   5.924   5.472
 5843TIP3   OH217471   1.253   2.423   1.406
 5843TIP3    H117472   1.322   2.405   1.342
 5843TIP3    H217473   1.299   2.427   1.490
 5844TIP3   OH217474   6.839   6.256   1.228
 5844TIP3    H117475   6.858   6.173   1.185
 5844TIP3    H217476   6.781   6.302   1.167
 5845TIP3   OH217477   1.138   6.596   2.810
 5845TIP3    H117478   1.076   6.567   2.743
 5845TIP3    H217479   1.089   6.661   2.860
 5846TIP3   OH217480   5.167   0.907   0.456
 5846TIP3    H117481   5.222   0.829   0.454
 5846TIP3    H217482   5.156   0.931   0.364
 5847TIP3   OH217483   1.339   5.495   6.628
 5847TIP3    H117484   1.314   5.460   6.543
 5847TIP3    H217485   1.414   5.552   6.609
 5848TIP3   OH217486   3.664   7.611   1.309
 5848TIP3    H117487   3.726   7.572   1.247
 5848TIP3    H217488   3.713   7.615   1.392
 5849TIP3   OH217489   2.117   4.619   1.751
 5849TIP3    H117490   2.036   4.669   1.743
 5849TIP3    H217491   2.181   4.670   1.702
 5850TIP3   OH217492   3.307   1.819   5.710
 5850TIP3    H117493   3.293   1.730   5.680
 5850TIP3    H217494   3.312   1.871   5.630
 5851TIP3   OH217495   6.717   4.168   1.203
 5851TIP3    H117496   6.766   4.092   1.172
 5851TIP3    H217497   6.784   4.233   1.222
 5852TIP3   OH217498   1.622   4.933   2.617
 5852TIP3    H117499   1.695   4.880   2.584
 5852TIP3    H217500   1.644   4.948   2.709
 5853TIP3   OH217501   6.761   5.290   2.874
 5853TIP3    H117502   6.685   5.331   2.835
 5853TIP3    H217503   6.836   5.342   2.844
 5854TIP3   OH217504   5.235   2.937   0.072
 5854TIP3    H117505   5.308   2.887   0.036
 5854TIP3    H217506   5.163   2.874   0.075
 5855TIP3   OH217507   2.620   0.610   3.155
 5855TIP3    H117508   2.700   0.560   3.167
 5855TIP3    H217509   2.602   0.648   3.242
 5856TIP3   OH217510   6.977   6.213   6.365
 5856TIP3    H117511   6.962   6.145   6.299
 5856TIP3    H217512   7.014   6.165   6.440
 5857TIP3   OH217513   2.938   7.187   3.072
 5857TIP3    H117514   3.015   7.243   3.070
 5857TIP3    H217515   2.865   7.245   3.051
 5858TIP3   OH217516   1.360   2.819   2.552
 5858TIP3    H117517   1.451   2.830   2.579
 5858TIP3    H217518   1.366   2.782   2.464
 5859TIP3   OH217519   5.878   7.552   5.617
 5859TIP3    H117520   5.868   7.536   5.523
 5859TIP3    H217521   5.966   7.589   5.626
 5860TIP3   OH217522   6.509   6.508   1.216
 5860TIP3    H117523   6.459   6.589   1.204
 5860TIP3    H217524   6.454   6.441   1.176
 5861TIP3   OH217525   5.180   7.700   2.675
 5861TIP3    H117526   5.258   7.738   2.635
 5861TIP3    H217527   5.124   7.776   2.695
 5862TIP3   OH217528   2.150   4.808   0.903
 5862TIP3    H117529   2.073   4.757   0.878
 5862TIP3    H217530   2.150   4.806   0.998
 5863TIP3   OH217531   3.551   6.328   4.298
 5863TIP3    H117532   3.492   6.292   4.232
 5863TIP3    H217533   3.638   6.322   4.258
 5864TIP3   OH217534   0.907   6.358   0.731
 5864TIP3    H117535   1.000   6.362   0.708
 5864TIP3    H217536   0.873   6.445   0.712
 5865TIP3   OH217537   0.657   1.018   5.881
 5865TIP3    H117538   0.672   0.949   5.817
 5865TIP3    H217539   0.698   0.985   5.961
 5866TIP3   OH217540   6.796   5.209   6.104
 5866TIP3    H117541   6.778   5.274   6.172
 5866TIP3    H217542   6.887   5.226   6.078
 5867TIP3   OH217543   7.093   6.273   3.189
 5867TIP3    H117544   7.153   6.247   3.119
 5867TIP3    H217545   7.114   6.214   3.262
 5868TIP3   OH217546   3.146   1.837   6.596
 5868TIP3    H117547   3.178   1.787   6.521
 5868TIP3    H217548   3.065   1.879   6.564
 5869TIP3   OH217549   3.414   6.115   1.505
 5869TIP3    H117550   3.485   6.143   1.447
 5869TIP3    H217551   3.460   6.079   1.582
 5870TIP3   OH217552   5.467   3.742   5.955
 5870TIP3    H117553   5.419   3.680   5.901
 5870TIP3    H217554   5.518   3.794   5.892
 5871TIP3   OH217555   6.473   3.966   6.616
 5871TIP3    H117556   6.381   3.944   6.599
 5871TIP3    H217557   6.476   4.061   6.612
 5872TIP3   OH217558   4.402   2.394   3.263
 5872TIP3    H117559   4.329   2.341   3.229
 5872TIP3    H217560   4.448   2.423   3.184
 5873TIP3   OH217561   5.581   4.297   5.891
 5873TIP3    H117562   5.604   4.251   5.810
 5873TIP3    H217563   5.504   4.250   5.923
 5874TIP3   OH217564   3.408   7.288   4.345
 5874TIP3    H117565   3.386   7.225   4.414
 5874TIP3    H217566   3.323   7.312   4.307
 5875TIP3   OH217567   3.366   3.225   0.852
 5875TIP3    H117568   3.305   3.292   0.883
 5875TIP3    H217569   3.309   3.152   0.826
 5876TIP3   OH217570   7.437   3.958   3.322
 5876TIP3    H117571   7.453   3.936   3.414
 5876TIP3    H217572   7.398   3.879   3.285
 5877TIP3   OH217573   7.218   0.212   5.453
 5877TIP3    H117574   7.142   0.242   5.504
 5877TIP3    H217575   7.200   0.119   5.437
 5878TIP3   OH217576   4.368   4.441   1.411
 5878TIP3    H117577   4.276   4.423   1.432
 5878TIP3    H217578   4.364   4.500   1.336
 5879TIP3   OH217579   7.349   0.125   3.693
 5879TIP3    H117580   7.430   0.081   3.668
 5879TIP3    H217581   7.311   0.070   3.761
 5880TIP3   OH217582   2.917   7.436   5.319
 5880TIP3    H117583   2.876   7.398   5.241
 5880TIP3    H217584   2.889   7.527   5.319
 5881TIP3   OH217585   7.663   2.628   5.250
 5881TIP3    H117586   7.609   2.707   5.256
 5881TIP3    H217587   7.664   2.593   5.339
 5882TIP3   OH217588   0.979   3.984   2.188
 5882TIP3    H117589   1.024   3.916   2.137
 5882TIP3    H217590   0.901   3.940   2.222
 5883TIP3   OH217591   7.570   7.461   5.333
 5883TIP3    H117592   7.588   7.396   5.401
 5883TIP3    H217593   7.485   7.497   5.355
 5884TIP3   OH217594   3.022   5.772   6.124
 5884TIP3    H117595   3.006   5.756   6.031
 5884TIP3    H217596   2.962   5.714   6.169
 5885TIP3   OH217597   4.159   2.274   3.195
 5885TIP3    H117598   4.088   2.333   3.219
 5885TIP3    H217599   4.128   2.229   3.116
 5886TIP3   OH217600   6.612   7.239   4.466
 5886TIP3    H117601   6.623   7.181   4.391
 5886TIP3    H217602   6.696   7.235   4.512
 5887TIP3   OH217603   1.203   2.276   6.703
 5887TIP3    H117604   1.142   2.349   6.699
 5887TIP3    H217605   1.168   2.220   6.773
 5888TIP3   OH217606   7.071   4.577   1.162
 5888TIP3    H117607   7.014   4.512   1.202
 5888TIP3    H217608   7.157   4.535   1.158
 5889TIP3   OH217609   4.958   7.421   1.451
 5889TIP3    H117610   4.946   7.426   1.546
 5889TIP3    H217611   5.026   7.355   1.438
 5890TIP3   OH217612   3.824   0.985   0.868
 5890TIP3    H117613   3.823   1.052   0.799
 5890TIP3    H217614   3.737   0.991   0.908
 5891TIP3   OH217615   6.231   5.229   3.533
 5891TIP3    H117616   6.305   5.177   3.564
 5891TIP3    H217617   6.261   5.266   3.450
 5892TIP3   OH217618   3.548   0.290   5.270
 5892TIP3    H117619   3.620   0.349   5.248
 5892TIP3    H217620   3.472   0.347   5.277
 5893TIP3   OH217621   7.413   2.620   5.649
 5893TIP3    H117622   7.446   2.540   5.691
 5893TIP3    H217623   7.332   2.592   5.606
 5894TIP3   OH217624   1.263   0.394   6.597
 5894TIP3    H117625   1.209   0.463   6.634
 5894TIP3    H217626   1.269   0.328   6.666
 5895TIP3   OH217627   6.005   7.258   6.007
 5895TIP3    H117628   6.007   7.201   5.930
 5895TIP3    H217629   5.913   7.282   6.017
 5896TIP3   OH217630   8.134   4.744   6.074
 5896TIP3    H117631   8.227   4.743   6.097
 5896TIP3    H217632   8.129   4.694   5.993
 5897TIP3   OH217633   0.562   5.701   6.675
 5897TIP3    H117634   0.499   5.771   6.693
 5897TIP3    H217635   0.507   5.624   6.657
 5898TIP3   OH217636   7.960   3.047   5.887
 5898TIP3    H117637   7.880   3.071   5.841
 5898TIP3    H217638   7.935   3.043   5.979
 5899TIP3   OH217639   0.739   1.851   0.474
 5899TIP3    H117640   0.744   1.833   0.568
 5899TIP3    H217641   0.743   1.947   0.468
 5900TIP3   OH217642   4.045   1.604   3.720
 5900TIP3    H117643   3.958   1.596   3.681
 5900TIP3    H217644   4.028   1.614   3.813
 5901TIP3   OH217645   0.376   6.941   5.528
 5901TIP3    H117646   0.369   6.874   5.596
 5901TIP3    H217647   0.427   7.011   5.569
 5902TIP3   OH217648   2.000   5.849   2.072
 5902TIP3    H117649   1.923   5.818   2.119
 5902TIP3    H217650   2.074   5.825   2.129
 5903TIP3   OH217651   1.322   5.326   4.917
 5903TIP3    H117652   1.318   5.365   5.004
 5903TIP3    H217653   1.254   5.371   4.867
 5904TIP3   OH217654   1.502   4.080   4.031
 5904TIP3    H117655   1.467   4.057   4.117
 5904TIP3    H217656   1.427   4.071   3.972
 5905TIP3   OH217657   2.573   5.120   4.069
 5905TIP3    H117658   2.652   5.065   4.073
 5905TIP3    H217659   2.520   5.090   4.143
 5906TIP3   OH217660   8.079   2.954   1.303
 5906TIP3    H117661   8.022   3.029   1.286
 5906TIP3    H217662   8.032   2.902   1.367
 5907TIP3   OH217663   3.051   4.589   3.221
 5907TIP3    H117664   3.115   4.641   3.269
 5907TIP3    H217665   3.023   4.646   3.149
 5908TIP3   OH217666   4.743   3.004   4.140
 5908TIP3    H117667   4.787   2.920   4.130
 5908TIP3    H217668   4.710   3.024   4.052
 5909TIP3   OH217669   0.474   1.086   2.649
 5909TIP3    H117670   0.510   1.169   2.618
 5909TIP3    H217671   0.549   1.027   2.651
 5910TIP3   OH217672   0.683   1.251   6.720
 5910TIP3    H117673   0.753   1.200   6.678
 5910TIP3    H217674   0.602   1.208   6.692
 5911TIP3   OH217675   3.037   1.669   3.824
 5911TIP3    H117676   3.013   1.760   3.806
 5911TIP3    H217677   2.954   1.627   3.846
 5912TIP3   OH217678   5.059   5.860   2.135
 5912TIP3    H117679   5.121   5.917   2.180
 5912TIP3    H217680   5.074   5.878   2.042
 5913TIP3   OH217681   3.510   4.386   1.606
 5913TIP3    H117682   3.421   4.355   1.620
 5913TIP3    H217683   3.550   4.318   1.552
 5914TIP3   OH217684   1.228   7.209   4.704
 5914TIP3    H117685   1.186   7.274   4.649
 5914TIP3    H217686   1.161   7.142   4.718
 5915TIP3   OH217687   7.297   6.708   6.253
 5915TIP3    H117688   7.359   6.705   6.180
 5915TIP3    H217689   7.353   6.717   6.331
 5916TIP3   OH217690   4.884   6.585   0.300
 5916TIP3    H117691   4.896   6.594   0.395
 5916TIP3    H217692   4.940   6.653   0.262
 5917TIP3   OH217693   5.409   5.593   0.436
 5917TIP3    H117694   5.356   5.660   0.393
 5917TIP3    H217695   5.438   5.535   0.365
 5918TIP3   OH217696   2.769   6.667   4.789
 5918TIP3    H117697   2.685   6.704   4.816
 5918TIP3    H217698   2.820   6.663   4.870
 5919TIP3   OH217699   3.281   3.712   6.331
 5919TIP3    H117700   3.357   3.768   6.340
 5919TIP3    H217701   3.315   3.630   6.295
 5920TIP3   OH217702   4.925   6.855   5.815
 5920TIP3    H117703   4.894   6.910   5.743
 5920TIP3    H217704   4.904   6.766   5.788
 5921TIP3   OH217705   5.823   1.073   3.355
 5921TIP3    H117706   5.817   1.105   3.446
 5921TIP3    H217707   5.753   1.118   3.309
 5922TIP3   OH217708   2.876   7.540   6.652
 5922TIP3    H117709   2.859   7.628   6.687
 5922TIP3    H217710   2.960   7.515   6.690
 5923TIP3   OH217711   4.916   4.728   1.084
 5923TIP3    H117712   4.850   4.797   1.087
 5923TIP3    H217713   4.881   4.659   1.140
 5924TIP3   OH217714   5.663   5.591   1.267
 5924TIP3    H117715   5.669   5.561   1.358
 5924TIP3    H217716   5.688   5.683   1.271
 5925TIP3   OH217717   0.104   1.151   6.666
 5925TIP3    H117718   0.184   1.158   6.614
 5925TIP3    H217719   0.081   1.242   6.686
 5926TIP3   OH217720   2.215   5.059   3.486
 5926TIP3    H117721   2.220   5.114   3.564
 5926TIP3    H217722   2.247   4.974   3.514
 5927TIP3   OH217723   5.128   7.683   0.288
 5927TIP3    H117724   5.162   7.646   0.369
 5927TIP3    H217725   5.179   7.640   0.219
 5928TIP3   OH217726   5.975   3.186   0.169
 5928TIP3    H117727   5.996   3.109   0.221
 5928TIP3    H217728   6.038   3.185   0.097
 5929TIP3   OH217729   4.245   2.113   3.920
 5929TIP3    H117730   4.243   2.061   3.840
 5929TIP3    H217731   4.217   2.201   3.893
 5930TIP3   OH217732   3.034   1.551   1.350
 5930TIP3    H117733   3.109   1.610   1.350
 5930TIP3    H217734   3.058   1.480   1.410
 5931TIP3   OH217735   3.599   0.762   0.858
 5931TIP3    H117736   3.518   0.812   0.849
 5931TIP3    H217737   3.584   0.683   0.806
 5932TIP3   OH217738   5.262   3.220   3.075
 5932TIP3    H117739   5.326   3.173   3.021
 5932TIP3    H217740   5.196   3.249   3.012
 5933TIP3   OH217741   5.183   1.923   3.490
 5933TIP3    H117742   5.090   1.902   3.479
 5933TIP3    H217743   5.206   1.970   3.410
 5934TIP3   OH217744   5.913   2.858   0.775
 5934TIP3    H117745   5.972   2.876   0.848
 5934TIP3    H217746   5.953   2.903   0.700
 5935TIP3   OH217747   3.696   0.295   2.734
 5935TIP3    H117748   3.747   0.374   2.752
 5935TIP3    H217749   3.626   0.325   2.676
 5936TIP3   OH217750   4.806   0.334   0.451
 5936TIP3    H117751   4.797   0.319   0.357
 5936TIP3    H217752   4.765   0.419   0.467
 5937TIP3   OH217753   4.180   1.514   0.097
 5937TIP3    H117754   4.229   1.560   0.029
 5937TIP3    H217755   4.090   1.544   0.087
 5938TIP3   OH217756   1.738   6.242   4.745
 5938TIP3    H117757   1.742   6.287   4.830
 5938TIP3    H217758   1.798   6.291   4.689
 5939TIP3   OH217759   7.935   3.265   2.737
 5939TIP3    H117760   7.868   3.318   2.780
 5939TIP3    H217761   8.015   3.285   2.784
 5940TIP3   OH217762   3.801   4.693   6.032
 5940TIP3    H117763   3.722   4.706   5.980
 5940TIP3    H217764   3.872   4.699   5.968
 5941TIP3   OH217765   5.591   7.773   5.869
 5941TIP3    H117766   5.517   7.776   5.809
 5941TIP3    H217767   5.667   7.786   5.813
 5942TIP3   OH217768   5.490   5.495   5.950
 5942TIP3    H117769   5.463   5.536   6.032
 5942TIP3    H217770   5.577   5.531   5.933
 5943TIP3   OH217771   2.761   2.312   3.741
 5943TIP3    H117772   2.711   2.318   3.659
 5943TIP3    H217773   2.847   2.348   3.719
 5944TIP3   OH217774   6.738   2.042   5.034
 5944TIP3    H117775   6.645   2.022   5.050
 5944TIP3    H217776   6.762   2.102   5.104
 5945TIP3   OH217777   8.210   0.685   0.377
 5945TIP3    H117778   8.214   0.741   0.300
 5945TIP3    H217779   8.299   0.685   0.412
 5946TIP3   OH217780   5.773   7.323   2.468
 5946TIP3    H117781   5.720   7.257   2.513
 5946TIP3    H217782   5.719   7.402   2.467
 5947TIP3   OH217783   4.050   1.936   4.016
 5947TIP3    H117784   4.113   2.000   3.984
 5947TIP3    H217785   4.041   1.956   4.110
 5948TIP3   OH217786   7.108   4.040   3.901
 5948TIP3    H117787   7.132   3.952   3.928
 5948TIP3    H217788   7.127   4.042   3.807
 5949TIP3   OH217789   6.442   2.701   4.100
 5949TIP3    H117790   6.446   2.797   4.105
 5949TIP3    H217791   6.414   2.673   4.187
 5950TIP3   OH217792   5.133   3.757   6.657
 5950TIP3    H117793   5.207   3.750   6.717
 5950TIP3    H217794   5.155   3.697   6.585
 5951TIP3   OH217795   6.313   5.857   2.774
 5951TIP3    H117796   6.278   5.787   2.829
 5951TIP3    H217797   6.237   5.890   2.726
 5952TIP3   OH217798   1.045   3.999   5.041
 5952TIP3    H117799   0.961   3.962   5.012
 5952TIP3    H217800   1.021   4.069   5.101
 5953TIP3   OH217801   1.557   7.386   3.661
 5953TIP3    H117802   1.610   7.333   3.603
 5953TIP3    H217803   1.620   7.429   3.719
 5954TIP3   OH217804   7.605   5.217   2.429
 5954TIP3    H117805   7.524   5.178   2.396
 5954TIP3    H217806   7.622   5.291   2.371
 5955TIP3   OH217807   0.585   3.478   5.433
 5955TIP3    H117808   0.497   3.441   5.420
 5955TIP3    H217809   0.603   3.466   5.526
 5956TIP3   OH217810   5.045   7.223   6.712
 5956TIP3    H117811   5.102   7.186   6.644
 5956TIP3    H217812   5.067   7.316   6.714
 5957TIP3   OH217813   0.133   7.203   0.368
 5957TIP3    H117814   0.164   7.264   0.434
 5957TIP3    H217815   0.071   7.146   0.415
 5958TIP3   OH217816   4.921   3.491   3.127
 5958TIP3    H117817   4.912   3.432   3.052
 5958TIP3    H217818   4.858   3.459   3.191
 5959TIP3   OH217819   3.126   2.575   3.206
 5959TIP3    H117820   3.074   2.609   3.133
 5959TIP3    H217821   3.060   2.549   3.271
 5960TIP3   OH217822   4.254   6.906   4.963
 5960TIP3    H117823   4.194   6.953   4.906
 5960TIP3    H217824   4.310   6.856   4.904
 5961TIP3   OH217825   2.017   6.135   5.185
 5961TIP3    H117826   1.981   6.086   5.111
 5961TIP3    H217827   2.047   6.068   5.247
 5962TIP3   OH217828   7.077   5.113   5.581
 5962TIP3    H117829   7.149   5.053   5.599
 5962TIP3    H217830   7.069   5.112   5.485
 5963TIP3   OH217831   1.681   4.789   6.609
 5963TIP3    H117832   1.763   4.746   6.585
 5963TIP3    H217833   1.650   4.830   6.528
 5964TIP3   OH217834   7.118   0.260   1.802
 5964TIP3    H117835   7.094   0.326   1.736
 5964TIP3    H217836   7.043   0.257   1.861
 5965TIP3   OH217837   7.136   0.078   3.298
 5965TIP3    H117838   7.089   0.154   3.332
 5965TIP3    H217839   7.080   0.004   3.321
 5966TIP3   OH217840   3.543   6.085   5.866
 5966TIP3    H117841   3.523   6.178   5.856
 5966TIP3    H217842   3.487   6.041   5.803
 5967TIP3   OH217843   8.219   5.539   6.653
 5967TIP3    H117844   8.262   5.454   6.661
 5967TIP3    H217845   8.171   5.533   6.570
 5968TIP3   OH217846   7.920   2.289   3.487
 5968TIP3    H117847   7.912   2.318   3.578
 5968TIP3    H217848   7.864   2.348   3.437
 5969TIP3   OH217849   2.179   7.340   4.914
 5969TIP3    H117850   2.107   7.355   4.853
 5969TIP3    H217851   2.206   7.427   4.942
 5970TIP3   OH217852   5.650   5.493   0.778
 5970TIP3    H117853   5.600   5.477   0.858
 5970TIP3    H217854   5.715   5.423   0.775
 5971TIP3   OH217855   4.827   5.248   1.925
 5971TIP3    H117856   4.919   5.233   1.946
 5971TIP3    H217857   4.779   5.186   1.981
 5972TIP3   OH217858   6.638   1.764   5.376
 5972TIP3    H117859   6.707   1.699   5.396
 5972TIP3    H217860   6.627   1.757   5.281
 5973TIP3   OH217861   6.936   0.167   3.669
 5973TIP3    H117862   6.859   0.151   3.722
 5973TIP3    H217863   6.974   0.081   3.654
 5974TIP3   OH217864   7.097   1.422   2.127
 5974TIP3    H117865   7.033   1.363   2.087
 5974TIP3    H217866   7.178   1.370   2.131
 5975TIP3   OH217867   0.309   5.784   6.627
 5975TIP3    H117868   0.242   5.784   6.695
 5975TIP3    H217869   0.261   5.789   6.545
 5976TIP3   OH217870   3.248   5.677   2.427
 5976TIP3    H117871   3.175   5.678   2.365
 5976TIP3    H217872   3.271   5.584   2.434
 5977TIP3   OH217873   6.898   2.752   2.816
 5977TIP3    H117874   6.924   2.804   2.892
 5977TIP3    H217875   6.824   2.799   2.778
 5978TIP3   OH217876   2.186   0.096   2.075
 5978TIP3    H117877   2.169   0.064   1.987
 5978TIP3    H217878   2.278   0.076   2.090
 5979TIP3   OH217879   5.251   2.199   6.546
 5979TIP3    H117880   5.321   2.245   6.501
 5979TIP3    H217881   5.171   2.223   6.498
 5980TIP3   OH217882   5.378   2.674   2.249
 5980TIP3    H117883   5.296   2.707   2.212
 5980TIP3    H217884   5.442   2.742   2.230
 5981TIP3   OH217885   4.404   7.348   2.346
 5981TIP3    H117886   4.308   7.358   2.349
 5981TIP3    H217887   4.437   7.431   2.380
 5982TIP3   OH217888   2.499   3.489   6.656
 5982TIP3    H117889   2.484   3.414   6.598
 5982TIP3    H217890   2.582   3.526   6.626
 5983TIP3   OH217891   0.745   2.974   0.214
 5983TIP3    H117892   0.733   2.905   0.279
 5983TIP3    H217893   0.837   2.968   0.190
 5984TIP3   OH217894   4.317   0.903   2.308
 5984TIP3    H117895   4.226   0.918   2.283
 5984TIP3    H217896   4.334   0.968   2.376
 5985TIP3   OH217897   2.053   6.245   4.894
 5985TIP3    H117898   2.014   6.331   4.881
 5985TIP3    H217899   2.040   6.226   4.987
 5986TIP3   OH217900   0.745   6.023   6.482
 5986TIP3    H117901   0.725   6.007   6.390
 5986TIP3    H217902   0.660   6.032   6.524
 5987TIP3   OH217903   6.827   7.862   5.994
 5987TIP3    H117904   6.864   7.938   5.948
 5987TIP3    H217905   6.903   7.810   6.019
 5988TIP3   OH217906   7.061   4.578   4.546
 5988TIP3    H117907   6.993   4.529   4.591
 5988TIP3    H217908   7.126   4.512   4.521
 5989TIP3   OH217909   3.893   6.760   6.427
 5989TIP3    H117910   3.963   6.825   6.421
 5989TIP3    H217911   3.936   6.676   6.416
 5990TIP3   OH217912   5.207   3.901   4.810
 5990TIP3    H117913   5.196   3.993   4.786
 5990TIP3    H217914   5.246   3.860   4.733
 5991TIP3   OH217915   1.352   0.298   2.851
 5991TIP3    H117916   1.427   0.249   2.883
 5991TIP3    H217917   1.293   0.304   2.926
 5992TIP3   OH217918   0.851   2.120   4.004
 5992TIP3    H117919   0.787   2.067   4.051
 5992TIP3    H217920   0.916   2.144   4.071
 5993TIP3   OH217921   2.336   4.501   6.721
 5993TIP3    H117922   2.346   4.512   6.816
 5993TIP3    H217923   2.347   4.589   6.685
 5994TIP3   OH217924   0.745   6.609   3.469
 5994TIP3    H117925   0.838   6.587   3.478
 5994TIP3    H217926   0.710   6.540   3.412
 5995TIP3   OH217927   3.064   2.744   4.751
 5995TIP3    H117928   3.101   2.688   4.819
 5995TIP3    H217929   3.114   2.722   4.672
 5996TIP3   OH217930   2.662   0.389   6.538
 5996TIP3    H117931   2.731   0.410   6.600
 5996TIP3    H217932   2.605   0.328   6.586
 5997TIP3   OH217933   7.138   3.953   2.503
 5997TIP3    H117934   7.193   3.877   2.520
 5997TIP3    H217935   7.190   4.028   2.531
 5998TIP3   OH217936   0.679   3.729   0.632
 5998TIP3    H117937   0.733   3.679   0.693
 5998TIP3    H217938   0.738   3.752   0.560
 5999TIP3   OH217939   2.361   0.140   4.312
 5999TIP3    H117940   2.417   0.089   4.254
 5999TIP3    H217941   2.280   0.152   4.263
 6000TIP3   OH217942   4.410   0.249   6.745
 6000TIP3    H117943   4.443   0.171   6.789
 6000TIP3    H217944   4.426   0.232   6.652
 6001TIP3   OH217945   6.701   0.136   0.873
 6001TIP3    H117946   6.692   0.049   0.912
 6001TIP3    H217947   6.794   0.145   0.855
 6002TIP3   OH217948   3.613   6.941   2.054
 6002TIP3    H117949   3.697   6.958   2.098
 6002TIP3    H217950   3.610   6.845   2.047
 6003TIP3   OH217951   6.117   6.820   5.310
 6003TIP3    H117952   6.107   6.724   5.310
 6003TIP3    H217953   6.212   6.834   5.305
 6004TIP3   OH217954   7.306   5.987   2.320
 6004TIP3    H117955   7.401   5.983   2.317
 6004TIP3    H217956   7.279   5.896   2.337
 6005TIP3   OH217957   2.326   2.028   6.567
 6005TIP3    H117958   2.352   2.061   6.481
 6005TIP3    H217959   2.242   1.985   6.552
 6006TIP3   OH217960   0.680   1.009   1.696
 6006TIP3    H117961   0.608   0.968   1.743
 6006TIP3    H217962   0.711   1.079   1.754
 6007TIP3   OH217963   8.072   4.926   1.021
 6007TIP3    H117964   8.067   4.849   0.965
 6007TIP3    H217965   7.982   4.956   1.029
 6008TIP3   OH217966   7.492   4.035   4.544
 6008TIP3    H117967   7.554   4.008   4.612
 6008TIP3    H217968   7.536   4.014   4.461
 6009TIP3   OH217969   4.039   0.751   3.222
 6009TIP3    H117970   4.051   0.762   3.128
 6009TIP3    H217971   4.123   0.717   3.253
 6010TIP3   OH217972   7.684   5.707   3.571
 6010TIP3    H117973   7.596   5.720   3.536
 6010TIP3    H217974   7.697   5.612   3.568
 6011TIP3   OH217975   6.633   5.310   3.612
 6011TIP3    H117976   6.660   5.256   3.686
 6011TIP3    H217977   6.713   5.355   3.584
 6012TIP3   OH217978   5.843   1.739   0.157
 6012TIP3    H117979   5.774   1.799   0.126
 6012TIP3    H217980   5.918   1.795   0.173
 6013TIP3   OH217981   1.689   7.760   5.302
 6013TIP3    H117982   1.684   7.705   5.380
 6013TIP3    H217983   1.715   7.700   5.232
 6014TIP3   OH217984   2.229   2.404   6.367
 6014TIP3    H117985   2.170   2.344   6.413
 6014TIP3    H217986   2.189   2.415   6.281
 6015TIP3   OH217987   7.496   7.061   4.989
 6015TIP3    H117988   7.520   7.127   4.924
 6015TIP3    H217989   7.413   7.026   4.958
 6016TIP3   OH217990   3.491   3.468   6.287
 6016TIP3    H117991   3.500   3.489   6.380
 6016TIP3    H217992   3.442   3.386   6.286
 6017TIP3   OH217993   7.219   7.166   2.967
 6017TIP3    H117994   7.280   7.168   2.893
 6017TIP3    H217995   7.141   7.123   2.933
 6018TIP3   OH217996   4.023   6.747   3.782
 6018TIP3    H117997   4.078   6.806   3.833
 6018TIP3    H217998   3.980   6.803   3.718
 6019TIP3   OH217999   7.695   4.444   6.767
 6019TIP3    H118000   7.723   4.496   6.692
 6019TIP3    H218001   7.773   4.395   6.793
 6020TIP3   OH218002   5.451   2.869   3.373
 6020TIP3    H118003   5.391   2.845   3.444
 6020TIP3    H218004   5.472   2.787   3.331
 6021TIP3   OH218005   7.053   4.615   2.604
 6021TIP3    H118006   7.113   4.602   2.677
 6021TIP3    H218007   7.012   4.530   2.591
 6022TIP3   OH218008   7.584   2.749   3.653
 6022TIP3    H118009   7.647   2.677   3.651
 6022TIP3    H218010   7.635   2.827   3.629
 6023TIP3   OH218011   5.340   1.054   2.011
 6023TIP3    H118012   5.388   0.979   1.977
 6023TIP3    H218013   5.269   1.016   2.063
 6024TIP3   OH218014   6.237   4.481   5.352
 6024TIP3    H118015   6.273   4.567   5.332
 6024TIP3    H218016   6.189   4.455   5.273
 6025TIP3   OH218017   6.016   3.206   3.530
 6025TIP3    H118018   6.070   3.207   3.609
 6025TIP3    H218019   5.981   3.295   3.522
 6026TIP3   OH218020   0.594   6.044   0.905
 6026TIP3    H118021   0.636   6.115   0.856
 6026TIP3    H218022   0.666   5.986   0.930
 6027TIP3   OH218023   2.003   7.621   2.894
 6027TIP3    H118024   1.995   7.539   2.846
 6027TIP3    H218025   1.924   7.626   2.947
 6028TIP3   OH218026   5.519   3.132   2.633
 6028TIP3    H118027   5.514   3.103   2.542
 6028TIP3    H218028   5.557   3.220   2.628
 6029TIP3   OH218029   7.947   2.595   2.470
 6029TIP3    H118030   7.987   2.510   2.483
 6029TIP3    H218031   7.858   2.576   2.440
 6030TIP3   OH218032   5.201   0.964   5.974
 6030TIP3    H118033   5.249   0.883   5.958
 6030TIP3    H218034   5.128   0.962   5.912
 6031TIP3   OH218035   0.452   4.922   4.434
 6031TIP3    H118036   0.514   4.889   4.369
 6031TIP3    H218037   0.495   4.907   4.518
 6032TIP3   OH218038   7.978   0.990   0.277
 6032TIP3    H118039   7.912   0.922   0.264
 6032TIP3    H218040   8.036   0.982   0.202
 6033TIP3   OH218041   5.243   5.098   5.466
 6033TIP3    H118042   5.239   5.193   5.458
 6033TIP3    H218043   5.303   5.070   5.397
 6034TIP3   OH218044   5.458   0.097   5.422
 6034TIP3    H118045   5.403   0.128   5.494
 6034TIP3    H218046   5.546   0.091   5.460
 6035TIP3   OH218047   2.303   4.879   2.256
 6035TIP3    H118048   2.228   4.821   2.273
 6035TIP3    H218049   2.377   4.836   2.299
 6036TIP3   OH218050   3.316   2.534   4.093
 6036TIP3    H118051   3.324   2.521   3.999
 6036TIP3    H218052   3.386   2.595   4.115
 6037TIP3   OH218053   6.383   7.566   0.527
 6037TIP3    H118054   6.371   7.660   0.510
 6037TIP3    H218055   6.371   7.557   0.621
 6038TIP3   OH218056   7.930   1.696   5.520
 6038TIP3    H118057   7.954   1.724   5.609
 6038TIP3    H218058   7.936   1.601   5.523
 6039TIP3   OH218059   1.751   7.901   3.059
 6039TIP3    H118060   1.753   7.830   3.122
 6039TIP3    H218061   1.688   7.874   2.993
 6040TIP3   OH218062   3.676   2.479   1.192
 6040TIP3    H118063   3.656   2.415   1.123
 6040TIP3    H218064   3.747   2.532   1.156
 6041TIP3   OH218065   0.234   7.063   4.927
 6041TIP3    H118066   0.154   7.030   4.970
 6041TIP3    H218067   0.202   7.108   4.849
 6042TIP3   OH218068   3.791   0.014   5.684
 6042TIP3    H118069   3.768  -0.052   5.619
 6042TIP3    H218070   3.724   0.004   5.752
 6043TIP3   OH218071   3.415   5.752   0.154
 6043TIP3    H118072   3.352   5.786   0.218
 6043TIP3    H218073   3.472   5.694   0.205
 6044TIP3   OH218074   1.603   4.789   5.859
 6044TIP3    H118075   1.544   4.858   5.889
 6044TIP3    H218076   1.685   4.834   5.838
 6045TIP3   OH218077   5.321   4.910   4.997
 6045TIP3    H118078   5.392   4.845   5.000
 6045TIP3    H218079   5.289   4.905   4.907
 6046TIP3   OH218080   5.014   0.201   0.337
 6046TIP3    H118081   4.935   0.151   0.314
 6046TIP3    H218082   5.039   0.167   0.423
 6047TIP3   OH218083   7.916   3.980   0.254
 6047TIP3    H118084   7.881   3.933   0.330
 6047TIP3    H218085   7.844   4.034   0.224
 6048TIP3   OH218086   5.156   1.656   1.742
 6048TIP3    H118087   5.167   1.563   1.763
 6048TIP3    H218088   5.093   1.658   1.671
 6049TIP3   OH218089   3.584   3.524   2.212
 6049TIP3    H118090   3.564   3.431   2.197
 6049TIP3    H218091   3.596   3.530   2.307
 6050TIP3   OH218092   2.787   0.730   4.751
 6050TIP3    H118093   2.763   0.822   4.755
 6050TIP3    H218094   2.839   0.715   4.831
 6051TIP3   OH218095   1.393   6.266   1.275
 6051TIP3    H118096   1.420   6.174   1.271
 6051TIP3    H218097   1.466   6.311   1.318
 6052TIP3   OH218098   7.852   6.799   2.030
 6052TIP3    H118099   7.817   6.825   1.944
 6052TIP3    H218100   7.781   6.748   2.069
 6053TIP3   OH218101   5.371   3.896   1.982
 6053TIP3    H118102   5.460   3.925   1.965
 6053TIP3    H218103   5.375   3.801   1.972
 6054TIP3   OH218104   2.904   0.568   0.783
 6054TIP3    H118105   2.968   0.559   0.854
 6054TIP3    H218106   2.843   0.635   0.814
 6055TIP3   OH218107   3.608   1.395   4.471
 6055TIP3    H118108   3.576   1.308   4.447
 6055TIP3    H218109   3.557   1.420   4.548
 6056TIP3   OH218110   0.538   2.704   5.662
 6056TIP3    H118111   0.493   2.716   5.745
 6056TIP3    H218112   0.534   2.790   5.620
 6057TIP3   OH218113   7.436   0.002   6.215
 6057TIP3    H118114   7.483  -0.079   6.237
 6057TIP3    H218115   7.505   0.068   6.207
 6058TIP3   OH218116   2.924   4.865   3.530
 6058TIP3    H118117   2.984   4.911   3.471
 6058TIP3    H218118   2.980   4.834   3.601
 6059TIP3   OH218119   2.244   3.788   3.851
 6059TIP3    H118120   2.275   3.698   3.840
 6059TIP3    H218121   2.155   3.779   3.885
 6060TIP3   OH218122   1.757   1.900   3.725
 6060TIP3    H118123   1.717   1.824   3.767
 6060TIP3    H218124   1.702   1.917   3.649
 6061TIP3   OH218125   0.960   4.714   3.332
 6061TIP3    H118126   1.023   4.787   3.336
 6061TIP3    H218127   0.892   4.745   3.273
 6062TIP3   OH218128   7.692   3.960   1.112
 6062TIP3    H118129   7.608   4.004   1.113
 6062TIP3    H218130   7.754   4.026   1.080
 6063TIP3   OH218131   0.918   1.562   2.940
 6063TIP3    H118132   0.940   1.578   2.849
 6063TIP3    H218133   1.001   1.570   2.987
 6064TIP3   OH218134   1.198   3.394   4.616
 6064TIP3    H118135   1.123   3.450   4.599
 6064TIP3    H218136   1.181   3.356   4.702
 6065TIP3   OH218137   5.929   0.853   4.521
 6065TIP3    H118138   5.915   0.906   4.600
 6065TIP3    H218139   6.014   0.882   4.488
 6066TIP3   OH218140   7.194   0.896   0.673
 6066TIP3    H118141   7.270   0.894   0.615
 6066TIP3    H218142   7.198   0.981   0.716
 6067TIP3   OH218143   3.748   6.107   4.192
 6067TIP3    H118144   3.807   6.051   4.141
 6067TIP3    H218145   3.661   6.079   4.165
 6068TIP3   OH218146   6.133   7.021   1.399
 6068TIP3    H118147   6.200   6.954   1.390
 6068TIP3    H218148   6.180   7.104   1.386
 6069TIP3   OH218149   5.404   2.630   0.145
 6069TIP3    H118150   5.421   2.612   0.052
 6069TIP3    H218151   5.484   2.673   0.176
 6070TIP3   OH218152   4.815   0.030   0.259
 6070TIP3    H118153   4.853  -0.013   0.182
 6070TIP3    H218154   4.727  -0.008   0.266
 6071TIP3   OH218155   5.476   4.204   6.449
 6071TIP3    H118156   5.527   4.124   6.436
 6071TIP3    H218157   5.391   4.185   6.408
 6072TIP3   OH218158   5.174   1.142   6.770
 6072TIP3    H118159   5.221   1.208   6.822
 6072TIP3    H218160   5.111   1.192   6.718
 6073TIP3   OH218161   0.047   6.471   2.390
 6073TIP3    H118162  -0.042   6.467   2.424
 6073TIP3    H218163   0.083   6.552   2.427
 6074TIP3   OH218164   6.975   4.199   4.536
 6074TIP3    H118165   7.035   4.126   4.552
 6074TIP3    H218166   6.889   4.166   4.560
 6075TIP3   OH218167   4.406   2.060   5.430
 6075TIP3    H118168   4.442   1.971   5.432
 6075TIP3    H218169   4.409   2.089   5.521
 6076TIP3   OH218170   7.098   1.180   4.715
 6076TIP3    H118171   7.018   1.232   4.724
 6076TIP3    H218172   7.162   1.224   4.770
 6077TIP3   OH218173   0.523   7.240   0.987
 6077TIP3    H118174   0.539   7.332   1.007
 6077TIP3    H218175   0.453   7.214   1.047
 6078TIP3   OH218176   6.968   3.131   1.143
 6078TIP3    H118177   6.978   3.106   1.051
 6078TIP3    H218178   6.996   3.222   1.147
 6079TIP3   OH218179   6.592   3.718   6.572
 6079TIP3    H118180   6.527   3.651   6.594
 6079TIP3    H218181   6.558   3.798   6.612
 6080TIP3   OH218182   1.690   2.796   3.917
 6080TIP3    H118183   1.775   2.773   3.879
 6080TIP3    H218184   1.711   2.828   4.005
 6081TIP3   OH218185   7.232   7.645   4.999
 6081TIP3    H118186   7.256   7.557   4.970
 6081TIP3    H218187   7.239   7.698   4.920
 6082TIP3   OH218188   4.742   0.785   5.074
 6082TIP3    H118189   4.760   0.878   5.090
 6082TIP3    H218190   4.822   0.751   5.035
 6083TIP3   OH218191   1.886   1.510   4.916
 6083TIP3    H118192   1.858   1.437   4.972
 6083TIP3    H218193   1.859   1.588   4.964
 6084TIP3   OH218194   2.313   5.969   6.743
 6084TIP3    H118195   2.395   5.930   6.712
 6084TIP3    H218196   2.317   5.962   6.838
 6085TIP3   OH218197   1.382   2.771   0.114
 6085TIP3    H118198   1.383   2.843   0.177
 6085TIP3    H218199   1.417   2.696   0.163
 6086TIP3   OH218200   0.107   5.783   5.369
 6086TIP3    H118201   0.181   5.797   5.310
 6086TIP3    H218202   0.133   5.826   5.450
 6087TIP3   OH218203   4.171   4.280   4.880
 6087TIP3    H118204   4.253   4.304   4.836
 6087TIP3    H218205   4.105   4.281   4.810
 6088TIP3   OH218206   2.485   5.767   1.025
 6088TIP3    H118207   2.401   5.724   1.040
 6088TIP3    H218208   2.496   5.766   0.930
 6089TIP3   OH218209   6.258   0.382   4.204
 6089TIP3    H118210   6.174   0.427   4.204
 6089TIP3    H218211   6.235   0.289   4.210
 6090TIP3   OH218212   3.198   6.197   0.517
 6090TIP3    H118213   3.180   6.104   0.533
 6090TIP3    H218214   3.172   6.240   0.598
 6091TIP3   OH218215   7.227   7.622   5.725
 6091TIP3    H118216   7.158   7.673   5.682
 6091TIP3    H218217   7.254   7.558   5.659
 6092TIP3   OH218218   1.454   1.203   5.531
 6092TIP3    H118219   1.438   1.162   5.446
 6092TIP3    H218220   1.535   1.162   5.562
 6093TIP3   OH218221   3.414   5.055   0.480
 6093TIP3    H118222   3.412   5.069   0.386
 6093TIP3    H218223   3.329   5.088   0.511
 6094TIP3   OH218224   5.962   2.430   3.605
 6094TIP3    H118225   5.970   2.335   3.618
 6094TIP3    H218226   5.891   2.439   3.541
 6095TIP3   OH218227   7.847   4.033   4.472
 6095TIP3    H118228   7.776   4.042   4.409
 6095TIP3    H218229   7.812   3.975   4.540
 6096TIP3   OH218230   5.506   1.109   6.305
 6096TIP3    H118231   5.564   1.116   6.381
 6096TIP3    H218232   5.511   1.195   6.263
 6097TIP3   OH218233   0.599   2.690   0.103
 6097TIP3    H118234   0.672   2.744   0.135
 6097TIP3    H218235   0.623   2.669   0.012
 6098TIP3   OH218236   0.827   5.115   6.047
 6098TIP3    H118237   0.808   5.084   5.958
 6098TIP3    H218238   0.786   5.051   6.104
 6099TIP3   OH218239   6.390   3.573   2.439
 6099TIP3    H118240   6.343   3.591   2.358
 6099TIP3    H218241   6.328   3.525   2.493
 6100TIP3   OH218242   0.492   5.754   6.312
 6100TIP3    H118243   0.437   5.714   6.379
 6100TIP3    H218244   0.579   5.717   6.329
 6101TIP3   OH218245   8.085   6.270   2.993
 6101TIP3    H118246   8.121   6.259   3.081
 6101TIP3    H218247   7.991   6.281   3.007
 6102TIP3   OH218248   6.503   4.548   4.996
 6102TIP3    H118249   6.573   4.610   4.975
 6102TIP3    H218250   6.525   4.517   5.084
 6103TIP3   OH218251   3.440   3.439   1.585
 6103TIP3    H118252   3.468   3.362   1.535
 6103TIP3    H218253   3.345   3.439   1.578
 6104TIP3   OH218254   8.163   1.337   2.277
 6104TIP3    H118255   8.074   1.372   2.285
 6104TIP3    H218256   8.152   1.250   2.240
 6105TIP3   OH218257   3.068   6.845   2.872
 6105TIP3    H118258   3.015   6.766   2.861
 6105TIP3    H218259   3.055   6.871   2.963
 6106TIP3   OH218260   0.974   7.060   5.501
 6106TIP3    H118261   0.917   7.042   5.426
 6106TIP3    H218262   1.059   7.081   5.461
 6107TIP3   OH218263   5.070   7.713   1.577
 6107TIP3    H118264   5.107   7.725   1.489
 6107TIP3    H218265   5.140   7.741   1.636
 6108TIP3   OH218266   7.039   3.132   4.291
 6108TIP3    H118267   6.944   3.136   4.276
 6108TIP3    H218268   7.077   3.179   4.217
 6109TIP3   OH218269   1.879   4.270   5.256
 6109TIP3    H118270   1.872   4.269   5.160
 6109TIP3    H218271   1.801   4.317   5.285
 6110TIP3   OH218272   2.748   1.430   1.616
 6110TIP3    H118273   2.837   1.415   1.584
 6110TIP3    H218274   2.756   1.501   1.680
 6111TIP3   OH218275   6.035   7.287   3.153
 6111TIP3    H118276   6.030   7.346   3.227
 6111TIP3    H218277   5.952   7.238   3.155
 6112TIP3   OH218278   1.377   5.652   1.404
 6112TIP3    H118279   1.361   5.557   1.401
 6112TIP3    H218280   1.319   5.688   1.336
 6113TIP3   OH218281   6.254   1.619   1.297
 6113TIP3    H118282   6.201   1.630   1.217
 6113TIP3    H218283   6.291   1.705   1.313
 6114TIP3   OH218284   2.166   6.300   4.194
 6114TIP3    H118285   2.085   6.251   4.185
 6114TIP3    H218286   2.229   6.236   4.226
 6115TIP3   OH218287   1.935   6.721   4.465
 6115TIP3    H118288   1.910   6.688   4.379
 6115TIP3    H218289   1.856   6.710   4.518
 6116TIP3   OH218290   6.731   5.622   4.267
 6116TIP3    H118291   6.661   5.679   4.299
 6116TIP3    H218292   6.686   5.543   4.237
 6117TIP3   OH218293   1.628   7.234   2.647
 6117TIP3    H118294   1.619   7.189   2.732
 6117TIP3    H218295   1.561   7.195   2.592
 6118TIP3   OH218296   8.268   3.703   3.834
 6118TIP3    H118297   8.193   3.705   3.774
 6118TIP3    H218298   8.327   3.637   3.796
 6119TIP3   OH218299   5.619   0.059   4.949
 6119TIP3    H118300   5.536   0.072   4.903
 6119TIP3    H218301   5.671   0.004   4.889
 6120TIP3   OH218302   3.179   7.601   3.489
 6120TIP3    H118303   3.093   7.629   3.521
 6120TIP3    H218304   3.192   7.652   3.410
 6121TIP3   OH218305   0.154   6.931   0.638
 6121TIP3    H118306   0.079   6.988   0.620
 6121TIP3    H218307   0.216   6.987   0.685
 6122TIP3   OH218308   5.348   0.791   1.930
 6122TIP3    H118309   5.265   0.743   1.934
 6122TIP3    H218310   5.397   0.747   1.860
 6123TIP3   OH218311   0.640   0.506   0.928
 6123TIP3    H118312   0.734   0.507   0.945
 6123TIP3    H218313   0.602   0.461   1.003
 6124TIP3   OH218314   2.331   3.109   4.002
 6124TIP3    H118315   2.409   3.097   4.057
 6124TIP3    H218316   2.279   3.175   4.048
 6125TIP3   OH218317   7.792   6.877   6.583
 6125TIP3    H118318   7.788   6.824   6.662
 6125TIP3    H218319   7.713   6.931   6.586
 6126TIP3   OH218320   1.963   2.628   2.907
 6126TIP3    H118321   2.035   2.688   2.929
 6126TIP3    H218322   1.942   2.584   2.989
 6127TIP3   OH218323   2.921   4.998   1.568
 6127TIP3    H118324   2.853   5.027   1.507
 6127TIP3    H218325   2.912   4.902   1.569
 6128TIP3   OH218326   3.609   1.669   1.361
 6128TIP3    H118327   3.638   1.757   1.336
 6128TIP3    H218328   3.537   1.684   1.421
 6129TIP3   OH218329   4.033   7.668   4.197
 6129TIP3    H118330   3.941   7.644   4.194
 6129TIP3    H218331   4.041   7.727   4.272
 6130TIP3   OH218332   1.243   0.350   0.738
 6130TIP3    H118333   1.209   0.343   0.649
 6130TIP3    H218334   1.306   0.422   0.734
 6131TIP3   OH218335   2.395   1.627   0.243
 6131TIP3    H118336   2.381   1.594   0.155
 6131TIP3    H218337   2.424   1.718   0.231
 6132TIP3   OH218338   2.624   4.997   1.099
 6132TIP3    H118339   2.683   5.017   1.027
 6132TIP3    H218340   2.657   4.915   1.136
 6133TIP3   OH218341   0.348   1.183   3.750
 6133TIP3    H118342   0.382   1.096   3.726
 6133TIP3    H218343   0.403   1.244   3.701
 6134TIP3   OH218344   7.228   4.440   0.811
 6134TIP3    H118345   7.312   4.457   0.855
 6134TIP3    H218346   7.167   4.421   0.883
 6135TIP3   OH218347   4.067   3.814   4.272
 6135TIP3    H118348   4.084   3.731   4.315
 6135TIP3    H218349   4.088   3.798   4.180
 6136TIP3   OH218350   0.612   6.909   0.226
 6136TIP3    H118351   0.701   6.874   0.228
 6136TIP3    H218352   0.557   6.836   0.258
 6137TIP3   OH218353   2.672   1.601   2.213
 6137TIP3    H118354   2.757   1.644   2.221
 6137TIP3    H218355   2.621   1.658   2.155
 6138TIP3   OH218356   3.298   3.868   3.241
 6138TIP3    H118357   3.296   3.805   3.314
 6138TIP3    H218358   3.239   3.831   3.176
 6139TIP3   OH218359   1.621   5.443   4.250
 6139TIP3    H118360   1.676   5.418   4.176
 6139TIP3    H218361   1.657   5.395   4.324
 6140TIP3   OH218362   5.670   7.437   3.455
 6140TIP3    H118363   5.686   7.344   3.466
 6140TIP3    H218364   5.652   7.469   3.544
 6141TIP3   OH218365   6.347   5.141   1.360
 6141TIP3    H118366   6.354   5.105   1.272
 6141TIP3    H218367   6.367   5.235   1.349
 6142TIP3   OH218368   4.479   3.377   3.606
 6142TIP3    H118369   4.574   3.390   3.607
 6142TIP3    H218370   4.452   3.389   3.697
 6143TIP3   OH218371   7.697   6.991   0.333
 6143TIP3    H118372   7.624   6.958   0.384
 6143TIP3    H218373   7.682   7.086   0.327
 6144TIP3   OH218374   3.752   5.749   4.372
 6144TIP3    H118375   3.724   5.830   4.415
 6144TIP3    H218376   3.847   5.753   4.371
 6145TIP3   OH218377   0.764   4.556   4.172
 6145TIP3    H118378   0.809   4.598   4.246
 6145TIP3    H218379   0.706   4.492   4.213
 6146TIP3   OH218380   5.409   6.573   4.196
 6146TIP3    H118381   5.405   6.598   4.103
 6146TIP3    H218382   5.334   6.515   4.208
 6147TIP3   OH218383   2.896   2.470   1.157
 6147TIP3    H118384   2.881   2.376   1.152
 6147TIP3    H218385   2.865   2.495   1.244
 6148TIP3   OH218386   2.062   4.075   0.620
 6148TIP3    H118387   2.005   4.146   0.591
 6148TIP3    H218388   2.051   4.072   0.715
 6149TIP3   OH218389   7.248   2.677   0.182
 6149TIP3    H118390   7.320   2.617   0.199
 6149TIP3    H218391   7.280   2.733   0.110
 6150TIP3   OH218392   4.189   5.584   3.142
 6150TIP3    H118393   4.132   5.634   3.200
 6150TIP3    H218394   4.155   5.495   3.146
 6151TIP3   OH218395   3.794   6.531   0.459
 6151TIP3    H118396   3.787   6.460   0.522
 6151TIP3    H218397   3.845   6.493   0.387
 6152TIP3   OH218398   3.068   4.990   6.732
 6152TIP3    H118399   3.038   5.062   6.787
 6152TIP3    H218400   3.147   5.023   6.689
 6153TIP3   OH218401   6.353   3.757   1.560
 6153TIP3    H118402   6.273   3.784   1.604
 6153TIP3    H218403   6.419   3.819   1.590
 6154TIP3   OH218404   0.155   2.221   2.037
 6154TIP3    H118405   0.131   2.314   2.039
 6154TIP3    H218406   0.247   2.219   2.062
 6155TIP3   OH218407   2.791   2.563   5.628
 6155TIP3    H118408   2.803   2.541   5.535
 6155TIP3    H218409   2.852   2.507   5.674
 6156TIP3   OH218410   7.475   4.050   5.431
 6156TIP3    H118411   7.414   4.110   5.388
 6156TIP3    H218412   7.463   4.065   5.524
 6157TIP3   OH218413   5.241   6.350   0.136
 6157TIP3    H118414   5.151   6.369   0.160
 6157TIP3    H218415   5.235   6.280   0.072
 6158TIP3   OH218416   2.950   0.970   3.829
 6158TIP3    H118417   2.989   0.966   3.916
 6158TIP3    H218418   2.867   0.923   3.837
 6159TIP3   OH218419   7.124   0.098   3.018
 6159TIP3    H118420   7.138   0.108   3.112
 6159TIP3    H218421   7.044   0.147   3.000
 6160TIP3   OH218422   8.211   0.577   4.685
 6160TIP3    H118423   8.228   0.547   4.774
 6160TIP3    H218424   8.274   0.649   4.671
 6161TIP3   OH218425   3.090   5.156   4.875
 6161TIP3    H118426   3.069   5.243   4.840
 6161TIP3    H218427   3.115   5.173   4.966
 6162TIP3   OH218428   1.449   0.273   4.709
 6162TIP3    H118429   1.369   0.322   4.687
 6162TIP3    H218430   1.419   0.201   4.764
 6163TIP3   OH218431   6.159   4.012   3.611
 6163TIP3    H118432   6.174   3.930   3.563
 6163TIP3    H218433   6.245   4.035   3.646
 6164TIP3   OH218434   0.529   1.533   2.779
 6164TIP3    H118435   0.567   1.446   2.793
 6164TIP3    H218436   0.583   1.571   2.710
 6165TIP3   OH218437   3.202   2.124   3.024
 6165TIP3    H118438   3.114   2.102   3.057
 6165TIP3    H218439   3.186   2.183   2.950
 6166TIP3   OH218440   0.199   0.481   1.669
 6166TIP3    H118441   0.194   0.514   1.579
 6166TIP3    H218442   0.129   0.527   1.715
 6167TIP3   OH218443   2.765   7.677   5.711
 6167TIP3    H118444   2.678   7.637   5.716
 6167TIP3    H218445   2.822   7.606   5.679
 6168TIP3   OH218446   7.834   2.800   6.783
 6168TIP3    H118447   7.776   2.761   6.718
 6168TIP3    H218448   7.775   2.830   6.853
 6169TIP3   OH218449   4.117   3.056   1.713
 6169TIP3    H118450   4.208   3.029   1.698
 6169TIP3    H218451   4.123   3.117   1.786
 6170TIP3   OH218452   1.608   0.833   3.295
 6170TIP3    H118453   1.656   0.752   3.314
 6170TIP3    H218454   1.533   0.805   3.242
 6171TIP3   OH218455   7.006   4.355   4.297
 6171TIP3    H118456   6.991   4.296   4.371
 6171TIP3    H218457   7.097   4.384   4.309
 6172TIP3   OH218458   4.485   2.158   1.766
 6172TIP3    H118459   4.457   2.108   1.843
 6172TIP3    H218460   4.418   2.226   1.756
 6173TIP3   OH218461   6.071   2.278   4.199
 6173TIP3    H118462   6.096   2.311   4.113
 6173TIP3    H218463   6.005   2.340   4.230
 6174TIP3   OH218464   0.668   5.838   5.331
 6174TIP3    H118465   0.665   5.790   5.414
 6174TIP3    H218466   0.739   5.796   5.282
 6175TIP3   OH218467   5.224   0.574   6.024
 6175TIP3    H118468   5.284   0.640   5.988
 6175TIP3    H218469   5.165   0.623   6.081
 6176TIP3   OH218470   4.182   3.777   3.559
 6176TIP3    H118471   4.099   3.778   3.511
 6176TIP3    H218472   4.210   3.685   3.555
 6177TIP3   OH218473   4.451   5.723   0.202
 6177TIP3    H118474   4.370   5.770   0.219
 6177TIP3    H218475   4.423   5.642   0.159
 6178TIP3   OH218476   1.246   2.105   4.544
 6178TIP3    H118477   1.313   2.170   4.521
 6178TIP3    H218478   1.287   2.021   4.528
 6179TIP3   OH218479   7.707   2.783  -0.030
 6179TIP3    H118480   7.713   2.691  -0.055
 6179TIP3    H218481   7.639   2.785   0.037
 6180TIP3   OH218482   7.948   6.249   6.616
 6180TIP3    H118483   7.990   6.234   6.531
 6180TIP3    H218484   7.855   6.237   6.600
 6181TIP3   OH218485   4.853   3.190   4.699
 6181TIP3    H118486   4.806   3.157   4.775
 6181TIP3    H218487   4.811   3.274   4.680
 6182TIP3   OH218488   6.796   2.746   4.042
 6182TIP3    H118489   6.817   2.791   4.125
 6182TIP3    H218490   6.835   2.659   4.052
 6183TIP3   OH218491   2.818   0.131   0.366
 6183TIP3    H118492   2.743   0.093   0.319
 6183TIP3    H218493   2.855   0.058   0.415
 6184TIP3   OH218494   2.489   0.673   1.666
 6184TIP3    H118495   2.475   0.580   1.646
 6184TIP3    H218496   2.472   0.680   1.759
 6185TIP3   OH218497   5.630   5.319   1.700
 6185TIP3    H118498   5.575   5.311   1.622
 6185TIP3    H218499   5.574   5.361   1.765
 6186TIP3   OH218500   2.862   6.088   2.295
 6186TIP3    H118501   2.854   6.003   2.337
 6186TIP3    H218502   2.901   6.070   2.209
 6187TIP3   OH218503   6.515   1.066   6.693
 6187TIP3    H118504   6.482   1.025   6.773
 6187TIP3    H218505   6.606   1.038   6.687
 6188TIP3   OH218506   4.101   6.624   0.821
 6188TIP3    H118507   4.053   6.542   0.830
 6188TIP3    H218508   4.038   6.692   0.847
 6189TIP3   OH218509   7.181   1.486   6.326
 6189TIP3    H118510   7.127   1.478   6.248
 6189TIP3    H218511   7.142   1.559   6.375
 6190TIP3   OH218512   8.096   2.291   4.859
 6190TIP3    H118513   8.171   2.250   4.816
 6190TIP3    H218514   8.112   2.385   4.850
 6191TIP3   OH218515   6.947   2.375   5.667
 6191TIP3    H118516   6.992   2.449   5.708
 6191TIP3    H218517   7.017   2.323   5.628
 6192TIP3   OH218518   2.615   3.915   2.941
 6192TIP3    H118519   2.663   3.980   2.890
 6192TIP3    H218520   2.523   3.934   2.924
 6193TIP3   OH218521   1.078   6.453   2.498
 6193TIP3    H118522   1.047   6.495   2.418
 6193TIP3    H218523   1.009   6.470   2.562
 6194TIP3   OH218524   8.111   6.453   2.522
 6194TIP3    H118525   8.129   6.392   2.594
 6194TIP3    H218526   8.024   6.428   2.491
 6195TIP3   OH218527   0.609   4.233   6.057
 6195TIP3    H118528   0.669   4.193   6.120
 6195TIP3    H218529   0.566   4.303   6.105
 6196TIP3   OH218530   7.272  -0.010   5.121
 6196TIP3    H118531   7.325   0.060   5.083
 6196TIP3    H218532   7.303  -0.017   5.212
 6197TIP3   OH218533   1.483   6.797   6.269
 6197TIP3    H118534   1.536   6.756   6.337
 6197TIP3    H218535   1.393   6.777   6.293
 6198TIP3   OH218536   5.680   2.753   2.047
 6198TIP3    H118537   5.631   2.799   2.115
 6198TIP3    H218538   5.701   2.820   1.982
 6199TIP3   OH218539   2.819   2.396   6.831
 6199TIP3    H118540   2.903   2.364   6.800
 6199TIP3    H218541   2.758   2.380   6.759
 6200TIP3   OH218542   2.093   5.440   1.233
 6200TIP3    H118543   2.180   5.407   1.213
 6200TIP3    H218544   2.034   5.372   1.201
 6201TIP3   OH218545   3.333   1.721   2.766
 6201TIP3    H118546   3.398   1.653   2.782
 6201TIP3    H218547   3.319   1.761   2.852
 6202TIP3   OH218548   0.966   5.840   0.890
 6202TIP3    H118549   0.973   5.780   0.963
 6202TIP3    H218550   0.919   5.791   0.822
 6203TIP3   OH218551   3.494   5.506   3.873
 6203TIP3    H118552   3.562   5.496   3.939
 6203TIP3    H218553   3.524   5.454   3.799
 6204TIP3   OH218554   2.501   0.133   5.270
 6204TIP3    H118555   2.436   0.107   5.205
 6204TIP3    H218556   2.530   0.220   5.242
 6205TIP3   OH218557   7.444   1.787   5.669
 6205TIP3    H118558   7.490   1.712   5.707
 6205TIP3    H218559   7.455   1.776   5.574
 6206TIP3   OH218560   5.570   1.194   1.063
 6206TIP3    H118561   5.645   1.216   1.008
 6206TIP3    H218562   5.519   1.132   1.010
 6207TIP3   OH218563   1.747   0.567   3.401
 6207TIP3    H118564   1.686   0.494   3.414
 6207TIP3    H218565   1.731   0.625   3.475
 6208TIP3   OH218566   4.393   6.428   4.781
 6208TIP3    H118567   4.338   6.350   4.771
 6208TIP3    H218568   4.381   6.476   4.699
 6209TIP3   OH218569   6.110   5.069   5.502
 6209TIP3    H118570   6.083   4.980   5.524
 6209TIP3    H218571   6.031   5.121   5.511
 6210TIP3   OH218572   6.280   6.430   2.655
 6210TIP3    H118573   6.309   6.512   2.614
 6210TIP3    H218574   6.186   6.441   2.666
 6211TIP3   OH218575   0.797   0.079   5.054
 6211TIP3    H118576   0.744   0.082   5.133
 6211TIP3    H218577   0.874   0.029   5.078
 6212TIP3   OH218578   6.884   3.616   0.421
 6212TIP3    H118579   6.836   3.608   0.504
 6212TIP3    H218580   6.909   3.708   0.418
 6213TIP3   OH218581   7.236   3.902   6.770
 6213TIP3    H118582   7.251   3.983   6.721
 6213TIP3    H218583   7.241   3.927   6.862
 6214TIP3   OH218584   6.607   1.619   3.644
 6214TIP3    H118585   6.677   1.682   3.659
 6214TIP3    H218586   6.640   1.537   3.682
 6215TIP3   OH218587   5.844   3.301   4.116
 6215TIP3    H118588   5.799   3.384   4.096
 6215TIP3    H218589   5.858   3.262   4.030
 6216TIP3   OH218590   6.469   1.061   4.106
 6216TIP3    H118591   6.443   1.004   4.178
 6216TIP3    H218592   6.515   1.003   4.045
 6217TIP3   OH218593   1.490   4.488   6.715
 6217TIP3    H118594   1.571   4.539   6.716
 6217TIP3    H218595   1.514   4.404   6.754
 6218TIP3   OH218596   4.575   6.828   1.674
 6218TIP3    H118597   4.636   6.800   1.742
 6218TIP3    H218598   4.632   6.864   1.605
 6219TIP3   OH218599   1.419   6.650   5.665
 6219TIP3    H118600   1.364   6.694   5.600
 6219TIP3    H218601   1.363   6.641   5.742
 6220TIP3   OH218602   5.658   3.885   0.450
 6220TIP3    H118603   5.732   3.942   0.428
 6220TIP3    H218604   5.604   3.886   0.371
 6221TIP3   OH218605   7.378   4.870   2.316
 6221TIP3    H118606   7.442   4.890   2.248
 6221TIP3    H218607   7.378   4.947   2.373
 6222TIP3   OH218608   7.477   0.891   3.658
 6222TIP3    H118609   7.388   0.854   3.661
 6222TIP3    H218610   7.516   0.867   3.742
 6223TIP3   OH218611   6.052   0.299   2.294
 6223TIP3    H118612   6.010   0.253   2.221
 6223TIP3    H218613   5.980   0.347   2.336
 6224TIP3   OH218614   5.061   6.767   0.504
 6224TIP3    H118615   5.098   6.791   0.419
 6224TIP3    H218616   5.100   6.682   0.524
 6225TIP3   OH218617   1.256   5.667   5.419
 6225TIP3    H118618   1.316   5.657   5.345
 6225TIP3    H218619   1.284   5.601   5.483
 6226TIP3   OH218620   2.456   1.084   1.794
 6226TIP3    H118621   2.519   1.145   1.832
 6226TIP3    H218622   2.402   1.057   1.868
 6227TIP3   OH218623   7.182   1.498   2.692
 6227TIP3    H118624   7.184   1.587   2.657
 6227TIP3    H218625   7.090   1.472   2.688
 6228TIP3   OH218626   4.271   7.053   1.180
 6228TIP3    H118627   4.197   7.011   1.135
 6228TIP3    H218628   4.324   6.980   1.213
 6229TIP3   OH218629   5.001   5.390   2.525
 6229TIP3    H118630   5.058   5.315   2.508
 6229TIP3    H218631   4.920   5.350   2.559
 6230TIP3   OH218632   4.809   7.678   6.668
 6230TIP3    H118633   4.816   7.720   6.582
 6230TIP3    H218634   4.737   7.723   6.712
 6231TIP3   OH218635   3.017   5.631   3.285
 6231TIP3    H118636   3.062   5.652   3.367
 6231TIP3    H218637   3.045   5.698   3.223
 6232TIP3   OH218638   0.518   5.784   0.605
 6232TIP3    H118639   0.479   5.749   0.685
 6232TIP3    H218640   0.468   5.864   0.587
 6233TIP3   OH218641   7.080   4.605   5.915
 6233TIP3    H118642   7.158   4.661   5.915
 6233TIP3    H218643   7.023   4.644   5.849
 6234TIP3   OH218644   4.500   7.368   4.473
 6234TIP3    H118645   4.514   7.438   4.536
 6234TIP3    H218646   4.587   7.353   4.434
 6235TIP3   OH218647   0.881   2.897   6.536
 6235TIP3    H118648   0.850   2.871   6.449
 6235TIP3    H218649   0.950   2.834   6.558
 6236TIP3   OH218650   0.161   1.312   2.309
 6236TIP3    H118651   0.184   1.294   2.400
 6236TIP3    H218652   0.066   1.316   2.308
 6237TIP3   OH218653  -0.038   2.138   1.463
 6237TIP3    H118654  -0.066   2.229   1.448
 6237TIP3    H218655   0.053   2.145   1.491
 6238TIP3   OH218656   7.379   5.109  -0.013
 6238TIP3    H118657   7.344   5.028  -0.049
 6238TIP3    H218658   7.459   5.083   0.031
 6239TIP3   OH218659   0.329   1.760   6.664
 6239TIP3    H118660   0.239   1.731   6.646
 6239TIP3    H218661   0.322   1.854   6.676
 6240TIP3   OH218662   3.678   6.116   6.528
 6240TIP3    H118663   3.719   6.064   6.458
 6240TIP3    H218664   3.605   6.062   6.558
 6241TIP3   OH218665   3.118   0.981   4.079
 6241TIP3    H118666   3.165   0.897   4.081
 6241TIP3    H218667   3.081   0.989   4.166
 6242TIP3   OH218668   8.242   6.085   4.865
 6242TIP3    H118669   8.156   6.125   4.853
 6242TIP3    H218670   8.291   6.110   4.786
 6243TIP3   OH218671   5.655   4.697   0.104
 6243TIP3    H118672   5.598   4.756   0.154
 6243TIP3    H218673   5.724   4.754   0.069
 6244TIP3   OH218674   5.546   4.354   5.187
 6244TIP3    H118675   5.511   4.443   5.187
 6244TIP3    H218676   5.526   4.320   5.099
 6245TIP3   OH218677   7.245   2.783   2.168
 6245TIP3    H118678   7.153   2.771   2.143
 6245TIP3    H218679   7.274   2.697   2.198
 6246TIP3   OH218680   0.202   1.425   4.128
 6246TIP3    H118681   0.230   1.507   4.169
 6246TIP3    H218682   0.253   1.421   4.046
 6247TIP3   OH218683   3.657   5.722   1.085
 6247TIP3    H118684   3.616   5.804   1.112
 6247TIP3    H218685   3.751   5.739   1.089
 6248TIP3   OH218686   1.033   0.596   0.806
 6248TIP3    H118687   0.981   0.642   0.872
 6248TIP3    H218688   1.103   0.555   0.856
 6249TIP3   OH218689   0.178   3.348   0.852
 6249TIP3    H118690   0.175   3.293   0.930
 6249TIP3    H218691   0.252   3.313   0.801
 6250TIP3   OH218692   5.187   7.012   0.557
 6250TIP3    H118693   5.146   7.023   0.471
 6250TIP3    H218694   5.150   6.931   0.591
 6251TIP3   OH218695   6.978   2.541   0.066
 6251TIP3    H118696   7.029   2.504  -0.007
 6251TIP3    H218697   7.041   2.594   0.114
 6252TIP3   OH218698   5.100   4.191   2.596
 6252TIP3    H118699   5.115   4.223   2.685
 6252TIP3    H218700   5.140   4.104   2.594
 6253TIP3   OH218701   5.330   3.299   6.623
 6253TIP3    H118702   5.381   3.240   6.568
 6253TIP3    H218703   5.395   3.341   6.680
 6254TIP3   OH218704   0.141   3.807   2.590
 6254TIP3    H118705   0.089   3.859   2.652
 6254TIP3    H218706   0.117   3.716   2.609
 6255TIP3   OH218707   2.094   3.111   0.399
 6255TIP3    H118708   2.084   3.150   0.485
 6255TIP3    H218709   2.044   3.169   0.340
 6256TIP3   OH218710   7.295   0.213   1.085
 6256TIP3    H118711   7.201   0.210   1.100
 6256TIP3    H218712   7.331   0.147   1.145
 6257TIP3   OH218713   3.456   3.052   3.815
 6257TIP3    H118714   3.447   3.118   3.746
 6257TIP3    H218715   3.523   3.088   3.874
 6258TIP3   OH218716   1.135   5.023   3.395
 6258TIP3    H118717   1.167   4.943   3.354
 6258TIP3    H218718   1.085   5.066   3.326
 6259TIP3   OH218719   5.036   6.737   1.759
 6259TIP3    H118720   5.076   6.721   1.845
 6259TIP3    H218721   5.075   6.672   1.702
 6260TIP3   OH218722   5.346   1.266   5.546
 6260TIP3    H118723   5.362   1.284   5.454
 6260TIP3    H218724   5.418   1.207   5.572
 6261TIP3   OH218725   6.341   4.986   0.034
 6261TIP3    H118726   6.289   4.940  -0.031
 6261TIP3    H218727   6.350   4.924   0.106
 6262TIP3   OH218728   0.629   0.360   4.959
 6262TIP3    H118729   0.652   0.283   5.011
 6262TIP3    H218730   0.662   0.341   4.871
 6263TIP3   OH218731   2.679   2.594   2.759
 6263TIP3    H118732   2.764   2.549   2.754
 6263TIP3    H218733   2.628   2.541   2.819
 6264TIP3   OH218734   2.461   5.886   1.846
 6264TIP3    H118735   2.400   5.956   1.869
 6264TIP3    H218736   2.412   5.806   1.866
 6265TIP3   OH218737   1.537   3.341   6.708
 6265TIP3    H118738   1.491   3.270   6.752
 6265TIP3    H218739   1.529   3.416   6.767
 6266TIP3   OH218740   3.574   3.543   3.599
 6266TIP3    H118741   3.545   3.629   3.568
 6266TIP3    H218742   3.664   3.557   3.627
 6267TIP3   OH218743   6.309   4.307   5.012
 6267TIP3    H118744   6.291   4.317   4.918
 6267TIP3    H218745   6.279   4.389   5.051
 6268TIP3   OH218746   5.429   5.709   4.514
 6268TIP3    H118747   5.403   5.712   4.606
 6268TIP3    H218748   5.495   5.779   4.506
 6269TIP3   OH218749   1.651   4.409   5.339
 6269TIP3    H118750   1.556   4.406   5.344
 6269TIP3    H218751   1.676   4.476   5.403
 6270TIP3   OH218752   6.841   0.501   0.587
 6270TIP3    H118753   6.864   0.587   0.623
 6270TIP3    H218754   6.911   0.481   0.525
 6271TIP3   OH218755   2.133   1.002   0.461
 6271TIP3    H118756   2.106   1.024   0.372
 6271TIP3    H218757   2.080   1.058   0.518
 6272TIP3   OH218758   6.614   0.319   5.260
 6272TIP3    H118759   6.561   0.255   5.307
 6272TIP3    H218760   6.556   0.357   5.195
 6273TIP3   OH218761   6.167   1.788   4.344
 6273TIP3    H118762   6.235   1.767   4.408
 6273TIP3    H218763   6.165   1.883   4.341
 6274TIP3   OH218764   5.465   1.639   2.911
 6274TIP3    H118765   5.535   1.593   2.958
 6274TIP3    H218766   5.404   1.570   2.885
 6275TIP3   OH218767   6.757   3.676   0.887
 6275TIP3    H118768   6.836   3.731   0.893
 6275TIP3    H218769   6.704   3.703   0.962
 6276TIP3   OH218770   8.035   4.806   5.649
 6276TIP3    H118771   7.960   4.867   5.647
 6276TIP3    H218772   8.081   4.822   5.567
 6277TIP3   OH218773   1.350   7.408   6.744
 6277TIP3    H118774   1.428   7.437   6.696
 6277TIP3    H218775   1.314   7.338   6.690
 6278TIP3   OH218776   2.100   1.706   0.085
 6278TIP3    H118777   2.152   1.703   0.005
 6278TIP3    H218778   2.149   1.765   0.143
 6279TIP3   OH218779   3.651   4.886   3.967
 6279TIP3    H118780   3.586   4.841   4.021
 6279TIP3    H218781   3.729   4.891   4.023
 6280TIP3   OH218782   4.869   2.053   2.150
 6280TIP3    H118783   4.934   1.986   2.171
 6280TIP3    H218784   4.785   2.007   2.153
 6281TIP3   OH218785   1.675   3.892   5.708
 6281TIP3    H118786   1.675   3.967   5.767
 6281TIP3    H218787   1.584   3.883   5.680
 6282TIP3   OH218788   2.782   4.467   3.608
 6282TIP3    H118789   2.739   4.459   3.693
 6282TIP3    H218790   2.732   4.533   3.561
 6283TIP3   OH218791   8.160   0.383   1.357
 6283TIP3    H118792   8.164   0.322   1.284
 6283TIP3    H218793   8.122   0.332   1.429
 6284TIP3   OH218794   4.020   1.111   0.480
 6284TIP3    H118795   4.074   1.188   0.462
 6284TIP3    H218796   4.073   1.059   0.541
 6285TIP3   OH218797   6.561   3.601   0.276
 6285TIP3    H118798   6.572   3.615   0.370
 6285TIP3    H218799   6.625   3.660   0.236
 6286TIP3   OH218800   2.961   4.094   1.361
 6286TIP3    H118801   2.874   4.086   1.324
 6286TIP3    H218802   2.946   4.108   1.455
 6287TIP3   OH218803   5.238   7.543   2.961
 6287TIP3    H118804   5.331   7.529   2.944
 6287TIP3    H218805   5.209   7.602   2.892
 6288TIP3   OH218806   0.080   5.403   0.487
 6288TIP3    H118807   0.074   5.455   0.407
 6288TIP3    H218808   0.102   5.467   0.555
 6289TIP3   OH218809   1.185   2.818   0.635
 6289TIP3    H118810   1.213   2.745   0.580
 6289TIP3    H218811   1.266   2.858   0.665
 6290TIP3   OH218812   2.079   2.809   5.455
 6290TIP3    H118813   2.058   2.874   5.522
 6290TIP3    H218814   2.150   2.849   5.404
 6291TIP3   OH218815   8.239   7.708   2.104
 6291TIP3    H118816   8.236   7.784   2.163
 6291TIP3    H218817   8.204   7.636   2.156
 6292TIP3   OH218818   3.589   1.101   0.985
 6292TIP3    H118819   3.607   1.091   1.078
 6292TIP3    H218820   3.545   1.186   0.978
 6293TIP3   OH218821   1.797   3.549   1.030
 6293TIP3    H118822   1.858   3.515   0.965
 6293TIP3    H218823   1.743   3.474   1.054
 6294TIP3   OH218824   4.096   2.347   6.289
 6294TIP3    H118825   4.191   2.353   6.293
 6294TIP3    H218826   4.072   2.296   6.367
 6295TIP3   OH218827   7.472   3.777   2.332
 6295TIP3    H118828   7.452   3.866   2.300
 6295TIP3    H218829   7.486   3.726   2.253
 6296TIP3   OH218830   5.386   7.853   3.304
 6296TIP3    H118831   5.425   7.883   3.222
 6296TIP3    H218832   5.396   7.758   3.303
 6297TIP3   OH218833   0.708   6.266   2.503
 6297TIP3    H118834   0.695   6.353   2.466
 6297TIP3    H218835   0.731   6.211   2.428
 6298TIP3   OH218836   6.964   7.599   2.946
 6298TIP3    H118837   7.039   7.541   2.954
 6298TIP3    H218838   6.888   7.540   2.946
 6299TIP3   OH218839   0.010   4.929   6.240
 6299TIP3    H118840   0.053   5.012   6.260
 6299TIP3    H218841   0.037   4.871   6.311
 6300TIP3   OH218842   1.963   7.406   0.832
 6300TIP3    H118843   1.977   7.319   0.869
 6300TIP3    H218844   1.881   7.398   0.783
 6301TIP3   OH218845   0.334   4.527   3.355
 6301TIP3    H118846   0.272   4.457   3.334
 6301TIP3    H218847   0.300   4.603   3.307
 6302TIP3   OH218848   3.838   4.356   1.280
 6302TIP3    H118849   3.745   4.363   1.255
 6302TIP3    H218850   3.838   4.303   1.359
 6303TIP3   OH218851   7.844   4.102   6.524
 6303TIP3    H118852   7.881   4.121   6.437
 6303TIP3    H218853   7.771   4.043   6.506
 6304TIP3   OH218854   3.965   3.787   6.573
 6304TIP3    H118855   3.998   3.726   6.507
 6304TIP3    H218856   3.976   3.741   6.656
 6305TIP3   OH218857   7.725   2.933   0.257
 6305TIP3    H118858   7.752   2.968   0.342
 6305TIP3    H218859   7.701   3.010   0.206
 6306TIP3   OH218860   6.878   6.971   4.627
 6306TIP3    H118861   6.912   6.968   4.537
 6306TIP3    H218862   6.846   7.061   4.637
 6307TIP3   OH218863   2.678   1.231   1.868
 6307TIP3    H118864   2.771   1.227   1.843
 6307TIP3    H218865   2.654   1.323   1.858
 6308TIP3   OH218866   0.900   5.178   4.244
 6308TIP3    H118867   0.903   5.082   4.248
 6308TIP3    H218868   0.813   5.197   4.208
 6309TIP3   OH218869   5.619   1.185   3.200
 6309TIP3    H118870   5.588   1.192   3.110
 6309TIP3    H218871   5.541   1.162   3.251
 6310TIP3   OH218872   6.764   7.005   4.952
 6310TIP3    H118873   6.670   6.993   4.965
 6310TIP3    H218874   6.772   7.094   4.916
 6311TIP3   OH218875   4.187   4.726   1.575
 6311TIP3    H118876   4.132   4.760   1.504
 6311TIP3    H218877   4.246   4.798   1.597
 6312TIP3   OH218878   4.411   1.247   1.915
 6312TIP3    H118879   4.440   1.170   1.866
 6312TIP3    H218880   4.391   1.214   2.003
 6313TIP3   OH218881   2.917   7.014   6.230
 6313TIP3    H118882   3.008   6.992   6.212
 6313TIP3    H218883   2.908   7.004   6.325
 6314TIP3   OH218884   5.701   0.815   0.943
 6314TIP3    H118885   5.766   0.775   0.885
 6314TIP3    H218886   5.744   0.894   0.976
 6315TIP3   OH218887   7.463   5.165   0.363
 6315TIP3    H118888   7.432   5.233   0.303
 6315TIP3    H218889   7.391   5.151   0.423
 6316TIP3   OH218890   1.501   2.170   0.485
 6316TIP3    H118891   1.408   2.186   0.468
 6316TIP3    H218892   1.512   2.076   0.474
 6317TIP3   OH218893   8.145   7.780   0.274
 6317TIP3    H118894   8.051   7.781   0.288
 6317TIP3    H218895   8.172   7.691   0.296
 6318TIP3   OH218896   4.634   4.893   2.495
 6318TIP3    H118897   4.726   4.881   2.521
 6318TIP3    H218898   4.591   4.923   2.575
 6319TIP3   OH218899   4.376   5.955   4.529
 6319TIP3    H118900   4.294   5.965   4.576
 6319TIP3    H218901   4.395   6.042   4.494
 6320TIP3   OH218902   5.688   6.803   4.980
 6320TIP3    H118903   5.782   6.805   4.966
 6320TIP3    H218904   5.653   6.754   4.905
 6321TIP3   OH218905   6.142   4.097   4.108
 6321TIP3    H118906   6.172   4.135   4.190
 6321TIP3    H218907   6.165   4.161   4.041
 6322TIP3   OH218908   4.550   2.502   3.518
 6322TIP3    H118909   4.644   2.500   3.500
 6322TIP3    H218910   4.510   2.466   3.439
 6323TIP3   OH218911   1.348   4.751   0.095
 6323TIP3    H118912   1.281   4.683   0.104
 6323TIP3    H218913   1.307   4.817   0.039
 6324TIP3   OH218914   0.839   4.950   4.023
 6324TIP3    H118915   0.829   4.865   3.979
 6324TIP3    H218916   0.844   4.929   4.116
 6325TIP3   OH218917   2.467   7.103   3.133
 6325TIP3    H118918   2.431   7.185   3.166
 6325TIP3    H218919   2.552   7.128   3.095
 6326TIP3   OH218920   8.020   7.336   4.782
 6326TIP3    H118921   8.092   7.283   4.749
 6326TIP3    H218922   8.061   7.420   4.804
 6327TIP3   OH218923   7.305   2.247   1.875
 6327TIP3    H118924   7.366   2.247   1.948
 6327TIP3    H218925   7.336   2.315   1.816
 6328TIP3   OH218926   2.373   7.125   2.310
 6328TIP3    H118927   2.330   7.053   2.264
 6328TIP3    H218928   2.376   7.196   2.246
 6329TIP3   OH218929   5.740   1.642   2.588
 6329TIP3    H118930   5.756   1.584   2.662
 6329TIP3    H218931   5.778   1.596   2.513
 6330TIP3   OH218932   2.158   2.422   5.907
 6330TIP3    H118933   2.127   2.347   5.855
 6330TIP3    H218934   2.148   2.394   5.998
 6331TIP3   OH218935   6.536   3.680   2.655
 6331TIP3    H118936   6.479   3.672   2.579
 6331TIP3    H218937   6.532   3.773   2.678
 6332TIP3   OH218938   2.400   1.314   1.249
 6332TIP3    H118939   2.444   1.376   1.191
 6332TIP3    H218940   2.470   1.257   1.282
 6333TIP3   OH218941   4.184   5.291   1.539
 6333TIP3    H118942   4.174   5.362   1.602
 6333TIP3    H218943   4.226   5.331   1.463
 6334TIP3   OH218944   1.903   2.427   0.839
 6334TIP3    H118945   1.913   2.434   0.934
 6334TIP3    H218946   1.810   2.442   0.824
 6335TIP3   OH218947   0.245   6.834   1.170
 6335TIP3    H118948   0.157   6.871   1.163
 6335TIP3    H218949   0.303   6.910   1.167
 6336TIP3   OH218950   2.688   3.736   3.628
 6336TIP3    H118951   2.667   3.829   3.634
 6336TIP3    H218952   2.604   3.691   3.641
 6337TIP3   OH218953   7.799   0.485   1.135
 6337TIP3    H118954   7.710   0.520   1.133
 6337TIP3    H218955   7.820   0.479   1.229
 6338TIP3   OH218956   7.973   0.238   2.988
 6338TIP3    H118957   7.996   0.213   2.899
 6338TIP3    H218958   7.877   0.230   2.991
 6339TIP3   OH218959   0.530   4.133   6.352
 6339TIP3    H118960   0.462   4.112   6.288
 6339TIP3    H218961   0.514   4.073   6.424
 6340TIP3   OH218962   7.938   1.155   5.755
 6340TIP3    H118963   7.876   1.093   5.716
 6340TIP3    H218964   7.962   1.116   5.838
 6341TIP3   OH218965   5.687   3.317   5.473
 6341TIP3    H118966   5.724   3.405   5.479
 6341TIP3    H218967   5.601   3.330   5.433
 6342TIP3   OH218968   4.714   4.378   0.521
 6342TIP3    H118969   4.703   4.287   0.492
 6342TIP3    H218970   4.649   4.427   0.472
 6343TIP3   OH218971   7.864   5.059   6.704
 6343TIP3    H118972   7.955   5.058   6.676
 6343TIP3    H218973   7.865   5.102   6.789
 6344TIP3   OH218974   3.023   5.724   3.989
 6344TIP3    H118975   2.969   5.712   4.067
 6344TIP3    H218976   2.993   5.658   3.928
 6345TIP3   OH218977   0.531   1.886   5.502
 6345TIP3    H118978   0.554   1.812   5.445
 6345TIP3    H218979   0.594   1.881   5.574
 6346TIP3   OH218980   0.689   0.914   2.355
 6346TIP3    H118981   0.613   0.908   2.297
 6346TIP3    H218982   0.756   0.859   2.314
 6347TIP3   OH218983   2.430   4.949   2.510
 6347TIP3    H118984   2.492   4.958   2.582
 6347TIP3    H218985   2.476   4.985   2.434
 6348TIP3   OH218986   2.564   5.270   1.900
 6348TIP3    H118987   2.546   5.176   1.908
 6348TIP3    H218988   2.597   5.282   1.811
 6349TIP3   OH218989   3.791   3.231   0.965
 6349TIP3    H118990   3.847   3.154   0.956
 6349TIP3    H218991   3.711   3.197   1.005
 6350TIP3   OH218992   5.404   5.698   5.198
 6350TIP3    H118993   5.425   5.624   5.141
 6350TIP3    H218994   5.427   5.776   5.147
 6351TIP3   OH218995   8.115   3.730   5.203
 6351TIP3    H118996   8.101   3.691   5.289
 6351TIP3    H218997   8.050   3.688   5.146
 6352TIP3   OH218998  -0.005   1.877   4.969
 6352TIP3    H118999  -0.062   1.842   4.901
 6352TIP3    H219000   0.071   1.912   4.923
 6353TIP3   OH219001   2.323   5.617   0.098
 6353TIP3    H119002   2.263   5.675   0.051
 6353TIP3    H219003   2.333   5.656   0.184
 6354TIP3   OH219004   6.506   1.022   6.205
 6354TIP3    H119005   6.588   1.030   6.157
 6354TIP3    H219006   6.524   0.958   6.273
 6355TIP3   OH219007   0.472   3.588   2.822
 6355TIP3    H119008   0.540   3.521   2.825
 6355TIP3    H219009   0.444   3.591   2.730
 6356TIP3   OH219010   2.974   7.510   2.221
 6356TIP3    H119011   2.918   7.524   2.297
 6356TIP3    H219012   2.914   7.491   2.149
 6357TIP3   OH219013   4.495   4.616   1.589
 6357TIP3    H119014   4.564   4.608   1.523
 6357TIP3    H219015   4.421   4.567   1.552
 6358TIP3   OH219016   4.917   6.265   0.778
 6358TIP3    H119017   4.940   6.180   0.814
 6358TIP3    H219018   4.823   6.274   0.795
 6359TIP3   OH219019   7.852   2.582   1.929
 6359TIP3    H119020   7.887   2.503   1.969
 6359TIP3    H219021   7.898   2.654   1.972
 6360TIP3   OH219022   1.152   2.481   2.427
 6360TIP3    H119023   1.212   2.440   2.490
 6360TIP3    H219024   1.066   2.473   2.467
 6361TIP3   OH219025   6.511   3.616   3.711
 6361TIP3    H119026   6.477   3.527   3.719
 6361TIP3    H219027   6.574   3.611   3.639
 6362TIP3   OH219028   2.008   3.638   3.136
 6362TIP3    H119029   1.925   3.672   3.170
 6362TIP3    H219030   2.071   3.654   3.207
 6363TIP3   OH219031   6.180   4.263   2.147
 6363TIP3    H119032   6.246   4.253   2.215
 6363TIP3    H219033   6.097   4.247   2.192
 6364TIP3   OH219034   6.314   4.084   3.884
 6364TIP3    H119035   6.361   4.021   3.830
 6364TIP3    H219036   6.377   4.156   3.897
 6365TIP3   OH219037   6.498   6.091   0.301
 6365TIP3    H119038   6.440   6.036   0.249
 6365TIP3    H219039   6.440   6.142   0.357
 6366TIP3   OH219040   6.867   7.282   2.639
 6366TIP3    H119041   6.848   7.212   2.578
 6366TIP3    H219042   6.782   7.321   2.658
 6367TIP3   OH219043   4.077   3.461   4.483
 6367TIP3    H119044   4.068   3.534   4.544
 6367TIP3    H219045   4.162   3.422   4.504
 6368TIP3   OH219046   0.396   6.620   1.178
 6368TIP3    H119047   0.351   6.704   1.169
 6368TIP3    H219048   0.465   6.637   1.242
 6369TIP3   OH219049   7.490   7.577   0.074
 6369TIP3    H119050   7.477   7.606   0.165
 6369TIP3    H219051   7.522   7.655   0.029
 6370TIP3   OH219052   3.279   0.708   6.714
 6370TIP3    H119053   3.232   0.695   6.631
 6370TIP3    H219054   3.297   0.619   6.745
 6371TIP3   OH219055   0.165   3.967   5.416
 6371TIP3    H119056   0.083   3.959   5.367
 6371TIP3    H219057   0.230   3.991   5.351
 6372TIP3   OH219058   1.130   1.518   3.625
 6372TIP3    H119059   1.050   1.570   3.629
 6372TIP3    H219060   1.194   1.576   3.584
 6373TIP3   OH219061   6.355   3.616   4.106
 6373TIP3    H119062   6.326   3.706   4.091
 6373TIP3    H219063   6.323   3.595   4.194
 6374TIP3   OH219064   0.058   4.053   6.504
 6374TIP3    H119065   0.028   4.087   6.420
 6374TIP3    H219066   0.079   3.962   6.486
 6375TIP3   OH219067   0.084   4.398   5.443
 6375TIP3    H119068   0.175   4.373   5.429
 6375TIP3    H219069   0.053   4.424   5.356
 6376TIP3   OH219070   7.042   7.792   6.528
 6376TIP3    H119071   6.983   7.774   6.602
 6376TIP3    H219072   7.064   7.705   6.494
 6377TIP3   OH219073   5.332   7.382   5.448
 6377TIP3    H119074   5.389   7.404   5.521
 6377TIP3    H219075   5.267   7.322   5.485
 6378TIP3   OH219076   5.529   0.637   1.772
 6378TIP3    H119077   5.621   0.649   1.796
 6378TIP3    H219078   5.532   0.600   1.684
 6379TIP3   OH219079   6.823   1.460   0.962
 6379TIP3    H119080   6.810   1.509   0.881
 6379TIP3    H219081   6.752   1.490   1.020
 6380TIP3   OH219082   2.505   3.578   5.807
 6380TIP3    H119083   2.510   3.640   5.880
 6380TIP3    H219084   2.509   3.492   5.849
 6381TIP3   OH219085   6.749   3.374   5.977
 6381TIP3    H119086   6.779   3.462   5.998
 6381TIP3    H219087   6.657   3.372   6.005
 6382TIP3   OH219088   6.327   0.867   1.173
 6382TIP3    H119089   6.415   0.873   1.135
 6382TIP3    H219090   6.333   0.793   1.233
 6383TIP3   OH219091   4.699   5.169   2.851
 6383TIP3    H119092   4.730   5.079   2.865
 6383TIP3    H219093   4.706   5.183   2.757
 6384TIP3   OH219094   7.848   7.293   0.521
 6384TIP3    H119095   7.909   7.326   0.455
 6384TIP3    H219096   7.764   7.286   0.475
 6385TIP3   OH219097   1.446   4.529   3.363
 6385TIP3    H119098   1.482   4.441   3.371
 6385TIP3    H219099   1.353   4.515   3.344
 6386TIP3   OH219100   5.713   1.830   2.339
 6386TIP3    H119101   5.638   1.773   2.322
 6386TIP3    H219102   5.687   1.881   2.416
 6387TIP3   OH219103   0.967   2.603   1.771
 6387TIP3    H119104   0.996   2.686   1.733
 6387TIP3    H219105   0.931   2.627   1.856
 6388TIP3   OH219106   7.723   0.282   5.461
 6388TIP3    H119107   7.647   0.281   5.519
 6388TIP3    H219108   7.793   0.318   5.515
 6389TIP3   OH219109   0.108   4.547   5.672
 6389TIP3    H119110   0.103   4.479   5.604
 6389TIP3    H219111   0.177   4.607   5.641
 6390TIP3   OH219112   7.648   5.015   1.805
 6390TIP3    H119113   7.617   5.101   1.836
 6390TIP3    H219114   7.717   5.036   1.742
 6391TIP3   OH219115   0.586   0.301   1.175
 6391TIP3    H119116   0.636   0.279   1.253
 6391TIP3    H219117   0.502   0.333   1.208
 6392TIP3   OH219118   4.091   7.706   5.626
 6392TIP3    H119119   4.109   7.798   5.642
 6392TIP3    H219120   4.063   7.671   5.711
 6393TIP3   OH219121   1.317   3.231   6.457
 6393TIP3    H119122   1.331   3.324   6.476
 6393TIP3    H219123   1.406   3.194   6.454
 6394TIP3   OH219124   5.272   3.146   1.452
 6394TIP3    H119125   5.269   3.180   1.541
 6394TIP3    H219126   5.327   3.207   1.404
 6395TIP3   OH219127   3.328   6.785   0.860
 6395TIP3    H119128   3.339   6.722   0.931
 6395TIP3    H219129   3.335   6.871   0.903
 6396TIP3   OH219130   0.166   4.713   2.153
 6396TIP3    H119131   0.117   4.668   2.084
 6396TIP3    H219132   0.256   4.715   2.121
 6397TIP3   OH219133   1.558   1.294   1.029
 6397TIP3    H119134   1.519   1.365   1.079
 6397TIP3    H219135   1.651   1.301   1.047
 6398TIP3   OH219136   3.692   2.408   2.485
 6398TIP3    H119137   3.676   2.327   2.533
 6398TIP3    H219138   3.783   2.431   2.506
 6399TIP3   OH219139   7.030   0.154   2.335
 6399TIP3    H119140   6.959   0.144   2.399
 6399TIP3    H219141   7.072   0.237   2.357
 6400TIP3   OH219142   5.594   3.097   3.429
 6400TIP3    H119143   5.555   3.141   3.503
 6400TIP3    H219144   5.534   3.025   3.409
 6401TIP3   OH219145   4.314   0.453   0.399
 6401TIP3    H119146   4.263   0.522   0.442
 6401TIP3    H219147   4.377   0.500   0.345
 6402TIP3   OH219148   4.905   3.904   5.074
 6402TIP3    H119149   4.873   3.922   5.163
 6402TIP3    H219150   4.999   3.890   5.084
 6403TIP3   OH219151   1.437   4.723   2.770
 6403TIP3    H119152   1.456   4.805   2.725
 6403TIP3    H219153   1.489   4.657   2.723
 6404TIP3   OH219154   5.349   0.727   5.503
 6404TIP3    H119155   5.278   0.680   5.546
 6404TIP3    H219156   5.380   0.789   5.569
 6405TIP3   OH219157   2.616   4.174   4.086
 6405TIP3    H119158   2.644   4.193   4.175
 6405TIP3    H219159   2.520   4.168   4.092
 6406TIP3   OH219160   4.132   6.616   4.669
 6406TIP3    H119161   4.124   6.676   4.595
 6406TIP3    H219162   4.216   6.638   4.710
 6407TIP3   OH219163   7.429   0.324   2.301
 6407TIP3    H119164   7.475   0.294   2.223
 6407TIP3    H219165   7.408   0.416   2.282
 6408TIP3   OH219166   1.744   4.070   2.224
 6408TIP3    H119167   1.745   3.988   2.274
 6408TIP3    H219168   1.652   4.082   2.201
 6409TIP3   OH219169   4.467   6.536   3.748
 6409TIP3    H119170   4.373   6.545   3.732
 6409TIP3    H219171   4.505   6.522   3.661
 6410TIP3   OH219172   1.452   7.598   1.090
 6410TIP3    H119173   1.484   7.675   1.138
 6410TIP3    H219174   1.524   7.577   1.030
 6411TIP3   OH219175   5.610   0.168   2.284
 6411TIP3    H119176   5.685   0.128   2.242
 6411TIP3    H219177   5.543   0.099   2.285
 6412TIP3   OH219178   1.597   1.561   0.763
 6412TIP3    H119179   1.651   1.481   0.763
 6412TIP3    H219180   1.609   1.597   0.851
 6413TIP3   OH219181   6.095   4.373   5.922
 6413TIP3    H119182   6.113   4.319   5.844
 6413TIP3    H219183   6.023   4.429   5.895
 6414TIP3   OH219184   3.858   7.706   1.847
 6414TIP3    H119185   3.791   7.691   1.914
 6414TIP3    H219186   3.877   7.618   1.813
 6415TIP3   OH219187   6.488   3.821   3.021
 6415TIP3    H119188   6.464   3.729   3.014
 6415TIP3    H219189   6.479   3.855   2.931
 6416TIP3   OH219190   2.971   1.963   3.725
 6416TIP3    H119191   2.947   2.053   3.748
 6416TIP3    H219192   2.895   1.930   3.676
 6417TIP3   OH219193   6.367   7.770   4.612
 6417TIP3    H119194   6.372   7.762   4.516
 6417TIP3    H219195   6.372   7.680   4.644
 6418TIP3   OH219196   1.707   4.447   3.888
 6418TIP3    H119197   1.654   4.526   3.879
 6418TIP3    H219198   1.789   4.477   3.927
 6419TIP3   OH219199   3.897   1.239   2.666
 6419TIP3    H119200   3.981   1.250   2.622
 6419TIP3    H219201   3.917   1.184   2.742
 6420TIP3   OH219202   7.196   1.079   2.329
 6420TIP3    H119203   7.216   0.998   2.375
 6420TIP3    H219204   7.139   1.128   2.388
 6421TIP3   OH219205   6.768   1.044   0.279
 6421TIP3    H119206   6.734   0.955   0.286
 6421TIP3    H219207   6.830   1.040   0.206
 6422TIP3   OH219208   6.773   3.545   4.349
 6422TIP3    H119209   6.755   3.635   4.375
 6422TIP3    H219210   6.860   3.549   4.309
 6423TIP3   OH219211   8.115   0.629   2.659
 6423TIP3    H119212   8.116   0.656   2.751
 6423TIP3    H219213   8.050   0.559   2.654
 6424TIP3   OH219214   2.771   7.769   4.502
 6424TIP3    H119215   2.720   7.828   4.447
 6424TIP3    H219216   2.810   7.825   4.568
 6425TIP3   OH219217   2.173   5.679   2.210
 6425TIP3    H119218   2.254   5.708   2.168
 6425TIP3    H219219   2.183   5.584   2.216
 6426TIP3   OH219220   4.589   6.752   0.642
 6426TIP3    H119221   4.503   6.761   0.683
 6426TIP3    H219222   4.571   6.757   0.548
 6427TIP3   OH219223   4.081   2.161   2.967
 6427TIP3    H119224   4.125   2.243   2.943
 6427TIP3    H219225   4.006   2.156   2.907
 6428TIP3   OH219226   0.427   2.485   6.669
 6428TIP3    H119227   0.458   2.493   6.759
 6428TIP3    H219228   0.345   2.534   6.668
 6429TIP3   OH219229   5.703   7.238   5.458
 6429TIP3    H119230   5.694   7.249   5.553
 6429TIP3    H219231   5.782   7.288   5.437
 6430TIP3   OH219232   6.886   2.672   3.626
 6430TIP3    H119233   6.911   2.625   3.705
 6430TIP3    H219234   6.815   2.729   3.653
 6431TIP3   OH219235   2.784   0.594   2.424
 6431TIP3    H119236   2.837   0.674   2.414
 6431TIP3    H219237   2.701   0.625   2.459
 6432TIP3   OH219238   3.195   6.586   5.003
 6432TIP3    H119239   3.271   6.550   4.956
 6432TIP3    H219240   3.207   6.681   4.998
 6433TIP3   OH219241   5.474   5.696   4.049
 6433TIP3    H119242   5.530   5.715   4.124
 6433TIP3    H219243   5.445   5.606   4.062
 6434TIP3   OH219244   0.981   7.362   4.370
 6434TIP3    H119245   1.012   7.364   4.280
 6434TIP3    H219246   0.987   7.453   4.400
 6435TIP3   OH219247   3.193   0.782   4.470
 6435TIP3    H119248   3.254   0.709   4.463
 6435TIP3    H219249   3.197   0.808   4.562
 6436TIP3   OH219250   0.276   0.263   0.008
 6436TIP3    H119251   0.214   0.291  -0.059
 6436TIP3    H219252   0.221   0.240   0.083
 6437TIP3   OH219253   7.225   5.937   2.682
 6437TIP3    H119254   7.283   5.887   2.624
 6437TIP3    H219255   7.284   5.989   2.736
 6438TIP3   OH219256   4.204   2.782   0.946
 6438TIP3    H119257   4.127   2.737   0.983
 6438TIP3    H219258   4.275   2.761   1.006
 6439TIP3   OH219259   4.779   7.240   2.233
 6439TIP3    H119260   4.865   7.278   2.253
 6439TIP3    H219261   4.737   7.304   2.175
 6440TIP3   OH219262   4.789   6.979   4.286
 6440TIP3    H119263   4.755   6.906   4.235
 6440TIP3    H219264   4.866   6.944   4.331
 6441TIP3   OH219265   6.926   6.709   0.570
 6441TIP3    H119266   7.016   6.739   0.556
 6441TIP3    H219267   6.928   6.616   0.546
 6442TIP3   OH219268   6.993   0.629   4.005
 6442TIP3    H119269   7.014   0.565   4.073
 6442TIP3    H219270   7.039   0.709   4.032
 6443TIP3   OH219271   6.678   6.875   1.156
 6443TIP3    H119272   6.697   6.789   1.119
 6443TIP3    H219273   6.717   6.873   1.243
 6444TIP3   OH219274   3.304   6.791   4.665
 6444TIP3    H119275   3.235   6.726   4.657
 6444TIP3    H219276   3.308   6.812   4.758
 6445TIP3   OH219277   1.933   0.717   5.905
 6445TIP3    H119278   1.934   0.621   5.900
 6445TIP3    H219279   1.994   0.737   5.977
 6446TIP3   OH219280   5.673   5.379   3.604
 6446TIP3    H119281   5.766   5.389   3.626
 6446TIP3    H219282   5.673   5.336   3.519
 6447TIP3   OH219283   6.653   1.801   3.164
 6447TIP3    H119284   6.667   1.896   3.163
 6447TIP3    H219285   6.741   1.764   3.170
 6448TIP3   OH219286   3.187   0.866   1.931
 6448TIP3    H119287   3.218   0.928   1.865
 6448TIP3    H219288   3.137   0.919   1.993
 6449TIP3   OH219289   1.458   5.958   6.552
 6449TIP3    H119290   1.523   5.887   6.554
 6449TIP3    H219291   1.377   5.917   6.581
 6450TIP3   OH219292   5.148   0.242   6.107
 6450TIP3    H119293   5.138   0.311   6.173
 6450TIP3    H219294   5.080   0.260   6.042
 6451TIP3   OH219295   6.186   5.159   4.986
 6451TIP3    H119296   6.162   5.163   4.893
 6451TIP3    H219297   6.124   5.217   5.029
 6452TIP3   OH219298   3.626   5.282   5.134
 6452TIP3    H119299   3.646   5.342   5.062
 6452TIP3    H219300   3.558   5.224   5.099
 6453TIP3   OH219301   1.820   1.934   3.402
 6453TIP3    H119302   1.808   1.980   3.318
 6453TIP3    H219303   1.731   1.925   3.437
 6454TIP3   OH219304   2.220   6.169   6.240
 6454TIP3    H119305   2.199   6.186   6.332
 6454TIP3    H219306   2.137   6.185   6.194
 6455TIP3   OH219307   4.774   1.910   3.617
 6455TIP3    H119308   4.712   1.968   3.661
 6455TIP3    H219309   4.773   1.829   3.669
 6456TIP3   OH219310   0.316   3.543   3.515
 6456TIP3    H119311   0.359   3.468   3.473
 6456TIP3    H219312   0.386   3.609   3.523
 6457TIP3   OH219313   7.695   1.637   1.810
 6457TIP3    H119314   7.788   1.639   1.788
 6457TIP3    H219315   7.653   1.597   1.734
 6458TIP3   OH219316   5.505   2.360   5.575
 6458TIP3    H119317   5.594   2.339   5.549
 6458TIP3    H219318   5.502   2.456   5.574
 6459TIP3   OH219319   6.120   0.118   6.446
 6459TIP3    H119320   6.127   0.166   6.528
 6459TIP3    H219321   6.186   0.049   6.453
 6460TIP3   OH219322   2.543   7.515   5.742
 6460TIP3    H119323   2.447   7.517   5.751
 6460TIP3    H219324   2.560   7.444   5.680
 6461TIP3   OH219325   5.172   4.630   1.014
 6461TIP3    H119326   5.174   4.544   0.972
 6461TIP3    H219327   5.080   4.644   1.036
 6462TIP3   OH219328   2.885   4.326   0.894
 6462TIP3    H119329   2.842   4.257   0.843
 6462TIP3    H219330   2.902   4.396   0.830
 6463TIP3   OH219331   4.772   2.532   0.054
 6463TIP3    H119332   4.688   2.524   0.009
 6463TIP3    H219333   4.770   2.620   0.093
 6464TIP3   OH219334   5.862   2.772   2.286
 6464TIP3    H119335   5.825   2.693   2.245
 6464TIP3    H219336   5.878   2.745   2.377
 6465TIP3   OH219337   2.647   6.019   4.358
 6465TIP3    H119338   2.651   5.939   4.411
 6465TIP3    H219339   2.554   6.041   4.355
 6466TIP3   OH219340   7.828   2.386   6.544
 6466TIP3    H119341   7.910   2.430   6.567
 6466TIP3    H219342   7.763   2.425   6.602
 6467TIP3   OH219343   0.983   0.121   2.609
 6467TIP3    H119344   0.944   0.180   2.674
 6467TIP3    H219345   0.940   0.145   2.527
 6468TIP3   OH219346   5.999   4.081   5.823
 6468TIP3    H119347   5.965   3.999   5.787
 6468TIP3    H219348   6.015   4.061   5.915
 6469TIP3   OH219349   3.214   6.979   1.411
 6469TIP3    H119350   3.281   7.019   1.356
 6469TIP3    H219351   3.132   6.991   1.364
 6470TIP3   OH219352   6.002   5.973   3.641
 6470TIP3    H119353   5.963   6.051   3.600
 6470TIP3    H219354   5.966   5.972   3.729
 6471TIP3   OH219355   7.769   3.456   2.537
 6471TIP3    H119356   7.685   3.498   2.519
 6471TIP3    H219357   7.767   3.438   2.631
 6472TIP3   OH219358   6.878   2.018   1.940
 6472TIP3    H119359   6.911   2.098   1.980
 6472TIP3    H219360   6.950   1.989   1.883
 6473TIP3   OH219361   2.782   0.670   4.062
 6473TIP3    H119362   2.813   0.691   4.150
 6473TIP3    H219363   2.688   0.652   4.074
 6474TIP3   OH219364   3.834   6.785   0.534
 6474TIP3    H119365   3.818   6.701   0.492
 6474TIP3    H219366   3.928   6.787   0.550
 6475TIP3   OH219367   2.731   3.020   1.566
 6475TIP3    H119368   2.673   2.944   1.574
 6475TIP3    H219369   2.819   2.985   1.579
 6476TIP3   OH219370   0.152   7.107   4.230
 6476TIP3    H119371   0.195   7.160   4.163
 6476TIP3    H219372   0.152   7.018   4.195
 6477TIP3   OH219373   1.733   5.693   0.044
 6477TIP3    H119374   1.655   5.719  -0.006
 6477TIP3    H219375   1.769   5.620  -0.006
 6478TIP3   OH219376   2.118   1.699   3.734
 6478TIP3    H119377   2.161   1.614   3.742
 6478TIP3    H219378   2.074   1.697   3.650
 6479TIP3   OH219379   6.567   7.008   6.460
 6479TIP3    H119380   6.527   6.959   6.531
 6479TIP3    H219381   6.566   7.099   6.489
 6480TIP3   OH219382   2.442   3.278   2.070
 6480TIP3    H119383   2.502   3.352   2.074
 6480TIP3    H219384   2.498   3.203   2.050
 6481TIP3   OH219385   1.570   0.927   5.297
 6481TIP3    H119386   1.493   0.972   5.261
 6481TIP3    H219387   1.586   0.970   5.381
 6482TIP3   OH219388   1.922   3.757   4.513
 6482TIP3    H119389   1.903   3.716   4.597
 6482TIP3    H219390   1.852   3.729   4.455
 6483TIP3   OH219391   1.598   4.093   6.025
 6483TIP3    H119392   1.552   4.013   6.000
 6483TIP3    H219393   1.606   4.142   5.944
 6484TIP3   OH219394   5.610   1.443   5.636
 6484TIP3    H119395   5.567   1.526   5.617
 6484TIP3    H219396   5.695   1.450   5.594
 6485TIP3   OH219397   5.536   0.865   5.355
 6485TIP3    H119398   5.487   0.793   5.394
 6485TIP3    H219399   5.513   0.942   5.407
 6486TIP3   OH219400   8.001   2.234   5.872
 6486TIP3    H119401   7.997   2.252   5.966
 6486TIP3    H219402   7.990   2.139   5.865
 6487TIP3   OH219403   0.003   6.529   0.577
 6487TIP3    H119404   0.004   6.603   0.638
 6487TIP3    H219405  -0.067   6.472   0.610
 6488TIP3   OH219406   3.566   5.001   6.578
 6488TIP3    H119407   3.552   5.095   6.570
 6488TIP3    H219408   3.614   4.991   6.660
 6489TIP3   OH219409   0.123   4.447   0.836
 6489TIP3    H119410   0.081   4.372   0.793
 6489TIP3    H219411   0.215   4.422   0.842
 6490TIP3   OH219412   3.868   2.030   3.702
 6490TIP3    H119413   3.772   2.032   3.697
 6490TIP3    H219414   3.889   1.939   3.724
 6491TIP3   OH219415   3.148   5.069   0.261
 6491TIP3    H119416   3.231   5.078   0.215
 6491TIP3    H219417   3.147   5.141   0.324
 6492TIP3   OH219418   8.148   4.652   3.073
 6492TIP3    H119419   8.130   4.745   3.087
 6492TIP3    H219420   8.075   4.622   3.019
 6493TIP3   OH219421   0.412   0.215   4.733
 6493TIP3    H119422   0.340   0.230   4.794
 6493TIP3    H219423   0.464   0.145   4.774
 6494TIP3   OH219424   2.700   2.789   6.249
 6494TIP3    H119425   2.703   2.738   6.330
 6494TIP3    H219426   2.614   2.832   6.251
 6495TIP3   OH219427   1.740   4.968   2.852
 6495TIP3    H119428   1.672   4.963   2.920
 6495TIP3    H219429   1.821   4.950   2.898
 6496TIP3   OH219430   4.894   3.262   2.873
 6496TIP3    H119431   4.867   3.199   2.806
 6496TIP3    H219432   4.929   3.209   2.944
 6497TIP3   OH219433   0.186   1.399   5.398
 6497TIP3    H119434   0.167   1.306   5.403
 6497TIP3    H219435   0.245   1.416   5.473
 6498TIP3   OH219436   3.320   5.027   6.288
 6498TIP3    H119437   3.379   5.066   6.223
 6498TIP3    H219438   3.234   5.063   6.267
 6499TIP3   OH219439   6.780   1.040   0.734
 6499TIP3    H119440   6.808   1.102   0.666
 6499TIP3    H219441   6.809   1.079   0.816
 6500TIP3   OH219442   3.902   4.567   6.335
 6500TIP3    H119443   3.811   4.540   6.332
 6500TIP3    H219444   3.900   4.662   6.326
 6501TIP3   OH219445   1.414   6.349   3.629
 6501TIP3    H119446   1.396   6.442   3.644
 6501TIP3    H219447   1.342   6.303   3.671
 6502TIP3   OH219448   0.736   1.930   4.918
 6502TIP3    H119449   0.812   1.968   4.873
 6502TIP3    H219450   0.673   1.912   4.849
 6503TIP3   OH219451   7.943   3.112   3.358
 6503TIP3    H119452   7.947   3.019   3.379
 6503TIP3    H219453   8.021   3.129   3.306
 6504TIP3   OH219454   5.039   3.267   5.376
 6504TIP3    H119455   5.067   3.332   5.312
 6504TIP3    H219456   5.043   3.183   5.328
 6505TIP3   OH219457   5.770   3.800   3.203
 6505TIP3    H119458   5.704   3.742   3.166
 6505TIP3    H219459   5.801   3.754   3.281
 6506TIP3   OH219460   3.381   5.173   2.273
 6506TIP3    H119461   3.411   5.114   2.342
 6506TIP3    H219462   3.462   5.204   2.232
 6507TIP3   OH219463   1.567   2.190   1.253
 6507TIP3    H119464   1.507   2.116   1.251
 6507TIP3    H219465   1.548   2.235   1.336
 6508TIP3   OH219466   6.772   5.958   4.596
 6508TIP3    H119467   6.846   5.986   4.649
 6508TIP3    H219468   6.800   5.876   4.556
 6509TIP3   OH219469   5.876   0.625   0.305
 6509TIP3    H119470   5.850   0.533   0.314
 6509TIP3    H219471   5.793   0.672   0.291
 6510TIP3   OH219472   1.536   6.662   4.856
 6510TIP3    H119473   1.449   6.690   4.827
 6510TIP3    H219474   1.538   6.683   4.950
 6511TIP3   OH219475   0.323   7.192   5.357
 6511TIP3    H119476   0.250   7.234   5.312
 6511TIP3    H219477   0.302   7.099   5.358
 6512TIP3   OH219478   7.201   0.497   4.420
 6512TIP3    H119479   7.251   0.460   4.347
 6512TIP3    H219480   7.116   0.453   4.416
 6513TIP3   OH219481   5.817   6.798   2.979
 6513TIP3    H119482   5.856   6.748   3.051
 6513TIP3    H219483   5.890   6.818   2.922
 6514TIP3   OH219484   5.806   4.753   3.051
 6514TIP3    H119485   5.762   4.667   3.053
 6514TIP3    H219486   5.742   4.811   3.009
 6515TIP3   OH219487   2.092   7.254   2.350
 6515TIP3    H119488   2.131   7.208   2.425
 6515TIP3    H219489   2.024   7.194   2.318
 6516TIP3   OH219490   4.982   6.791   2.545
 6516TIP3    H119491   4.905   6.759   2.592
 6516TIP3    H219492   4.951   6.868   2.497
 6517TIP3   OH219493   3.889   3.372   0.510
 6517TIP3    H119494   3.931   3.417   0.436
 6517TIP3    H219495   3.903   3.279   0.492
 6518TIP3   OH219496   2.053   6.435   5.189
 6518TIP3    H119497   2.021   6.345   5.200
 6518TIP3    H219498   2.104   6.452   5.268
 6519TIP3   OH219499   5.772   6.602   3.756
 6519TIP3    H119500   5.734   6.602   3.668
 6519TIP3    H219501   5.825   6.681   3.759
 6520TIP3   OH219502   6.387   3.974   3.221
 6520TIP3    H119503   6.461   4.021   3.259
 6520TIP3    H219504   6.428   3.909   3.163
 6521TIP3   OH219505   1.298   6.382   4.331
 6521TIP3    H119506   1.229   6.445   4.314
 6521TIP3    H219507   1.298   6.324   4.254
 6522TIP3   OH219508   0.992   5.632   4.597
 6522TIP3    H119509   0.991   5.724   4.570
 6522TIP3    H219510   0.932   5.588   4.537
 6523TIP3   OH219511   2.771   4.786   4.594
 6523TIP3    H119512   2.848   4.842   4.593
 6523TIP3    H219513   2.802   4.704   4.634
 6524TIP3   OH219514   4.310   3.120   6.593
 6524TIP3    H119515   4.391   3.168   6.578
 6524TIP3    H219516   4.242   3.172   6.550
 6525TIP3   OH219517   7.960   4.842   3.968
 6525TIP3    H119518   8.001   4.895   4.036
 6525TIP3    H219519   7.866   4.855   3.981
 6526TIP3   OH219520   4.514   6.819   0.379
 6526TIP3    H119521   4.442   6.864   0.335
 6526TIP3    H219522   4.539   6.749   0.318
 6527TIP3   OH219523   1.623   1.718   5.730
 6527TIP3    H119524   1.664   1.643   5.686
 6527TIP3    H219525   1.555   1.747   5.668
 6528TIP3   OH219526   3.124   1.325   1.474
 6528TIP3    H119527   3.199   1.297   1.421
 6528TIP3    H219528   3.158   1.399   1.525
 6529TIP3   OH219529   6.540   4.306   3.338
 6529TIP3    H119530   6.561   4.246   3.409
 6529TIP3    H219531   6.447   4.290   3.319
 6530TIP3   OH219532   5.858   1.666   1.948
 6530TIP3    H119533   5.948   1.658   1.978
 6530TIP3    H219534   5.842   1.761   1.945
 6531TIP3   OH219535   0.604   0.658   1.746
 6531TIP3    H119536   0.569   0.683   1.832
 6531TIP3    H219537   0.659   0.582   1.764
 6532TIP3   OH219538   2.320   7.811   3.583
 6532TIP3    H119539   2.349   7.770   3.665
 6532TIP3    H219540   2.373   7.769   3.515
 6533TIP3   OH219541   1.681   2.106   1.790
 6533TIP3    H119542   1.752   2.160   1.825
 6533TIP3    H219543   1.647   2.060   1.867
 6534TIP3   OH219544   0.332   5.169   4.023
 6534TIP3    H119545   0.338   5.245   3.966
 6534TIP3    H219546   0.411   5.118   4.003
 6535TIP3   OH219547   2.262   3.171   1.301
 6535TIP3    H119548   2.217   3.248   1.336
 6535TIP3    H219549   2.355   3.192   1.309
 6536TIP3   OH219550   0.634   2.641   5.948
 6536TIP3    H119551   0.580   2.566   5.973
 6536TIP3    H219552   0.723   2.616   5.976
 6537TIP3   OH219553   2.514   0.126   4.943
 6537TIP3    H119554   2.550   0.063   4.881
 6537TIP3    H219555   2.431   0.152   4.905
 6538TIP3   OH219556   1.286   1.876   5.121
 6538TIP3    H119557   1.340   1.955   5.130
 6538TIP3    H219558   1.197   1.906   5.136
 6539TIP3   OH219559   1.605   7.088   5.656
 6539TIP3    H119560   1.675   7.128   5.709
 6539TIP3    H219561   1.613   6.994   5.673
 6540TIP3   OH219562   7.629   0.163   5.049
 6540TIP3    H119563   7.630   0.244   5.100
 6540TIP3    H219564   7.720   0.152   5.021
 6541TIP3   OH219565   6.544   4.262   0.734
 6541TIP3    H119566   6.550   4.356   0.749
 6541TIP3    H219567   6.632   4.236   0.710
 6542TIP3   OH219568   0.679   7.258   4.835
 6542TIP3    H119569   0.668   7.163   4.835
 6542TIP3    H219570   0.593   7.292   4.809
 6543TIP3   OH219571   6.568   4.471   3.089
 6543TIP3    H119572   6.650   4.432   3.058
 6543TIP3    H219573   6.552   4.428   3.173
 6544TIP3   OH219574   1.000   6.437   4.946
 6544TIP3    H119575   1.052   6.498   4.997
 6544TIP3    H219576   0.915   6.434   4.990
 6545TIP3   OH219577   1.259   4.789   2.302
 6545TIP3    H119578   1.197   4.828   2.362
 6545TIP3    H219579   1.211   4.781   2.219
 6546TIP3   OH219580   2.222   3.796   4.281
 6546TIP3    H119581   2.234   3.738   4.205
 6546TIP3    H219582   2.302   3.786   4.331
 6547TIP3   OH219583   1.677   2.967   1.700
 6547TIP3    H119584   1.624   2.924   1.633
 6547TIP3    H219585   1.678   3.059   1.675
 6548TIP3   OH219586   1.306   2.811   4.261
 6548TIP3    H119587   1.228   2.756   4.272
 6548TIP3    H219588   1.365   2.759   4.207
 6549TIP3   OH219589   1.944   0.053   5.450
 6549TIP3    H119590   1.905   0.128   5.495
 6549TIP3    H219591   1.986   0.090   5.372
 6550TIP3   OH219592   2.780   0.373   1.062
 6550TIP3    H119593   2.736   0.335   0.986
 6550TIP3    H219594   2.865   0.401   1.029
 6551TIP3   OH219595   0.064   1.554   6.194
 6551TIP3    H119596   0.020   1.469   6.187
 6551TIP3    H219597   0.146   1.534   6.239
 6552TIP3   OH219598   0.335   5.302   5.771
 6552TIP3    H119599   0.355   5.384   5.725
 6552TIP3    H219600   0.278   5.254   5.712
 6553TIP3   OH219601   2.740   4.092   3.416
 6553TIP3    H119602   2.830   4.063   3.405
 6553TIP3    H219603   2.710   4.046   3.495
 6554TIP3   OH219604   1.450   0.905   5.830
 6554TIP3    H119605   1.409   0.841   5.889
 6554TIP3    H219606   1.390   0.910   5.756
 6555TIP3   OH219607   5.394   6.236   3.170
 6555TIP3    H119608   5.376   6.205   3.081
 6555TIP3    H219609   5.313   6.220   3.218
 6556TIP3   OH219610   3.890   5.636   5.136
 6556TIP3    H119611   3.938   5.712   5.100
 6556TIP3    H219612   3.818   5.675   5.185
 6557TIP3   OH219613   3.143   6.335   0.748
 6557TIP3    H119614   3.216   6.329   0.809
 6557TIP3    H219615   3.135   6.429   0.730
 6558TIP3   OH219616   0.177   3.791   3.533
 6558TIP3    H119617   0.240   3.812   3.602
 6558TIP3    H219618   0.230   3.769   3.457
 6559TIP3   OH219619   0.830   1.680   3.575
 6559TIP3    H119620   0.865   1.711   3.659
 6559TIP3    H219621   0.761   1.743   3.553
 6560TIP3   OH219622   1.712   2.368   4.712
 6560TIP3    H119623   1.686   2.334   4.797
 6560TIP3    H219624   1.804   2.345   4.704
 6561TIP3   OH219625   3.455   7.729   2.788
 6561TIP3    H119626   3.407   7.683   2.719
 6561TIP3    H219627   3.509   7.792   2.741
 6562TIP3   OH219628   1.576   6.302   2.449
 6562TIP3    H119629   1.592   6.216   2.411
 6562TIP3    H219630   1.480   6.307   2.458
 6563TIP3   OH219631   7.657   4.885   2.088
 6563TIP3    H119632   7.739   4.931   2.073
 6563TIP3    H219633   7.610   4.892   2.005
 6564TIP3   OH219634   7.399   0.487   0.162
 6564TIP3    H119635   7.423   0.579   0.150
 6564TIP3    H219636   7.419   0.468   0.253
 6565TIP3   OH219637   6.088   2.527   1.805
 6565TIP3    H119638   6.040   2.499   1.883
 6565TIP3    H219639   6.021   2.538   1.738
 6566TIP3   OH219640   1.609   4.252   0.215
 6566TIP3    H119641   1.516   4.243   0.195
 6566TIP3    H219642   1.652   4.239   0.130
 6567TIP3   OH219643   0.297   4.961   0.907
 6567TIP3    H119644   0.222   4.918   0.949
 6567TIP3    H219645   0.295   4.931   0.817
 6568TIP3   OH219646   8.191   6.868   3.564
 6568TIP3    H119647   8.263   6.900   3.509
 6568TIP3    H219648   8.114   6.914   3.531
 6569TIP3   OH219649   2.936   5.936   4.465
 6569TIP3    H119650   2.866   5.912   4.526
 6569TIP3    H219651   2.948   5.858   4.411
 6570TIP3   OH219652   7.816   7.735   5.734
 6570TIP3    H119653   7.892   7.792   5.752
 6570TIP3    H219654   7.848   7.647   5.749
 6571TIP3   OH219655   5.125   3.650   6.028
 6571TIP3    H119656   5.122   3.560   6.059
 6571TIP3    H219657   5.037   3.667   5.995
 6572TIP3   OH219658   7.111   2.082   2.973
 6572TIP3    H119659   7.099   2.001   3.022
 6572TIP3    H219660   7.076   2.150   3.030
 6573TIP3   OH219661   2.256   3.053   6.715
 6573TIP3    H119662   2.324   2.986   6.714
 6573TIP3    H219663   2.210   3.042   6.632
 6574TIP3   OH219664   7.035   0.438   2.090
 6574TIP3    H119665   6.990   0.515   2.055
 6574TIP3    H219666   6.992   0.364   2.047
 6575TIP3   OH219667   4.717   1.008   3.141
 6575TIP3    H119668   4.656   0.936   3.129
 6575TIP3    H219669   4.683   1.077   3.084
 6576TIP3   OH219670   6.305   6.358   1.068
 6576TIP3    H119671   6.291   6.265   1.051
 6576TIP3    H219672   6.220   6.399   1.049
 6577TIP3   OH219673   0.145   1.336   3.232
 6577TIP3    H119674   0.198   1.414   3.247
 6577TIP3    H219675   0.191   1.289   3.163
 6578TIP3   OH219676   2.042   7.727   2.647
 6578TIP3    H119677   2.073   7.642   2.615
 6578TIP3    H219678   2.029   7.713   2.741
 6579TIP3   OH219679   2.267   6.072   1.909
 6579TIP3    H119680   2.174   6.050   1.916
 6579TIP3    H219681   2.280   6.143   1.972
 6580TIP3   OH219682   8.054   2.703   0.495
 6580TIP3    H119683   8.085   2.727   0.407
 6580TIP3    H219684   7.961   2.685   0.484
 6581TIP3   OH219685   4.240   4.676   4.820
 6581TIP3    H119686   4.268   4.666   4.910
 6581TIP3    H219687   4.192   4.759   4.818
 6582TIP3   OH219688   7.823   3.971   1.340
 6582TIP3    H119689   7.768   3.977   1.261
 6582TIP3    H219690   7.767   4.005   1.410
 6583TIP3   OH219691   3.885   5.768   2.180
 6583TIP3    H119692   3.862   5.847   2.131
 6583TIP3    H219693   3.919   5.708   2.114
 6584TIP3   OH219694   7.306   2.552   6.713
 6584TIP3    H119695   7.327   2.474   6.764
 6584TIP3    H219696   7.314   2.524   6.622
 6585TIP3   OH219697   2.610   3.255   4.056
 6585TIP3    H119698   2.550   3.327   4.077
 6585TIP3    H219699   2.583   3.184   4.115
 6586TIP3   OH219700   8.164   6.863   1.697
 6586TIP3    H119701   8.152   6.945   1.651
 6586TIP3    H219702   8.259   6.850   1.700
 6587TIP3   OH219703   1.703   5.654   6.324
 6587TIP3    H119704   1.659   5.569   6.316
 6587TIP3    H219705   1.723   5.679   6.235
 6588TIP3   OH219706   6.531   7.473   5.437
 6588TIP3    H119707   6.500   7.388   5.406
 6588TIP3    H219708   6.578   7.510   5.363
 6589TIP3   OH219709   4.591   2.995   2.576
 6589TIP3    H119710   4.617   3.085   2.598
 6589TIP3    H219711   4.618   2.944   2.653
 6590TIP3   OH219712   8.009   7.402   0.340
 6590TIP3    H119713   7.976   7.441   0.259
 6590TIP3    H219714   8.093   7.446   0.355
 6591TIP3   OH219715   1.676   1.044   4.280
 6591TIP3    H119716   1.710   1.093   4.355
 6591TIP3    H219717   1.631   1.109   4.226
 6592TIP3   OH219718   1.901   3.843   5.859
 6592TIP3    H119719   1.936   3.756   5.837
 6592TIP3    H219720   1.834   3.859   5.792
 6593TIP3   OH219721   5.759   1.934   3.843
 6593TIP3    H119722   5.837   1.889   3.810
 6593TIP3    H219723   5.771   1.937   3.938
 6594TIP3   OH219724   3.393   7.748   4.566
 6594TIP3    H119725   3.442   7.680   4.520
 6594TIP3    H219726   3.396   7.722   4.658
 6595TIP3   OH219727   3.852   6.435   0.153
 6595TIP3    H119728   3.801   6.404   0.078
 6595TIP3    H219729   3.860   6.529   0.140
 6596TIP3   OH219730   2.166   2.673   0.263
 6596TIP3    H119731   2.071   2.656   0.267
 6596TIP3    H219732   2.191   2.649   0.174
 6597TIP3   OH219733   0.530   6.405   6.090
 6597TIP3    H119734   0.581   6.482   6.115
 6597TIP3    H219735   0.558   6.336   6.151
 6598TIP3   OH219736   1.037   6.787   2.439
 6598TIP3    H119737   1.001   6.713   2.391
 6598TIP3    H219738   1.045   6.856   2.373
 6599TIP3   OH219739   5.320   6.066   4.795
 6599TIP3    H119740   5.407   6.104   4.808
 6599TIP3    H219741   5.295   6.034   4.882
 6600TIP3   OH219742   2.051   2.021   3.592
 6600TIP3    H119743   2.073   2.091   3.653
 6600TIP3    H219744   1.955   2.022   3.587
 6601TIP3   OH219745   2.549   6.381   5.020
 6601TIP3    H119746   2.630   6.432   5.023
 6601TIP3    H219747   2.482   6.442   5.051
 6602TIP3   OH219748   4.049   0.686   1.173
 6602TIP3    H119749   4.135   0.726   1.183
 6602TIP3    H219750   3.988   0.753   1.204
 6603TIP3   OH219751   5.443   6.802   5.773
 6603TIP3    H119752   5.451   6.839   5.685
 6603TIP3    H219753   5.379   6.858   5.817
 6604TIP3   OH219754   1.186   6.378   5.493
 6604TIP3    H119755   1.277   6.398   5.468
 6604TIP3    H219756   1.138   6.459   5.478
 6605TIP3   OH219757   5.801   6.056   3.068
 6605TIP3    H119758   5.762   6.103   3.142
 6605TIP3    H219759   5.789   5.964   3.089
 6606TIP3   OH219760   6.236   1.259   5.308
 6606TIP3    H119761   6.256   1.308   5.387
 6606TIP3    H219762   6.145   1.280   5.288
 6607TIP3   OH219763   2.285   2.631   2.451
 6607TIP3    H119764   2.245   2.679   2.380
 6607TIP3    H219765   2.248   2.669   2.531
 6608TIP3   OH219766   2.052   1.200   0.960
 6608TIP3    H119767   1.974   1.240   0.998
 6608TIP3    H219768   2.023   1.113   0.932
 6609TIP3   OH219769   7.879   4.461   5.269
 6609TIP3    H119770   7.792   4.467   5.229
 6609TIP3    H219771   7.921   4.388   5.223
 6610TIP3   OH219772   2.857   0.211   2.865
 6610TIP3    H119773   2.951   0.195   2.859
 6610TIP3    H219774   2.844   0.292   2.817
 6611TIP3   OH219775   0.304   1.190   0.675
 6611TIP3    H119776   0.353   1.153   0.601
 6611TIP3    H219777   0.320   1.130   0.747
 6612TIP3   OH219778   1.626   6.416   0.998
 6612TIP3    H119779   1.565   6.477   1.040
 6612TIP3    H219780   1.684   6.388   1.069
 6613TIP3   OH219781   6.831   1.444   0.081
 6613TIP3    H119782   6.851   1.481  -0.005
 6613TIP3    H219783   6.899   1.479   0.138
 6614TIP3   OH219784   5.430   5.651   3.281
 6614TIP3    H119785   5.393   5.618   3.199
 6614TIP3    H219786   5.431   5.575   3.339
 6615TIP3   OH219787   1.788   4.300   2.767
 6615TIP3    H119788   1.883   4.299   2.759
 6615TIP3    H219789   1.771   4.362   2.838
 6616TIP3   OH219790   6.316   1.591   4.780
 6616TIP3    H119791   6.303   1.637   4.863
 6616TIP3    H219792   6.253   1.518   4.783
 6617TIP3   OH219793   0.317   7.293   5.935
 6617TIP3    H119794   0.249   7.361   5.941
 6617TIP3    H219795   0.366   7.300   6.017
 6618TIP3   OH219796   3.873   0.387   6.091
 6618TIP3    H119797   3.858   0.296   6.117
 6618TIP3    H219798   3.968   0.396   6.090
 6619TIP3   OH219799   4.067   6.674   3.213
 6619TIP3    H119800   4.045   6.652   3.123
 6619TIP3    H219801   4.004   6.625   3.266
 6620TIP3   OH219802   6.730   4.983   6.465
 6620TIP3    H119803   6.731   4.965   6.371
 6620TIP3    H219804   6.807   5.038   6.480
 6621TIP3   OH219805   1.056   0.453   3.704
 6621TIP3    H119806   1.030   0.521   3.765
 6621TIP3    H219807   1.152   0.449   3.712
 6622TIP3   OH219808   3.554   4.010   2.393
 6622TIP3    H119809   3.470   4.027   2.436
 6622TIP3    H219810   3.599   3.951   2.454
 6623TIP3   OH219811   7.311   3.978   5.976
 6623TIP3    H119812   7.321   4.072   5.963
 6623TIP3    H219813   7.349   3.961   6.062
 6624TIP3   OH219814   5.588   7.101   3.835
 6624TIP3    H119815   5.533   7.056   3.771
 6624TIP3    H219816   5.592   7.041   3.910
 6625TIP3   OH219817   6.179   7.852   2.603
 6625TIP3    H119818   6.220   7.766   2.613
 6625TIP3    H219819   6.161   7.859   2.509
 6626TIP3   OH219820   7.815   5.530   6.122
 6626TIP3    H119821   7.772   5.448   6.148
 6626TIP3    H219822   7.745   5.583   6.085
 6627TIP3   OH219823   7.926   0.590   4.205
 6627TIP3    H119824   7.902   0.618   4.117
 6627TIP3    H219825   7.956   0.500   4.194
 6628TIP3   OH219826   6.695   2.092   3.101
 6628TIP3    H119827   6.767   2.090   3.165
 6628TIP3    H219828   6.616   2.079   3.154
 6629TIP3   OH219829   0.875   3.231   2.455
 6629TIP3    H119830   0.955   3.267   2.493
 6629TIP3    H219831   0.902   3.147   2.417
 6630TIP3   OH219832   4.867   1.610   1.846
 6630TIP3    H119833   4.833   1.520   1.849
 6630TIP3    H219834   4.915   1.614   1.764
 6631TIP3   OH219835   3.416   7.602   3.020
 6631TIP3    H119836   3.483   7.544   3.055
 6631TIP3    H219837   3.453   7.636   2.939
 6632TIP3   OH219838   7.527   5.786   2.226
 6632TIP3    H119839   7.542   5.718   2.291
 6632TIP3    H219840   7.557   5.867   2.267
 6633TIP3   OH219841   3.315   2.960   4.423
 6633TIP3    H119842   3.346   3.005   4.345
 6633TIP3    H219843   3.340   2.868   4.409
 6634TIP3   OH219844   2.437   0.523   5.534
 6634TIP3    H119845   2.427   0.543   5.627
 6634TIP3    H219846   2.388   0.442   5.521
 6635TIP3   OH219847   5.611   6.177   5.388
 6635TIP3    H119848   5.516   6.165   5.388
 6635TIP3    H219849   5.642   6.122   5.459
 6636TIP3   OH219850   2.243   5.783   3.498
 6636TIP3    H119851   2.325   5.829   3.518
 6636TIP3    H219852   2.245   5.706   3.555
 6637TIP3   OH219853   5.696   7.322   0.193
 6637TIP3    H119854   5.696   7.380   0.269
 6637TIP3    H219855   5.719   7.236   0.229
 6638TIP3   OH219856   2.663   7.715   2.469
 6638TIP3    H119857   2.635   7.686   2.382
 6638TIP3    H219858   2.591   7.770   2.501
 6639TIP3   OH219859   7.741   5.414   3.578
 6639TIP3    H119860   7.720   5.323   3.558
 6639TIP3    H219861   7.747   5.417   3.674
 6640TIP3   OH219862   2.359   0.996   1.283
 6640TIP3    H119863   2.298   0.962   1.217
 6640TIP3    H219864   2.338   0.949   1.363
 6641TIP3   OH219865   3.576   4.459   0.826
 6641TIP3    H119866   3.617   4.478   0.911
 6641TIP3    H219867   3.483   4.450   0.846
 6642TIP3   OH219868   7.695   5.261   3.285
 6642TIP3    H119869   7.735   5.213   3.359
 6642TIP3    H219870   7.715   5.207   3.209
 6643TIP3   OH219871   0.536   0.391   0.305
 6643TIP3    H119872   0.526   0.306   0.262
 6643TIP3    H219873   0.607   0.378   0.368
 6644TIP3   OH219874   0.585   4.562   3.724
 6644TIP3    H119875   0.623   4.631   3.778
 6644TIP3    H219876   0.636   4.484   3.747
 6645TIP3   OH219877   2.355   0.038   1.309
 6645TIP3    H119878   2.263   0.065   1.309
 6645TIP3    H219879   2.379   0.029   1.401
 6646TIP3   OH219880   2.400   3.999   4.937
 6646TIP3    H119881   2.404   4.051   4.856
 6646TIP3    H219882   2.317   4.025   4.978
 6647TIP3   OH219883   4.901   0.970   5.725
 6647TIP3    H119884   4.939   0.904   5.782
 6647TIP3    H219885   4.973   1.030   5.706
 6648TIP3   OH219886   6.409   1.341   0.616
 6648TIP3    H119887   6.407   1.413   0.680
 6648TIP3    H219888   6.361   1.270   0.658
 6649TIP3   OH219889   2.927   7.052   1.338
 6649TIP3    H119890   2.963   7.127   1.385
 6649TIP3    H219891   2.929   7.079   1.246
 6650TIP3   OH219892   1.092   5.123   1.984
 6650TIP3    H119893   1.060   5.131   1.894
 6650TIP3    H219894   1.183   5.154   1.980
 6651TIP3   OH219895   6.293   2.544   3.143
 6651TIP3    H119896   6.257   2.457   3.161
 6651TIP3    H219897   6.230   2.584   3.083
 6652TIP3   OH219898   1.249   0.944   6.554
 6652TIP3    H119899   1.244   1.038   6.569
 6652TIP3    H219900   1.161   0.920   6.526
 6653TIP3   OH219901   0.367   4.864   0.036
 6653TIP3    H119902   0.407   4.875  -0.050
 6653TIP3    H219903   0.297   4.929   0.039
 6654TIP3   OH219904   4.231   2.266   2.152
 6654TIP3    H119905   4.158   2.234   2.204
 6654TIP3    H219906   4.245   2.356   2.182
 6655TIP3   OH219907   4.970   5.549   2.738
 6655TIP3    H119908   5.016   5.541   2.821
 6655TIP3    H219909   5.010   5.482   2.682
 6656TIP3   OH219910   4.851   0.993   0.175
 6656TIP3    H119911   4.788   0.952   0.234
 6656TIP3    H219912   4.930   1.003   0.227
 6657TIP3   OH219913   6.352   5.578   4.600
 6657TIP3    H119914   6.405   5.501   4.580
 6657TIP3    H219915   6.415   5.646   4.625
 6658TIP3   OH219916   4.907   3.728   1.838
 6658TIP3    H119917   4.963   3.654   1.862
 6658TIP3    H219918   4.850   3.741   1.914
 6659TIP3   OH219919   2.816   7.680   5.282
 6659TIP3    H119920   2.906   7.714   5.279
 6659TIP3    H219921   2.767   7.747   5.330
 6660TIP3   OH219922   8.225   1.548   1.031
 6660TIP3    H119923   8.174   1.490   0.975
 6660TIP3    H219924   8.161   1.588   1.090
 6661TIP3   OH219925   2.307   7.548   3.354
 6661TIP3    H119926   2.275   7.627   3.311
 6661TIP3    H219927   2.394   7.571   3.387
 6662TIP3   OH219928   5.577   4.408   4.146
 6662TIP3    H119929   5.594   4.468   4.074
 6662TIP3    H219930   5.573   4.321   4.106
 6663TIP3   OH219931   5.493   7.090   5.328
 6663TIP3    H119932   5.551   7.075   5.253
 6663TIP3    H219933   5.528   7.169   5.370
 6664TIP3   OH219934   4.629   7.369   6.521
 6664TIP3    H119935   4.552   7.413   6.485
 6664TIP3    H219936   4.596   7.319   6.595
 6665TIP3   OH219937   2.426   0.678   0.264
 6665TIP3    H119938   2.340   0.664   0.226
 6665TIP3    H219939   2.411   0.740   0.336
 6666TIP3   OH219940   5.081   1.187   5.331
 6666TIP3    H119941   5.111   1.277   5.327
 6666TIP3    H219942   5.035   1.181   5.415
 6667TIP3   OH219943   3.391   1.509   5.942
 6667TIP3    H119944   3.365   1.515   5.850
 6667TIP3    H219945   3.447   1.432   5.946
 6668TIP3   OH219946   5.727   5.638   6.201
 6668TIP3    H119947   5.672   5.612   6.274
 6668TIP3    H219948   5.810   5.592   6.215
 6669TIP3   OH219949   4.183   0.776   2.997
 6669TIP3    H119950   4.217   0.745   2.913
 6669TIP3    H219951   4.213   0.866   3.004
 6670TIP3   OH219952   7.524   1.281   0.653
 6670TIP3    H119953   7.589   1.291   0.583
 6670TIP3    H219954   7.497   1.371   0.674
 6671TIP3   OH219955   8.333   4.388   6.046
 6671TIP3    H119956   8.374   4.474   6.037
 6671TIP3    H219957   8.270   4.399   6.117
 6672TIP3   OH219958   2.854   1.898   5.994
 6672TIP3    H119959   2.939   1.855   5.990
 6672TIP3    H219960   2.808   1.867   5.916
 6673TIP3   OH219961   4.721   4.448   4.713
 6673TIP3    H119962   4.778   4.525   4.715
 6673TIP3    H219963   4.736   4.406   4.797
 6674TIP3   OH219964   0.956   4.739   5.077
 6674TIP3    H119965   1.019   4.681   5.119
 6674TIP3    H219966   0.969   4.725   4.983
 6675TIP3   OH219967   8.143   5.860   5.483
 6675TIP3    H119968   8.085   5.873   5.409
 6675TIP3    H219969   8.221   5.818   5.446
 6676TIP3   OH219970   2.567   4.968   6.800
 6676TIP3    H119971   2.575   5.062   6.785
 6676TIP3    H219972   2.636   4.930   6.745
 6677TIP3   OH219973   6.664   6.454   5.306
 6677TIP3    H119974   6.696   6.541   5.332
 6677TIP3    H219975   6.741   6.411   5.270
 6678TIP3   OH219976   8.145   1.058   0.476
 6678TIP3    H119977   8.080   1.027   0.413
 6678TIP3    H219978   8.209   1.105   0.423
 6679TIP3   OH219979   3.232   6.900   4.398
 6679TIP3    H119980   3.256   6.838   4.467
 6679TIP3    H219981   3.237   6.986   4.439
 6680TIP3   OH219982   6.470   4.862   0.264
 6680TIP3    H119983   6.551   4.817   0.238
 6680TIP3    H219984   6.404   4.792   0.268
 6681TIP3   OH219985   2.452   4.679   1.029
 6681TIP3    H119986   2.500   4.724   1.098
 6681TIP3    H219987   2.501   4.598   1.015
 6682TIP3   OH219988   1.903   5.886   0.585
 6682TIP3    H119989   1.905   5.929   0.500
 6682TIP3    H219990   1.812   5.893   0.614
 6683TIP3   OH219991   0.203   5.026   3.075
 6683TIP3    H119992   0.116   5.023   3.114
 6683TIP3    H219993   0.262   5.039   3.149
 6684TIP3   OH219994   1.053   3.439   2.258
 6684TIP3    H119995   1.003   3.392   2.190
 6684TIP3    H219996   1.064   3.374   2.328
 6685TIP3   OH219997   0.939   4.396   0.168
 6685TIP3    H119998   0.888   4.323   0.132
 6685TIP3    H219999   0.944   4.378   0.262
 6686TIP3   OH220000   0.465   2.470   3.818
 6686TIP3    H120001   0.434   2.560   3.807
 6686TIP3    H220002   0.529   2.475   3.889
 6687TIP3   OH220003   7.764   7.577   2.829
 6687TIP3    H120004   7.835   7.613   2.776
 6687TIP3    H220005   7.788   7.486   2.843
 6688TIP3   OH220006   0.124   0.998   5.900
 6688TIP3    H120007   0.141   1.031   5.988
 6688TIP3    H220008   0.128   1.075   5.844
 6689TIP3   OH220009   7.488   3.124   0.881
 6689TIP3    H120010   7.543   3.059   0.925
 6689TIP3    H220011   7.430   3.156   0.949
 6690TIP3   OH220012   4.008   1.825   0.212
 6690TIP3    H120013   4.013   1.730   0.196
 6690TIP3    H220014   4.039   1.835   0.302
 6691TIP3   OH220015   4.912   4.648   5.094
 6691TIP3    H120016   4.882   4.736   5.118
 6691TIP3    H220017   5.006   4.649   5.113
 6692TIP3   OH220018   7.244   3.724   2.632
 6692TIP3    H120019   7.300   3.671   2.688
 6692TIP3    H220020   7.199   3.661   2.576
 6693TIP3   OH220021   0.116   5.532   4.789
 6693TIP3    H120022   0.030   5.497   4.808
 6693TIP3    H220023   0.150   5.562   4.874
 6694TIP3   OH220024   6.173   7.429   2.947
 6694TIP3    H120025   6.215   7.346   2.926
 6694TIP3    H220026   6.080   7.411   2.941
 6695TIP3   OH220027   5.915   4.074   6.152
 6695TIP3    H120028   5.874   4.010   6.094
 6695TIP3    H220029   5.858   4.150   6.147
 6696TIP3   OH220030   7.710   4.276   0.381
 6696TIP3    H120031   7.650   4.332   0.430
 6696TIP3    H220032   7.778   4.253   0.445
 6697TIP3   OH220033   2.915   1.357   5.219
 6697TIP3    H120034   2.965   1.315   5.149
 6697TIP3    H220035   2.903   1.447   5.189
 6698TIP3   OH220036   5.417   3.346   1.348
 6698TIP3    H120037   5.483   3.390   1.402
 6698TIP3    H220038   5.451   3.353   1.259
 6699TIP3   OH220039   8.044   6.220   4.174
 6699TIP3    H120040   8.064   6.207   4.266
 6699TIP3    H220041   8.104   6.289   4.145
 6700TIP3   OH220042   3.560   0.599   0.460
 6700TIP3    H120043   3.504   0.591   0.384
 6700TIP3    H220044   3.563   0.693   0.478
 6701TIP3   OH220045   6.876   3.131   0.415
 6701TIP3    H120046   6.931   3.202   0.449
 6701TIP3    H220047   6.939   3.065   0.385
 6702TIP3   OH220048   6.185   0.156   0.141
 6702TIP3    H120049   6.262   0.162   0.198
 6702TIP3    H220050   6.192   0.069   0.101
 6703TIP3   OH220051   2.710   4.283   4.348
 6703TIP3    H120052   2.778   4.322   4.294
 6703TIP3    H220053   2.751   4.274   4.435
 6704TIP3   OH220054   0.024   2.649   5.463
 6704TIP3    H120055   0.096   2.668   5.403
 6704TIP3    H220056   0.041   2.560   5.494
 6705TIP3   OH220057   4.541   7.716   3.032
 6705TIP3    H120058   4.503   7.666   3.104
 6705TIP3    H220059   4.485   7.793   3.024
 6706TIP3   OH220060   0.353   6.048   0.573
 6706TIP3    H120061   0.349   6.144   0.568
 6706TIP3    H220062   0.320   6.027   0.660
 6707TIP3   OH220063   6.666   3.099   1.278
 6707TIP3    H120064   6.733   3.159   1.311
 6707TIP3    H220065   6.714   3.032   1.230
 6708TIP3   OH220066   2.233   2.463   5.043
 6708TIP3    H120067   2.184   2.503   4.970
 6708TIP3    H220068   2.171   2.464   5.116
 6709TIP3   OH220069   1.715   0.425   1.164
 6709TIP3    H120070   1.741   0.517   1.161
 6709TIP3    H220071   1.641   0.419   1.103
 6710TIP3   OH220072   0.661   6.075   1.634
 6710TIP3    H120073   0.616   6.153   1.666
 6710TIP3    H220074   0.729   6.109   1.575
 6711TIP3   OH220075   4.164   1.226   3.640
 6711TIP3    H120076   4.225   1.297   3.657
 6711TIP3    H220077   4.212   1.166   3.582
 6712TIP3   OH220078   1.120   1.013   5.463
 6712TIP3    H120079   1.088   0.931   5.424
 6712TIP3    H220080   1.163   1.058   5.390
 6713TIP3   OH220081   1.265   5.115   0.111
 6713TIP3    H120082   1.249   5.125   0.018
 6713TIP3    H220083   1.360   5.110   0.119
 6714TIP3   OH220084   2.655   5.145   4.757
 6714TIP3    H120085   2.581   5.094   4.790
 6714TIP3    H220086   2.684   5.196   4.833
 6715TIP3   OH220087   6.568   3.977   3.948
 6715TIP3    H120088   6.604   4.008   3.865
 6715TIP3    H220089   6.562   3.882   3.937
 6716TIP3   OH220090   2.923   7.436   5.614
 6716TIP3    H120091   2.966   7.351   5.617
 6716TIP3    H220092   2.879   7.438   5.529
 6717TIP3   OH220093   3.086   0.920   3.455
 6717TIP3    H120094   3.107   1.010   3.481
 6717TIP3    H220095   3.122   0.911   3.367
 6718TIP3   OH220096  -0.011   3.436   6.178
 6718TIP3    H120097  -0.055   3.352   6.187
 6718TIP3    H220098   0.043   3.443   6.257
 6719TIP3   OH220099   7.888   6.853   1.746
 6719TIP3    H120100   7.881   6.911   1.670
 6719TIP3    H220101   7.982   6.850   1.764
 6720TIP3   OH220102   2.108   1.715   3.447
 6720TIP3    H120103   2.101   1.625   3.417
 6720TIP3    H220104   2.201   1.728   3.465
 6721TIP3   OH220105   8.215   7.247   4.618
 6721TIP3    H120106   8.181   7.301   4.547
 6721TIP3    H220107   8.194   7.157   4.593
 6722TIP3   OH220108   4.440   6.792   4.475
 6722TIP3    H120109   4.406   6.758   4.392
 6722TIP3    H220110   4.388   6.747   4.542
 6723TIP3   OH220111   3.697   1.300   1.762
 6723TIP3    H120112   3.792   1.317   1.761
 6723TIP3    H220113   3.667   1.343   1.842
 6724TIP3   OH220114   6.285   5.249   4.369
 6724TIP3    H120115   6.256   5.158   4.363
 6724TIP3    H220116   6.230   5.297   4.307
 6725TIP3   OH220117   4.073   7.390   5.060
 6725TIP3    H120118   4.046   7.300   5.040
 6725TIP3    H220119   4.162   7.382   5.093
 6726TIP3   OH220120   2.948   3.023   6.612
 6726TIP3    H120121   2.933   3.083   6.538
 6726TIP3    H220122   2.871   3.036   6.668
 6727TIP3   OH220123   2.358   6.759   1.304
 6727TIP3    H120124   2.383   6.845   1.271
 6727TIP3    H220125   2.280   6.775   1.357
 6728TIP3   OH220126   2.547   2.183   4.388
 6728TIP3    H120127   2.514   2.255   4.334
 6728TIP3    H220128   2.484   2.177   4.460
 6729TIP3   OH220129   0.409   2.476   5.528
 6729TIP3    H120130   0.451   2.550   5.571
 6729TIP3    H220131   0.456   2.467   5.445
 6730TIP3   OH220132   5.868   2.584   0.871
 6730TIP3    H120133   5.903   2.670   0.891
 6730TIP3    H220134   5.814   2.597   0.793
 6731TIP3   OH220135   5.325   2.483   2.703
 6731TIP3    H120136   5.278   2.499   2.784
 6731TIP3    H220137   5.349   2.390   2.706
 6732TIP3   OH220138   2.601   0.656   4.321
 6732TIP3    H120139   2.544   0.706   4.263
 6732TIP3    H220140   2.578   0.565   4.305
 6733TIP3   OH220141   1.022   6.832   0.677
 6733TIP3    H120142   0.950   6.865   0.623
 6733TIP3    H220143   1.077   6.909   0.694
 6734TIP3   OH220144   1.184   0.604   3.062
 6734TIP3    H120145   1.191   0.509   3.058
 6734TIP3    H220146   1.092   0.622   3.045
 6735TIP3   OH220147   2.814   7.301   6.495
 6735TIP3    H120148   2.787   7.386   6.529
 6735TIP3    H220149   2.835   7.249   6.573
 6736TIP3   OH220150   5.063   5.490   3.011
 6736TIP3    H120151   5.078   5.525   3.098
 6736TIP3    H220152   4.972   5.461   3.012
 6737TIP3   OH220153   4.840   0.735   1.732
 6737TIP3    H120154   4.855   0.814   1.783
 6737TIP3    H220155   4.756   0.701   1.764
 6738TIP3   OH220156   7.317   6.837   3.057
 6738TIP3    H120157   7.292   6.899   3.126
 6738TIP3    H220158   7.261   6.761   3.072
 6739TIP3   OH220159   2.433   6.460   1.888
 6739TIP3    H120160   2.506   6.419   1.841
 6739TIP3    H220161   2.393   6.519   1.824
 6740TIP3   OH220162   0.268   7.119   0.778
 6740TIP3    H120163   0.221   7.183   0.831
 6740TIP3    H220164   0.359   7.147   0.783
 6741TIP3   OH220165   6.731   3.145   4.287
 6741TIP3    H120166   6.700   3.205   4.219
 6741TIP3    H220167   6.653   3.129   4.341
 6742TIP3   OH220168   2.390   2.034   0.516
 6742TIP3    H120169   2.342   1.975   0.574
 6742TIP3    H220170   2.465   2.064   0.569
 6743TIP3   OH220171   1.780   5.674   4.596
 6743TIP3    H120172   1.848   5.610   4.577
 6743TIP3    H220173   1.801   5.749   4.540
 6744TIP3   OH220174   7.627   0.452   3.199
 6744TIP3    H120175   7.665   0.368   3.226
 6744TIP3    H220176   7.547   0.460   3.251
 6745TIP3   OH220177   3.260   5.404   4.756
 6745TIP3    H120178   3.170   5.405   4.787
 6745TIP3    H220179   3.313   5.420   4.834
 6746TIP3   OH220180   6.298   1.118   4.412
 6746TIP3    H120181   6.380   1.090   4.373
 6746TIP3    H220182   6.271   1.193   4.360
 6747TIP3   OH220183   5.503   2.721   2.702
 6747TIP3    H120184   5.571   2.656   2.721
 6747TIP3    H220185   5.422   2.670   2.699
 6748TIP3   OH220186   3.008   0.316   5.611
 6748TIP3    H120187   2.987   0.334   5.520
 6748TIP3    H220188   3.088   0.367   5.628
 6749TIP3   OH220189   6.760   1.205   2.277
 6749TIP3    H120190   6.798   1.233   2.360
 6749TIP3    H220191   6.665   1.210   2.291
 6750TIP3   OH220192   2.692   2.618   2.441
 6750TIP3    H120193   2.711   2.654   2.354
 6750TIP3    H220194   2.779   2.596   2.476
 6751TIP3   OH220195   1.031   1.373   6.444
 6751TIP3    H120196   1.088   1.413   6.378
 6751TIP3    H220197   1.056   1.414   6.526
 6752TIP3   OH220198   3.486   3.845   6.468
 6752TIP3    H120199   3.514   3.922   6.417
 6752TIP3    H220200   3.549   3.777   6.445
 6753TIP3   OH220201   4.406   1.502   2.223
 6753TIP3    H120202   4.310   1.507   2.230
 6753TIP3    H220203   4.438   1.548   2.300
 6754TIP3   OH220204   4.348   6.091   6.594
 6754TIP3    H120205   4.299   6.011   6.613
 6754TIP3    H220206   4.325   6.113   6.504
 6755TIP3   OH220207   6.528   5.324   1.072
 6755TIP3    H120208   6.463   5.253   1.079
 6755TIP3    H220209   6.599   5.297   1.129
 6756TIP3   OH220210   8.128   5.363   4.391
 6756TIP3    H120211   8.133   5.365   4.487
 6756TIP3    H220212   8.043   5.403   4.372
 6757TIP3   OH220213   5.896   1.794   5.052
 6757TIP3    H120214   5.985   1.820   5.025
 6757TIP3    H220215   5.841   1.866   5.020
 6758TIP3   OH220216   0.386   4.231   1.113
 6758TIP3    H120217   0.421   4.255   1.199
 6758TIP3    H220218   0.292   4.222   1.128
 6759TIP3   OH220219   3.254   5.872   4.052
 6759TIP3    H120220   3.187   5.804   4.044
 6759TIP3    H220221   3.213   5.951   4.015
 6760TIP3   OH220222   6.648   6.451   1.433
 6760TIP3    H120223   6.710   6.382   1.408
 6760TIP3    H220224   6.597   6.468   1.354
 6761TIP3   OH220225   1.751   5.411   2.473
 6761TIP3    H120226   1.656   5.400   2.460
 6761TIP3    H220227   1.788   5.328   2.445
 6762TIP3   OH220228   1.479   5.619   5.817
 6762TIP3    H120229   1.526   5.701   5.798
 6762TIP3    H220230   1.435   5.635   5.900
 6763TIP3   OH220231   3.441   4.272   5.189
 6763TIP3    H120232   3.533   4.294   5.202
 6763TIP3    H220233   3.395   4.356   5.190
 6764TIP3   OH220234   5.805   2.118   4.810
 6764TIP3    H120235   5.859   2.087   4.737
 6764TIP3    H220236   5.867   2.145   4.877
 6765TIP3   OH220237   7.771   5.485   2.497
 6765TIP3    H120238   7.837   5.527   2.553
 6765TIP3    H220239   7.816   5.407   2.463
 6766TIP3   OH220240   5.013   0.663   3.504
 6766TIP3    H120241   4.947   0.702   3.447
 6766TIP3    H220242   5.050   0.591   3.452
 6767TIP3   OH220243   7.077   7.547   6.677
 6767TIP3    H120244   6.987   7.578   6.688
 6767TIP3    H220245   7.115   7.550   6.765
 6768TIP3   OH220246   2.915   3.253   0.896
 6768TIP3    H120247   2.924   3.330   0.952
 6768TIP3    H220248   2.953   3.181   0.947
 6769TIP3   OH220249   2.615   1.269   5.648
 6769TIP3    H120250   2.653   1.345   5.604
 6769TIP3    H220251   2.605   1.204   5.579
 6770TIP3   OH220252   1.899   3.053   4.891
 6770TIP3    H120253   1.957   3.043   4.966
 6770TIP3    H220254   1.941   3.120   4.837
 6771TIP3   OH220255   4.397   5.355   1.381
 6771TIP3    H120256   4.427   5.295   1.313
 6771TIP3    H220257   4.455   5.431   1.374
 6772TIP3   OH220258   5.504   5.114   1.842
 6772TIP3    H120259   5.594   5.081   1.836
 6772TIP3    H220260   5.452   5.049   1.795
 6773TIP3   OH220261   5.615   3.271   2.921
 6773TIP3    H120262   5.584   3.310   2.839
 6773TIP3    H220263   5.647   3.185   2.895
 6774TIP3   OH220264   6.116   0.537   3.968
 6774TIP3    H120265   6.122   0.552   3.873
 6774TIP3    H220266   6.197   0.490   3.989
 6775TIP3   OH220267   1.747   6.283   5.899
 6775TIP3    H120268   1.765   6.276   5.806
 6775TIP3    H220269   1.668   6.337   5.905
 6776TIP3   OH220270   4.807   0.610   5.811
 6776TIP3    H120271   4.796   0.622   5.716
 6776TIP3    H220272   4.786   0.517   5.825
 6777TIP3   OH220273   0.493   5.599   4.545
 6777TIP3    H120274   0.424   5.624   4.485
 6777TIP3    H220275   0.462   5.626   4.631
 6778TIP3   OH220276   7.625   0.177   2.552
 6778TIP3    H120277   7.625   0.258   2.502
 6778TIP3    H220278   7.627   0.108   2.486
 6779TIP3   OH220279   5.045   7.289   4.723
 6779TIP3    H120280   5.127   7.326   4.754
 6779TIP3    H220281   5.038   7.204   4.766
 6780TIP3   OH220282   4.280   6.479   3.071
 6780TIP3    H120283   4.231   6.408   3.113
 6780TIP3    H220284   4.249   6.559   3.114
 6781TIP3   OH220285   6.873   6.663   2.923
 6781TIP3    H120286   6.800   6.612   2.957
 6781TIP3    H220287   6.943   6.599   2.910
 6782TIP3   OH220288   3.682   2.619   1.985
 6782TIP3    H120289   3.670   2.698   2.039
 6782TIP3    H220290   3.706   2.551   2.048
 6783TIP3   OH220291   5.819   0.961   2.412
 6783TIP3    H120292   5.785   0.884   2.365
 6783TIP3    H220293   5.745   1.022   2.414
 6784TIP3   OH220294   6.898   4.927   3.706
 6784TIP3    H120295   6.950   5.006   3.694
 6784TIP3    H220296   6.900   4.910   3.800
 6785TIP3   OH220297   2.477   2.502   5.140
 6785TIP3    H120298   2.541   2.478   5.073
 6785TIP3    H220299   2.393   2.492   5.096
 6786TIP3   OH220300   2.434   6.144   4.225
 6786TIP3    H120301   2.453   6.238   4.229
 6786TIP3    H220302   2.500   6.109   4.166
 6787TIP3   OH220303   8.178   2.033   5.561
 6787TIP3    H120304   8.182   2.102   5.495
 6787TIP3    H220305   8.213   1.955   5.517
 6788TIP3   OH220306   0.500   7.770   5.332
 6788TIP3    H120307   0.475   7.684   5.297
 6788TIP3    H220308   0.417   7.814   5.348
 6789TIP3   OH220309   2.694   4.524   5.465
 6789TIP3    H120310   2.621   4.585   5.461
 6789TIP3    H220311   2.772   4.579   5.461
 6790TIP3   OH220312   2.093   1.152   1.294
 6790TIP3    H120313   2.143   1.233   1.305
 6790TIP3    H220314   2.006   1.181   1.266
 6791TIP3   OH220315   7.595   2.438   1.993
 6791TIP3    H120316   7.626   2.360   2.040
 6791TIP3    H220317   7.675   2.479   1.960
 6792TIP3   OH220318   5.869   2.759   6.105
 6792TIP3    H120319   5.808   2.714   6.046
 6792TIP3    H220320   5.819   2.835   6.137
 6793TIP3   OH220321   6.273   3.843   0.834
 6793TIP3    H120322   6.286   3.875   0.923
 6793TIP3    H220323   6.184   3.808   0.834
 6794TIP3   OH220324   3.505   0.041   6.381
 6794TIP3    H120325   3.592   0.064   6.414
 6794TIP3    H220326   3.447   0.109   6.417
 6795TIP3   OH220327   6.220   2.053   3.389
 6795TIP3    H120328   6.242   1.960   3.392
 6795TIP3    H220329   6.148   2.063   3.452
 6796TIP3   OH220330   1.255   5.064   1.419
 6796TIP3    H120331   1.316   5.098   1.353
 6796TIP3    H220332   1.287   5.100   1.502
 6797TIP3   OH220333   3.165   7.405   0.333
 6797TIP3    H120334   3.249   7.394   0.378
 6797TIP3    H220335   3.178   7.363   0.248
 6798TIP3   OH220336   8.087   5.675   3.769
 6798TIP3    H120337   8.165   5.730   3.778
 6798TIP3    H220338   8.114   5.604   3.711
 6799TIP3   OH220339   3.545   0.324   0.483
 6799TIP3    H120340   3.576   0.412   0.462
 6799TIP3    H220341   3.453   0.323   0.455
 6800TIP3   OH220342   2.671   0.244   3.115
 6800TIP3    H120343   2.739   0.206   3.172
 6800TIP3    H220344   2.719   0.275   3.039
 6801TIP3   OH220345   7.570   2.282   5.077
 6801TIP3    H120346   7.521   2.330   5.010
 6801TIP3    H220347   7.657   2.320   5.074
 6802TIP3   OH220348   2.135   3.810   0.347
 6802TIP3    H120349   2.054   3.858   0.365
 6802TIP3    H220350   2.166   3.846   0.264
 6803TIP3   OH220351   2.727   2.145   6.434
 6803TIP3    H120352   2.681   2.067   6.404
 6803TIP3    H220353   2.779   2.173   6.358
 6804TIP3   OH220354   0.634   5.421   1.846
 6804TIP3    H120355   0.617   5.487   1.913
 6804TIP3    H220356   0.550   5.376   1.836
 6805TIP3   OH220357   1.203   4.656   6.212
 6805TIP3    H120358   1.111   4.628   6.204
 6805TIP3    H220359   1.211   4.687   6.302
 6806TIP3   OH220360   4.077   7.529   3.034
 6806TIP3    H120361   4.122   7.475   3.099
 6806TIP3    H220362   4.093   7.485   2.951
 6807TIP3   OH220363   0.196   3.789   6.419
 6807TIP3    H120364   0.284   3.768   6.452
 6807TIP3    H220365   0.210   3.809   6.326
 6808TIP3   OH220366   2.244   0.620   4.409
 6808TIP3    H120367   2.207   0.577   4.487
 6808TIP3    H220368   2.318   0.565   4.385
 6809TIP3   OH220369   6.608   1.044   5.496
 6809TIP3    H120370   6.615   1.136   5.471
 6809TIP3    H220371   6.696   1.020   5.524
 6810TIP3   OH220372   1.524   4.985   0.734
 6810TIP3    H120373   1.444   4.992   0.786
 6810TIP3    H220374   1.571   5.067   0.752
 6811TIP3   OH220375   0.463   2.852   4.429
 6811TIP3    H120376   0.447   2.760   4.407
 6811TIP3    H220377   0.555   2.866   4.404
 6812TIP3   OH220378   8.096   1.461   5.950
 6812TIP3    H120379   8.013   1.438   5.993
 6812TIP3    H220380   8.162   1.409   5.995
 6813TIP3   OH220381   4.371   2.651   2.492
 6813TIP3    H120382   4.461   2.686   2.495
 6813TIP3    H220383   4.342   2.668   2.403
 6814TIP3   OH220384   1.965   1.764   2.375
 6814TIP3    H120385   1.937   1.711   2.450
 6814TIP3    H220386   1.937   1.712   2.299
 6815TIP3   OH220387   5.223   0.123   1.077
 6815TIP3    H120388   5.269   0.097   0.997
 6815TIP3    H220389   5.288   0.110   1.147
 6816TIP3   OH220390   6.018   0.886   1.456
 6816TIP3    H120391   6.033   0.814   1.396
 6816TIP3    H220392   6.051   0.963   1.410
 6817TIP3   OH220393   0.990  -0.035   0.727
 6817TIP3    H120394   1.086  -0.031   0.726
 6817TIP3    H220395   0.966   0.010   0.809
 6818TIP3   OH220396   7.359   7.132   2.754
 6818TIP3    H120397   7.355   7.039   2.776
 6818TIP3    H220398   7.296   7.143   2.683
 6819TIP3   OH220399   5.968   4.757   4.877
 6819TIP3    H120400   5.990   4.850   4.868
 6819TIP3    H220401   5.954   4.727   4.787
 6820TIP3   OH220402   1.400   7.553   4.854
 6820TIP3    H120403   1.445   7.599   4.926
 6820TIP3    H220404   1.332   7.614   4.826
 6821TIP3   OH220405   5.596   5.437   4.770
 6821TIP3    H120406   5.573   5.436   4.677
 6821TIP3    H220407   5.675   5.491   4.774
 6822TIP3   OH220408   4.965   7.582   4.273
 6822TIP3    H120409   4.871   7.597   4.287
 6822TIP3    H220410   4.970   7.493   4.238
 6823TIP3   OH220411   1.073   7.294   2.309
 6823TIP3    H120412   1.083   7.388   2.322
 6823TIP3    H220413   1.137   7.254   2.367
 6824TIP3   OH220414   1.391   3.072   3.708
 6824TIP3    H120415   1.422   3.087   3.618
 6824TIP3    H220416   1.411   3.153   3.754
 6825TIP3   OH220417   6.183   2.507   0.522
 6825TIP3    H120418   6.259   2.493   0.466
 6825TIP3    H220419   6.216   2.557   0.597
 6826TIP3   OH220420   2.210   3.309   5.737
 6826TIP3    H120421   2.157   3.240   5.698
 6826TIP3    H220422   2.280   3.326   5.674
 6827TIP3   OH220423   6.911   5.487   1.720
 6827TIP3    H120424   6.857   5.411   1.694
 6827TIP3    H220425   6.993   5.474   1.673
 6828TIP3   OH220426   7.581   3.005   2.287
 6828TIP3    H120427   7.601   3.083   2.339
 6828TIP3    H220428   7.665   2.980   2.248
 6829TIP3   OH220429   3.031   1.098   1.011
 6829TIP3    H120430   3.079   1.091   0.929
 6829TIP3    H220431   2.946   1.134   0.986
 6830TIP3   OH220432   2.036   5.575   5.565
 6830TIP3    H120433   2.066   5.632   5.494
 6830TIP3    H220434   2.111   5.569   5.624
 6831TIP3   OH220435   0.161   4.782   3.427
 6831TIP3    H120436   0.108   4.726   3.483
 6831TIP3    H220437   0.149   4.746   3.339
 6832TIP3   OH220438   2.764   5.518   6.687
 6832TIP3    H120439   2.770   5.593   6.628
 6832TIP3    H220440   2.671   5.497   6.690
 6833TIP3   OH220441   3.233   4.549   4.901
 6833TIP3    H120442   3.287   4.627   4.890
 6833TIP3    H220443   3.258   4.514   4.987
 6834TIP3   OH220444   7.477   7.349   6.044
 6834TIP3    H120445   7.478   7.266   6.092
 6834TIP3    H220446   7.384   7.372   6.039
 6835TIP3   OH220447   7.339   5.715   2.594
 6835TIP3    H120448   7.415   5.702   2.538
 6835TIP3    H220449   7.266   5.679   2.544
 6836TIP3   OH220450   6.977   2.221   0.605
 6836TIP3    H120451   7.022   2.305   0.613
 6836TIP3    H220452   6.900   2.240   0.551
 6837TIP3   OH220453   7.933   3.178   1.242
 6837TIP3    H120454   7.959   3.234   1.316
 6837TIP3    H220455   7.839   3.165   1.254
 6838TIP3   OH220456   2.666   6.441   5.452
 6838TIP3    H120457   2.670   6.532   5.424
 6838TIP3    H220458   2.757   6.411   5.449
 6839TIP3   OH220459   0.324   2.053   3.371
 6839TIP3    H120460   0.405   2.085   3.411
 6839TIP3    H220461   0.340   1.961   3.353
 6840TIP3   OH220462   5.998   3.249   0.936
 6840TIP3    H120463   6.045   3.183   0.988
 6840TIP3    H220464   6.006   3.219   0.846
 6841TIP3   OH220465   1.148   2.498   0.787
 6841TIP3    H120466   1.063   2.499   0.742
 6841TIP3    H220467   1.130   2.537   0.873
 6842TIP3   OH220468   6.450   3.051   3.699
 6842TIP3    H120469   6.404   2.989   3.756
 6842TIP3    H220470   6.540   3.018   3.696
 6843TIP3   OH220471   4.240   5.227   1.063
 6843TIP3    H120472   4.205   5.171   1.133
 6843TIP3    H220473   4.207   5.314   1.084
 6844TIP3   OH220474   5.279   5.904   1.068
 6844TIP3    H120475   5.281   5.809   1.063
 6844TIP3    H220476   5.369   5.931   1.049
 6845TIP3   OH220477   5.930   2.112   0.811
 6845TIP3    H120478   5.854   2.170   0.821
 6845TIP3    H220479   6.002   2.171   0.790
 6846TIP3   OH220480   6.389   6.927   4.589
 6846TIP3    H120481   6.444   6.865   4.637
 6846TIP3    H220482   6.385   6.892   4.500
 6847TIP3   OH220483   6.613   3.065   4.892
 6847TIP3    H120484   6.663   3.080   4.811
 6847TIP3    H220485   6.582   2.975   4.884
 6848TIP3   OH220486   3.858   2.107   4.977
 6848TIP3    H120487   3.824   2.196   4.983
 6848TIP3    H220488   3.859   2.088   4.883
 6849TIP3   OH220489   6.056   5.440   5.938
 6849TIP3    H120490   6.044   5.503   6.009
 6849TIP3    H220491   6.150   5.420   5.939
 6850TIP3   OH220492   2.208   1.272   0.752
 6850TIP3    H120493   2.294   1.256   0.793
 6850TIP3    H220494   2.145   1.260   0.823
 6851TIP3   OH220495   3.898   1.577   0.036
 6851TIP3    H120496   3.846   1.620  -0.031
 6851TIP3    H220497   3.837   1.558   0.107
 6852TIP3   OH220498   2.741   2.480   1.403
 6852TIP3    H120499   2.795   2.412   1.442
 6852TIP3    H220500   2.704   2.528   1.478
 6853TIP3   OH220501   3.241   2.937   3.978
 6853TIP3    H120502   3.181   2.863   3.977
 6853TIP3    H220503   3.288   2.930   3.895
 6854TIP3   OH220504   1.654   5.381   1.537
 6854TIP3    H120505   1.607   5.317   1.483
 6854TIP3    H220506   1.745   5.374   1.508
 6855TIP3   OH220507   2.584   2.228   1.574
 6855TIP3    H120508   2.569   2.180   1.655
 6855TIP3    H220509   2.680   2.229   1.564
 6856TIP3   OH220510   7.301   0.347   1.517
 6856TIP3    H120511   7.249   0.427   1.518
 6856TIP3    H220512   7.327   0.334   1.608
 6857TIP3   OH220513   7.694   4.808   0.926
 6857TIP3    H120514   7.734   4.816   1.012
 6857TIP3    H220515   7.748   4.862   0.869
 6858TIP3   OH220516   8.132   3.115   5.512
 6858TIP3    H120517   8.080   3.088   5.437
 6858TIP3    H220518   8.214   3.067   5.502
 6859TIP3   OH220519   7.919   6.698   4.018
 6859TIP3    H120520   7.840   6.649   3.994
 6859TIP3    H220521   7.898   6.789   3.997
 6860TIP3   OH220522   5.855   1.536   5.593
 6860TIP3    H120523   5.792   1.607   5.580
 6860TIP3    H220524   5.939   1.580   5.605
 6861TIP3   OH220525   1.459   0.095   4.079
 6861TIP3    H120526   1.540   0.111   4.030
 6861TIP3    H220527   1.469   0.006   4.113
 6862TIP3   OH220528   3.284   3.385   5.017
 6862TIP3    H120529   3.371   3.424   5.013
 6862TIP3    H220530   3.271   3.364   5.109
 6863TIP3   OH220531   2.683   4.780   3.439
 6863TIP3    H120532   2.770   4.810   3.464
 6863TIP3    H220533   2.674   4.805   3.347
 6864TIP3   OH220534   7.119   6.955   3.778
 6864TIP3    H120535   7.125   6.939   3.872
 6864TIP3    H220536   7.194   6.909   3.741
 6865TIP3   OH220537   5.458   7.412   5.680
 6865TIP3    H120538   5.508   7.437   5.757
 6865TIP3    H220539   5.392   7.351   5.712
 6866TIP3   OH220540   2.299   1.866   0.992
 6866TIP3    H120541   2.235   1.910   0.936
 6866TIP3    H220542   2.301   1.776   0.958
 6867TIP3   OH220543   4.432   5.069   3.551
 6867TIP3    H120544   4.506   5.042   3.497
 6867TIP3    H220545   4.378   5.123   3.492
 6868TIP3   OH220546   2.356   3.115   2.754
 6868TIP3    H120547   2.412   3.062   2.811
 6868TIP3    H220548   2.312   3.175   2.814
 6869TIP3   OH220549   3.933   3.412   6.638
 6869TIP3    H120550   3.922   3.407   6.543
 6869TIP3    H220551   3.848   3.386   6.673
 6870TIP3   OH220552   6.763   7.325   4.853
 6870TIP3    H120553   6.784   7.284   4.769
 6870TIP3    H220554   6.826   7.396   4.861
 6871TIP3   OH220555   5.048   2.571   1.115
 6871TIP3    H120556   4.979   2.505   1.113
 6871TIP3    H220557   5.125   2.527   1.080
 6872TIP3   OH220558   2.383   7.111   5.284
 6872TIP3    H120559   2.339   7.196   5.291
 6872TIP3    H220560   2.473   7.132   5.262
 6873TIP3   OH220561   2.038   1.972   2.200
 6873TIP3    H120562   2.004   1.912   2.266
 6873TIP3    H220563   1.985   1.954   2.122
 6874TIP3   OH220564   3.008   1.407   3.658
 6874TIP3    H120565   3.078   1.458   3.698
 6874TIP3    H220566   3.053   1.335   3.613
 6875TIP3   OH220567   4.075   7.511   1.436
 6875TIP3    H120568   4.090   7.434   1.381
 6875TIP3    H220569   4.158   7.558   1.434
 6876TIP3   OH220570   0.372   3.058   2.776
 6876TIP3    H120571   0.441   3.069   2.710
 6876TIP3    H220572   0.298   3.023   2.726
 6877TIP3   OH220573   1.786   3.985   6.377
 6877TIP3    H120574   1.705   3.934   6.367
 6877TIP3    H220575   1.853   3.921   6.397
 6878TIP3   OH220576   5.860   0.339   0.260
 6878TIP3    H120577   5.856   0.249   0.230
 6878TIP3    H220578   5.778   0.353   0.308
 6879TIP3   OH220579   4.887   2.958   0.356
 6879TIP3    H120580   4.956   2.906   0.397
 6879TIP3    H220581   4.812   2.948   0.415
 6880TIP3   OH220582   2.855   4.531   4.357
 6880TIP3    H120583   2.942   4.550   4.393
 6880TIP3    H220584   2.811   4.481   4.426
 6881TIP3   OH220585   5.150   0.532   3.319
 6881TIP3    H120586   5.244   0.531   3.301
 6881TIP3    H220587   5.118   0.610   3.275
 6882TIP3   OH220588   3.777   6.477   2.100
 6882TIP3    H120589   3.709   6.429   2.148
 6882TIP3    H220590   3.857   6.427   2.113
 6883TIP3   OH220591   4.552   4.243   4.636
 6883TIP3    H120592   4.631   4.293   4.616
 6883TIP3    H220593   4.561   4.162   4.585
 6884TIP3   OH220594   5.898   3.816   2.295
 6884TIP3    H120595   5.947   3.740   2.325
 6884TIP3    H220596   5.812   3.782   2.270
 6885TIP3   OH220597   7.431   6.522   4.248
 6885TIP3    H120598   7.490   6.469   4.194
 6885TIP3    H220599   7.351   6.471   4.253
 6886TIP3   OH220600   7.686   6.252   6.563
 6886TIP3    H120601   7.652   6.334   6.528
 6886TIP3    H220602   7.627   6.230   6.635
 6887TIP3   OH220603   0.021   5.420   2.760
 6887TIP3    H120604   0.070   5.349   2.802
 6887TIP3    H220605   0.031   5.404   2.666
 6888TIP3   OH220606   6.840   0.972   1.351
 6888TIP3    H120607   6.891   1.000   1.275
 6888TIP3    H220608   6.754   1.013   1.338
 6889TIP3   OH220609   6.931   4.163   6.227
 6889TIP3    H120610   6.992   4.090   6.215
 6889TIP3    H220611   6.910   4.161   6.320
 6890TIP3   OH220612   8.231   0.900   1.453
 6890TIP3    H120613   8.315   0.866   1.425
 6890TIP3    H220614   8.166   0.842   1.413
 6891TIP3   OH220615   1.003   1.285   1.481
 6891TIP3    H120616   0.919   1.289   1.527
 6891TIP3    H220617   1.023   1.376   1.460
 6892TIP3   OH220618   1.195   3.142   4.507
 6892TIP3    H120619   1.194   3.229   4.548
 6892TIP3    H220620   1.151   3.085   4.571
 6893TIP3   OH220621   1.588   6.684   3.618
 6893TIP3    H120622   1.639   6.610   3.652
 6893TIP3    H220623   1.566   6.658   3.529
 6894TIP3   OH220624   0.100   0.552   6.744
 6894TIP3    H120625   0.080   0.645   6.746
 6894TIP3    H220626   0.178   0.545   6.688
 6895TIP3   OH220627   2.161   7.773   4.975
 6895TIP3    H120628   2.180   7.726   5.057
 6895TIP3    H220629   2.114   7.851   5.004
 6896TIP3   OH220630   1.073   0.259   5.923
 6896TIP3    H120631   1.116   0.268   6.008
 6896TIP3    H220632   0.981   0.241   5.945
 6897TIP3   OH220633   5.713   5.073   5.372
 6897TIP3    H120634   5.726   5.042   5.461
 6897TIP3    H220635   5.783   5.031   5.322
 6898TIP3   OH220636   6.344   0.492   0.823
 6898TIP3    H120637   6.427   0.458   0.790
 6898TIP3    H220638   6.313   0.551   0.754
 6899TIP3   OH220639   0.180   4.383   2.149
 6899TIP3    H120640   0.100   4.333   2.134
 6899TIP3    H220641   0.220   4.391   2.062
 6900TIP3   OH220642   0.300   4.884   2.543
 6900TIP3    H120643   0.348   4.824   2.600
 6900TIP3    H220644   0.238   4.829   2.496
 6901TIP3   OH220645   5.128   0.529   2.307
 6901TIP3    H120646   5.195   0.563   2.367
 6901TIP3    H220647   5.050   0.581   2.326
 6902TIP3   OH220648   6.025   3.784   3.082
 6902TIP3    H120649   6.077   3.755   3.007
 6902TIP3    H220650   5.934   3.770   3.056
 6903TIP3   OH220651   4.212   2.735   0.509
 6903TIP3    H120652   4.171   2.666   0.455
 6903TIP3    H220653   4.294   2.754   0.464
 6904TIP3   OH220654   6.884   6.356   4.167
 6904TIP3    H120655   6.942   6.292   4.209
 6904TIP3    H220656   6.854   6.412   4.239
 6905TIP3   OH220657   7.435   4.344   4.599
 6905TIP3    H120658   7.411   4.255   4.624
 6905TIP3    H220659   7.510   4.333   4.541
 6906TIP3   OH220660   1.068   4.323   1.208
 6906TIP3    H120661   1.051   4.305   1.116
 6906TIP3    H220662   1.011   4.263   1.256
 6907TIP3   OH220663   4.705   5.620   2.783
 6907TIP3    H120664   4.796   5.594   2.774
 6907TIP3    H220665   4.675   5.637   2.694
 6908TIP3   OH220666   4.867   1.949   0.150
 6908TIP3    H120667   4.797   1.941   0.085
 6908TIP3    H220668   4.831   1.908   0.228
 6909TIP3   OH220669   7.352   0.138   1.964
 6909TIP3    H120670   7.285   0.094   2.017
 6909TIP3    H220671   7.312   0.221   1.939
 6910TIP3   OH220672   7.608   4.796   3.763
 6910TIP3    H120673   7.643   4.710   3.787
 6910TIP3    H220674   7.679   4.838   3.713
 6911TIP3   OH220675   4.245   6.020   5.545
 6911TIP3    H120676   4.265   6.104   5.504
 6911TIP3    H220677   4.261   5.955   5.477
 6912TIP3   OH220678   6.442   5.804   3.428
 6912TIP3    H120679   6.389   5.800   3.507
 6912TIP3    H220680   6.474   5.894   3.425
 6913TIP3   OH220681   2.345   5.347   1.193
 6913TIP3    H120682   2.363   5.342   1.287
 6913TIP3    H220683   2.383   5.267   1.157
 6914TIP3   OH220684   6.492   0.069   3.274
 6914TIP3    H120685   6.469  -0.021   3.249
 6914TIP3    H220686   6.587   0.072   3.266
 6915TIP3   OH220687   7.741   5.117   4.836
 6915TIP3    H120688   7.682   5.086   4.768
 6915TIP3    H220689   7.684   5.130   4.912
 6916TIP3   OH220690   7.162   5.347   3.041
 6916TIP3    H120691   7.249   5.382   3.026
 6916TIP3    H220692   7.169   5.297   3.123
 6917TIP3   OH220693   6.779   0.452   3.123
 6917TIP3    H120694   6.841   0.498   3.065
 6917TIP3    H220695   6.694   0.485   3.096
 6918TIP3   OH220696   7.138   6.640   3.125
 6918TIP3    H120697   7.193   6.566   3.100
 6918TIP3    H220698   7.114   6.623   3.216
 6919TIP3   OH220699   0.234   6.734   4.990
 6919TIP3    H120700   0.189   6.748   4.907
 6919TIP3    H220701   0.272   6.819   5.011
 6920TIP3   OH220702   7.108   5.915   1.313
 6920TIP3    H120703   7.046   5.846   1.336
 6920TIP3    H220704   7.161   5.877   1.243
 6921TIP3   OH220705   7.391   6.786   0.282
 6921TIP3    H120706   7.404   6.730   0.205
 6921TIP3    H220707   7.447   6.747   0.350
 6922TIP3   OH220708   4.766   2.890   5.987
 6922TIP3    H120709   4.777   2.946   5.910
 6922TIP3    H220710   4.683   2.846   5.973
 6923TIP3   OH220711   1.737   7.487   4.092
 6923TIP3    H120712   1.684   7.483   4.012
 6923TIP3    H220713   1.743   7.580   4.113
 6924TIP3   OH220714   7.518   5.573   0.443
 6924TIP3    H120715   7.601   5.611   0.412
 6924TIP3    H220716   7.524   5.576   0.538
 6925TIP3   OH220717   7.099   6.062   5.900
 6925TIP3    H120718   7.032   6.047   5.833
 6925TIP3    H220719   7.163   5.992   5.886
 6926TIP3   OH220720   8.088   0.779   4.889
 6926TIP3    H120721   8.031   0.749   4.818
 6926TIP3    H220722   8.161   0.822   4.844
 6927TIP3   OH220723   6.066   7.153   4.825
 6927TIP3    H120724   6.088   7.223   4.764
 6927TIP3    H220725   5.974   7.168   4.847
 6928TIP3   OH220726   8.025   5.672   0.417
 6928TIP3    H120727   7.953   5.668   0.355
 6928TIP3    H220728   8.064   5.758   0.402
 6929TIP3   OH220729   6.316   1.261   3.587
 6929TIP3    H120730   6.305   1.195   3.519
 6929TIP3    H220731   6.352   1.214   3.662
 6930TIP3   OH220732   0.218   2.193   1.570
 6930TIP3    H120733   0.268   2.171   1.492
 6930TIP3    H220734   0.280   2.240   1.626
 6931TIP3   OH220735   0.423   4.735   1.108
 6931TIP3    H120736   0.344   4.779   1.077
 6931TIP3    H220737   0.391   4.658   1.155
 6932TIP3   OH220738   3.084   1.803   5.857
 6932TIP3    H120739   3.045   1.838   5.777
 6932TIP3    H220740   3.176   1.788   5.835
 6933TIP3   OH220741   0.287   2.225   0.993
 6933TIP3    H120742   0.299   2.134   0.965
 6933TIP3    H220743   0.354   2.274   0.945
 6934TIP3   OH220744   6.610   4.549   2.642
 6934TIP3    H120745   6.552   4.523   2.713
 6934TIP3    H220746   6.566   4.624   2.601
 6935TIP3   OH220747   2.572   0.364   5.109
 6935TIP3    H120748   2.591   0.329   5.022
 6935TIP3    H220749   2.601   0.455   5.105
 6936TIP3   OH220750   4.920   1.854   3.405
 6936TIP3    H120751   4.879   1.876   3.489
 6936TIP3    H220752   4.847   1.840   3.345
 6937TIP3   OH220753   0.151   2.881   2.429
 6937TIP3    H120754   0.101   2.801   2.447
 6937TIP3    H220755   0.086   2.944   2.400
 6938TIP3   OH220756   1.531   5.159   4.445
 6938TIP3    H120757   1.583   5.239   4.456
 6938TIP3    H220758   1.565   5.120   4.365
 6939TIP3   OH220759   1.877   1.178   5.812
 6939TIP3    H120760   1.942   1.165   5.881
 6939TIP3    H220761   1.850   1.090   5.786
 6940TIP3   OH220762   5.953   7.497   4.531
 6940TIP3    H120763   6.026   7.553   4.502
 6940TIP3    H220764   5.881   7.521   4.473
 6941TIP3   OH220765   0.339   4.712   5.606
 6941TIP3    H120766   0.421   4.705   5.654
 6941TIP3    H220767   0.311   4.803   5.620
 6942TIP3   OH220768   6.569   5.550   1.586
 6942TIP3    H120769   6.475   5.567   1.588
 6942TIP3    H220770   6.591   5.532   1.678
 6943TIP3   OH220771   1.857   5.617   6.641
 6943TIP3    H120772   1.912   5.651   6.571
 6943TIP3    H220773   1.909   5.625   6.720
 6944TIP3   OH220774   7.863   7.184   0.899
 6944TIP3    H120775   7.945   7.234   0.890
 6944TIP3    H220776   7.819   7.225   0.973
 6945TIP3   OH220777   4.096   5.993   5.231
 6945TIP3    H120778   4.131   6.078   5.204
 6945TIP3    H220779   4.079   5.946   5.149
 6946TIP3   OH220780   3.809   3.514   4.819
 6946TIP3    H120781   3.817   3.504   4.725
 6946TIP3    H220782   3.885   3.566   4.845
 6947TIP3   OH220783   8.143   6.058   2.539
 6947TIP3    H120784   8.197   6.065   2.461
 6947TIP3    H220785   8.053   6.058   2.506
 6948TIP3   OH220786   0.179   1.388   2.720
 6948TIP3    H120787   0.230   1.422   2.646
 6948TIP3    H220788   0.134   1.465   2.755
 6949TIP3   OH220789   8.263   3.986   0.751
 6949TIP3    H120790   8.300   3.950   0.832
 6949TIP3    H220791   8.254   3.911   0.693
 6950TIP3   OH220792   4.739   0.204   2.963
 6950TIP3    H120793   4.801   0.215   3.035
 6950TIP3    H220794   4.667   0.153   3.001
 6951TIP3   OH220795   6.900   2.177   1.398
 6951TIP3    H120796   6.970   2.138   1.450
 6951TIP3    H220797   6.862   2.104   1.349
 6952TIP3   OH220798   6.497   6.828   6.655
 6952TIP3    H120799   6.514   6.772   6.731
 6952TIP3    H220800   6.414   6.796   6.620
 6953TIP3   OH220801   4.072   3.603   6.403
 6953TIP3    H120802   3.992   3.550   6.412
 6953TIP3    H220803   4.078   3.620   6.309
 6954TIP3   OH220804   4.853   2.491   3.588
 6954TIP3    H120805   4.805   2.438   3.652
 6954TIP3    H220806   4.868   2.433   3.514
 6955TIP3   OH220807   5.514   7.351   3.912
 6955TIP3    H120808   5.519   7.267   3.865
 6955TIP3    H220809   5.444   7.338   3.976
 6956TIP3   OH220810   0.987   6.433   4.003
 6956TIP3    H120811   0.944   6.368   3.948
 6956TIP3    H220812   0.925   6.450   4.073
 6957TIP3   OH220813   7.400   1.166   3.813
 6957TIP3    H120814   7.451   1.247   3.812
 6957TIP3    H220815   7.315   1.189   3.776
 6958TIP3   OH220816   4.972   4.322   3.264
 6958TIP3    H120817   4.995   4.245   3.213
 6958TIP3    H220818   4.884   4.345   3.235
 6959TIP3   OH220819   3.523   1.346   3.462
 6959TIP3    H120820   3.442   1.346   3.412
 6959TIP3    H220821   3.496   1.323   3.552
 6960TIP3   OH220822   5.495   1.361   2.150
 6960TIP3    H120823   5.533   1.412   2.079
 6960TIP3    H220824   5.530   1.273   2.137
 6961TIP3   OH220825   6.288   5.246   0.772
 6961TIP3    H120826   6.368   5.268   0.724
 6961TIP3    H220827   6.284   5.150   0.767
 6962TIP3   OH220828   6.496   1.419   2.789
 6962TIP3    H120829   6.575   1.409   2.842
 6962TIP3    H220830   6.524   1.396   2.700
 6963TIP3   OH220831   1.764   0.118   5.019
 6963TIP3    H120832   1.717   0.201   5.019
 6963TIP3    H220833   1.727   0.069   4.945
 6964TIP3   OH220834   2.148   3.555   3.353
 6964TIP3    H120835   2.069   3.526   3.399
 6964TIP3    H220836   2.193   3.474   3.329
 6965TIP3   OH220837   5.091   0.759   6.177
 6965TIP3    H120838   5.131   0.843   6.199
 6965TIP3    H220839   5.019   0.781   6.119
 6966TIP3   OH220840   2.917   0.299   0.800
 6966TIP3    H120841   2.832   0.295   0.757
 6966TIP3    H220842   2.947   0.389   0.785
 6967TIP3   OH220843   7.139   2.441   0.588
 6967TIP3    H120844   7.121   2.535   0.588
 6967TIP3    H220845   7.221   2.433   0.638
 6968TIP3   OH220846   4.618   6.791   6.423
 6968TIP3    H120847   4.544   6.768   6.367
 6968TIP3    H220848   4.670   6.710   6.427
 6969TIP3   OH220849   2.505   2.252   1.306
 6969TIP3    H120850   2.541   2.265   1.394
 6969TIP3    H220851   2.521   2.334   1.261
 6970TIP3   OH220852   8.012   7.753   1.594
 6970TIP3    H120853   8.081   7.779   1.533
 6970TIP3    H220854   8.058   7.732   1.675
 6971TIP3   OH220855   3.982   3.116   3.130
 6971TIP3    H120856   3.984   3.116   3.225
 6971TIP3    H220857   3.890   3.102   3.107
 6972TIP3   OH220858   2.729   0.588   6.337
 6972TIP3    H120859   2.792   0.630   6.278
 6972TIP3    H220860   2.765   0.501   6.352
 6973TIP3   OH220861   6.977   5.675   3.730
 6973TIP3    H120862   6.940   5.730   3.799
 6973TIP3    H220863   7.070   5.698   3.728
 6974TIP3   OH220864   0.747   5.558   4.449
 6974TIP3    H120865   0.753   5.466   4.473
 6974TIP3    H220866   0.660   5.585   4.480
 6975TIP3   OH220867   0.598   7.410   3.139
 6975TIP3    H120868   0.612   7.400   3.233
 6975TIP3    H220869   0.596   7.321   3.105
 6976TIP3   OH220870   1.691   7.232   4.187
 6976TIP3    H120871   1.683   7.280   4.105
 6976TIP3    H220872   1.631   7.277   4.247
 6977TIP3   OH220873   6.315   7.484   3.486
 6977TIP3    H120874   6.290   7.572   3.514
 6977TIP3    H220875   6.394   7.497   3.433
 6978TIP3   OH220876   2.625   2.133   3.355
 6978TIP3    H120877   2.543   2.098   3.389
 6978TIP3    H220878   2.657   2.066   3.294
 6979TIP3   OH220879   6.499   0.150   1.123
 6979TIP3    H120880   6.461   0.177   1.039
 6979TIP3    H220881   6.429   0.165   1.186
 6980TIP3   OH220882   3.811   7.636   4.734
 6980TIP3    H120883   3.757   7.610   4.808
 6980TIP3    H220884   3.901   7.620   4.763
 6981TIP3   OH220885   2.988   1.032   2.037
 6981TIP3    H120886   3.014   1.089   2.109
 6981TIP3    H220887   2.971   1.092   1.964
 6982TIP3   OH220888   4.453   5.729   5.602
 6982TIP3    H120889   4.544   5.708   5.624
 6982TIP3    H220890   4.427   5.793   5.669
 6983TIP3   OH220891   5.335   5.598   6.172
 6983TIP3    H120892   5.377   5.597   6.258
 6983TIP3    H220893   5.254   5.647   6.186
 6984TIP3   OH220894   5.871   6.304   1.948
 6984TIP3    H120895   5.864   6.340   1.859
 6984TIP3    H220896   5.959   6.266   1.951
 6985TIP3   OH220897   1.029   5.121   0.227
 6985TIP3    H120898   1.086   5.129   0.151
 6985TIP3    H220899   1.080   5.073   0.292
 6986TIP3   OH220900   8.171   0.976   2.496
 6986TIP3    H120901   8.132   0.935   2.573
 6986TIP3    H220902   8.184   1.067   2.521
 6987TIP3   OH220903   5.012   7.238   1.797
 6987TIP3    H120904   5.099   7.202   1.779
 6987TIP3    H220905   5.018   7.330   1.772
 6988TIP3   OH220906   4.735   2.431   4.411
 6988TIP3    H120907   4.792   2.446   4.486
 6988TIP3    H220908   4.728   2.335   4.406
 6989TIP3   OH220909   1.959   0.616   4.565
 6989TIP3    H120910   1.875   0.586   4.601
 6989TIP3    H220911   2.020   0.545   4.581
 6990TIP3   OH220912   0.021   1.823   4.657
 6990TIP3    H120913  -0.008   1.766   4.586
 6990TIP3    H220914   0.116   1.828   4.647
 6991TIP3   OH220915   7.023   3.025   4.536
 6991TIP3    H120916   7.027   3.028   4.441
 6991TIP3    H220917   7.008   2.933   4.557
 6992TIP3   OH220918   5.116   7.626   5.406
 6992TIP3    H120919   5.069   7.582   5.334
 6992TIP3    H220920   5.172   7.557   5.443
 6993TIP3   OH220921   7.133   1.162   2.743
 6993TIP3    H120922   7.052   1.203   2.715
 6993TIP3    H220923   7.156   1.208   2.824
 6994TIP3   OH220924   4.143   1.288   4.537
 6994TIP3    H120925   4.049   1.296   4.525
 6994TIP3    H220926   4.154   1.269   4.631
 6995TIP3   OH220927   5.957   1.146   2.228
 6995TIP3    H120928   5.927   1.086   2.297
 6995TIP3    H220929   5.911   1.116   2.149
 6996TIP3   OH220930   0.450   5.974   2.880
 6996TIP3    H120931   0.449   6.034   2.806
 6996TIP3    H220932   0.432   6.029   2.956
 6997TIP3   OH220933   2.031   5.929   6.035
 6997TIP3    H120934   2.041   5.917   5.941
 6997TIP3    H220935   2.101   5.989   6.060
 6998TIP3   OH220936   4.798   1.548   4.169
 6998TIP3    H120937   4.747   1.472   4.143
 6998TIP3    H220938   4.808   1.599   4.088
 6999TIP3   OH220939   5.530   3.432   2.323
 6999TIP3    H120940   5.448   3.402   2.363
 6999TIP3    H220941   5.594   3.425   2.394
 7000TIP3   OH220942   1.356   3.505   4.428
 7000TIP3    H120943   1.333   3.446   4.355
 7000TIP3    H220944   1.314   3.465   4.504
 7001TIP3   OH220945   5.464   0.788   6.072
 7001TIP3    H120946   5.475   0.860   6.135
 7001TIP3    H220947   5.522   0.719   6.103
 7002TIP3   OH220948   7.173   6.298   2.661
 7002TIP3    H120949   7.219   6.295   2.577
 7002TIP3    H220950   7.086   6.265   2.642
 7003TIP3   OH220951   3.372   1.390   2.730
 7003TIP3    H120952   3.450   1.377   2.784
 7003TIP3    H220953   3.354   1.304   2.692
 7004TIP3   OH220954   2.242   5.070   1.316
 7004TIP3    H120955   2.325   5.022   1.316
 7004TIP3    H220956   2.236   5.108   1.228
 7005TIP3   OH220957   1.785   4.150   3.995
 7005TIP3    H120958   1.785   4.065   4.040
 7005TIP3    H220959   1.868   4.190   4.021
 7006TIP3   OH220960   1.926   4.844   5.146
 7006TIP3    H120961   1.933   4.938   5.135
 7006TIP3    H220962   1.957   4.826   5.234
 7007TIP3   OH220963   1.819   0.307   6.604
 7007TIP3    H120964   1.729   0.332   6.628
 7007TIP3    H220965   1.808   0.244   6.533
 7008TIP3   OH220966   3.714   0.551   0.059
 7008TIP3    H120967   3.628   0.556   0.102
 7008TIP3    H220968   3.768   0.614   0.106
 7009TIP3   OH220969   4.700   2.403   5.168
 7009TIP3    H120970   4.644   2.359   5.232
 7009TIP3    H220971   4.775   2.344   5.157
 7010TIP3   OH220972   3.702   1.635   4.417
 7010TIP3    H120973   3.667   1.553   4.382
 7010TIP3    H220974   3.625   1.684   4.444
 7011TIP3   OH220975   4.667   2.715   2.455
 7011TIP3    H120976   4.757   2.739   2.478
 7011TIP3    H220977   4.670   2.620   2.444
 7012TIP3   OH220978   0.014   5.540   5.774
 7012TIP3    H120979  -0.062   5.547   5.717
 7012TIP3    H220980   0.007   5.452   5.812
 7013TIP3   OH220981   4.785   3.821   2.337
 7013TIP3    H120982   4.797   3.788   2.426
 7013TIP3    H220983   4.810   3.913   2.342
 7014TIP3   OH220984   7.277   5.214   2.364
 7014TIP3    H120985   7.212   5.280   2.338
 7014TIP3    H220986   7.318   5.187   2.282
 7015TIP3   OH220987   4.794   3.977   6.324
 7015TIP3    H120988   4.811   4.070   6.341
 7015TIP3    H220989   4.809   3.967   6.230
 7016TIP3   OH220990   3.736   0.552   1.739
 7016TIP3    H120991   3.816   0.604   1.741
 7016TIP3    H220992   3.677   0.600   1.682
 7017TIP3   OH220993   8.090   6.782   2.320
 7017TIP3    H120994   8.067   6.818   2.235
 7017TIP3    H220995   8.100   6.858   2.377
 7018TIP3   OH220996   0.233   4.749   6.501
 7018TIP3    H120997   0.318   4.711   6.523
 7018TIP3    H220998   0.226   4.826   6.557
 7019TIP3   OH220999   1.748   7.463  -0.003
 7019TIP3    H121000   1.832   7.426   0.026
 7019TIP3    H221001   1.750   7.553   0.028
 7020TIP3   OH221002   7.173   6.889   6.080
 7020TIP3    H121003   7.190   6.821   6.144
 7020TIP3    H221004   7.136   6.843   6.005
 7021TIP3   OH221005   7.910   4.791   1.913
 7021TIP3    H121006   7.820   4.759   1.907
 7021TIP3    H221007   7.953   4.734   1.976
 7022TIP3   OH221008   1.012   0.731   6.076
 7022TIP3    H121009   1.026   0.713   6.169
 7022TIP3    H221010   1.084   0.686   6.032
 7023TIP3   OH221011   4.249   5.073   5.908
 7023TIP3    H121012   4.286   5.159   5.924
 7023TIP3    H221013   4.195   5.084   5.830
 7024TIP3   OH221014   7.180   1.906   0.614
 7024TIP3    H121015   7.117   1.864   0.673
 7024TIP3    H221016   7.136   1.904   0.529
 7025TIP3   OH221017   7.346   4.019   6.279
 7025TIP3    H121018   7.252   4.040   6.275
 7025TIP3    H221019   7.389   4.100   6.252
 7026TIP3   OH221020   6.807   1.642   2.707
 7026TIP3    H121021   6.862   1.713   2.674
 7026TIP3    H221022   6.717   1.669   2.685
 7027TIP3   OH221023   3.177   5.541   6.372
 7027TIP3    H121024   3.270   5.537   6.351
 7027TIP3    H221025   3.169   5.618   6.428
 7028TIP3   OH221026   5.235   4.438   4.887
 7028TIP3    H121027   5.291   4.486   4.827
 7028TIP3    H221028   5.221   4.497   4.961
 7029TIP3   OH221029   5.624   1.573   3.867
 7029TIP3    H121030   5.678   1.584   3.945
 7029TIP3    H221031   5.667   1.503   3.818
 7030TIP3   OH221032   1.237   2.985   2.250
 7030TIP3    H121033   1.284   3.058   2.289
 7030TIP3    H221034   1.304   2.938   2.199
 7031TIP3   OH221035   5.658   5.778   0.079
 7031TIP3    H121036   5.570   5.740   0.083
 7031TIP3    H221037   5.675   5.791  -0.014
 7032TIP3   OH221038   4.669   7.682   2.100
 7032TIP3    H121039   4.619   7.734   2.163
 7032TIP3    H221040   4.729   7.745   2.060
 7033TIP3   OH221041   4.740   4.070   3.598
 7033TIP3    H121042   4.677   4.088   3.528
 7033TIP3    H221043   4.826   4.079   3.556
 7034TIP3   OH221044   7.817   6.815   6.042
 7034TIP3    H121045   7.897   6.851   6.003
 7034TIP3    H221046   7.754   6.813   5.970
 7035TIP3   OH221047   1.849   4.934   0.784
 7035TIP3    H121048   1.890   5.015   0.814
 7035TIP3    H221049   1.805   4.958   0.703
 7036TIP3   OH221050   6.201   5.847   1.198
 7036TIP3    H121051   6.169   5.915   1.138
 7036TIP3    H221052   6.172   5.765   1.159
 7037TIP3   OH221053   7.600   2.774   2.745
 7037TIP3    H121054   7.657   2.758   2.670
 7037TIP3    H221055   7.659   2.801   2.815
 7038TIP3   OH221056   3.494   1.740   0.171
 7038TIP3    H121057   3.408   1.702   0.157
 7038TIP3    H221058   3.528   1.695   0.248
 7039TIP3   OH221059   3.718   6.484   1.797
 7039TIP3    H121060   3.736   6.396   1.766
 7039TIP3    H221061   3.685   6.472   1.886
 7040TIP3   OH221062   7.531   6.307   5.683
 7040TIP3    H121063   7.543   6.317   5.778
 7040TIP3    H221064   7.620   6.308   5.648
 7041TIP3   OH221065   2.651   6.148   0.837
 7041TIP3    H121066   2.618   6.206   0.905
 7041TIP3    H221067   2.654   6.202   0.758
 7042TIP3   OH221068   5.150   4.214   0.094
 7042TIP3    H121069   5.208   4.242   0.165
 7042TIP3    H221070   5.095   4.290   0.076
 7043TIP3   OH221071   3.119   5.709   0.275
 7043TIP3    H121072   3.136   5.636   0.215
 7043TIP3    H221073   3.113   5.786   0.218
 7044TIP3   OH221074   0.571   5.986   5.635
 7044TIP3    H121075   0.666   5.981   5.622
 7044TIP3    H221076   0.539   5.899   5.610
 7045TIP3   OH221077   8.213   4.213   5.588
 7045TIP3    H121078   8.263   4.283   5.547
 7045TIP3    H221079   8.187   4.248   5.673
 7046TIP3   OH221080   1.401   1.752   4.442
 7046TIP3    H121081   1.386   1.793   4.527
 7046TIP3    H221082   1.472   1.690   4.457
 7047TIP3   OH221083   6.040   3.495   0.239
 7047TIP3    H121084   6.120   3.469   0.284
 7047TIP3    H221085   6.066   3.509   0.148
 7048TIP3   OH221086   0.936   7.140   5.739
 7048TIP3    H121087   0.950   7.081   5.665
 7048TIP3    H221088   0.960   7.227   5.706
 7049TIP3   OH221089   4.459   7.062   2.821
 7049TIP3    H121090   4.552   7.049   2.842
 7049TIP3    H221091   4.457   7.066   2.725
 7050TIP3   OH221092   2.288   7.074   0.166
 7050TIP3    H121093   2.254   7.040   0.084
 7050TIP3    H221094   2.238   7.029   0.234
 7051TIP3   OH221095   0.401   7.096   3.887
 7051TIP3    H121096   0.450   7.160   3.938
 7051TIP3    H221097   0.310   7.114   3.908
 7052TIP3   OH221098   0.704   0.228   2.114
 7052TIP3    H121099   0.656   0.306   2.087
 7052TIP3    H221100   0.678   0.160   2.052
 7053TIP3   OH221101   1.522   4.919   1.056
 7053TIP3    H121102   1.585   4.975   1.011
 7053TIP3    H221103   1.437   4.958   1.038
 7054TIP3   OH221104   2.472   0.775   2.239
 7054TIP3    H121105   2.492   0.855   2.287
 7054TIP3    H221106   2.555   0.752   2.196
 7055TIP3   OH221107   5.812   5.515   1.658
 7055TIP3    H121108   5.743   5.575   1.687
 7055TIP3    H221109   5.771   5.429   1.663
 7056TIP3   OH221110   7.441   1.807   0.482
 7056TIP3    H121111   7.395   1.816   0.565
 7056TIP3    H221112   7.473   1.895   0.462
 7057TIP3   OH221113   1.350   5.533   4.424
 7057TIP3    H121114   1.342   5.440   4.449
 7057TIP3    H221115   1.343   5.532   4.329
 7058TIP3   OH221116   7.757   4.721   4.203
 7058TIP3    H121117   7.830   4.730   4.264
 7058TIP3    H221118   7.682   4.699   4.258
 7059TIP3   OH221119   0.579   6.583   4.053
 7059TIP3    H121120   0.602   6.551   3.965
 7059TIP3    H221121   0.659   6.569   4.104
 7060TIP3   OH221122   2.852   2.199   5.901
 7060TIP3    H121123   2.847   2.122   5.957
 7060TIP3    H221124   2.838   2.273   5.961
 7061TIP3   OH221125   6.018   2.544   0.086
 7061TIP3    H121126   6.001   2.529  -0.007
 7061TIP3    H221127   6.023   2.456   0.124
 7062TIP3   OH221128   2.852   4.130   2.823
 7062TIP3    H121129   2.772   4.182   2.819
 7062TIP3    H221130   2.902   4.159   2.746
 7063TIP3   OH221131   5.661   0.102   5.640
 7063TIP3    H121132   5.679   0.008   5.643
 7063TIP3    H221133   5.697   0.136   5.721
 7064TIP3   OH221134   0.404   1.534   3.025
 7064TIP3    H121135   0.455   1.508   2.949
 7064TIP3    H221136   0.378   1.624   3.007
 7065TIP3   OH221137   3.593   2.339   3.447
 7065TIP3    H121138   3.512   2.308   3.407
 7065TIP3    H221139   3.565   2.408   3.508
 7066TIP3   OH221140   0.403   3.911   5.838
 7066TIP3    H121141   0.367   3.828   5.806
 7066TIP3    H221142   0.343   3.936   5.909
 7067TIP3   OH221143   0.538   6.237   4.851
 7067TIP3    H121144   0.502   6.152   4.876
 7067TIP3    H221145   0.462   6.293   4.839
 7068TIP3   OH221146   3.610   4.361   6.407
 7068TIP3    H121147   3.560   4.417   6.467
 7068TIP3    H221148   3.622   4.414   6.328
 7069TIP3   OH221149   6.551   7.220   6.642
 7069TIP3    H121150   6.563   7.264   6.726
 7069TIP3    H221151   6.589   7.279   6.578
 7070TIP3   OH221152   1.732   5.541   1.103
 7070TIP3    H121153   1.685   5.598   1.164
 7070TIP3    H221154   1.663   5.495   1.055
 7071TIP3   OH221155   8.168   4.500   0.444
 7071TIP3    H121156   8.206   4.415   0.421
 7071TIP3    H221157   8.075   4.491   0.423
 7072TIP3   OH221158   5.437   5.039   5.300
 7072TIP3    H121159   5.426   5.087   5.217
 7072TIP3    H221160   5.529   5.049   5.322
 7073TIP3   OH221161   3.022   6.913   0.844
 7073TIP3    H121162   3.041   6.991   0.896
 7073TIP3    H221163   3.063   6.930   0.759
 7074TIP3   OH221164   6.617   7.633   4.280
 7074TIP3    H121165   6.658   7.613   4.364
 7074TIP3    H221166   6.674   7.698   4.240
 7075TIP3   OH221167   3.996   6.290   5.652
 7075TIP3    H121168   3.973   6.233   5.579
 7075TIP3    H221169   3.917   6.295   5.705
 7076TIP3   OH221170   4.618   3.214   2.766
 7076TIP3    H121171   4.681   3.189   2.834
 7076TIP3    H221172   4.541   3.160   2.783
 7077TIP3   OH221173   2.002   4.722   1.151
 7077TIP3    H121174   2.070   4.665   1.114
 7077TIP3    H221175   1.920   4.690   1.113
 7078TIP3   OH221176   7.346   4.221   4.172
 7078TIP3    H121177   7.301   4.236   4.089
 7078TIP3    H221178   7.288   4.162   4.220
 7079TIP3   OH221179   1.612   0.482   4.426
 7079TIP3    H121180   1.540   0.420   4.441
 7079TIP3    H221181   1.643   0.504   4.513
 7080TIP3   OH221182   4.154   2.916   3.918
 7080TIP3    H121183   4.177   2.856   3.847
 7080TIP3    H221184   4.109   2.861   3.982
 7081TIP3   OH221185   3.831   1.639   2.393
 7081TIP3    H121186   3.757   1.611   2.446
 7081TIP3    H221187   3.904   1.583   2.422
 7082TIP3   OH221188   7.583   0.906   0.375
 7082TIP3    H121189   7.638   0.946   0.442
 7082TIP3    H221190   7.642   0.891   0.301
 7083TIP3   OH221191   1.901   2.526   4.342
 7083TIP3    H121192   1.913   2.603   4.397
 7083TIP3    H221193   1.986   2.513   4.299
 7084TIP3   OH221194   2.873   2.188   1.166
 7084TIP3    H121195   2.800   2.158   1.219
 7084TIP3    H221196   2.949   2.139   1.199
 7085TIP3   OH221197   7.815   4.590   4.583
 7085TIP3    H121198   7.721   4.601   4.578
 7085TIP3    H221199   7.849   4.679   4.592
 7086TIP3   OH221200   6.224   7.083   3.191
 7086TIP3    H121201   6.296   7.083   3.253
 7086TIP3    H221202   6.155   7.133   3.233
 7087TIP3   OH221203   8.038   3.818   3.377
 7087TIP3    H121204   7.954   3.775   3.364
 7087TIP3    H221205   8.026   3.905   3.339
 7088TIP3   OH221206   5.913   3.717   6.557
 7088TIP3    H121207   5.907   3.758   6.471
 7088TIP3    H221208   5.830   3.740   6.600
 7089TIP3   OH221209   2.602   0.007   4.241
 7089TIP3    H121210   2.674  -0.018   4.184
 7089TIP3    H221211   2.639   0.004   4.330
 7090TIP3   OH221212   5.380   7.398   0.389
 7090TIP3    H121213   5.345   7.400   0.299
 7090TIP3    H221214   5.457   7.455   0.386
 7091TIP3   OH221215   1.759   2.105   2.117
 7091TIP3    H121216   1.768   2.161   2.039
 7091TIP3    H221217   1.768   2.016   2.083
 7092TIP3   OH221218   0.205   2.837   2.714
 7092TIP3    H121219   0.196   2.850   2.620
 7092TIP3    H221220   0.269   2.767   2.723
 7093TIP3   OH221221   4.860   0.133   3.641
 7093TIP3    H121222   4.944   0.088   3.627
 7093TIP3    H221223   4.826   0.097   3.722
 7094TIP3   OH221224   0.733   5.737   6.461
 7094TIP3    H121225   0.778   5.816   6.490
 7094TIP3    H221226   0.679   5.711   6.535
 7095TIP3   OH221227   4.879   7.332   0.287
 7095TIP3    H121228   4.919   7.411   0.322
 7095TIP3    H221229   4.818   7.303   0.355
 7096TIP3   OH221230   1.425   1.067   2.471
 7096TIP3    H121231   1.476   1.132   2.422
 7096TIP3    H221232   1.465   1.064   2.557
 7097TIP3   OH221233   5.373   1.387   0.794
 7097TIP3    H121234   5.370   1.425   0.882
 7097TIP3    H221235   5.291   1.339   0.786
 7098TIP3   OH221236   5.099   0.246   4.590
 7098TIP3    H121237   5.027   0.306   4.609
 7098TIP3    H221238   5.120   0.206   4.674
 7099TIP3   OH221239   4.472   0.467   6.090
 7099TIP3    H121240   4.511   0.381   6.076
 7099TIP3    H221241   4.416   0.456   6.168
 7100TIP3   OH221242   0.858   0.057   1.006
 7100TIP3    H121243   0.784   0.024   1.056
 7100TIP3    H221244   0.821   0.126   0.950
 7101TIP3   OH221245   3.312   7.723   0.336
 7101TIP3    H121246   3.293   7.799   0.281
 7101TIP3    H221247   3.260   7.737   0.415
 7102TIP3   OH221248   0.410   2.529   2.117
 7102TIP3    H121249   0.320   2.505   2.141
 7102TIP3    H221250   0.415   2.513   2.023
 7103TIP3   OH221251   1.590   4.420   5.064
 7103TIP3    H121252   1.671   4.469   5.051
 7103TIP3    H221253   1.617   4.341   5.110
 7104TIP3   OH221254   0.120   3.740   0.228
 7104TIP3    H121255   0.198   3.790   0.253
 7104TIP3    H221256   0.087   3.784   0.151
 7105TIP3   OH221257   8.061   2.996   2.278
 7105TIP3    H121258   7.978   2.992   2.230
 7105TIP3    H221259   8.057   3.080   2.325
 7106TIP3   OH221260   6.430   1.469   5.185
 7106TIP3    H121261   6.396   1.382   5.167
 7106TIP3    H221262   6.352   1.520   5.209
 7107TIP3   OH221263   4.500   4.991   4.854
 7107TIP3    H121264   4.567   4.984   4.922
 7107TIP3    H221265   4.430   5.043   4.895
 7108TIP3   OH221266   7.706   4.807   2.607
 7108TIP3    H121267   7.642   4.777   2.671
 7108TIP3    H221268   7.719   4.899   2.628
 7109TIP3   OH221269   2.698   1.563   5.390
 7109TIP3    H121270   2.657   1.497   5.334
 7109TIP3    H221271   2.731   1.629   5.329
 7110TIP3   OH221272   1.978   5.040   6.426
 7110TIP3    H121273   2.031   5.094   6.484
 7110TIP3    H221274   1.888   5.071   6.440
 7111TIP3   OH221275   1.185   7.609   0.097
 7111TIP3    H121276   1.269   7.653   0.082
 7111TIP3    H221277   1.148   7.597   0.010
 7112TIP3   OH221278   3.539   2.160   4.705
 7112TIP3    H121279   3.615   2.102   4.695
 7112TIP3    H221280   3.519   2.157   4.799
 7113TIP3   OH221281   4.560   4.556   1.006
 7113TIP3    H121282   4.517   4.516   0.929
 7113TIP3    H221283   4.502   4.533   1.079
 7114TIP3   OH221284   3.781   0.041   1.217
 7114TIP3    H121285   3.690   0.071   1.222
 7114TIP3    H221286   3.788   0.002   1.130
 7115TIP3   OH221287   6.105   2.218   1.651
 7115TIP3    H121288   6.137   2.155   1.586
 7115TIP3    H221289   6.108   2.302   1.606
 7116TIP3   OH221290   1.340   6.465   6.382
 7116TIP3    H121291   1.344   6.371   6.400
 7116TIP3    H221292   1.389   6.477   6.301
 7117TIP3   OH221293   4.159   3.136   2.229
 7117TIP3    H121294   4.174   3.165   2.139
 7117TIP3    H221295   4.238   3.086   2.251
 7118TIP3   OH221296   6.880   1.448   4.142
 7118TIP3    H121297   6.943   1.429   4.072
 7118TIP3    H221298   6.823   1.371   4.144
 7119TIP3   OH221299   2.634   5.584   1.177
 7119TIP3    H121300   2.553   5.576   1.126
 7119TIP3    H221301   2.612   5.643   1.248
 7120TIP3   OH221302   1.826   4.831   3.857
 7120TIP3    H121303   1.861   4.746   3.886
 7120TIP3    H221304   1.737   4.812   3.830
 7121TIP3   OH221305   5.038   4.232   2.187
 7121TIP3    H121306   5.072   4.309   2.141
 7121TIP3    H221307   5.113   4.196   2.233
 7122TIP3   OH221308   1.303   7.651   0.719
 7122TIP3    H121309   1.355   7.570   0.719
 7122TIP3    H221310   1.288   7.669   0.811
 7123TIP3   OH221311   5.629   3.700   2.488
 7123TIP3    H121312   5.634   3.790   2.520
 7123TIP3    H221313   5.699   3.654   2.535
 7124TIP3   OH221314   6.181   2.119   1.908
 7124TIP3    H121315   6.253   2.172   1.943
 7124TIP3    H221316   6.172   2.148   1.818
 7125TIP3   OH221317   4.343   5.023   5.501
 7125TIP3    H121318   4.292   5.026   5.582
 7125TIP3    H221319   4.434   5.032   5.530
 7126TIP3   OH221320   1.697   7.174   4.531
 7126TIP3    H121321   1.644   7.220   4.465
 7126TIP3    H221322   1.716   7.240   4.597
 7127TIP3   OH221323   3.619   5.054   2.472
 7127TIP3    H121324   3.685   5.063   2.403
 7127TIP3    H221325   3.669   5.029   2.549
 7128TIP3   OH221326   4.744   5.882   5.699
 7128TIP3    H121327   4.826   5.860   5.654
 7128TIP3    H221328   4.736   5.977   5.688
 7129TIP3   OH221329   5.426   0.601   3.833
 7129TIP3    H121330   5.341   0.558   3.820
 7129TIP3    H221331   5.418   0.683   3.784
 7130TIP3   OH221332   6.515   4.414   1.923
 7130TIP3    H121333   6.429   4.384   1.895
 7130TIP3    H221334   6.547   4.345   1.982
 7131TIP3   OH221335   2.938   4.674   2.945
 7131TIP3    H121336   2.870   4.608   2.931
 7131TIP3    H221337   2.889   4.755   2.961
 7132TIP3   OH221338   4.467   3.666   0.884
 7132TIP3    H121339   4.393   3.657   0.824
 7132TIP3    H221340   4.544   3.654   0.828
 7133TIP3   OH221341   7.679   3.154   3.339
 7133TIP3    H121342   7.627   3.153   3.258
 7133TIP3    H221343   7.767   3.129   3.311
 7134TIP3   OH221344   6.806   0.952   2.579
 7134TIP3    H121345   6.869   0.949   2.506
 7134TIP3    H221346   6.792   0.861   2.603
 7135TIP3   OH221347   3.056   1.064   2.451
 7135TIP3    H121348   3.140   1.048   2.408
 7135TIP3    H221349   3.078   1.114   2.530
 7136TIP3   OH221350   0.071   3.654   4.468
 7136TIP3    H121351   0.154   3.623   4.433
 7136TIP3    H221352   0.095   3.703   4.547
 7137TIP3   OH221353   6.922   4.177   4.072
 7137TIP3    H121354   6.985   4.192   4.142
 7137TIP3    H221355   6.966   4.118   4.012
 7138TIP3   OH221356   7.135   4.086   5.539
 7138TIP3    H121357   7.206   4.033   5.577
 7138TIP3    H221358   7.174   4.123   5.460
 7139TIP3   OH221359   7.919   4.624   3.429
 7139TIP3    H121360   7.966   4.559   3.481
 7139TIP3    H221361   7.987   4.685   3.400
 7140TIP3   OH221362   4.668   4.721   3.185
 7140TIP3    H121363   4.657   4.655   3.254
 7140TIP3    H221364   4.649   4.804   3.229
 7141TIP3   OH221365   6.786   4.964   5.610
 7141TIP3    H121366   6.854   5.030   5.594
 7141TIP3    H221367   6.710   4.996   5.562
 7142TIP3   OH221368   3.901   3.359   1.482
 7142TIP3    H121369   3.846   3.357   1.560
 7142TIP3    H221370   3.990   3.359   1.515
 7143TIP3   OH221371   1.995   1.455   5.196
 7143TIP3    H121372   1.963   1.429   5.282
 7143TIP3    H221373   1.930   1.422   5.135
 7144TIP3   OH221374   2.371   5.915   4.378
 7144TIP3    H121375   2.379   5.981   4.309
 7144TIP3    H221376   2.371   5.966   4.459
 7145TIP3   OH221377   5.744   5.030   2.829
 7145TIP3    H121378   5.799   5.007   2.755
 7145TIP3    H221379   5.804   5.040   2.903
 7146TIP3   OH221380   1.797   5.819   1.488
 7146TIP3    H121381   1.760   5.756   1.550
 7146TIP3    H221382   1.830   5.890   1.543
 7147TIP3   OH221383   2.334   4.092   4.196
 7147TIP3    H121384   2.320   4.065   4.105
 7147TIP3    H221385   2.267   4.159   4.211
 7148TIP3   OH221386   1.198   0.118   2.364
 7148TIP3    H121387   1.254   0.165   2.303
 7148TIP3    H221388   1.133   0.183   2.392
 7149TIP3   OH221389   6.098   2.949   2.190
 7149TIP3    H121390   6.133   3.030   2.154
 7149TIP3    H221391   6.004   2.952   2.169
 7150TIP3   OH221392   2.545   1.416   5.230
 7150TIP3    H121393   2.608   1.398   5.161
 7150TIP3    H221394   2.492   1.488   5.197
 7151TIP3   OH221395   0.936   1.892   6.632
 7151TIP3    H121396   0.853   1.886   6.678
 7151TIP3    H221397   0.926   1.834   6.556
 7152TIP3   OH221398   4.769   6.681   2.746
 7152TIP3    H121399   4.709   6.607   2.742
 7152TIP3    H221400   4.820   6.666   2.826
 7153TIP3   OH221401   6.458   6.321   4.309
 7153TIP3    H121402   6.468   6.238   4.262
 7153TIP3    H221403   6.441   6.296   4.400
 7154TIP3   OH221404   8.244   5.370   4.148
 7154TIP3    H121405   8.332   5.334   4.141
 7154TIP3    H221406   8.220   5.358   4.240
 7155TIP3   OH221407   3.978   7.549   3.411
 7155TIP3    H121408   4.010   7.508   3.491
 7155TIP3    H221409   3.954   7.476   3.354
 7156TIP3   OH221410   3.486   0.126   2.937
 7156TIP3    H121411   3.419   0.115   2.868
 7156TIP3    H221412   3.558   0.171   2.893
 7157TIP3   OH221413   1.595   5.640   1.598
 7157TIP3    H121414   1.507   5.655   1.564
 7157TIP3    H221415   1.622   5.556   1.561
 7158TIP3   OH221416   4.829   1.961   4.932
 7158TIP3    H121417   4.800   1.973   4.842
 7158TIP3    H221418   4.785   1.881   4.962
 7159TIP3   OH221419   6.053   5.037   1.586
 7159TIP3    H121420   6.044   5.010   1.495
 7159TIP3    H221421   5.974   5.004   1.629
 7160TIP3   OH221422   1.930   3.389   6.070
 7160TIP3    H121423   1.858   3.444   6.038
 7160TIP3    H221424   2.004   3.450   6.080
 7161TIP3   OH221425   6.429   2.402   5.757
 7161TIP3    H121426   6.381   2.448   5.826
 7161TIP3    H221427   6.456   2.472   5.697
 7162TIP3   OH221428   2.392   1.604   5.593
 7162TIP3    H121429   2.376   1.644   5.507
 7162TIP3    H221430   2.487   1.594   5.597
 7163TIP3   OH221431   2.538   0.011   1.106
 7163TIP3    H121432   2.548   0.097   1.065
 7163TIP3    H221433   2.465   0.022   1.168
 7164TIP3   OH221434   5.852   2.021   2.879
 7164TIP3    H121435   5.800   1.969   2.940
 7164TIP3    H221436   5.852   1.970   2.798
 7165TIP3   OH221437   0.810   2.744   3.198
 7165TIP3    H121438   0.792   2.834   3.170
 7165TIP3    H221439   0.878   2.753   3.265
 7166TIP3   OH221440   1.489   7.760   0.255
 7166TIP3    H121441   1.473   7.701   0.182
 7166TIP3    H221442   1.407   7.760   0.305
 7167TIP3   OH221443   6.228   5.862   3.897
 7167TIP3    H121444   6.318   5.859   3.929
 7167TIP3    H221445   6.216   5.778   3.853
 7168TIP3   OH221446   2.996   5.824   1.558
 7168TIP3    H121447   2.914   5.789   1.591
 7168TIP3    H221448   3.001   5.912   1.594
 7169TIP3   OH221449   4.633   5.579   6.696
 7169TIP3    H121450   4.556   5.523   6.709
 7169TIP3    H221451   4.692   5.553   6.766
 7170TIP3   OH221452   1.928   5.283   5.576
 7170TIP3    H121453   1.834   5.299   5.583
 7170TIP3    H221454   1.968   5.370   5.583
 7171TIP3   OH221455   3.290   4.070   2.129
 7171TIP3    H121456   3.347   4.080   2.053
 7171TIP3    H221457   3.311   3.984   2.165
 7172TIP3   OH221458   7.156  -0.012   4.446
 7172TIP3    H121459   7.092  -0.065   4.495
 7172TIP3    H221460   7.237  -0.019   4.497
 7173TIP3   OH221461   3.432   4.584   1.172
 7173TIP3    H121462   3.355   4.641   1.165
 7173TIP3    H221463   3.502   4.641   1.201
 7174TIP3   OH221464   3.521   2.010   1.690
 7174TIP3    H121465   3.590   2.076   1.694
 7174TIP3    H221466   3.444   2.052   1.729
 7175TIP3   OH221467   5.237   0.821   0.816
 7175TIP3    H121468   5.308   0.803   0.878
 7175TIP3    H221469   5.280   0.862   0.741
 7176TIP3   OH221470   1.876   3.141   0.983
 7176TIP3    H121471   1.866   3.213   1.045
 7176TIP3    H221472   1.941   3.083   1.024
 7177TIP3   OH221473   7.646   3.613   5.749
 7177TIP3    H121474   7.580   3.653   5.692
 7177TIP3    H221475   7.599   3.543   5.794
 7178TIP3   OH221476   7.267   3.012   6.202
 7178TIP3    H121477   7.349   3.032   6.156
 7178TIP3    H221478   7.256   3.085   6.264
 7179TIP3   OH221479   4.429   3.382   1.371
 7179TIP3    H121480   4.410   3.446   1.302
 7179TIP3    H221481   4.525   3.380   1.376
 7180TIP3   OH221482   7.322   2.843   4.465
 7180TIP3    H121483   7.276   2.834   4.549
 7180TIP3    H221484   7.334   2.753   4.434
 7181TIP3   OH221485   1.179   0.259   5.682
 7181TIP3    H121486   1.110   0.298   5.629
 7181TIP3    H221487   1.147   0.266   5.772
 7182TIP3   OH221488   3.687   6.920   6.591
 7182TIP3    H121489   3.751   6.849   6.591
 7182TIP3    H221490   3.740   7.000   6.599
 7183TIP3   OH221491   7.055   0.769   3.399
 7183TIP3    H121492   7.128   0.778   3.337
 7183TIP3    H221493   6.982   0.815   3.357
 7184TIP3   OH221494   1.346   7.196   6.558
 7184TIP3    H121495   1.411   7.193   6.488
 7184TIP3    H221496   1.264   7.171   6.516
 7185TIP3   OH221497   1.862   2.496   2.698
 7185TIP3    H121498   1.895   2.558   2.762
 7185TIP3    H221499   1.781   2.462   2.737
 7186TIP3   OH221500   6.931   1.908   4.612
 7186TIP3    H121501   6.975   1.906   4.527
 7186TIP3    H221502   6.904   1.817   4.627
 7187TIP3   OH221503   0.993   5.782   5.783
 7187TIP3    H121504   1.043   5.817   5.709
 7187TIP3    H221505   0.997   5.687   5.772
 7188TIP3   OH221506   3.722   2.803   3.203
 7188TIP3    H121507   3.685   2.767   3.284
 7188TIP3    H221508   3.647   2.841   3.157
 7189TIP3   OH221509   6.007   4.349   6.242
 7189TIP3    H121510   5.925   4.383   6.206
 7189TIP3    H221511   6.054   4.315   6.166
 7190TIP3   OH221512   5.398   1.080   4.725
 7190TIP3    H121513   5.382   0.991   4.758
 7190TIP3    H221514   5.382   1.073   4.631
 7191TIP3   OH221515   1.455   1.557   6.497
 7191TIP3    H121516   1.483   1.597   6.579
 7191TIP3    H221517   1.467   1.626   6.432
 7192TIP3   OH221518   1.150   1.761   5.423
 7192TIP3    H121519   1.114   1.842   5.387
 7192TIP3    H221520   1.085   1.733   5.487
 7193TIP3   OH221521   3.899   2.692   3.481
 7193TIP3    H121522   3.868   2.772   3.524
 7193TIP3    H221523   3.824   2.664   3.427
 7194TIP3   OH221524   8.120   0.171   0.035
 7194TIP3    H121525   8.147   0.228  -0.037
 7194TIP3    H221526   8.189   0.105   0.040
 7195TIP3   OH221527   3.758   3.050   0.678
 7195TIP3    H121528   3.837   3.088   0.639
 7195TIP3    H221529   3.697   3.123   0.686
 7196TIP3   OH221530   5.432   6.391   0.595
 7196TIP3    H121531   5.454   6.379   0.502
 7196TIP3    H221532   5.419   6.302   0.628
 7197TIP3   OH221533   1.953   7.275   6.418
 7197TIP3    H121534   2.037   7.322   6.416
 7197TIP3    H221535   1.913   7.296   6.334
 7198TIP3   OH221536   1.608   0.636   3.652
 7198TIP3    H121537   1.523   0.666   3.683
 7198TIP3    H221538   1.596   0.542   3.639
 7199TIP3   OH221539   5.128   5.937   1.895
 7199TIP3    H121540   5.211   5.960   1.854
 7199TIP3    H221541   5.061   5.963   1.832
 7200TIP3   OH221542   6.074   6.037   1.712
 7200TIP3    H121543   6.094   5.996   1.627
 7200TIP3    H221544   6.154   6.025   1.763
 7201TIP3   OH221545   2.180   7.497   2.251
 7201TIP3    H121546   2.120   7.425   2.270
 7201TIP3    H221547   2.250   7.456   2.200
 7202TIP3   OH221548   0.846   0.727   0.979
 7202TIP3    H121549   0.823   0.681   1.059
 7202TIP3    H221550   0.818   0.817   0.994
 7203TIP3   OH221551   3.461   2.244   4.102
 7203TIP3    H121552   3.455   2.301   4.179
 7203TIP3    H221553   3.462   2.305   4.028
 7204TIP3   OH221554   2.000   5.500   1.674
 7204TIP3    H121555   2.003   5.412   1.712
 7204TIP3    H221556   1.951   5.488   1.592
 7205TIP3   OH221557   1.077   5.691   1.511
 7205TIP3    H121558   1.077   5.747   1.588
 7205TIP3    H221559   1.115   5.609   1.542
 7206TIP3   OH221560   1.897   4.875   2.505
 7206TIP3    H121561   1.835   4.860   2.434
 7206TIP3    H221562   1.983   4.877   2.462
 7207TIP3   OH221563   8.099   7.601   1.838
 7207TIP3    H121564   8.024   7.543   1.856
 7207TIP3    H221565   8.124   7.635   1.924
 7208TIP3   OH221566   8.065   5.128   3.775
 7208TIP3    H121567   8.094   5.214   3.806
 7208TIP3    H221568   8.001   5.100   3.841
 7209TIP3   OH221569   3.445   4.779   6.282
 7209TIP3    H121570   3.433   4.810   6.372
 7209TIP3    H221571   3.441   4.858   6.229
 7210TIP3   OH221572   2.989   7.480   3.108
 7210TIP3    H121573   2.968   7.463   3.016
 7210TIP3    H221574   3.084   7.467   3.114
 7211TIP3   OH221575   3.454   0.813   4.205
 7211TIP3    H121576   3.542   0.787   4.232
 7211TIP3    H221577   3.466   0.857   4.121
 7212TIP3   OH221578   5.596   6.999   1.173
 7212TIP3    H121579   5.690   6.997   1.189
 7212TIP3    H221580   5.580   7.085   1.134
 7213TIP3   OH221581   1.853   2.861   6.085
 7213TIP3    H121582   1.802   2.941   6.078
 7213TIP3    H221583   1.871   2.852   6.179
 7214TIP3   OH221584   1.944   6.398   0.174
 7214TIP3    H121585   1.962   6.492   0.178
 7214TIP3    H221586   2.030   6.358   0.156
 7215TIP3   OH221587   0.801   4.297   2.829
 7215TIP3    H121588   0.778   4.309   2.921
 7215TIP3    H221589   0.813   4.386   2.796
 7216TIP3   OH221590   4.552   0.768   3.048
 7216TIP3    H121591   4.583   0.678   3.054
 7216TIP3    H221592   4.486   0.766   2.978
 7217TIP3   OH221593   5.353   6.462   6.753
 7217TIP3    H121594   5.301   6.403   6.808
 7217TIP3    H221595   5.389   6.406   6.684
 7218TIP3   OH221596   0.241   6.654   1.872
 7218TIP3    H121597   0.180   6.627   1.940
 7218TIP3    H221598   0.297   6.577   1.857
 7219TIP3   OH221599   4.737   7.691   5.669
 7219TIP3    H121600   4.727   7.597   5.652
 7219TIP3    H221601   4.820   7.714   5.627
 7220TIP3   OH221602   2.093   5.149   6.166
 7220TIP3    H121603   2.049   5.072   6.129
 7220TIP3    H221604   2.091   5.135   6.261
 7221TIP3   OH221605   5.072   5.987   1.266
 7221TIP3    H121606   5.103   5.938   1.190
 7221TIP3    H221607   4.977   5.992   1.254
 7222TIP3   OH221608   1.340   2.809   4.615
 7222TIP3    H121609   1.305   2.777   4.532
 7222TIP3    H221610   1.272   2.788   4.680
 7223TIP3   OH221611   7.962   0.085   2.302
 7223TIP3    H121612   8.032   0.143   2.272
 7223TIP3    H221613   7.889   0.144   2.321
 7224TIP3   OH221614   0.390   7.808   4.379
 7224TIP3    H121615   0.335   7.769   4.446
 7224TIP3    H221616   0.473   7.826   4.423
 7225TIP3   OH221617   2.731   1.549   0.325
 7225TIP3    H121618   2.806   1.494   0.346
 7225TIP3    H221619   2.655   1.490   0.328
 7226TIP3   OH221620   1.822   7.278   3.513
 7226TIP3    H121621   1.857   7.347   3.569
 7226TIP3    H221622   1.817   7.318   3.426
 7227TIP3   OH221623   0.704   5.347   5.844
 7227TIP3    H121624   0.720   5.350   5.749
 7227TIP3    H221625   0.663   5.261   5.858
 7228TIP3   OH221626   4.424   6.175   5.890
 7228TIP3    H121627   4.431   6.205   5.799
 7228TIP3    H221628   4.342   6.213   5.922
 7229TIP3   OH221629   5.181   7.342   6.044
 7229TIP3    H121630   5.186   7.326   6.139
 7229TIP3    H221631   5.122   7.274   6.012
 7230TIP3   OH221632   2.156   4.258   4.515
 7230TIP3    H121633   2.239   4.248   4.561
 7230TIP3    H221634   2.131   4.169   4.490
 7231TIP3   OH221635   6.585   1.702   4.811
 7231TIP3    H121636   6.501   1.659   4.794
 7231TIP3    H221637   6.624   1.651   4.882
 7232TIP3   OH221638   5.711   5.808   3.285
 7232TIP3    H121639   5.682   5.763   3.206
 7232TIP3    H221640   5.635   5.858   3.314
 7233TIP3   OH221641   8.089   4.875   2.399
 7233TIP3    H121642   8.091   4.966   2.428
 7233TIP3    H221643   8.040   4.829   2.467
 7234TIP3   OH221644   4.581   0.227   0.963
 7234TIP3    H121645   4.566   0.172   0.886
 7234TIP3    H221646   4.521   0.191   1.029
 7235TIP3   OH221647   7.625   2.808   4.752
 7235TIP3    H121648   7.679   2.857   4.813
 7235TIP3    H221649   7.544   2.858   4.746
 7236TIP3   OH221650   5.527   6.921   4.053
 7236TIP3    H121651   5.508   6.834   4.087
 7236TIP3    H221652   5.510   6.980   4.127
 7237TIP3   OH221653   6.206   6.674   3.706
 7237TIP3    H121654   6.143   6.687   3.635
 7237TIP3    H221655   6.289   6.704   3.670
 7238TIP3   OH221656   0.442   6.732   0.331
 7238TIP3    H121657   0.482   6.646   0.348
 7238TIP3    H221658   0.363   6.733   0.385
 7239TIP3   OH221659   0.764   2.644   1.102
 7239TIP3    H121660   0.769   2.624   1.196
 7239TIP3    H221661   0.671   2.646   1.083
 7240TIP3   OH221662   6.990   3.732   4.654
 7240TIP3    H121663   7.007   3.804   4.715
 7240TIP3    H221664   6.911   3.758   4.607
 7241TIP3   OH221665   0.012   0.139   1.374
 7241TIP3    H121666  -0.055   0.120   1.310
 7241TIP3    H221667   0.058   0.216   1.339
 7242TIP3   OH221668   6.511   5.659   0.697
 7242TIP3    H121669   6.551   5.650   0.784
 7242TIP3    H221670   6.422   5.625   0.709
 7243TIP3   OH221671   0.854   1.211   5.550
 7243TIP3    H121672   0.886   1.262   5.625
 7243TIP3    H221673   0.903   1.129   5.554
 7244TIP3   OH221674   3.459   0.124   3.524
 7244TIP3    H121675   3.415   0.163   3.599
 7244TIP3    H221676   3.513   0.053   3.561
 7245TIP3   OH221677   4.518   5.360   5.071
 7245TIP3    H121678   4.457   5.319   5.132
 7245TIP3    H221679   4.543   5.442   5.113
 7246TIP3   OH221680   6.443   7.432   6.174
 7246TIP3    H121681   6.501   7.392   6.238
 7246TIP3    H221682   6.361   7.384   6.183
 7247TIP3   OH221683   1.023   4.953   5.408
 7247TIP3    H121684   1.010   5.027   5.467
 7247TIP3    H221685   0.950   4.959   5.345
 7248TIP3   OH221686   1.691   5.694   4.177
 7248TIP3    H121687   1.640   5.617   4.203
 7248TIP3    H221688   1.671   5.759   4.245
 7249TIP3   OH221689   3.985   3.530   3.417
 7249TIP3    H121690   3.915   3.591   3.394
 7249TIP3    H221691   3.985   3.528   3.512
 7250TIP3   OH221692   4.951   4.978   1.254
 7250TIP3    H121693   5.013   4.999   1.324
 7250TIP3    H221694   4.995   4.910   1.203
 7251TIP3   OH221695   1.697   6.401   3.231
 7251TIP3    H121696   1.737   6.455   3.300
 7251TIP3    H221697   1.647   6.335   3.278
 7252TIP3   OH221698   1.065   6.638   5.447
 7252TIP3    H121699   1.019   6.710   5.404
 7252TIP3    H221700   1.124   6.680   5.509
 7253TIP3   OH221701   3.199   0.089   2.377
 7253TIP3    H121702   3.173   0.167   2.327
 7253TIP3    H221703   3.237   0.031   2.312
 7254TIP3   OH221704   0.256   2.215   4.429
 7254TIP3    H121705   0.345   2.227   4.462
 7254TIP3    H221706   0.258   2.254   4.341
 7255TIP3   OH221707   2.963   1.809   4.942
 7255TIP3    H121708   2.948   1.879   5.005
 7255TIP3    H221709   2.887   1.813   4.883
 7256TIP3   OH221710   4.693   4.000   2.822
 7256TIP3    H121711   4.678   3.950   2.902
 7256TIP3    H221712   4.788   3.995   2.808
 7257TIP3   OH221713   3.778   3.981   0.677
 7257TIP3    H121714   3.698   3.985   0.730
 7257TIP3    H221715   3.803   4.072   0.664
 7258TIP3   OH221716   6.121   5.566   4.425
 7258TIP3    H121717   6.198   5.572   4.481
 7258TIP3    H221718   6.153   5.523   4.345
 7259TIP3   OH221719   5.465   1.117   3.677
 7259TIP3    H121720   5.504   1.159   3.754
 7259TIP3    H221721   5.443   1.189   3.618
 7260TIP3   OH221722   3.830   7.507   4.192
 7260TIP3    H121723   3.739   7.506   4.164
 7260TIP3    H221724   3.826   7.497   4.287
 7261TIP3   OH221725   5.535   3.116   3.686
 7261TIP3    H121726   5.515   3.025   3.666
 7261TIP3    H221727   5.458   3.147   3.734
 7262TIP3   OH221728   3.735   4.312   3.970
 7262TIP3    H121729   3.702   4.233   3.928
 7262TIP3    H221730   3.663   4.375   3.965
 7263TIP3   OH221731   5.127   5.547   3.531
 7263TIP3    H121732   5.140   5.608   3.603
 7263TIP3    H221733   5.157   5.463   3.566
 7264TIP3   OH221734   4.898   3.819   3.042
 7264TIP3    H121735   4.961   3.747   3.047
 7264TIP3    H221736   4.824   3.782   2.994
 7265TIP3   OH221737   0.733   4.857   3.744
 7265TIP3    H121738   0.816   4.880   3.702
 7265TIP3    H221739   0.758   4.800   3.816
 7266TIP3   OH221740   0.834   2.341   5.383
 7266TIP3    H121741   0.784   2.415   5.349
 7266TIP3    H221742   0.917   2.345   5.337
 7267TIP3   OH221743   6.554   3.298   1.488
 7267TIP3    H121744   6.647   3.278   1.473
 7267TIP3    H221745   6.552   3.394   1.494
 7268TIP3   OH221746   4.047   5.334   3.115
 7268TIP3    H121747   4.026   5.350   3.207
 7268TIP3    H221748   4.108   5.260   3.117
 7269TIP3   OH221749   5.719   7.526   3.985
 7269TIP3    H121750   5.655   7.477   3.933
 7269TIP3    H221751   5.702   7.617   3.964
 7270TIP3   OH221752   0.680   1.475   5.079
 7270TIP3    H121753   0.651   1.433   4.998
 7270TIP3    H221754   0.649   1.417   5.148
 7271TIP3   OH221755   2.066   0.351   2.078
 7271TIP3    H121756   2.109   0.266   2.072
 7271TIP3    H221757   1.986   0.340   2.027
 7272TIP3   OH221758   5.528   5.090   0.247
 7272TIP3    H121759   5.535   5.094   0.152
 7272TIP3    H221760   5.540   4.997   0.268
 7273TIP3   OH221761   4.059   2.858   6.369
 7273TIP3    H121762   3.969   2.878   6.395
 7273TIP3    H221763   4.053   2.777   6.320
 7274TIP3   OH221764   3.511   3.757   5.975
 7274TIP3    H121765   3.476   3.819   6.039
 7274TIP3    H221766   3.437   3.738   5.917
 7275TIP3   OH221767   1.511   7.732   2.520
 7275TIP3    H121768   1.605   7.727   2.538
 7275TIP3    H221769   1.505   7.775   2.434
 7276TIP3   OH221770   3.564   3.216   4.445
 7276TIP3    H121771   3.599   3.303   4.461
 7276TIP3    H221772   3.633   3.171   4.395
 7277TIP3   OH221773   6.999   0.634   0.374
 7277TIP3    H121774   7.073   0.683   0.338
 7277TIP3    H221775   6.948   0.700   0.421
 7278TIP3   OH221776   1.770   1.965   2.544
 7278TIP3    H121777   1.827   1.924   2.478
 7278TIP3    H221778   1.806   1.936   2.628
 7279TIP3   OH221779   6.335   4.585   6.583
 7279TIP3    H121780   6.419   4.606   6.544
 7279TIP3    H221781   6.309   4.502   6.542
 7280TIP3   OH221782   0.418   5.971   0.042
 7280TIP3    H121783   0.445   6.055   0.005
 7280TIP3    H221784   0.420   5.984   0.136
 7281TIP3   OH221785   0.005   2.225   0.103
 7281TIP3    H121786   0.042   2.153   0.051
 7281TIP3    H221787   0.081   2.276   0.130
 7282TIP3   OH221788   0.790   3.686   4.259
 7282TIP3    H121789   0.871   3.637   4.266
 7282TIP3    H221790   0.733   3.650   4.327
 7283TIP3   OH221791   0.056   3.172   2.451
 7283TIP3    H121792  -0.011   3.240   2.448
 7283TIP3    H221793   0.139   3.220   2.462
 7284TIP3   OH221794   2.455   4.699   6.192
 7284TIP3    H121795   2.539   4.745   6.200
 7284TIP3    H221796   2.419   4.730   6.109
 7285TIP3   OH221797   5.247   4.668   2.670
 7285TIP3    H121798   5.278   4.717   2.594
 7285TIP3    H221799   5.267   4.577   2.649
 7286TIP3   OH221800   6.117   2.291   4.523
 7286TIP3    H121801   6.059   2.333   4.587
 7286TIP3    H221802   6.164   2.363   4.482
 7287TIP3   OH221803   4.916   6.724   6.056
 7287TIP3    H121804   4.850   6.666   6.018
 7287TIP3    H221805   4.938   6.785   5.986
 7288TIP3   OH221806   5.495   7.826   2.774
 7288TIP3    H121807   5.522   7.734   2.767
 7288TIP3    H221808   5.424   7.834   2.710
 7289TIP3   OH221809   6.260   5.424   2.362
 7289TIP3    H121810   6.231   5.507   2.323
 7289TIP3    H221811   6.247   5.359   2.294
 7290TIP3   OH221812   0.785   5.229   0.154
 7290TIP3    H121813   0.720   5.159   0.162
 7290TIP3    H221814   0.869   5.186   0.171
 7291TIP3   OH221815   7.383   6.397   3.816
 7291TIP3    H121816   7.379   6.487   3.782
 7291TIP3    H221817   7.303   6.387   3.867
 7292TIP3   OH221818   7.939   4.939   3.397
 7292TIP3    H121819   7.967   5.028   3.378
 7292TIP3    H221820   8.001   4.884   3.349
 7293TIP3   OH221821   5.135   3.239   5.034
 7293TIP3    H121822   5.175   3.292   4.965
 7293TIP3    H221823   5.094   3.167   4.986
 7294TIP3   OH221824   4.112   4.981   0.910
 7294TIP3    H121825   4.120   5.061   0.962
 7294TIP3    H221826   4.050   5.003   0.841
 7295TIP3   OH221827   5.859   0.134   6.654
 7295TIP3    H121828   5.807   0.099   6.727
 7295TIP3    H221829   5.796   0.150   6.584
 7296TIP3   OH221830   6.448   2.589   5.006
 7296TIP3    H121831   6.451   2.574   4.911
 7296TIP3    H221832   6.485   2.510   5.044
 7297TIP3   OH221833   5.940   5.312   5.487
 7297TIP3    H121834   5.954   5.395   5.534
 7297TIP3    H221835   5.849   5.289   5.506
 7298TIP3   OH221836   6.363   6.605   2.890
 7298TIP3    H121837   6.346   6.556   2.809
 7298TIP3    H221838   6.351   6.540   2.959
 7299TIP3   OH221839   0.897   3.564   2.846
 7299TIP3    H121840   0.844   3.554   2.925
 7299TIP3    H221841   0.922   3.657   2.847
 7300TIP3   OH221842   4.457   3.700   5.828
 7300TIP3    H121843   4.402   3.760   5.777
 7300TIP3    H221844   4.407   3.617   5.828
 7301TIP3   OH221845   1.277   2.416   4.431
 7301TIP3    H121846   1.260   2.369   4.349
 7301TIP3    H221847   1.246   2.505   4.414
 7302TIP3   OH221848   1.868   4.872   1.340
 7302TIP3    H121849   1.939   4.857   1.277
 7302TIP3    H221850   1.795   4.820   1.306
 7303TIP3   OH221851   6.576   5.486   4.796
 7303TIP3    H121852   6.548   5.417   4.737
 7303TIP3    H221853   6.507   5.489   4.863
 7304TIP3   OH221854   0.008   4.113   3.560
 7304TIP3    H121855   0.019   4.201   3.597
 7304TIP3    H221856  -0.007   4.056   3.636
 7305TIP3   OH221857   1.785   3.656   6.584
 7305TIP3    H121858   1.699   3.662   6.542
 7305TIP3    H221859   1.766   3.657   6.678
 7306TIP3   OH221860   5.958   3.049   5.000
 7306TIP3    H121861   5.896   3.016   4.936
 7306TIP3    H221862   6.040   3.059   4.952
 7307TIP3   OH221863   6.472   6.055   2.323
 7307TIP3    H121864   6.477   6.137   2.273
 7307TIP3    H221865   6.563   6.030   2.336
 7308TIP3   OH221866   8.295   2.924   2.150
 7308TIP3    H121867   8.264   2.883   2.069
 7308TIP3    H221868   8.216   2.957   2.192
 7309TIP3   OH221869   4.406   4.665   5.056
 7309TIP3    H121870   4.485   4.700   5.014
 7309TIP3    H221871   4.392   4.722   5.132
 7310TIP3   OH221872   3.146   3.966   6.218
 7310TIP3    H121873   3.146   4.056   6.249
 7310TIP3    H221874   3.203   3.919   6.278
 7311TIP3   OH221875   4.531   4.546   0.395
 7311TIP3    H121876   4.488   4.602   0.331
 7311TIP3    H221877   4.488   4.567   0.478
 7312TIP3   OH221878   4.345   0.142   5.008
 7312TIP3    H121879   4.299   0.068   5.047
 7312TIP3    H221880   4.398   0.177   5.079
 7313TIP3   OH221881   0.918   2.075   2.381
 7313TIP3    H121882   0.910   2.120   2.297
 7313TIP3    H221883   0.833   2.033   2.394
 7314TIP3   OH221884   5.536   2.922   2.225
 7314TIP3    H121885   5.562   3.011   2.203
 7314TIP3    H221886   5.489   2.930   2.308
 7315TIP3   OH221887   7.316   5.642   4.037
 7315TIP3    H121888   7.324   5.643   4.132
 7315TIP3    H221889   7.393   5.690   4.006
 7316TIP3   OH221890   0.228   2.973   1.799
 7316TIP3    H121891   0.205   2.904   1.861
 7316TIP3    H221892   0.152   3.031   1.798
 7317TIP3   OH221893   1.367   7.028   3.476
 7317TIP3    H121894   1.442   7.060   3.425
 7317TIP3    H221895   1.391   7.045   3.567
 7318TIP3   OH221896   1.869   1.616   1.729
 7318TIP3    H121897   1.962   1.633   1.744
 7318TIP3    H221898   1.829   1.703   1.723
 7319TIP3   OH221899   2.290   6.610   5.398
 7319TIP3    H121900   2.340   6.580   5.322
 7319TIP3    H221901   2.280   6.704   5.385
 7320TIP3   OH221902   0.427   3.311   4.603
 7320TIP3    H121903   0.471   3.374   4.546
 7320TIP3    H221904   0.372   3.365   4.660
 7321TIP3   OH221905   7.697   5.982   3.304
 7321TIP3    H121906   7.767   5.947   3.359
 7321TIP3    H221907   7.625   6.000   3.364
 7322TIP3   OH221908   6.307   4.884   4.898
 7322TIP3    H121909   6.308   4.879   4.803
 7322TIP3    H221910   6.282   4.975   4.917
 7323TIP3   OH221911   7.474   2.584   3.143
 7323TIP3    H121912   7.452   2.624   3.058
 7323TIP3    H221913   7.465   2.656   3.205
 7324TIP3   OH221914   0.339   4.644   2.728
 7324TIP3    H121915   0.407   4.589   2.765
 7324TIP3    H221916   0.333   4.719   2.786
 7325TIP3   OH221917   7.879   5.308   5.844
 7325TIP3    H121918   7.883   5.251   5.767
 7325TIP3    H221919   7.817   5.376   5.821
 7326TIP3   OH221920   6.843   0.061   6.012
 7326TIP3    H121921   6.835  -0.032   5.990
 7326TIP3    H221922   6.813   0.107   5.934
 7327TIP3   OH221923   7.630   5.114   5.667
 7327TIP3    H121924   7.640   5.133   5.573
 7327TIP3    H221925   7.581   5.189   5.701
 7328TIP3   OH221926   5.830   0.113   5.870
 7328TIP3    H121927   5.888   0.165   5.816
 7328TIP3    H221928   5.878   0.032   5.886
 7329TIP3   OH221929   5.345   1.201   5.256
 7329TIP3    H121930   5.252   1.202   5.279
 7329TIP3    H221931   5.346   1.199   5.160
 7330TIP3   OH221932   1.058   0.141   6.532
 7330TIP3    H121933   1.071   0.054   6.495
 7330TIP3    H221934   1.146   0.173   6.550
 7331TIP3   OH221935   3.194   6.861   6.440
 7331TIP3    H121936   3.160   6.947   6.465
 7331TIP3    H221937   3.290   6.872   6.442
 7332TIP3   OH221938   2.238   5.551   3.652
 7332TIP3    H121939   2.187   5.502   3.717
 7332TIP3    H221940   2.323   5.564   3.694
 7333TIP3   OH221941   5.562   4.673   0.671
 7333TIP3    H121942   5.492   4.638   0.727
 7333TIP3    H221943   5.627   4.603   0.668
 7334TIP3   OH221944   4.996   6.830   4.077
 7334TIP3    H121945   4.903   6.855   4.077
 7334TIP3    H221946   5.028   6.860   4.161
 7335TIP3   OH221947   2.261   4.090   6.246
 7335TIP3    H121948   2.249   4.081   6.341
 7335TIP3    H221949   2.252   4.001   6.212
 7336TIP3   OH221950   1.362   2.905   6.464
 7336TIP3    H121951   1.307   2.935   6.536
 7336TIP3    H221952   1.301   2.862   6.403
 7337TIP3   OH221953   0.217   3.426   2.760
 7337TIP3    H121954   0.284   3.479   2.805
 7337TIP3    H221955   0.255   3.338   2.757
 7338TIP3   OH221956   3.393   3.049   4.177
 7338TIP3    H121957   3.330   3.014   4.114
 7338TIP3    H221958   3.472   3.065   4.124
 7339TIP3   OH221959   2.021   0.972   2.269
 7339TIP3    H121960   2.049   0.995   2.358
 7339TIP3    H221961   2.091   0.917   2.235
 7340TIP3   OH221962   5.522   0.471   1.552
 7340TIP3    H121963   5.511   0.384   1.590
 7340TIP3    H221964   5.616   0.479   1.537
 7341TIP3   OH221965   4.762   4.046   0.974
 7341TIP3    H121966   4.759   4.112   0.905
 7341TIP3    H221967   4.671   4.038   1.004
 7342TIP3   OH221968   1.871   2.702   2.023
 7342TIP3    H121969   1.882   2.618   2.067
 7342TIP3    H221970   1.802   2.687   1.958
 7343TIP3   OH221971   2.182   5.345   4.695
 7343TIP3    H121972   2.112   5.297   4.739
 7343TIP3    H221973   2.222   5.397   4.764
 7344TIP3   OH221974   1.086   7.764   0.529
 7344TIP3    H121975   1.101   7.858   0.517
 7344TIP3    H221976   1.172   7.729   0.554
 7345TIP3   OH221977   5.736   4.477   0.722
 7345TIP3    H121978   5.679   4.407   0.689
 7345TIP3    H221979   5.821   4.461   0.680
 7346TIP3   OH221980   3.018   7.498   4.482
 7346TIP3    H121981   2.962   7.428   4.517
 7346TIP3    H221982   3.025   7.561   4.554
 7347TIP3   OH221983   0.619   7.008   6.098
 7347TIP3    H121984   0.589   7.003   6.189
 7347TIP3    H221985   0.608   6.918   6.065
 7348TIP3   OH221986   0.918   2.403   2.006
 7348TIP3    H121987   0.872   2.389   1.923
 7348TIP3    H221988   0.905   2.497   2.024
 7349TIP3   OH221989   2.887   6.929   6.521
 7349TIP3    H121990   2.858   6.924   6.612
 7349TIP3    H221991   2.983   6.924   6.526
 7350TIP3   OH221992   7.555   2.204   5.371
 7350TIP3    H121993   7.494   2.264   5.329
 7350TIP3    H221994   7.537   2.119   5.330
 7351TIP3   OH221995   5.393   4.054   2.529
 7351TIP3    H121996   5.414   4.147   2.540
 7351TIP3    H221997   5.453   4.008   2.587
 7352TIP3   OH221998   2.728   4.987   0.839
 7352TIP3    H121999   2.815   4.960   0.809
 7352TIP3    H222000   2.734   5.083   0.844
 7353TIP3   OH222001   2.018   5.742   0.358
 7353TIP3    H122002   1.934   5.784   0.337
 7353TIP3    H222003   2.009   5.714   0.449
 7354TIP3   OH222004   6.949   1.264   5.534
 7354TIP3    H122005   6.901   1.183   5.518
 7354TIP3    H222006   7.034   1.249   5.493
 7355TIP3   OH222007   4.326   1.937   4.633
 7355TIP3    H122008   4.417   1.914   4.653
 7355TIP3    H222009   4.279   1.920   4.715
 7356TIP3   OH222010   4.836   1.919   5.961
 7356TIP3    H122011   4.907   1.874   5.916
 7356TIP3    H222012   4.787   1.962   5.891
 7357TIP3   OH222013   7.315   6.292   2.437
 7357TIP3    H122014   7.390   6.351   2.431
 7357TIP3    H222015   7.339   6.216   2.383
 7358TIP3   OH222016   5.378   7.294   2.394
 7358TIP3    H122017   5.398   7.348   2.471
 7358TIP3    H222018   5.455   7.238   2.384
 7359TIP3   OH222019   3.616   7.111   3.643
 7359TIP3    H122020   3.687   7.065   3.598
 7359TIP3    H222021   3.579   7.046   3.702
 7360TIP3   OH222022   5.459   2.832   4.999
 7360TIP3    H122023   5.486   2.804   4.912
 7360TIP3    H222024   5.377   2.784   5.015
 7361TIP3   OH222025   4.440   4.223   0.534
 7361TIP3    H122026   4.504   4.179   0.478
 7361TIP3    H222027   4.382   4.153   0.563
 7362TIP3   OH222028   7.175   7.559   4.581
 7362TIP3    H122029   7.082   7.580   4.570
 7362TIP3    H222030   7.212   7.567   4.493
 7363TIP3   OH222031   0.810   7.126   3.956
 7363TIP3    H122032   0.843   7.084   4.036
 7363TIP3    H222033   0.824   7.060   3.887
 7364TIP3   OH222034   1.732   1.956   1.123
 7364TIP3    H122035   1.750   2.005   1.042
 7364TIP3    H222036   1.663   2.007   1.166
 7365TIP3   OH222037   4.422   1.093   2.552
 7365TIP3    H122038   4.451   1.100   2.643
 7365TIP3    H222039   4.476   1.157   2.505
 7366TIP3   OH222040   6.683   4.741   0.170
 7366TIP3    H122041   6.658   4.719   0.080
 7366TIP3    H222042   6.751   4.678   0.193
 7367TIP3   OH222043   0.879   6.897   1.456
 7367TIP3    H122044   0.824   6.972   1.431
 7367TIP3    H222045   0.873   6.837   1.381
 7368TIP3   OH222046   5.945   6.470   2.188
 7368TIP3    H122047   5.940   6.376   2.174
 7368TIP3    H222048   5.974   6.505   2.104
 7369TIP3   OH222049   0.727   3.115   6.528
 7369TIP3    H122050   0.760   3.034   6.569
 7369TIP3    H222051   0.691   3.087   6.444
 7370TIP3   OH222052   6.470   3.336   1.139
 7370TIP3    H122053   6.512   3.278   1.203
 7370TIP3    H222054   6.538   3.354   1.075
 7371TIP3   OH222055   5.179   5.823   4.033
 7371TIP3    H122056   5.141   5.864   4.110
 7371TIP3    H222057   5.267   5.796   4.060
 7372TIP3   OH222058   2.391   1.908   1.848
 7372TIP3    H122059   2.375   1.814   1.853
 7372TIP3    H222060   2.336   1.945   1.917
 7373TIP3   OH222061   3.979   5.396   3.908
 7373TIP3    H122062   3.990   5.461   3.978
 7373TIP3    H222063   3.943   5.319   3.952
 7374TIP3   OH222064   2.133   2.491   1.446
 7374TIP3    H122065   2.147   2.517   1.355
 7374TIP3    H222066   2.219   2.463   1.477
 7375TIP3   OH222067   2.113   5.187   0.141
 7375TIP3    H122068   2.118   5.282   0.124
 7375TIP3    H222069   2.198   5.165   0.178
 7376TIP3   OH222070   7.344   6.869   2.789
 7376TIP3    H122071   7.258   6.829   2.781
 7376TIP3    H222072   7.357   6.878   2.884
 7377TIP3   OH222073   5.368   2.348   6.354
 7377TIP3    H122074   5.296   2.320   6.298
 7377TIP3    H222075   5.345   2.437   6.382
 7378TIP3   OH222076   1.367   3.933   3.538
 7378TIP3    H122077   1.402   3.844   3.540
 7378TIP3    H222078   1.406   3.973   3.461
 7379TIP3   OH222079   1.386   2.324   2.864
 7379TIP3    H122080   1.292   2.328   2.846
 7379TIP3    H222081   1.403   2.400   2.919
 7380TIP3   OH222082   3.544   1.051   3.596
 7380TIP3    H122083   3.629   1.019   3.625
 7380TIP3    H222084   3.486   0.976   3.601
 7381TIP3   OH222085   7.913   2.352   5.413
 7381TIP3    H122086   8.004   2.333   5.437
 7381TIP3    H222087   7.883   2.413   5.481
 7382TIP3   OH222088   1.374   4.242   1.579
 7382TIP3    H122089   1.467   4.255   1.597
 7382TIP3    H222090   1.370   4.156   1.536
 7383TIP3   OH222091   5.132   3.700   4.305
 7383TIP3    H122092   5.228   3.703   4.305
 7383TIP3    H222093   5.111   3.629   4.365
 7384TIP3   OH222094   1.185   6.557   3.627
 7384TIP3    H122095   1.111   6.516   3.672
 7384TIP3    H222096   1.154   6.573   3.538
 7385TIP3   OH222097   5.640   3.080   1.605
 7385TIP3    H122098   5.582   3.147   1.568
 7385TIP3    H222099   5.725   3.099   1.565
 7386TIP3   OH222100   2.093   4.378   6.071
 7386TIP3    H122101   2.050   4.311   6.123
 7386TIP3    H222102   2.095   4.343   5.982
 7387TIP3   OH222103   3.623   4.938   0.080
 7387TIP3    H122104   3.677   5.017   0.072
 7387TIP3    H222105   3.540   4.970   0.115
 7388TIP3   OH222106   7.078   5.054   2.175
 7388TIP3    H122107   7.027   5.121   2.222
 7388TIP3    H222108   7.095   4.986   2.240
 7389TIP3   OH222109   0.349   3.823   6.155
 7389TIP3    H122110   0.443   3.801   6.160
 7389TIP3    H222111   0.347   3.918   6.148
 7390TIP3   OH222112   0.061   4.682   3.672
 7390TIP3    H122113   0.153   4.710   3.669
 7390TIP3    H222114   0.018   4.747   3.728
 7391TIP3   OH222115   4.597   3.089   4.347
 7391TIP3    H122116   4.633   3.067   4.261
 7391TIP3    H222117   4.674   3.108   4.401
 7392TIP3   OH222118   3.000   7.489   1.145
 7392TIP3    H122119   3.032   7.487   1.235
 7392TIP3    H222120   3.079   7.478   1.092
 7393TIP3   OH222121   3.361   2.341   0.290
 7393TIP3    H122122   3.265   2.342   0.290
 7393TIP3    H222123   3.386   2.433   0.295
 7394TIP3   OH222124   6.615   4.121   0.433
 7394TIP3    H122125   6.660   4.167   0.504
 7394TIP3    H222126   6.685   4.098   0.372
 7395TIP3   OH222127   6.527   2.256   3.623
 7395TIP3    H122128   6.539   2.233   3.531
 7395TIP3    H222129   6.435   2.285   3.629
 7396TIP3   OH222130   5.195   7.884   5.290
 7396TIP3    H122131   5.238   7.906   5.373
 7396TIP3    H222132   5.158   7.797   5.305
 7397TIP3   OH222133   4.623   3.195   0.478
 7397TIP3    H122134   4.577   3.270   0.515
 7397TIP3    H222135   4.705   3.191   0.528
 7398TIP3   OH222136   5.869   0.831   3.267
 7398TIP3    H122137   5.888   0.785   3.348
 7398TIP3    H222138   5.867   0.923   3.291
 7399TIP3   OH222139   1.443   2.222   0.837
 7399TIP3    H122140   1.374   2.164   0.802
 7399TIP3    H222141   1.519   2.164   0.848
 7400TIP3   OH222142   2.057   7.537   0.278
 7400TIP3    H122143   2.137   7.544   0.227
 7400TIP3    H222144   2.072   7.462   0.335
 7401TIP3   OH222145   4.643   2.333   1.132
 7401TIP3    H122146   4.568   2.341   1.191
 7401TIP3    H222147   4.649   2.239   1.114
 7402TIP3   OH222148   3.291   5.698   4.699
 7402TIP3    H122149   3.225   5.731   4.760
 7402TIP3    H222150   3.281   5.603   4.703
 7403TIP3   OH222151   3.934   1.648   4.556
 7403TIP3    H122152   3.863   1.652   4.491
 7403TIP3    H222153   4.013   1.671   4.507
 7404TIP3   OH222154   1.431   2.096   1.579
 7404TIP3    H122155   1.403   2.116   1.669
 7404TIP3    H222156   1.503   2.157   1.563
 7405TIP3   OH222157   1.706   6.126   5.600
 7405TIP3    H122158   1.741   6.214   5.587
 7405TIP3    H222159   1.781   6.069   5.583
 7406TIP3   OH222160   5.556   2.058   3.038
 7406TIP3    H122161   5.567   2.014   2.954
 7406TIP3    H222162   5.643   2.057   3.078
 7407TIP3   OH222163   4.517   7.201   6.717
 7407TIP3    H122164   4.431   7.169   6.692
 7407TIP3    H222165   4.578   7.137   6.681
 7408TIP3   OH222166   2.274   0.171   1.030
 7408TIP3    H122167   2.336   0.220   1.084
 7408TIP3    H222168   2.312   0.173   0.942
 7409TIP3   OH222169   3.690   1.470   0.240
 7409TIP3    H122170   3.760   1.405   0.247
 7409TIP3    H222171   3.631   1.434   0.175
 7410TIP3   OH222172   6.315   6.986   5.562
 7410TIP3    H122173   6.359   6.951   5.639
 7410TIP3    H222174   6.222   6.970   5.577
 7411TIP3   OH222175   7.071   4.502   5.203
 7411TIP3    H122176   7.149   4.508   5.258
 7411TIP3    H222177   7.072   4.411   5.171
 7412TIP3   OH222178   2.922   6.324   4.030
 7412TIP3    H122179   2.870   6.324   3.949
 7412TIP3    H222180   2.993   6.386   4.012
 7413TIP3   OH222181   4.230   3.406   3.789
 7413TIP3    H122182   4.153   3.463   3.788
 7413TIP3    H222183   4.239   3.376   3.699
 7414TIP3   OH222184   1.011   0.929   0.670
 7414TIP3    H122185   1.004   1.019   0.636
 7414TIP3    H222186   0.925   0.891   0.651
 7415TIP3   OH222187   5.799   0.882   2.088
 7415TIP3    H122188   5.791   0.976   2.076
 7415TIP3    H222189   5.715   0.855   2.123
 7416TIP3   OH222190   3.403   3.989   0.085
 7416TIP3    H122191   3.360   3.935   0.019
 7416TIP3    H222192   3.387   3.944   0.168
 7417TIP3   OH222193   6.523   3.497   3.277
 7417TIP3    H122194   6.428   3.483   3.277
 7417TIP3    H222195   6.547   3.499   3.185
 7418TIP3   OH222196   6.351   5.173   5.204
 7418TIP3    H122197   6.267   5.217   5.216
 7418TIP3    H222198   6.337   5.116   5.129
 7419TIP3   OH222199   2.539   5.034   3.543
 7419TIP3    H122200   2.477   4.962   3.557
 7419TIP3    H222201   2.620   4.990   3.517
 7420TIP3   OH222202   2.303   5.606   1.882
 7420TIP3    H122203   2.260   5.527   1.914
 7420TIP3    H222204   2.242   5.643   1.818
 7421TIP3   OH222205   3.991   3.961   4.889
 7421TIP3    H122206   3.917   4.005   4.847
 7421TIP3    H222207   3.963   3.949   4.980
 7422TIP3   OH222208   4.816   5.631   5.119
 7422TIP3    H122209   4.746   5.566   5.131
 7422TIP3    H222210   4.818   5.647   5.025
 7423TIP3   OH222211   4.375   1.807   6.287
 7423TIP3    H122212   4.336   1.740   6.343
 7423TIP3    H222213   4.470   1.791   6.294
 7424TIP3   OH222214   7.560   7.532   5.062
 7424TIP3    H122215   7.614   7.455   5.084
 7424TIP3    H222216   7.524   7.560   5.146
 7425TIP3   OH222217   8.002   6.644   0.129
 7425TIP3    H122218   7.943   6.700   0.178
 7425TIP3    H222219   7.979   6.555   0.155
 7426TIP3   OH222220   7.477   2.026   5.013
 7426TIP3    H122221   7.453   2.118   4.999
 7426TIP3    H222222   7.470   2.013   5.107
 7427TIP3   OH222223   1.339   7.329   5.730
 7427TIP3    H122224   1.358   7.349   5.638
 7427TIP3    H222225   1.423   7.339   5.775
 7428TIP3   OH222226   4.209   6.260   0.623
 7428TIP3    H122227   4.124   6.289   0.657
 7428TIP3    H222228   4.273   6.301   0.682
 7429TIP3   OH222229   6.388   0.326   0.537
 7429TIP3    H122230   6.413   0.285   0.620
 7429TIP3    H222231   6.469   0.364   0.504
 7430TIP3   OH222232   7.626   5.390   2.720
 7430TIP3    H122233   7.559   5.336   2.678
 7430TIP3    H222234   7.673   5.430   2.647
 7431TIP3   OH222235   7.993   4.786   5.210
 7431TIP3    H122236   7.989   4.698   5.248
 7431TIP3    H222237   7.905   4.801   5.176
 7432TIP3   OH222238   7.067   0.352   3.362
 7432TIP3    H122239   7.128   0.343   3.436
 7432TIP3    H222240   6.985   0.381   3.401
 7433TIP3   OH222241   1.594   2.255   0.122
 7433TIP3    H122242   1.532   2.297   0.181
 7433TIP3    H222243   1.541   2.226   0.048
 7434TIP3   OH222244   4.105   5.581   6.039
 7434TIP3    H122245   4.164   5.629   5.982
 7434TIP3    H222246   4.041   5.646   6.068
 7435TIP3   OH222247   5.814   7.705   4.765
 7435TIP3    H122248   5.904   7.716   4.734
 7435TIP3    H222249   5.786   7.621   4.729
 7436TIP3   OH222250   4.189   0.616   3.517
 7436TIP3    H122251   4.144   0.697   3.542
 7436TIP3    H222252   4.196   0.567   3.599
 7437TIP3   OH222253   4.596   3.008   3.871
 7437TIP3    H122254   4.524   3.049   3.824
 7437TIP3    H222255   4.554   2.950   3.934
 7438TIP3   OH222256   3.726   5.319   4.603
 7438TIP3    H122257   3.631   5.329   4.600
 7438TIP3    H222258   3.752   5.357   4.687
 7439TIP3   OH222259   1.149   2.970   2.618
 7439TIP3    H122260   1.224   2.911   2.629
 7439TIP3    H222261   1.187   3.052   2.587
 7440TIP3   OH222262   1.791   4.343   5.924
 7440TIP3    H122263   1.808   4.425   5.970
 7440TIP3    H222264   1.800   4.276   5.991
 7441TIP3   OH222265   0.531   2.248   4.787
 7441TIP3    H122266   0.600   2.294   4.834
 7441TIP3    H222267   0.458   2.243   4.848
 7442TIP3   OH222268   4.271   4.524   5.892
 7442TIP3    H122269   4.215   4.521   5.814
 7442TIP3    H222270   4.290   4.618   5.904
 7443TIP3   OH222271   5.088   1.905   4.795
 7443TIP3    H122272   5.087   1.825   4.741
 7443TIP3    H222273   5.026   1.886   4.866
 7444TIP3   OH222274   6.341   5.487   1.352
 7444TIP3    H122275   6.324   5.535   1.433
 7444TIP3    H222276   6.257   5.486   1.306
 7445TIP3   OH222277   5.945   4.163   4.760
 7445TIP3    H122278   5.909   4.092   4.707
 7445TIP3    H222279   5.980   4.225   4.697
 7446TIP3   OH222280   1.840   3.434   5.113
 7446TIP3    H122281   1.892   3.514   5.103
 7446TIP3    H222282   1.777   3.437   5.041
 7447TIP3   OH222283   2.008   6.933   2.043
 7447TIP3    H122284   1.981   6.959   1.955
 7447TIP3    H222285   1.982   6.840   2.049
 7448TIP3   OH222286   5.790   6.802   3.494
 7448TIP3    H122287   5.798   6.890   3.529
 7448TIP3    H222288   5.734   6.811   3.417
 7449TIP3   OH222289   3.802   7.189   0.495
 7449TIP3    H122290   3.770   7.111   0.540
 7449TIP3    H222291   3.739   7.206   0.426
 7450TIP3   OH222292   3.484   5.560   5.994
 7450TIP3    H122293   3.559   5.618   6.000
 7450TIP3    H222294   3.488   5.524   5.906
 7451TIP3   OH222295   6.784   7.763   3.810
 7451TIP3    H122296   6.793   7.760   3.714
 7451TIP3    H222297   6.737   7.844   3.827
 7452TIP3   OH222298   3.783   6.545   4.802
 7452TIP3    H122299   3.689   6.556   4.789
 7452TIP3    H222300   3.820   6.545   4.714
 7453TIP3   OH222301   1.465   3.239   3.979
 7453TIP3    H122302   1.495   3.329   3.994
 7453TIP3    H222303   1.500   3.190   4.054
 7454TIP3   OH222304   8.096   2.287   4.220
 7454TIP3    H122305   8.123   2.242   4.140
 7454TIP3    H222306   8.008   2.255   4.237
 7455TIP3   OH222307   7.346   7.428   1.845
 7455TIP3    H122308   7.389   7.513   1.853
 7455TIP3    H222309   7.252   7.449   1.846
 7456TIP3   OH222310   0.466   6.833   2.073
 7456TIP3    H122311   0.406   6.774   2.028
 7456TIP3    H222312   0.421   6.918   2.072
 7457TIP3   OH222313   4.912   0.753   1.446
 7457TIP3    H122314   4.866   0.740   1.529
 7457TIP3    H222315   4.874   0.832   1.409
 7458TIP3   OH222316   4.976   2.182   6.687
 7458TIP3    H122317   5.055   2.192   6.635
 7458TIP3    H222318   4.977   2.091   6.716
 7459TIP3   OH222319   5.117   6.804   3.480
 7459TIP3    H122320   5.155   6.866   3.418
 7459TIP3    H222321   5.182   6.734   3.487
 7460TIP3   OH222322   2.062   0.884   1.174
 7460TIP3    H122323   2.058   0.841   1.259
 7460TIP3    H222324   2.059   0.978   1.193
 7461TIP3   OH222325   5.807   1.528   0.985
 7461TIP3    H122326   5.732   1.588   0.980
 7461TIP3    H222327   5.872   1.574   1.038
 7462TIP3   OH222328   2.182   7.516   3.800
 7462TIP3    H122329   2.257   7.456   3.801
 7462TIP3    H222330   2.220   7.603   3.791
 7463TIP3   OH222331   6.767   6.343   4.512
 7463TIP3    H122332   6.858   6.365   4.532
 7463TIP3    H222333   6.772   6.261   4.462
 7464TIP3   OH222334   0.819   5.853   4.287
 7464TIP3    H122335   0.889   5.884   4.344
 7464TIP3    H222336   0.851   5.769   4.254
 7465TIP3   OH222337   5.612   3.509   4.200
 7465TIP3    H122338   5.571   3.448   4.140
 7465TIP3    H222339   5.623   3.589   4.149
 7466TIP3   OH222340   6.651   3.665   4.824
 7466TIP3    H122341   6.690   3.578   4.822
 7466TIP3    H222342   6.641   3.686   4.917
 7467TIP3   OH222343   0.145   6.088   2.006
 7467TIP3    H122344   0.140   6.042   1.922
 7467TIP3    H222345   0.216   6.044   2.053
 7468TIP3   OH222346   1.209   1.989   1.466
 7468TIP3    H122347   1.270   2.046   1.513
 7468TIP3    H222348   1.210   1.906   1.514
 7469TIP3   OH222349   2.821   1.266   2.542
 7469TIP3    H122350   2.903   1.307   2.570
 7469TIP3    H222351   2.838   1.239   2.452
 7470TIP3   OH222352   0.446   4.276   2.156
 7470TIP3    H122353   0.419   4.262   2.246
 7470TIP3    H222354   0.368   4.312   2.113
 7471TIP3   OH222355   4.786   5.493   1.491
 7471TIP3    H122356   4.841   5.482   1.569
 7471TIP3    H222357   4.818   5.427   1.430
 7472TIP3   OH222358   1.580   4.329   0.662
 7472TIP3    H122359   1.551   4.384   0.735
 7472TIP3    H222360   1.572   4.385   0.585
 7473TIP3   OH222361   3.086   6.388   2.908
 7473TIP3    H122362   3.064   6.295   2.913
 7473TIP3    H222363   3.089   6.417   3.000
 7474TIP3   OH222364   1.206   7.588   0.982
 7474TIP3    H122365   1.289   7.593   1.030
 7474TIP3    H222366   1.140   7.584   1.051
 7475TIP3   OH222367   7.564   3.870   2.580
 7475TIP3    H122368   7.559   3.853   2.486
 7475TIP3    H222369   7.549   3.784   2.621
 7476TIP3   OH222370   7.750   2.702   6.420
 7476TIP3    H122371   7.725   2.649   6.495
 7476TIP3    H222372   7.783   2.784   6.458
 7477TIP3   OH222373   7.663   2.999   3.572
 7477TIP3    H122374   7.703   3.045   3.499
 7477TIP3    H222375   7.599   3.060   3.608
 7478TIP3   OH222376   2.654   2.191   0.200
 7478TIP3    H122377   2.612   2.277   0.195
 7478TIP3    H222378   2.680   2.182   0.292
 7479TIP3   OH222379   1.719   7.223   1.311
 7479TIP3    H122380   1.695   7.146   1.260
 7479TIP3    H222381   1.786   7.192   1.371
 7480TIP3   OH222382   4.425   5.243   0.399
 7480TIP3    H122383   4.427   5.153   0.366
 7480TIP3    H222384   4.468   5.238   0.485
 7481TIP3   OH222385   3.391   4.961   1.041
 7481TIP3    H122386   3.472   4.913   1.023
 7481TIP3    H222387   3.331   4.895   1.075
 7482TIP3   OH222388   5.976   4.787   4.598
 7482TIP3    H122389   5.921   4.725   4.548
 7482TIP3    H222390   5.957   4.872   4.559
 7483TIP3   OH222391   0.750   3.931   6.577
 7483TIP3    H122392   0.759   3.899   6.488
 7483TIP3    H222393   0.823   3.991   6.589
 7484TIP3   OH222394   7.617   5.786   0.634
 7484TIP3    H122395   7.666   5.799   0.553
 7484TIP3    H222396   7.674   5.821   0.702
 7485TIP3   OH222397   3.069   7.807   2.269
 7485TIP3    H122398   3.151   7.797   2.317
 7485TIP3    H222399   3.050   7.720   2.235
 7486TIP3   OH222400   5.917   4.333   5.460
 7486TIP3    H122401   5.856   4.389   5.507
 7486TIP3    H222402   5.994   4.389   5.446
 7487TIP3   OH222403   0.889   1.181   0.681
 7487TIP3    H122404   0.971   1.219   0.651
 7487TIP3    H222405   0.826   1.253   0.677
 7488TIP3   OH222406   3.634   6.687   4.425
 7488TIP3    H122407   3.629   6.658   4.334
 7488TIP3    H222408   3.558   6.647   4.467
 7489TIP3   OH222409   3.912   2.359   1.979
 7489TIP3    H122410   3.925   2.417   2.054
 7489TIP3    H222411   3.861   2.286   2.014
 7490TIP3   OH222412   6.981   6.752   2.196
 7490TIP3    H122413   7.012   6.832   2.153
 7490TIP3    H222414   7.060   6.708   2.226
 7491TIP3   OH222415   7.122   5.084   1.162
 7491TIP3    H122416   7.130   5.111   1.254
 7491TIP3    H222417   7.145   4.991   1.163
 7492TIP3   OH222418   2.063   0.087   0.748
 7492TIP3    H122419   2.059   0.042   0.832
 7492TIP3    H222420   2.151   0.066   0.714
 7493TIP3   OH222421   7.035   4.286   1.954
 7493TIP3    H122422   7.110   4.337   1.922
 7493TIP3    H222423   7.003   4.336   2.029
 7494TIP3   OH222424   4.735   7.612   0.386
 7494TIP3    H122425   4.647   7.622   0.351
 7494TIP3    H222426   4.722   7.572   0.472
 7495TIP3   OH222427   1.960   4.886   3.001
 7495TIP3    H122428   1.999   4.862   2.916
 7495TIP3    H222429   2.030   4.932   3.047
 7496TIP3   OH222430   4.626   2.109   2.617
 7496TIP3    H122431   4.603   2.186   2.669
 7496TIP3    H222432   4.668   2.050   2.680
 7497TIP3   OH222433   7.933   6.657   6.423
 7497TIP3    H122434   7.968   6.630   6.507
 7497TIP3    H222435   7.918   6.751   6.432
 7498TIP3   OH222436   6.078   1.952   0.618
 7498TIP3    H122437   6.111   1.882   0.675
 7498TIP3    H222438   6.045   2.019   0.679
 7499TIP3   OH222439   7.796   1.956   0.665
 7499TIP3    H122440   7.705   1.951   0.694
 7499TIP3    H222441   7.834   2.027   0.717
 7500TIP3   OH222442   4.458   6.435   6.748
 7500TIP3    H122443   4.380   6.422   6.802
 7500TIP3    H222444   4.485   6.347   6.724
 7501TIP3   OH222445   3.055   3.022   5.413
 7501TIP3    H122446   3.032   2.974   5.333
 7501TIP3    H222447   3.040   3.114   5.390
 7502TIP3   OH222448   5.016   1.833   1.334
 7502TIP3    H122449   4.939   1.838   1.391
 7502TIP3    H222450   5.018   1.918   1.289
 7503TIP3   OH222451   5.921   3.028   2.699
 7503TIP3    H122452   6.008   2.996   2.722
 7503TIP3    H222453   5.886   3.064   2.781
 7504TIP3   OH222454   1.408   6.150   2.729
 7504TIP3    H122455   1.390   6.119   2.818
 7504TIP3    H222456   1.412   6.070   2.676
 7505TIP3   OH222457   5.059   0.481   0.364
 7505TIP3    H122458   5.048   0.394   0.325
 7505TIP3    H222459   4.997   0.483   0.437
 7506TIP3   OH222460   7.498   2.040   2.297
 7506TIP3    H122461   7.558   1.969   2.316
 7506TIP3    H222462   7.498   2.093   2.377
 7507TIP3   OH222463   7.898   0.893   5.427
 7507TIP3    H122464   7.982   0.934   5.405
 7507TIP3    H222465   7.922   0.806   5.460
 7508TIP3   OH222466   5.442   1.475   1.076
 7508TIP3    H122467   5.503   1.401   1.086
 7508TIP3    H222468   5.486   1.547   1.122
 7509TIP3   OH222469   6.881   6.614   5.434
 7509TIP3    H122470   6.845   6.702   5.441
 7509TIP3    H222471   6.916   6.610   5.345
 7510TIP3   OH222472   7.926   0.571   2.224
 7510TIP3    H122473   8.018   0.544   2.221
 7510TIP3    H222474   7.925   0.644   2.286
 7511TIP3   OH222475   1.245   1.867   2.266
 7511TIP3    H122476   1.196   1.832   2.192
 7511TIP3    H222477   1.277   1.952   2.237
 7512TIP3   OH222478   7.909   1.335   6.631
 7512TIP3    H122479   7.896   1.244   6.657
 7512TIP3    H222480   7.909   1.383   6.714
 7513TIP3   OH222481   4.148   7.597   5.380
 7513TIP3    H122482   4.109   7.513   5.356
 7513TIP3    H222483   4.091   7.632   5.449
 7514TIP3   OH222484   0.845   0.364   2.489
 7514TIP3    H122485   0.796   0.428   2.439
 7514TIP3    H222486   0.860   0.291   2.427
 7515TIP3   OH222487   4.381   1.201   3.990
 7515TIP3    H122488   4.287   1.209   3.971
 7515TIP3    H222489   4.385   1.151   4.072
 7516TIP3   OH222490   7.448   7.838   1.674
 7516TIP3    H122491   7.484   7.782   1.606
 7516TIP3    H222492   7.357   7.809   1.683
 7517TIP3   OH222493   8.138   3.009   6.469
 7517TIP3    H122494   8.127   2.915   6.481
 7517TIP3    H222495   8.069   3.049   6.522
 7518TIP3   OH222496   6.930   2.775   4.643
 7518TIP3    H122497   6.842   2.775   4.680
 7518TIP3    H222498   6.935   2.694   4.592
 7519TIP3   OH222499   6.353   0.313   3.263
 7519TIP3    H122500   6.374   0.229   3.222
 7519TIP3    H222501   6.365   0.377   3.192
 7520TIP3   OH222502   0.311   3.886   1.703
 7520TIP3    H122503   0.312   3.872   1.608
 7520TIP3    H222504   0.239   3.831   1.734
 7521TIP3   OH222505   0.653   6.991   4.831
 7521TIP3    H122506   0.591   6.995   4.904
 7521TIP3    H222507   0.652   6.900   4.803
 7522TIP3   OH222508   0.288   3.393   1.218
 7522TIP3    H122509   0.274   3.369   1.127
 7522TIP3    H222510   0.231   3.334   1.268
 7523TIP3   OH222511   2.810   6.136   4.748
 7523TIP3    H122512   2.811   6.215   4.694
 7523TIP3    H222513   2.720   6.130   4.780
 7524TIP3   OH222514   7.923   0.327   5.641
 7524TIP3    H122515   7.891   0.244   5.677
 7524TIP3    H222516   7.937   0.382   5.717
 7525TIP3   OH222517   4.906   2.958   1.980
 7525TIP3    H122518   4.983   2.983   2.032
 7525TIP3    H222519   4.943   2.929   1.897
 7526TIP3   OH222520   3.681   4.312   5.496
 7526TIP3    H122521   3.753   4.248   5.500
 7526TIP3    H222522   3.654   4.312   5.404
 7527TIP3   OH222523   6.005   3.538   5.605
 7527TIP3    H122524   5.918   3.569   5.580
 7527TIP3    H222525   5.993   3.444   5.619
 7528TIP3   OH222526   8.006   2.168   5.087
 7528TIP3    H122527   8.040   2.209   5.008
 7528TIP3    H222528   7.920   2.208   5.100
 7529TIP3   OH222529   0.290   7.385   6.242
 7529TIP3    H122530   0.320   7.297   6.264
 7529TIP3    H222531   0.195   7.380   6.242
 7530TIP3   OH222532   7.587   4.370   4.352
 7530TIP3    H122533   7.676   4.396   4.326
 7530TIP3    H222534   7.565   4.298   4.293
 7531TIP3   OH222535   0.358   6.213   6.417
 7531TIP3    H122536   0.288   6.220   6.483
 7531TIP3    H222537   0.313   6.181   6.338
 7532TIP3   OH222538   2.784   2.672   0.469
 7532TIP3    H122539   2.805   2.613   0.396
 7532TIP3    H222540   2.755   2.753   0.426
 7533TIP3   OH222541   3.793   3.397   0.147
 7533TIP3    H122542   3.881   3.414   0.179
 7533TIP3    H222543   3.783   3.302   0.152
 7534TIP3   OH222544   1.505   4.489   1.375
 7534TIP3    H122545   1.530   4.408   1.331
 7534TIP3    H222546   1.425   4.466   1.423
 7535TIP3   OH222547   2.575   4.310   3.334
 7535TIP3    H122548   2.651   4.271   3.378
 7535TIP3    H222549   2.612   4.371   3.272
 7536TIP3   OH222550   6.109   0.748   3.559
 7536TIP3    H122551   6.192   0.731   3.604
 7536TIP3    H222552   6.057   0.797   3.623
 7537TIP3   OH222553   6.735   6.017   2.380
 7537TIP3    H122554   6.827   5.993   2.387
 7537TIP3    H222555   6.722   6.082   2.450
 7538TIP3   OH222556   6.180   2.905   2.445
 7538TIP3    H122557   6.138   2.828   2.485
 7538TIP3    H222558   6.151   2.903   2.354
 7539TIP3   OH222559   4.010   0.212   0.826
 7539TIP3    H122560   4.011   0.173   0.914
 7539TIP3    H222561   4.017   0.306   0.841
 7540TIP3   OH222562   5.338   0.841   4.865
 7540TIP3    H122563   5.334   0.759   4.914
 7540TIP3    H222564   5.378   0.903   4.926
 7541TIP3   OH222565   0.544   5.172   5.268
 7541TIP3    H122566   0.470   5.176   5.327
 7541TIP3    H222567   0.509   5.135   5.187
 7542TIP3   OH222568   7.388   1.265   2.331
 7542TIP3    H122569   7.334   1.186   2.325
 7542TIP3    H222570   7.355   1.310   2.409
 7543TIP3   OH222571   0.247   6.132   3.508
 7543TIP3    H122572   0.201   6.108   3.427
 7543TIP3    H222573   0.177   6.153   3.570
 7544TIP3   OH222574   7.235   0.901   1.648
 7544TIP3    H122575   7.280   0.868   1.571
 7544TIP3    H222576   7.156   0.847   1.655
 7545TIP3   OH222577   1.570   0.812   2.983
 7545TIP3    H122578   1.662   0.837   2.992
 7545TIP3    H222579   1.523   0.895   2.975
 7546TIP3   OH222580   4.203   0.892   1.283
 7546TIP3    H122581   4.167   0.979   1.263
 7546TIP3    H222582   4.151   0.861   1.357
 7547TIP3   OH222583   0.279   1.996   0.825
 7547TIP3    H122584   0.253   1.984   0.733
 7547TIP3    H222585   0.224   1.934   0.873
 7548TIP3   OH222586   4.249   7.118   6.681
 7548TIP3    H122587   4.265   7.166   6.763
 7548TIP3    H222588   4.244   7.026   6.708
 7549TIP3   OH222589   8.063   6.997   2.574
 7549TIP3    H122590   7.990   6.992   2.512
 7549TIP3    H222591   8.070   6.908   2.609
 7550TIP3   OH222592   1.842   6.083   0.125
 7550TIP3    H122593   1.815   6.167   0.162
 7550TIP3    H222594   1.919   6.058   0.176
 7551TIP3   OH222595   5.867   3.321   5.125
 7551TIP3    H122596   5.931   3.364   5.183
 7551TIP3    H222597   5.902   3.233   5.111
 7552TIP3   OH222598   6.383   7.618   1.933
 7552TIP3    H122599   6.390   7.577   2.019
 7552TIP3    H222600   6.463   7.591   1.886
 7553TIP3   OH222601   4.043   5.068   1.564
 7553TIP3    H122602   4.065   5.018   1.485
 7553TIP3    H222603   4.092   5.150   1.555
 7554TIP3   OH222604   3.020   2.616   6.269
 7554TIP3    H122605   3.043   2.527   6.295
 7554TIP3    H222606   2.944   2.638   6.324
 7555TIP3   OH222607   0.761   3.787   3.976
 7555TIP3    H122608   0.678   3.755   3.940
 7555TIP3    H222609   0.775   3.734   4.054
 7556TIP3   OH222610   3.014   6.448   3.183
 7556TIP3    H122611   3.072   6.505   3.233
 7556TIP3    H222612   2.939   6.503   3.162
 7557TIP3   OH222613   2.728   7.136   0.217
 7557TIP3    H122614   2.685   7.220   0.202
 7557TIP3    H222615   2.796   7.131   0.150
 7558TIP3   OH222616   4.625   7.593   4.745
 7558TIP3    H122617   4.707   7.586   4.794
 7558TIP3    H222618   4.601   7.686   4.752
 7559TIP3   OH222619   2.489   0.089   5.594
 7559TIP3    H122620   2.539   0.021   5.549
 7559TIP3    H222621   2.444   0.136   5.524
 7560TIP3   OH222622   3.240   4.484   3.486
 7560TIP3    H122623   3.162   4.495   3.540
 7560TIP3    H222624   3.278   4.572   3.483
 7561TIP3   OH222625   2.783   6.419   2.483
 7561TIP3    H122626   2.756   6.363   2.410
 7561TIP3    H222627   2.704   6.467   2.507
 7562TIP3   OH222628   4.431   4.883   2.734
 7562TIP3    H122629   4.374   4.833   2.676
 7562TIP3    H222630   4.489   4.818   2.774
 7563TIP3   OH222631   0.909   1.677   2.333
 7563TIP3    H122632   0.892   1.726   2.252
 7563TIP3    H222633   0.962   1.735   2.386
 7564TIP3   OH222634   1.383   3.403   3.687
 7564TIP3    H122635   1.455   3.374   3.743
 7564TIP3    H222636   1.313   3.427   3.747
 7565TIP3   OH222637   0.113   4.046   4.549
 7565TIP3    H122638   0.074   4.130   4.573
 7565TIP3    H222639   0.041   3.997   4.509
 7566TIP3   OH222640   8.184   0.338   4.485
 7566TIP3    H122641   8.227   0.372   4.563
 7566TIP3    H222642   8.201   0.404   4.418
 7567TIP3   OH222643   4.428   5.491   1.049
 7567TIP3    H122644   4.356   5.439   1.084
 7567TIP3    H222645   4.441   5.561   1.113
 7568TIP3   OH222646   5.162   5.112   6.075
 7568TIP3    H122647   5.079   5.070   6.096
 7568TIP3    H222648   5.166   5.188   6.133
 7569TIP3   OH222649   8.105   1.969   6.358
 7569TIP3    H122650   8.112   1.874   6.356
 7569TIP3    H222651   8.076   1.989   6.447
 7570TIP3   OH222652   7.089   3.845   1.688
 7570TIP3    H122653   7.033   3.914   1.653
 7570TIP3    H222654   7.178   3.875   1.670
 7571TIP3   OH222655   0.751   2.489   5.666
 7571TIP3    H122656   0.691   2.537   5.723
 7571TIP3    H222657   0.755   2.541   5.586
 7572TIP3   OH222658   2.665   6.783   5.719
 7572TIP3    H122659   2.641   6.866   5.760
 7572TIP3    H222660   2.600   6.720   5.752
 7573TIP3   OH222661   6.208   3.562   5.759
 7573TIP3    H122662   6.203   3.635   5.820
 7573TIP3    H222663   6.151   3.588   5.686
 7574TIP3   OH222664   3.676   3.735   5.223
 7574TIP3    H122665   3.628   3.655   5.243
 7574TIP3    H222666   3.742   3.741   5.292
 7575TIP3   OH222667   1.178   3.538   0.434
 7575TIP3    H122668   1.173   3.541   0.529
 7575TIP3    H222669   1.143   3.452   0.411
 7576TIP3   OH222670   0.625   0.583   4.071
 7576TIP3    H122671   0.557   0.588   4.004
 7576TIP3    H222672   0.618   0.495   4.107
 7577TIP3   OH222673   1.058   4.263   5.196
 7577TIP3    H122674   1.057   4.310   5.112
 7577TIP3    H222675   1.087   4.329   5.260
 7578TIP3   OH222676   4.451   0.789   6.380
 7578TIP3    H122677   4.420   0.870   6.422
 7578TIP3    H222678   4.378   0.763   6.323
 7579TIP3   OH222679   2.516   0.979  -0.058
 7579TIP3    H122680   2.444   0.919  -0.040
 7579TIP3    H222681   2.545   1.008   0.029
 7580TIP3   OH222682   4.919   4.524   0.651
 7580TIP3    H122683   4.855   4.489   0.589
 7580TIP3    H222684   4.964   4.448   0.686
 7581TIP3   OH222685   0.278   7.484   3.883
 7581TIP3    H122686   0.259   7.573   3.855
 7581TIP3    H222687   0.283   7.489   3.978
 7582TIP3   OH222688   2.533   7.260   2.769
 7582TIP3    H122689   2.555   7.333   2.710
 7582TIP3    H222690   2.530   7.183   2.712
 7583TIP3   OH222691   7.243   5.176   0.502
 7583TIP3    H122692   7.264   5.269   0.508
 7583TIP3    H222693   7.149   5.174   0.482
 7584TIP3   OH222694   2.652   0.972   1.178
 7584TIP3    H122695   2.664   0.878   1.188
 7584TIP3    H222696   2.598   0.997   1.253
 7585TIP3   OH222697   1.392   6.297   0.486
 7585TIP3    H122698   1.419   6.354   0.414
 7585TIP3    H222699   1.298   6.314   0.496
 7586TIP3   OH222700   2.610   2.965   3.745
 7586TIP3    H122701   2.589   2.876   3.774
 7586TIP3    H222702   2.661   2.953   3.665
 7587TIP3   OH222703   7.420   4.255   3.692
 7587TIP3    H122704   7.497   4.256   3.635
 7587TIP3    H222705   7.348   4.285   3.636
 7588TIP3   OH222706   0.564   0.117   2.313
 7588TIP3    H122707   0.599   0.028   2.300
 7588TIP3    H222708   0.620   0.172   2.257
 7589TIP3   OH222709   7.558   3.889   0.849
 7589TIP3    H122710   7.467   3.889   0.879
 7589TIP3    H222711   7.572   3.977   0.813
 7590TIP3   OH222712   4.669   3.636   0.696
 7590TIP3    H122713   4.758   3.616   0.666
 7590TIP3    H222714   4.641   3.709   0.640
 7591TIP3   OH222715   2.199   3.847   0.615
 7591TIP3    H122716   2.213   3.802   0.532
 7591TIP3    H222717   2.146   3.924   0.591
 7592TIP3   OH222718   1.767   6.130   0.482
 7592TIP3    H122719   1.757   6.214   0.438
 7592TIP3    H222720   1.805   6.152   0.567
 7593TIP3   OH222721   4.687   1.284   4.108
 7593TIP3    H122722   4.622   1.304   4.040
 7593TIP3    H222723   4.745   1.220   4.068
 7594TIP3   OH222724   8.266   0.366   5.895
 7594TIP3    H122725   8.279   0.394   5.986
 7594TIP3    H222726   8.178   0.328   5.894
 7595TIP3   OH222727   0.046   2.479   2.667
 7595TIP3    H122728   0.017   2.472   2.758
 7595TIP3    H222729   0.127   2.428   2.664
 7596TIP3   OH222730   4.793   5.833   1.404
 7596TIP3    H122731   4.751   5.802   1.485
 7596TIP3    H222732   4.868   5.775   1.393
 7597TIP3   OH222733   2.936   0.661   0.017
 7597TIP3    H122734   2.915   0.568   0.022
 7597TIP3    H222735   2.927   0.693   0.107
 7598TIP3   OH222736   0.338   7.466   2.766
 7598TIP3    H122737   0.396   7.535   2.798
 7598TIP3    H222738   0.334   7.479   2.672
 7599TIP3   OH222739   7.113   0.895   4.744
 7599TIP3    H122740   7.051   0.894   4.817
 7599TIP3    H222741   7.107   0.984   4.708
 7600TIP3   OH222742   0.736   0.418   1.855
 7600TIP3    H122743   0.819   0.419   1.902
 7600TIP3    H222744   0.670   0.433   1.923
 7601TIP3   OH222745   6.344   4.069   0.638
 7601TIP3    H122746   6.329   4.062   0.732
 7601TIP3    H222747   6.391   4.151   0.626
 7602TIP3   OH222748   3.560   1.261   2.903
 7602TIP3    H122749   3.494   1.245   2.971
 7602TIP3    H222750   3.636   1.293   2.951
 7603TIP3   OH222751   8.290   0.311   6.534
 7603TIP3    H122752   8.203   0.339   6.505
 7603TIP3    H222753   8.320   0.251   6.466
 7604TIP3   OH222754   6.405   0.898   3.285
 7604TIP3    H122755   6.385   0.988   3.309
 7604TIP3    H222756   6.321   0.863   3.252
 7605TIP3   OH222757   0.463   3.963   1.253
 7605TIP3    H122758   0.450   3.874   1.222
 7605TIP3    H222759   0.393   4.014   1.213
 7606TIP3   OH222760   7.388   6.171   0.016
 7606TIP3    H122761   7.409   6.112   0.089
 7606TIP3    H222762   7.422   6.127  -0.061
 7607TIP3   OH222763   5.181   0.003   0.781
 7607TIP3    H122764   5.101   0.052   0.795
 7607TIP3    H222765   5.237   0.062   0.730
 7608TIP3   OH222766   6.315   1.360   1.317
 7608TIP3    H122767   6.309   1.454   1.331
 7608TIP3    H222768   6.345   1.350   1.226
 7609TIP3   OH222769   5.741   4.035   0.095
 7609TIP3    H122770   5.646   4.042   0.087
 7609TIP3    H222771   5.764   3.961   0.038
 7610TIP3   OH222772   3.620   4.569   2.917
 7610TIP3    H122773   3.625   4.494   2.977
 7610TIP3    H222774   3.640   4.533   2.831
 7611TIP3   OH222775   2.552   6.690   4.274
 7611TIP3    H122776   2.590   6.677   4.361
 7611TIP3    H222777   2.458   6.684   4.287
 7612TIP3   OH222778   7.823   2.300   4.825
 7612TIP3    H122779   7.917   2.295   4.841
 7612TIP3    H222780   7.796   2.383   4.866
 7613TIP3   OH222781   5.606   4.567   5.929
 7613TIP3    H122782   5.565   4.587   5.845
 7613TIP3    H222783   5.597   4.473   5.939
 7614TIP3   OH222784   0.772   7.217   2.424
 7614TIP3    H122785   0.829   7.219   2.501
 7614TIP3    H222786   0.724   7.300   2.428
 7615TIP3   OH222787   4.206   3.451   0.564
 7615TIP3    H122788   4.191   3.357   0.571
 7615TIP3    H222789   4.149   3.479   0.492
 7616TIP3   OH222790   7.881   6.214   5.814
 7616TIP3    H122791   7.920   6.143   5.762
 7616TIP3    H222792   7.864   6.283   5.751
 7617TIP3   OH222793   5.061   2.385   2.354
 7617TIP3    H122794   5.109   2.310   2.389
 7617TIP3    H222795   5.049   2.443   2.429
 7618TIP3   OH222796   2.811   1.185   0.847
 7618TIP3    H122797   2.805   1.237   0.767
 7618TIP3    H222798   2.780   1.098   0.821
 7619TIP3   OH222799   7.136   3.854   3.022
 7619TIP3    H122800   7.086   3.840   3.102
 7619TIP3    H222801   7.105   3.787   2.962
 7620TIP3   OH222802   6.499   7.342   0.800
 7620TIP3    H122803   6.516   7.337   0.706
 7620TIP3    H222804   6.586   7.343   0.840
 7621TIP3   OH222805   2.897   1.192   5.433
 7621TIP3    H122806   2.807   1.160   5.436
 7621TIP3    H222807   2.900   1.248   5.355
 7622TIP3   OH222808   4.152   1.260   2.550
 7622TIP3    H122809   4.199   1.229   2.472
 7622TIP3    H222810   4.215   1.317   2.594
 7623TIP3   OH222811   0.417   5.965   4.447
 7623TIP3    H122812   0.455   5.966   4.359
 7623TIP3    H222813   0.492   5.949   4.504
 7624TIP3   OH222814   2.956   1.368   0.399
 7624TIP3    H122815   2.983   1.279   0.376
 7624TIP3    H222816   3.028   1.402   0.451
 7625TIP3   OH222817   4.876   1.471   4.425
 7625TIP3    H122818   4.817   1.396   4.436
 7625TIP3    H222819   4.847   1.513   4.345
 7626TIP3   OH222820   2.968   3.539   3.788
 7626TIP3    H122821   2.959   3.445   3.797
 7626TIP3    H222822   2.936   3.559   3.700
 7627TIP3   OH222823   7.909   5.362   1.308
 7627TIP3    H122824   7.998   5.351   1.339
 7627TIP3    H222825   7.856   5.306   1.365
 7628TIP3   OH222826   2.721   4.941   1.809
 7628TIP3    H122827   2.736   4.969   1.899
 7628TIP3    H222828   2.790   4.984   1.759
 7629TIP3   OH222829   3.246   5.654   1.506
 7629TIP3    H122830   3.187   5.694   1.571
 7629TIP3    H222831   3.190   5.640   1.429
 7630TIP3   OH222832   2.572   2.407   2.908
 7630TIP3    H122833   2.545   2.386   2.997
 7630TIP3    H222834   2.593   2.321   2.869
 7631TIP3   OH222835   2.123   5.698   5.291
 7631TIP3    H122836   2.121   5.674   5.199
 7631TIP3    H222837   2.089   5.788   5.293
 7632TIP3   OH222838   1.033   7.238   6.076
 7632TIP3    H122839   1.021   7.261   5.984
 7632TIP3    H222840   0.952   7.265   6.119
 7633TIP3   OH222841   8.131   6.496   6.009
 7633TIP3    H122842   8.078   6.419   6.031
 7633TIP3    H222843   8.158   6.531   6.094
 7634TIP3   OH222844   0.674   3.543   3.353
 7634TIP3    H122845   0.597   3.600   3.363
 7634TIP3    H222846   0.710   3.537   3.442
 7635TIP3   OH222847   3.991   6.367   4.665
 7635TIP3    H122848   3.938   6.390   4.589
 7635TIP3    H222849   4.032   6.449   4.692
 7636TIP3   OH222850   5.272   4.232   3.702
 7636TIP3    H122851   5.239   4.276   3.780
 7636TIP3    H222852   5.229   4.276   3.629
 7637TIP3   OH222853   2.815   4.737   6.339
 7637TIP3    H122854   2.773   4.819   6.314
 7637TIP3    H222855   2.893   4.765   6.388
 7638TIP3   OH222856   4.832   7.130   3.816
 7638TIP3    H122857   4.847   7.058   3.756
 7638TIP3    H222858   4.740   7.154   3.804
 7639TIP3   OH222859   3.867   3.674   1.417
 7639TIP3    H122860   3.821   3.629   1.487
 7639TIP3    H222861   3.824   3.646   1.337
 7640TIP3   OH222862   0.136   7.145   3.895
 7640TIP3    H122863   0.102   7.223   3.939
 7640TIP3    H222864   0.077   7.131   3.821
 7641TIP3   OH222865   5.724   1.715   6.635
 7641TIP3    H122866   5.703   1.623   6.653
 7641TIP3    H222867   5.652   1.745   6.579
 7642TIP3   OH222868   6.822   4.696   2.725
 7642TIP3    H122869   6.910   4.678   2.691
 7642TIP3    H222870   6.767   4.628   2.686
 7643TIP3   OH222871   1.956   6.475   5.905
 7643TIP3    H122872   1.878   6.446   5.952
 7643TIP3    H222873   1.953   6.570   5.911
 7644TIP3   OH222874   0.145   4.210   4.878
 7644TIP3    H122875   0.057   4.181   4.853
 7644TIP3    H222876   0.178   4.255   4.800
 7645TIP3   OH222877   1.505   1.291   5.807
 7645TIP3    H122878   1.422   1.338   5.804
 7645TIP3    H222879   1.509   1.243   5.724
 7646TIP3   OH222880   3.394   0.434   4.144
 7646TIP3    H122881   3.487   0.453   4.128
 7646TIP3    H222882   3.353   0.442   4.058
 7647TIP3   OH222883   6.414   6.194   3.176
 7647TIP3    H122884   6.483   6.260   3.167
 7647TIP3    H222885   6.436   6.127   3.111
 7648TIP3   OH222886   5.542   5.508   1.029
 7648TIP3    H122887   5.547   5.420   1.068
 7648TIP3    H222888   5.601   5.561   1.083
 7649TIP3   OH222889   5.603   4.865   2.287
 7649TIP3    H122890   5.634   4.821   2.208
 7649TIP3    H222891   5.600   4.958   2.263
 7650TIP3   OH222892   6.094   6.251   0.620
 7650TIP3    H122893   6.001   6.240   0.600
 7650TIP3    H222894   6.098   6.333   0.670
 7651TIP3   OH222895   0.854   0.226   1.249
 7651TIP3    H122896   0.912   0.212   1.325
 7651TIP3    H222897   0.913   0.224   1.174
 7652TIP3   OH222898   0.825   1.466   6.102
 7652TIP3    H122899   0.891   1.493   6.166
 7652TIP3    H222900   0.748   1.445   6.155
 7653TIP3   OH222901   0.155   5.310   3.578
 7653TIP3    H122902   0.198   5.236   3.621
 7653TIP3    H222903   0.223   5.348   3.522
 7654TIP3   OH222904   8.120   3.727   4.771
 7654TIP3    H122905   8.188   3.794   4.760
 7654TIP3    H222906   8.164   3.645   4.749
 7655TIP3   OH222907   3.783   4.993   5.070
 7655TIP3    H122908   3.809   5.080   5.040
 7655TIP3    H222909   3.806   4.935   4.997
 7656TIP3   OH222910   1.305   3.577   1.104
 7656TIP3    H122911   1.383   3.573   1.159
 7656TIP3    H222912   1.310   3.498   1.049
 7657TIP3   OH222913   2.494   4.264   5.644
 7657TIP3    H122914   2.486   4.277   5.550
 7657TIP3    H222915   2.478   4.170   5.657
 7658TIP3   OH222916   1.746   3.573   3.246
 7658TIP3    H122917   1.771   3.655   3.288
 7658TIP3    H222918   1.668   3.544   3.292
 7659TIP3   OH222919   8.133   1.920   2.668
 7659TIP3    H122920   8.106   1.830   2.650
 7659TIP3    H222921   8.127   1.928   2.764
 7660TIP3   OH222922   4.619   0.753   3.463
 7660TIP3    H122923   4.662   0.669   3.477
 7660TIP3    H222924   4.624   0.768   3.369
 7661TIP3   OH222925   3.153   1.245   2.928
 7661TIP3    H122926   3.109   1.221   3.010
 7661TIP3    H222927   3.184   1.335   2.943
 7662TIP3   OH222928   7.694   6.408   3.239
 7662TIP3    H122929   7.617   6.363   3.202
 7662TIP3    H222930   7.657   6.476   3.295
 7663TIP3   OH222931   6.338   3.142   3.076
 7663TIP3    H122932   6.399   3.202   3.033
 7663TIP3    H222933   6.374   3.055   3.059
 7664TIP3   OH222934   6.608   4.834   2.844
 7664TIP3    H122935   6.545   4.783   2.895
 7664TIP3    H222936   6.673   4.770   2.816
 7665TIP3   OH222937   7.052   5.312   6.621
 7665TIP3    H122938   7.109   5.281   6.692
 7665TIP3    H222939   7.111   5.358   6.562
 7666TIP3   OH222940   1.689   1.171   1.871
 7666TIP3    H122941   1.615   1.129   1.915
 7666TIP3    H222942   1.748   1.098   1.851
 7667TIP3   OH222943   5.818   0.717   4.305
 7667TIP3    H122944   5.751   0.657   4.337
 7667TIP3    H222945   5.847   0.765   4.383
 7668TIP3   OH222946   5.984   2.202   2.134
 7668TIP3    H122947   5.953   2.243   2.053
 7668TIP3    H222948   6.043   2.132   2.106
 7669TIP3   OH222949   6.112   1.640   3.016
 7669TIP3    H122950   6.192   1.613   2.970
 7669TIP3    H222951   6.142   1.690   3.091
 7670TIP3   OH222952   4.448   0.814   0.477
 7670TIP3    H122953   4.447   0.861   0.561
 7670TIP3    H222954   4.355   0.802   0.456
 7671TIP3   OH222955   6.666   6.653   1.637
 7671TIP3    H122956   6.668   6.578   1.577
 7671TIP3    H222957   6.707   6.620   1.717
 7672TIP3   OH222958   7.561   0.044   2.314
 7672TIP3    H122959   7.557   0.139   2.304
 7672TIP3    H222960   7.474   0.018   2.342
 7673TIP3   OH222961   3.699   2.971   4.956
 7673TIP3    H122962   3.788   2.989   4.926
 7673TIP3    H222963   3.647   2.966   4.876
 7674TIP3   OH222964   3.154   6.368   3.759
 7674TIP3    H122965   3.122   6.444   3.710
 7674TIP3    H222966   3.145   6.295   3.698
 7675TIP3   OH222967   3.207   0.631   1.820
 7675TIP3    H122968   3.143   0.616   1.749
 7675TIP3    H222969   3.202   0.725   1.836
 7676TIP3   OH222970   8.222   4.951   1.601
 7676TIP3    H122971   8.169   5.017   1.556
 7676TIP3    H222972   8.198   4.868   1.558
 7677TIP3   OH222973   3.498   5.624   0.781
 7677TIP3    H122974   3.404   5.609   0.778
 7677TIP3    H222975   3.516   5.650   0.872
 7678TIP3   OH222976   2.117   0.627   3.038
 7678TIP3    H122977   2.180   0.575   3.088
 7678TIP3    H222978   2.040   0.631   3.094
 7679TIP3   OH222979   3.726   3.775   3.716
 7679TIP3    H122980   3.781   3.844   3.679
 7679TIP3    H222981   3.636   3.802   3.697
 7680TIP3   OH222982   4.088   5.538   6.554
 7680TIP3    H122983   4.018   5.516   6.492
 7680TIP3    H222984   4.101   5.458   6.604
 7681TIP3   OH222985   7.425   0.654   0.781
 7681TIP3    H122986   7.449   0.656   0.689
 7681TIP3    H222987   7.330   0.638   0.781
 7682TIP3   OH222988   6.992   3.592   1.743
 7682TIP3    H122989   6.953   3.619   1.826
 7682TIP3    H222990   7.008   3.674   1.697
 7683TIP3   OH222991   7.209   6.397   0.036
 7683TIP3    H122992   7.266   6.321   0.045
 7683TIP3    H222993   7.194   6.425   0.127
 7684TIP3   OH222994   3.448   5.761   4.957
 7684TIP3    H122995   3.357   5.734   4.945
 7684TIP3    H222996   3.447   5.812   5.037
 7685TIP3   OH222997   3.165   3.141   2.793
 7685TIP3    H122998   3.153   3.052   2.758
 7685TIP3    H222999   3.258   3.160   2.779
 7686TIP3   OH223000   5.471   5.049   5.712
 7686TIP3    H123001   5.497   5.078   5.800
 7686TIP3    H223002   5.386   5.091   5.697
 7687TIP3   OH223003   1.785   4.988   5.373
 7687TIP3    H123004   1.740   5.067   5.402
 7687TIP3    H223005   1.876   5.001   5.397
 7688TIP3   OH223006   3.645   3.080   6.113
 7688TIP3    H123007   3.574   3.131   6.153
 7688TIP3    H223008   3.613   2.989   6.116
 7689TIP3   OH223009   7.796   1.615   5.851
 7689TIP3    H123010   7.885   1.639   5.827
 7689TIP3    H223011   7.784   1.651   5.939
 7690TIP3   OH223012   2.820   2.658   6.493
 7690TIP3    H123013   2.897   2.652   6.549
 7690TIP3    H223014   2.755   2.602   6.535
 7691TIP3   OH223015   4.685   4.511   5.300
 7691TIP3    H123016   4.769   4.503   5.345
 7691TIP3    H223017   4.707   4.556   5.218
 7692TIP3   OH223018   2.436   4.739   2.815
 7692TIP3    H123019   2.453   4.804   2.747
 7692TIP3    H223020   2.365   4.686   2.780
 7693TIP3   OH223021   3.437   4.659   0.507
 7693TIP3    H123022   3.378   4.715   0.456
 7693TIP3    H223023   3.408   4.570   0.487
 7694TIP3   OH223024   1.922   5.503   3.143
 7694TIP3    H123025   1.964   5.577   3.188
 7694TIP3    H223026   1.909   5.533   3.053
 7695TIP3   OH223027   4.833   1.557   5.811
 7695TIP3    H123028   4.786   1.495   5.867
 7695TIP3    H223029   4.765   1.592   5.753
 7696TIP3   OH223030   0.733   1.670   4.696
 7696TIP3    H123031   0.785   1.704   4.623
 7696TIP3    H223032   0.797   1.656   4.766
 7697TIP3   OH223033   1.892   4.720   1.592
 7697TIP3    H123034   1.879   4.807   1.554
 7697TIP3    H223035   1.843   4.662   1.534
 7698TIP3   OH223036   1.309   3.982   1.452
 7698TIP3    H123037   1.214   3.990   1.452
 7698TIP3    H223038   1.328   3.931   1.373
 7699TIP3   OH223039   4.283   5.899   3.437
 7699TIP3    H123040   4.213   5.843   3.404
 7699TIP3    H223041   4.351   5.893   3.369
 7700TIP3   OH223042   5.345   3.143   3.884
 7700TIP3    H123043   5.327   3.070   3.943
 7700TIP3    H223044   5.259   3.177   3.861
 7701TIP3   OH223045   0.019   2.169   0.942
 7701TIP3    H123046   0.104   2.210   0.957
 7701TIP3    H223047  -0.004   2.192   0.851
 7702TIP3   OH223048   7.439   2.100   1.237
 7702TIP3    H123049   7.485   2.054   1.307
 7702TIP3    H223050   7.506   2.117   1.171
 7703TIP3   OH223051   7.049   6.539   4.503
 7703TIP3    H123052   7.059   6.562   4.595
 7703TIP3    H223053   7.042   6.624   4.458
 7704TIP3   OH223054   0.803   5.492   0.543
 7704TIP3    H123055   0.727   5.440   0.568
 7704TIP3    H223056   0.866   5.428   0.510
 7705TIP3   OH223057   2.456   4.204   2.649
 7705TIP3    H123058   2.446   4.146   2.725
 7705TIP3    H223059   2.395   4.169   2.584
 7706TIP3   OH223060   7.117   5.501   5.873
 7706TIP3    H123061   7.153   5.540   5.793
 7706TIP3    H223062   7.085   5.415   5.846
 7707TIP3   OH223063   2.642   2.807   6.721
 7707TIP3    H123064   2.675   2.718   6.717
 7707TIP3    H223065   2.590   2.818   6.642
 7708TIP3   OH223066   5.187   6.377   0.789
 7708TIP3    H123067   5.101   6.336   0.785
 7708TIP3    H223068   5.178   6.447   0.854
 7709TIP3   OH223069   5.409   5.784   0.631
 7709TIP3    H123070   5.441   5.727   0.561
 7709TIP3    H223071   5.330   5.740   0.663
 7710TIP3   OH223072   5.385   1.140   3.337
 7710TIP3    H123073   5.414   1.075   3.401
 7710TIP3    H223074   5.317   1.190   3.382
 7711TIP3   OH223075   6.909   7.365   1.825
 7711TIP3    H123076   6.840   7.337   1.765
 7711TIP3    H223077   6.954   7.436   1.780
 7712TIP3   OH223078   6.565   5.034   5.840
 7712TIP3    H123079   6.576   4.994   5.926
 7712TIP3    H223080   6.592   5.125   5.852
 7713TIP3   OH223081   2.743   2.738   0.750
 7713TIP3    H123082   2.739   2.686   0.670
 7713TIP3    H223083   2.712   2.680   0.819
 7714TIP3   OH223084   4.778   3.470   1.536
 7714TIP3    H123085   4.751   3.398   1.593
 7714TIP3    H223086   4.766   3.436   1.447
 7715TIP3   OH223087   4.921   5.240   0.777
 7715TIP3    H123088   4.858   5.307   0.750
 7715TIP3    H223089   4.896   5.162   0.726
 7716TIP3   OH223090   1.415   3.903   5.627
 7716TIP3    H123091   1.364   3.941   5.556
 7716TIP3    H223092   1.398   3.809   5.621
 7717TIP3   OH223093   6.326   1.738   0.335
 7717TIP3    H123094   6.370   1.741   0.419
 7717TIP3    H223095   6.356   1.816   0.288
 7718TIP3   OH223096   1.054   3.722   0.123
 7718TIP3    H123097   0.986   3.658   0.102
 7718TIP3    H223098   1.056   3.724   0.219
 7719TIP3   OH223099   3.526   3.768   4.211
 7719TIP3    H123100   3.621   3.765   4.209
 7719TIP3    H223101   3.503   3.743   4.301
 7720TIP3   OH223102   2.229   3.870   0.091
 7720TIP3    H123103   2.278   3.918   0.024
 7720TIP3    H223104   2.166   3.818   0.041
 7721TIP3   OH223105   0.144   4.047   3.317
 7721TIP3    H123106   0.129   3.968   3.266
 7721TIP3    H223107   0.068   4.055   3.373
 7722TIP3   OH223108   5.636   5.668   4.292
 7722TIP3    H123109   5.604   5.631   4.374
 7722TIP3    H223110   5.715   5.717   4.317
 7723TIP3   OH223111   6.509   1.939   4.403
 7723TIP3    H123112   6.471   1.997   4.469
 7723TIP3    H223113   6.494   1.851   4.438
 7724TIP3   OH223114   6.558   3.577   1.477
 7724TIP3    H123115   6.606   3.597   1.557
 7724TIP3    H223116   6.468   3.602   1.496
 7725TIP3   OH223117   0.387   5.156   5.511
 7725TIP3    H123118   0.373   5.102   5.588
 7725TIP3    H223119   0.331   5.118   5.444
 7726TIP3   OH223120   4.310   4.791   5.948
 7726TIP3    H123121   4.405   4.801   5.945
 7726TIP3    H223122   4.277   4.878   5.969
 7727TIP3   OH223123   7.430   6.704   2.330
 7727TIP3    H123124   7.342   6.670   2.347
 7727TIP3    H223125   7.488   6.634   2.361
 7728TIP3   OH223126   2.667   3.306   2.566
 7728TIP3    H123127   2.721   3.374   2.526
 7728TIP3    H223128   2.699   3.300   2.656
 7729TIP3   OH223129   0.466   1.242   4.488
 7729TIP3    H123130   0.473   1.219   4.395
 7729TIP3    H223131   0.527   1.315   4.499
 7730TIP3   OH223132   3.023   5.379   4.059
 7730TIP3    H123133   3.017   5.284   4.051
 7730TIP3    H223134   3.116   5.396   4.074
 7731TIP3   OH223135   7.427   1.547   4.914
 7731TIP3    H123136   7.496   1.562   4.979
 7731TIP3    H223137   7.463   1.585   4.833
 7732TIP3   OH223138   5.259   4.141   2.298
 7732TIP3    H123139   5.277   4.108   2.386
 7732TIP3    H223140   5.324   4.210   2.285
 7733TIP3   OH223141   3.260   1.567   3.609
 7733TIP3    H123142   3.237   1.502   3.542
 7733TIP3    H223143   3.347   1.598   3.582
 7734TIP3   OH223144   5.848   1.773   5.902
 7734TIP3    H123145   5.850   1.791   5.808
 7734TIP3    H223146   5.760   1.739   5.918
 7735TIP3   OH223147   7.162   0.620   0.693
 7735TIP3    H123148   7.077   0.641   0.732
 7735TIP3    H223149   7.191   0.701   0.652
 7736TIP3   OH223150   0.467   4.795   2.158
 7736TIP3    H123151   0.549   4.838   2.134
 7736TIP3    H223152   0.417   4.793   2.076
 7737TIP3   OH223153   6.546   2.851   6.114
 7737TIP3    H123154   6.462   2.805   6.111
 7737TIP3    H223155   6.544   2.909   6.038
 7738TIP3   OH223156   0.229   7.498   4.134
 7738TIP3    H123157   0.281   7.456   4.203
 7738TIP3    H223158   0.214   7.587   4.166
 7739TIP3   OH223159   0.119   6.364   2.947
 7739TIP3    H123160   0.171   6.404   3.017
 7739TIP3    H223161   0.048   6.427   2.931
 7740TIP3   OH223162   1.917   3.180   2.174
 7740TIP3    H123163   2.008   3.164   2.197
 7740TIP3    H223164   1.869   3.106   2.212
 7741TIP3   OH223165   3.222   5.260   4.361
 7741TIP3    H123166   3.144   5.315   4.349
 7741TIP3    H223167   3.200   5.203   4.435
 7742TIP3   OH223168   8.022   6.217   6.344
 7742TIP3    H123169   8.073   6.231   6.264
 7742TIP3    H223170   7.933   6.245   6.321
 7743TIP3   OH223171   5.700   4.467   2.851
 7743TIP3    H123172   5.758   4.404   2.894
 7743TIP3    H223173   5.625   4.475   2.910
 7744TIP3   OH223174   0.218   1.386   4.671
 7744TIP3    H123175   0.234   1.421   4.758
 7744TIP3    H223176   0.246   1.455   4.611
 7745TIP3   OH223177   3.805   2.123   2.433
 7745TIP3    H123178   3.739   2.134   2.500
 7745TIP3    H223179   3.808   2.029   2.417
 7746TIP3   OH223180   5.751   4.300   0.220
 7746TIP3    H123181   5.795   4.377   0.254
 7746TIP3    H223182   5.812   4.264   0.156
 7747TIP3   OH223183   4.762   2.665   0.573
 7747TIP3    H123184   4.775   2.678   0.667
 7747TIP3    H223185   4.727   2.748   0.542
 7748TIP3   OH223186   2.774   7.798   3.737
 7748TIP3    H123187   2.786   7.745   3.657
 7748TIP3    H223188   2.746   7.883   3.705
 7749TIP3   OH223189   5.732   7.650   2.737
 7749TIP3    H123190   5.778   7.729   2.708
 7749TIP3    H223191   5.776   7.624   2.817
 7750TIP3   OH223192   6.819   5.971   3.803
 7750TIP3    H123193   6.901   5.956   3.756
 7750TIP3    H223194   6.844   6.020   3.881
 7751TIP3   OH223195   6.825   0.618   6.182
 7751TIP3    H123196   6.893   0.685   6.191
 7751TIP3    H223197   6.773   0.626   6.262
 7752TIP3   OH223198   3.170   2.077   1.509
 7752TIP3    H123199   3.179   2.163   1.468
 7752TIP3    H223200   3.228   2.080   1.585
 7753TIP3   OH223201   0.649   1.642   0.852
 7753TIP3    H123202   0.562   1.613   0.879
 7753TIP3    H223203   0.681   1.693   0.927
 7754TIP3   OH223204   4.973   1.800   2.221
 7754TIP3    H123205   4.987   1.753   2.304
 7754TIP3    H223206   4.999   1.738   2.154
 7755TIP3   OH223207   1.784   5.832   0.270
 7755TIP3    H123208   1.770   5.778   0.192
 7755TIP3    H223209   1.799   5.920   0.235
 7756TIP3   OH223210   0.344   0.429   1.323
 7756TIP3    H123211   0.408   0.481   1.372
 7756TIP3    H223212   0.266   0.484   1.319
 7757TIP3   OH223213   3.255   3.712   5.887
 7757TIP3    H123214   3.268   3.806   5.881
 7757TIP3    H223215   3.161   3.699   5.875
 7758TIP3   OH223216   3.712   4.950   3.117
 7758TIP3    H123217   3.665   4.905   3.046
 7758TIP3    H223218   3.711   4.887   3.189
 7759TIP3   OH223219   2.587   6.608   6.046
 7759TIP3    H123220   2.648   6.679   6.027
 7759TIP3    H223221   2.520   6.615   5.978
 7760TIP3   OH223222   0.668   5.241   1.003
 7760TIP3    H123223   0.723   5.201   1.071
 7760TIP3    H223224   0.718   5.231   0.922
 7761TIP3   OH223225   5.091   6.342   3.168
 7761TIP3    H123226   5.111   6.315   3.079
 7761TIP3    H223227   4.997   6.328   3.177
 7762TIP3   OH223228   3.035   6.063   6.089
 7762TIP3    H123229   3.002   5.976   6.115
 7762TIP3    H223230   2.976   6.124   6.132
 7763TIP3   OH223231   0.573   3.025   6.299
 7763TIP3    H123232   0.497   3.019   6.357
 7763TIP3    H223233   0.563   3.110   6.257
 7764TIP3   OH223234   0.808   2.023   5.442
 7764TIP3    H123235   0.785   2.003   5.352
 7764TIP3    H223236   0.724   2.047   5.483
 7765TIP3   OH223237   7.884   3.737   1.905
 7765TIP3    H123238   7.974   3.771   1.903
 7765TIP3    H223239   7.830   3.810   1.875
 7766TIP3   OH223240   4.940   5.106   5.465
 7766TIP3    H123241   5.015   5.162   5.445
 7766TIP3    H223242   4.972   5.017   5.451
 7767TIP3   OH223243   4.004   0.489   0.877
 7767TIP3    H123244   3.923   0.486   0.928
 7767TIP3    H223245   4.017   0.582   0.858
 7768TIP3   OH223246   3.647   6.939   5.043
 7768TIP3    H123247   3.710   7.010   5.051
 7768TIP3    H223248   3.657   6.889   5.124
 7769TIP3   OH223249   2.307   6.187   3.488
 7769TIP3    H123250   2.351   6.104   3.505
 7769TIP3    H223251   2.300   6.228   3.574
 7770TIP3   OH223252   3.573   0.093   4.712
 7770TIP3    H123253   3.532   0.144   4.782
 7770TIP3    H223254   3.562   0.002   4.739
 7771TIP3   OH223255   3.778   6.221   2.908
 7771TIP3    H123256   3.766   6.137   2.952
 7771TIP3    H223257   3.705   6.275   2.937
 7772TIP3   OH223258   3.983   6.371   5.262
 7772TIP3    H123259   3.940   6.421   5.193
 7772TIP3    H223260   4.044   6.314   5.215
 7773TIP3   OH223261   1.446   6.554   3.415
 7773TIP3    H123262   1.426   6.522   3.327
 7773TIP3    H223263   1.377   6.617   3.434
 7774TIP3   OH223264   7.914   5.996   3.092
 7774TIP3    H123265   7.903   5.960   3.180
 7774TIP3    H223266   7.979   5.939   3.050
 7775TIP3   OH223267   7.023   6.735   3.402
 7775TIP3    H123268   6.969   6.693   3.468
 7775TIP3    H223269   6.961   6.786   3.350
 7776TIP3   OH223270   1.512   6.392   4.956
 7776TIP3    H123271   1.605   6.369   4.948
 7776TIP3    H223272   1.511   6.487   4.941
 7777TIP3   OH223273   3.800   4.244   0.738
 7777TIP3    H123274   3.733   4.309   0.759
 7777TIP3    H223275   3.845   4.229   0.821
 7778TIP3   OH223276   4.272   2.487   3.966
 7778TIP3    H123277   4.276   2.542   4.045
 7778TIP3    H223278   4.362   2.486   3.934
 7779TIP3   OH223279   6.048   5.885   0.672
 7779TIP3    H123280   6.044   5.907   0.579
 7779TIP3    H223281   6.019   5.794   0.678
 7780TIP3   OH223282   8.196   3.944   5.719
 7780TIP3    H123283   8.126   3.978   5.664
 7780TIP3    H223284   8.255   4.018   5.732
 7781TIP3   OH223285   6.562   0.789   4.031
 7781TIP3    H123286   6.623   0.722   3.999
 7781TIP3    H223287   6.564   0.779   4.126
 7782TIP3   OH223288   1.078   3.284   0.401
 7782TIP3    H123289   0.983   3.296   0.398
 7782TIP3    H223290   1.091   3.209   0.460
 7783TIP3   OH223291   2.659   3.594   1.766
 7783TIP3    H123292   2.642   3.622   1.676
 7783TIP3    H223293   2.579   3.614   1.813
 7784TIP3   OH223294   3.921   0.856   3.984
 7784TIP3    H123295   3.993   0.798   3.959
 7784TIP3    H223296   3.905   0.910   3.907
 7785TIP3   OH223297   8.243   2.397   1.434
 7785TIP3    H123298   8.305   2.469   1.439
 7785TIP3    H223299   8.201   2.396   1.521
 7786TIP3   OH223300   6.084   4.787   1.814
 7786TIP3    H123301   6.008   4.773   1.870
 7786TIP3    H223302   6.124   4.701   1.805
 7787TIP3   OH223303   2.716   0.131   2.236
 7787TIP3    H123304   2.682   0.205   2.287
 7787TIP3    H223305   2.717   0.162   2.146
 7788TIP3   OH223306   6.170   5.704   5.711
 7788TIP3    H123307   6.206   5.699   5.622
 7788TIP3    H223308   6.246   5.692   5.768
 7789TIP3   OH223309   5.714   3.953   2.538
 7789TIP3    H123310   5.759   3.944   2.454
 7789TIP3    H223311   5.783   3.937   2.603
 7790TIP3   OH223312   2.437   4.988   4.550
 7790TIP3    H123313   2.518   4.961   4.506
 7790TIP3    H223314   2.386   4.908   4.558
 7791TIP3   OH223315   2.354   3.979   2.822
 7791TIP3    H123316   2.326   3.923   2.750
 7791TIP3    H223317   2.304   3.949   2.898
 7792TIP3   OH223318   5.219   1.225   2.936
 7792TIP3    H123319   5.158   1.254   3.004
 7792TIP3    H223320   5.267   1.304   2.912
 7793TIP3   OH223321   2.269   5.709   1.362
 7793TIP3    H123322   2.175   5.710   1.345
 7793TIP3    H223323   2.281   5.639   1.426
 7794TIP3   OH223324   2.728   6.425   0.495
 7794TIP3    H123325   2.638   6.442   0.469
 7794TIP3    H223326   2.772   6.509   0.484
 7795TIP3   OH223327   0.833   4.823   0.080
 7795TIP3    H123328   0.799   4.747   0.127
 7795TIP3    H223329   0.788   4.898   0.121
 7796TIP3   OH223330   5.759   2.427   3.426
 7796TIP3    H123331   5.769   2.332   3.423
 7796TIP3    H223332   5.774   2.456   3.336
 7797TIP3   OH223333   8.272   6.401   5.782
 7797TIP3    H123334   8.348   6.370   5.831
 7797TIP3    H223335   8.211   6.432   5.848
 7798TIP3   OH223336   3.977   1.946   1.914
 7798TIP3    H123337   3.887   1.980   1.914
 7798TIP3    H223338   3.969   1.858   1.951
 7799TIP3   OH223339   1.935   1.112   2.881
 7799TIP3    H123340   1.868   1.143   2.942
 7799TIP3    H223341   1.914   1.020   2.867
 7800TIP3   OH223342   6.085   4.265   3.603
 7800TIP3    H123343   5.992   4.249   3.617
 7800TIP3    H223344   6.123   4.178   3.589
 7801TIP3   OH223345   6.052   1.307   3.813
 7801TIP3    H123346   6.057   1.226   3.763
 7801TIP3    H223347   6.144   1.331   3.829
 7802TIP3   OH223348   2.962   7.537   6.061
 7802TIP3    H123349   2.884   7.508   6.014
 7802TIP3    H223350   2.985   7.463   6.117
 7803TIP3   OH223351   4.216   4.054   5.053
 7803TIP3    H123352   4.221   4.149   5.067
 7803TIP3    H223353   4.141   4.042   4.995
 7804TIP3   OH223354   7.150   0.285   3.962
 7804TIP3    H123355   7.217   0.354   3.964
 7804TIP3    H223356   7.070   0.327   3.993
 7805TIP3   OH223357   2.193   0.089   0.462
 7805TIP3    H123358   2.101   0.064   0.456
 7805TIP3    H223359   2.228   0.032   0.531
 7806TIP3   OH223360   3.380   5.572   4.316
 7806TIP3    H123361   3.335   5.500   4.271
 7806TIP3    H223362   3.407   5.631   4.245
 7807TIP3   OH223363   2.596   6.361   1.616
 7807TIP3    H123364   2.606   6.424   1.544
 7807TIP3    H223365   2.551   6.286   1.576
 7808TIP3   OH223366   2.778   4.923   2.191
 7808TIP3    H123367   2.771   4.829   2.209
 7808TIP3    H223368   2.871   4.939   2.181
 7809TIP3   OH223369   3.712   5.254   6.645
 7809TIP3    H123370   3.707   5.200   6.724
 7809TIP3    H223371   3.683   5.341   6.673
 7810TIP3   OH223372   5.500   7.273   4.888
 7810TIP3    H123373   5.511   7.211   4.960
 7810TIP3    H223374   5.548   7.351   4.915
 7811TIP3   OH223375   5.839   3.453   0.993
 7811TIP3    H123376   5.905   3.384   1.003
 7811TIP3    H223377   5.770   3.412   0.941
 7812TIP3   OH223378   7.882   5.807   1.826
 7812TIP3    H123379   7.957   5.863   1.846
 7812TIP3    H223380   7.912   5.752   1.753
 7813TIP3   OH223381   5.874   6.226   2.850
 7813TIP3    H123382   5.846   6.152   2.905
 7813TIP3    H223383   5.941   6.271   2.902
 7814TIP3   OH223384   7.768   1.277   4.564
 7814TIP3    H123385   7.827   1.211   4.527
 7814TIP3    H223386   7.825   1.336   4.613
 7815TIP3   OH223387   0.631   5.562   1.268
 7815TIP3    H123388   0.708   5.560   1.211
 7815TIP3    H223389   0.665   5.587   1.354
 7816TIP3   OH223390   0.852   3.786   6.346
 7816TIP3    H123391   0.931   3.789   6.292
 7816TIP3    H223392   0.868   3.715   6.407
 7817TIP3   OH223393   2.065   1.050   0.135
 7817TIP3    H123394   2.142   1.005   0.101
 7817TIP3    H223395   2.100   1.125   0.183
 7818TIP3   OH223396   6.516   6.573   4.399
 7818TIP3    H123397   6.513   6.486   4.358
 7818TIP3    H223398   6.609   6.596   4.397
 7819TIP3   OH223399   4.485   0.391   3.953
 7819TIP3    H123400   4.486   0.475   3.908
 7819TIP3    H223401   4.575   0.359   3.946
 7820TIP3   OH223402   8.048   3.683   4.403
 7820TIP3    H123403   7.977   3.706   4.343
 7820TIP3    H223404   8.126   3.680   4.347
 7821TIP3   OH223405   1.564   4.570   0.143
 7821TIP3    H123406   1.515   4.637   0.095
 7821TIP3    H223407   1.496   4.518   0.186
 7822TIP3   OH223408   1.656   5.248   5.487
 7822TIP3    H123409   1.639   5.193   5.563
 7822TIP3    H223410   1.573   5.251   5.440
 7823TIP3   OH223411   4.701   4.409   3.583
 7823TIP3    H123412   4.771   4.361   3.627
 7823TIP3    H223413   4.620   4.375   3.622
 7824TIP3   OH223414   4.540   2.455   4.127
 7824TIP3    H123415   4.504   2.375   4.090
 7824TIP3    H223416   4.524   2.447   4.221
 7825TIP3   OH223417   2.682   6.583   3.411
 7825TIP3    H123418   2.624   6.524   3.458
 7825TIP3    H223419   2.770   6.557   3.439
 7826TIP3   OH223420   1.496   4.985   3.899
 7826TIP3    H123421   1.424   5.030   3.856
 7826TIP3    H223422   1.562   5.053   3.912
 7827TIP3   OH223423   6.472   5.063   6.253
 7827TIP3    H123424   6.381   5.079   6.228
 7827TIP3    H223425   6.508   5.011   6.180
 7828TIP3   OH223426   2.414   2.086   3.523
 7828TIP3    H123427   2.372   2.000   3.521
 7828TIP3    H223428   2.489   2.075   3.581
 7829TIP3   OH223429   3.587   2.329   3.862
 7829TIP3    H123430   3.615   2.250   3.816
 7829TIP3    H223431   3.551   2.385   3.794
 7830TIP3   OH223432   7.492   3.281   3.170
 7830TIP3    H123433   7.506   3.245   3.082
 7830TIP3    H223434   7.478   3.374   3.155
 7831TIP3   OH223435   3.081   2.069   0.053
 7831TIP3    H123436   3.056   2.066   0.145
 7831TIP3    H223437   3.151   2.135   0.049
 7832TIP3   OH223438   4.067   5.797   3.296
 7832TIP3    H123439   4.062   5.851   3.218
 7832TIP3    H223440   3.993   5.824   3.349
 7833TIP3   OH223441   1.895   2.528   1.106
 7833TIP3    H123442   1.848   2.452   1.141
 7833TIP3    H223443   1.846   2.604   1.137
 7834TIP3   OH223444   0.086   6.286   0.810
 7834TIP3    H123445   0.109   6.379   0.816
 7834TIP3    H223446   0.100   6.252   0.898
 7835TIP3   OH223447   1.718   3.474   5.907
 7835TIP3    H123448   1.724   3.512   5.820
 7835TIP3    H223449   1.669   3.392   5.894
 7836TIP3   OH223450   7.192   6.445   1.859
 7836TIP3    H123451   7.115   6.447   1.802
 7836TIP3    H223452   7.200   6.353   1.884
 7837TIP3   OH223453   4.041   3.840   2.141
 7837TIP3    H123454   4.006   3.821   2.228
 7837TIP3    H223455   4.095   3.763   2.120
 7838TIP3   OH223456   8.108   5.316   0.915
 7838TIP3    H123457   8.111   5.256   0.841
 7838TIP3    H223458   8.160   5.272   0.983
 7839TIP3   OH223459   3.600   6.630   2.601
 7839TIP3    H123460   3.557   6.708   2.634
 7839TIP3    H223461   3.589   6.565   2.671
 7840TIP3   OH223462   5.583   1.784   3.712
 7840TIP3    H123463   5.632   1.847   3.765
 7840TIP3    H223464   5.593   1.701   3.759
 7841TIP3   OH223465   3.720   2.193   1.715
 7841TIP3    H123466   3.720   2.157   1.804
 7841TIP3    H223467   3.735   2.287   1.727
 7842TIP3   OH223468   6.306   5.262   6.792
 7842TIP3    H123469   6.280   5.185   6.741
 7842TIP3    H223470   6.355   5.316   6.731
 7843TIP3   OH223471   1.409   5.220   5.359
 7843TIP3    H123472   1.385   5.138   5.316
 7843TIP3    H223473   1.330   5.273   5.355
 7844TIP3   OH223474   6.260   7.823   3.686
 7844TIP3    H123475   6.315   7.874   3.746
 7844TIP3    H223476   6.207   7.768   3.743
 7845TIP3   OH223477   6.965   7.441   3.479
 7845TIP3    H123478   6.952   7.393   3.398
 7845TIP3    H223479   7.060   7.455   3.484
 7846TIP3   OH223480   5.028   7.303   2.691
 7846TIP3    H123481   5.066   7.236   2.633
 7846TIP3    H223482   4.996   7.370   2.631
 7847TIP3   OH223483   3.639   7.760   2.566
 7847TIP3    H123484   3.571   7.692   2.572
 7847TIP3    H223485   3.721   7.711   2.570
 7848TIP3   OH223486   0.446   7.665   5.980
 7848TIP3    H123487   0.498   7.603   6.030
 7848TIP3    H223488   0.371   7.685   6.036
 7849TIP3   OH223489   4.258   5.799   4.315
 7849TIP3    H123490   4.329   5.751   4.271
 7849TIP3    H223491   4.299   5.834   4.394
 7850TIP3   OH223492   7.740   7.779   6.674
 7850TIP3    H123493   7.691   7.704   6.707
 7850TIP3    H223494   7.689   7.855   6.703
 7851TIP3   OH223495   2.272   7.683   2.996
 7851TIP3    H123496   2.312   7.738   2.929
 7851TIP3    H223497   2.187   7.659   2.960
 7852TIP3   OH223498   3.065   2.924   5.156
 7852TIP3    H123499   3.122   2.985   5.110
 7852TIP3    H223500   3.105   2.838   5.141
 7853TIP3   OH223501   0.905   0.912   3.404
 7853TIP3    H123502   0.864   0.848   3.346
 7853TIP3    H223503   0.833   0.947   3.456
 7854TIP3   OH223504   7.739   6.106   4.634
 7854TIP3    H123505   7.764   6.173   4.696
 7854TIP3    H223506   7.791   6.029   4.659
 7855TIP3   OH223507   1.353   7.301   4.927
 7855TIP3    H123508   1.288   7.290   4.858
 7855TIP3    H223509   1.364   7.396   4.935
 7856TIP3   OH223510   5.786   6.982   1.935
 7856TIP3    H123511   5.799   7.039   1.860
 7856TIP3    H223512   5.850   6.912   1.924
 7857TIP3   OH223513   2.073   4.449   0.123
 7857TIP3    H123514   2.005   4.464   0.057
 7857TIP3    H223515   2.078   4.531   0.172
 7858TIP3   OH223516   0.209   5.672   4.533
 7858TIP3    H123517   0.206   5.637   4.622
 7858TIP3    H223518   0.157   5.611   4.481
 7859TIP3   OH223519   1.056   6.574   2.246
 7859TIP3    H123520   1.148   6.551   2.253
 7859TIP3    H223521   1.041   6.585   2.152
 7860TIP3   OH223522   3.727   6.949   0.877
 7860TIP3    H123523   3.713   6.973   0.785
 7860TIP3    H223524   3.804   6.892   0.875
 7861TIP3   OH223525   4.108   4.921   1.333
 7861TIP3    H123526   4.202   4.915   1.320
 7861TIP3    H223527   4.070   4.872   1.260
 7862TIP3   OH223528   0.449   1.111   1.832
 7862TIP3    H123529   0.411   1.135   1.747
 7862TIP3    H223530   0.382   1.058   1.875
 7863TIP3   OH223531   7.752   1.339   5.783
 7863TIP3    H123532   7.836   1.291   5.787
 7863TIP3    H223533   7.775   1.428   5.810
 7864TIP3   OH223534   7.615   3.375   1.430
 7864TIP3    H123535   7.558   3.444   1.465
 7864TIP3    H223536   7.575   3.293   1.459
 7865TIP3   OH223537   4.249   6.525   1.066
 7865TIP3    H123538   4.260   6.595   1.002
 7865TIP3    H223539   4.338   6.501   1.092
 7866TIP3   OH223540   3.178   5.556   0.517
 7866TIP3    H123541   3.194   5.631   0.460
 7866TIP3    H223542   3.119   5.500   0.468
 7867TIP3   OH223543   5.912   3.453   3.596
 7867TIP3    H123544   5.817   3.440   3.586
 7867TIP3    H223545   5.921   3.541   3.633
 7868TIP3   OH223546   3.939   5.213   4.460
 7868TIP3    H123547   3.940   5.291   4.406
 7868TIP3    H223548   3.875   5.232   4.529
 7869TIP3   OH223549   4.819   6.263   3.173
 7869TIP3    H123550   4.847   6.212   3.096
 7869TIP3    H223551   4.735   6.300   3.147
 7870TIP3   OH223552   3.067   4.415   6.055
 7870TIP3    H123553   3.087   4.484   6.118
 7870TIP3    H223554   3.020   4.459   5.984
 7871TIP3   OH223555   2.712   5.267   1.653
 7871TIP3    H123556   2.720   5.355   1.617
 7871TIP3    H223557   2.696   5.211   1.577
 7872TIP3   OH223558   4.751  -0.015   5.341
 7872TIP3    H123559   4.806   0.063   5.349
 7872TIP3    H223560   4.662   0.019   5.334
 7873TIP3   OH223561   1.078   6.286   2.016
 7873TIP3    H123562   1.096   6.339   1.939
 7873TIP3    H223563   1.156   6.296   2.071
 7874TIP3   OH223564   7.221   7.040   0.560
 7874TIP3    H123565   7.274   7.084   0.494
 7874TIP3    H223566   7.184   7.111   0.613
 7875TIP3   OH223567   4.246   0.923   6.495
 7875TIP3    H123568   4.208   1.008   6.516
 7875TIP3    H223569   4.250   0.876   6.578
 7876TIP3   OH223570   2.483   5.888   5.220
 7876TIP3    H123571   2.524   5.971   5.195
 7876TIP3    H223572   2.424   5.867   5.147
 7877TIP3   OH223573   7.355   5.022   3.104
 7877TIP3    H123574   7.357   5.066   3.019
 7877TIP3    H223575   7.346   4.929   3.083
 7878TIP3   OH223576   1.988   0.801   4.771
 7878TIP3    H123577   1.981   0.749   4.691
 7878TIP3    H223578   2.066   0.767   4.815
 7879TIP3   OH223579   5.352   6.770   3.752
 7879TIP3    H123580   5.269   6.773   3.800
 7879TIP3    H223581   5.329   6.728   3.669
 7880TIP3   OH223582   8.007   2.290   0.579
 7880TIP3    H123583   8.047   2.340   0.650
 7880TIP3    H223584   8.015   2.347   0.502
 7881TIP3   OH223585   6.078   1.047   5.510
 7881TIP3    H123586   6.001   1.100   5.529
 7881TIP3    H223587   6.149   1.091   5.558
 7882TIP3   OH223588   0.609   7.264   0.607
 7882TIP3    H123589   0.585   7.309   0.527
 7882TIP3    H223590   0.689   7.306   0.636
 7883TIP3   OH223591   6.625   1.698   6.546
 7883TIP3    H123592   6.703   1.668   6.593
 7883TIP3    H223593   6.578   1.618   6.523
 7884TIP3   OH223594   0.785   0.936   4.791
 7884TIP3    H123595   0.760   0.854   4.835
 7884TIP3    H223596   0.722   1.001   4.823
 7885TIP3   OH223597   4.054   1.918   3.121
 7885TIP3    H123598   4.108   1.915   3.199
 7885TIP3    H223599   4.101   1.977   3.061
 7886TIP3   OH223600   4.198   6.536   3.717
 7886TIP3    H123601   4.155   6.451   3.730
 7886TIP3    H223602   4.128   6.600   3.727
 7887TIP3   OH223603   5.709   5.378   2.875
 7887TIP3    H123604   5.749   5.291   2.873
 7887TIP3    H223605   5.737   5.419   2.794
 7888TIP3   OH223606   0.676   3.659   5.909
 7888TIP3    H123607   0.701   3.739   5.955
 7888TIP3    H223608   0.728   3.590   5.951
 7889TIP3   OH223609   6.945   1.882   2.644
 7889TIP3    H123610   6.918   1.967   2.610
 7889TIP3    H223611   6.921   1.885   2.737
 7890TIP3   OH223612   4.028   6.737   5.366
 7890TIP3    H123613   4.070   6.709   5.284
 7890TIP3    H223614   3.937   6.708   5.357
 7891TIP3   OH223615   3.064   3.242   5.251
 7891TIP3    H123616   3.084   3.240   5.157
 7891TIP3    H223617   3.135   3.292   5.290
 7892TIP3   OH223618   1.024   4.883   2.486
 7892TIP3    H123619   1.020   4.839   2.571
 7892TIP3    H223620   0.933   4.893   2.460
 7893TIP3   OH223621   7.666   0.914   5.811
 7893TIP3    H123622   7.603   0.977   5.844
 7893TIP3    H223623   7.703   0.955   5.733
 7894TIP3   OH223624   1.859   6.333   1.138
 7894TIP3    H123625   1.801   6.279   1.192
 7894TIP3    H223626   1.895   6.397   1.199
 7895TIP3   OH223627   2.055   7.604   1.648
 7895TIP3    H123628   1.995   7.629   1.718
 7895TIP3    H223629   2.009   7.627   1.567
 7896TIP3   OH223630   0.279   1.797   3.066
 7896TIP3    H123631   0.324   1.764   3.144
 7896TIP3    H223632   0.205   1.846   3.101
 7897TIP3   OH223633   5.405   4.776   5.314
 7897TIP3    H123634   5.416   4.866   5.284
 7897TIP3    H223635   5.493   4.739   5.310
 7898TIP3   OH223636   1.608   3.068   2.708
 7898TIP3    H123637   1.670   3.097   2.774
 7898TIP3    H223638   1.655   3.000   2.660
 7899TIP3   OH223639   5.709   2.665   4.989
 7899TIP3    H123640   5.635   2.648   4.930
 7899TIP3    H223641   5.727   2.580   5.029
 7900TIP3   OH223642   1.159   0.608   4.472
 7900TIP3    H123643   1.221   0.678   4.491
 7900TIP3    H223644   1.166   0.594   4.378
 7901TIP3   OH223645   3.970   3.117   0.443
 7901TIP3    H123646   3.988   3.083   0.356
 7901TIP3    H223647   4.055   3.149   0.475
 7902TIP3   OH223648   6.771   3.673   1.304
 7902TIP3    H123649   6.790   3.599   1.246
 7902TIP3    H223650   6.714   3.637   1.372
 7903TIP3   OH223651   5.077   1.395   0.376
 7903TIP3    H123652   5.001   1.453   0.383
 7903TIP3    H223653   5.149   1.445   0.417
 7904TIP3   OH223654   6.424   3.099   2.274
 7904TIP3    H123655   6.447   3.155   2.200
 7904TIP3    H223656   6.461   3.014   2.253
 7905TIP3   OH223657   6.805   0.365   4.538
 7905TIP3    H123658   6.749   0.306   4.487
 7905TIP3    H223659   6.846   0.309   4.603
 7906TIP3   OH223660   1.711   2.168   4.215
 7906TIP3    H123661   1.801   2.150   4.190
 7906TIP3    H223662   1.718   2.218   4.296
 7907TIP3   OH223663   1.514   6.158   4.422
 7907TIP3    H123664   1.457   6.200   4.358
 7907TIP3    H223665   1.584   6.117   4.371
 7908TIP3   OH223666   7.413   7.340   3.554
 7908TIP3    H123667   7.340   7.291   3.593
 7908TIP3    H223668   7.406   7.323   3.460
 7909TIP3   OH223669   7.983   1.990   5.786
 7909TIP3    H123670   8.051   1.935   5.826
 7909TIP3    H223671   8.012   2.002   5.696
 7910TIP3   OH223672   2.653   0.633   5.158
 7910TIP3    H123673   2.664   0.606   5.250
 7910TIP3    H223674   2.584   0.700   5.162
 7911TIP3   OH223675   4.013   0.032   2.081
 7911TIP3    H123676   3.981   0.105   2.134
 7911TIP3    H223677   3.986   0.054   1.992
 7912TIP3   OH223678   6.708   6.906   5.316
 7912TIP3    H123679   6.765   6.983   5.309
 7912TIP3    H223680   6.706   6.870   5.227
 7913TIP3   OH223681   2.525   2.243   3.871
 7913TIP3    H123682   2.606   2.282   3.839
 7913TIP3    H223683   2.524   2.154   3.835
 7914TIP3   OH223684   3.840   0.484   5.535
 7914TIP3    H123685   3.831   0.449   5.623
 7914TIP3    H223686   3.864   0.576   5.548
 7915TIP3   OH223687   0.661   0.482   5.397
 7915TIP3    H123688   0.619   0.543   5.457
 7915TIP3    H223689   0.746   0.463   5.438
 7916TIP3   OH223690   6.953   3.238   4.828
 7916TIP3    H123691   6.912   3.152   4.836
 7916TIP3    H223692   6.958   3.271   4.917
 7917TIP3   OH223693   3.445   3.406   4.644
 7917TIP3    H123694   3.469   3.478   4.586
 7917TIP3    H223695   3.482   3.430   4.729
 7918TIP3   OH223696   4.085   1.846   3.421
 7918TIP3    H123697   4.051   1.757   3.414
 7918TIP3    H223698   4.154   1.839   3.487
 7919TIP3   OH223699   5.182   4.768   1.561
 7919TIP3    H123700   5.158   4.818   1.483
 7919TIP3    H223701   5.099   4.730   1.591
 7920TIP3   OH223702   5.791   2.195   3.699
 7920TIP3    H123703   5.728   2.124   3.710
 7920TIP3    H223704   5.756   2.267   3.751
 7921TIP3   OH223705   6.159   6.655   4.772
 7921TIP3    H123706   6.127   6.729   4.721
 7921TIP3    H223707   6.194   6.595   4.706
 7922TIP3   OH223708   2.521   0.712   4.587
 7922TIP3    H123709   2.576   0.713   4.508
 7922TIP3    H223710   2.577   0.745   4.656
 7923TIP3   OH223711   6.376   4.186   5.692
 7923TIP3    H123712   6.419   4.268   5.719
 7923TIP3    H223713   6.397   4.124   5.761
 7924TIP3   OH223714   6.534   3.061   2.810
 7924TIP3    H123715   6.559   3.049   2.718
 7924TIP3    H223716   6.459   3.003   2.822
 7925TIP3   OH223717   2.669   0.213   6.213
 7925TIP3    H123718   2.723   0.273   6.265
 7925TIP3    H223719   2.713   0.129   6.222
 7926TIP3   OH223720   2.251   0.210   3.128
 7926TIP3    H123721   2.300   0.146   3.078
 7926TIP3    H223722   2.159   0.186   3.114
 7927TIP3   OH223723   5.176   5.499   4.970
 7927TIP3    H123724   5.132   5.445   5.036
 7927TIP3    H223725   5.267   5.501   4.998
 7928TIP3   OH223726   3.747   2.082   3.001
 7928TIP3    H123727   3.756   2.132   3.083
 7928TIP3    H223728   3.667   2.116   2.961
 7929TIP3   OH223729   6.337   4.214   0.178
 7929TIP3    H123730   6.365   4.171   0.098
 7929TIP3    H223731   6.359   4.152   0.248
 7930TIP3   OH223732   2.125   6.442   1.298
 7930TIP3    H123733   2.175   6.484   1.229
 7930TIP3    H223734   2.186   6.435   1.372
 7931TIP3   OH223735   2.216   6.330   4.473
 7931TIP3    H123736   2.134   6.312   4.518
 7931TIP3    H223737   2.194   6.400   4.411
 7932TIP3   OH223738   0.275   5.921   4.695
 7932TIP3    H123739   0.302   5.830   4.684
 7932TIP3    H223740   0.307   5.966   4.617
 7933TIP3   OH223741   2.820   5.797   3.127
 7933TIP3    H123742   2.882   5.821   3.059
 7933TIP3    H223743   2.867   5.734   3.182
 7934TIP3   OH223744   0.826   5.730   0.090
 7934TIP3    H123745   0.760   5.673   0.050
 7934TIP3    H223746   0.779   5.810   0.114
 7935TIP3   OH223747   6.793   5.051   2.196
 7935TIP3    H123748   6.760   5.089   2.115
 7935TIP3    H223749   6.854   4.983   2.168
 7936TIP3   OH223750   7.103   5.418   0.927
 7936TIP3    H123751   7.085   5.428   0.833
 7936TIP3    H223752   7.048   5.346   0.955
 7937TIP3   OH223753   5.092   6.541   6.527
 7937TIP3    H123754   5.108   6.630   6.495
 7937TIP3    H223755   5.149   6.486   6.473
 7938TIP3   OH223756   2.808   6.333   3.782
 7938TIP3    H123757   2.810   6.429   3.782
 7938TIP3    H223758   2.844   6.308   3.697
 7939TIP3   OH223759   1.505   7.115   6.317
 7939TIP3    H123760   1.444   7.059   6.268
 7939TIP3    H223761   1.571   7.055   6.350
 7940TIP3   OH223762   6.555   5.958   3.738
 7940TIP3    H123763   6.537   5.922   3.825
 7940TIP3    H223764   6.651   5.954   3.730
 7941TIP3   OH223765   7.836   1.725   6.540
 7941TIP3    H123766   7.820   1.759   6.452
 7941TIP3    H223767   7.797   1.791   6.598
 7942TIP3   OH223768   1.521   7.362   1.448
 7942TIP3    H123769   1.603   7.326   1.415
 7942TIP3    H223770   1.456   7.338   1.382
 7943TIP3   OH223771   2.169   3.576   0.191
 7943TIP3    H123772   2.158   3.617   0.277
 7943TIP3    H223773   2.090   3.522   0.180
 7944TIP3   OH223774   7.009   3.494   0.211
 7944TIP3    H123775   6.950   3.532   0.276
 7944TIP3    H223776   6.959   3.497   0.129
 7945TIP3   OH223777   4.598   7.576   0.873
 7945TIP3    H123778   4.681   7.536   0.898
 7945TIP3    H223779   4.568   7.620   0.953
 7946TIP3   OH223780   7.899   6.987   5.542
 7946TIP3    H123781   7.899   6.892   5.531
 7946TIP3    H223782   7.812   7.014   5.514
 7947TIP3   OH223783   0.129   0.796   0.889
 7947TIP3    H123784   0.122   0.851   0.812
 7947TIP3    H223785   0.039   0.767   0.907
 7948TIP3   OH223786   2.888   0.490   3.079
 7948TIP3    H123787   2.891   0.429   3.153
 7948TIP3    H223788   2.937   0.566   3.109
 7949TIP3   OH223789   0.239   2.751   3.025
 7949TIP3    H123790   0.197   2.759   2.940
 7949TIP3    H223791   0.326   2.716   3.007
 7950TIP3   OH223792   3.413   2.204   3.221
 7950TIP3    H123793   3.369   2.119   3.223
 7950TIP3    H223794   3.369   2.252   3.152
 7951TIP3   OH223795   2.305   1.689   6.758
 7951TIP3    H123796   2.237   1.656   6.700
 7951TIP3    H223797   2.259   1.745   6.821
 7952TIP3   OH223798   6.037   0.873   6.271
 7952TIP3    H123799   5.969   0.886   6.337
 7952TIP3    H223800   5.996   0.815   6.206
 7953TIP3   OH223801   0.400   0.769   0.663
 7953TIP3    H123802   0.340   0.813   0.603
 7953TIP3    H223803   0.414   0.832   0.734
 7954TIP3   OH223804   0.782   4.089   5.053
 7954TIP3    H123805   0.751   4.164   5.003
 7954TIP3    H223806   0.719   4.020   5.035
 7955TIP3   OH223807   0.264   4.951   5.700
 7955TIP3    H123808   0.202   4.913   5.762
 7955TIP3    H223809   0.221   5.030   5.668
 7956TIP3   OH223810   2.448   6.819   0.494
 7956TIP3    H123811   2.464   6.725   0.506
 7956TIP3    H223812   2.474   6.836   0.404
 7957TIP3   OH223813   4.443   1.681   5.315
 7957TIP3    H123814   4.423   1.664   5.223
 7957TIP3    H223815   4.369   1.645   5.362
 7958TIP3   OH223816   6.881   7.277   1.506
 7958TIP3    H123817   6.970   7.302   1.484
 7958TIP3    H223818   6.890   7.199   1.560
 7959TIP3   OH223819   4.100   1.732   0.842
 7959TIP3    H123820   4.113   1.814   0.890
 7959TIP3    H223821   4.150   1.667   0.892
 7960TIP3   OH223822   5.651   7.393   1.327
 7960TIP3    H123823   5.661   7.486   1.347
 7960TIP3    H223824   5.741   7.359   1.325
 7961TIP3   OH223825   6.424   4.493   0.042
 7961TIP3    H123826   6.335   4.478   0.010
 7961TIP3    H223827   6.464   4.548  -0.025
 7962TIP3   OH223828   6.876   3.168   6.282
 7962TIP3    H123829   6.789   3.148   6.316
 7962TIP3    H223830   6.932   3.101   6.318
 7963TIP3   OH223831   3.778   6.295   3.227
 7963TIP3    H123832   3.715   6.266   3.161
 7963TIP3    H223833   3.782   6.222   3.290
 7964TIP3   OH223834   0.779   0.187   4.776
 7964TIP3    H123835   0.830   0.106   4.780
 7964TIP3    H223836   0.808   0.228   4.694
 7965TIP3   OH223837   2.446   3.305   5.555
 7965TIP3    H123838   2.454   3.393   5.520
 7965TIP3    H223839   2.535   3.283   5.585
 7966TIP3   OH223840   1.169   5.780   3.534
 7966TIP3    H123841   1.170   5.759   3.627
 7966TIP3    H223842   1.087   5.827   3.521
 7967TIP3   OH223843   4.062   1.497   2.447
 7967TIP3    H123844   4.064   1.402   2.437
 7967TIP3    H223845   4.130   1.516   2.513
 7968TIP3   OH223846   6.874   4.955   3.420
 7968TIP3    H123847   6.857   4.914   3.505
 7968TIP3    H223848   6.795   5.006   3.402
 7969TIP3   OH223849   7.441   0.921   2.019
 7969TIP3    H123850   7.400   0.840   2.050
 7969TIP3    H223851   7.504   0.892   1.953
 7970TIP3   OH223852   0.707   4.197   1.094
 7970TIP3    H123853   0.748   4.205   1.008
 7970TIP3    H223854   0.613   4.201   1.077
 7971TIP3   OH223855   6.705   6.349   5.660
 7971TIP3    H123856   6.686   6.357   5.753
 7971TIP3    H223857   6.632   6.392   5.617
 7972TIP3   OH223858   5.110   1.123   5.678
 7972TIP3    H123859   5.050   1.192   5.650
 7972TIP3    H223860   5.192   1.143   5.632
 7973TIP3   OH223861   6.571   4.813   6.739
 7973TIP3    H123862   6.497   4.861   6.702
 7973TIP3    H223863   6.645   4.873   6.733
 7974TIP3   OH223864   2.579   5.074   0.059
 7974TIP3    H123865   2.611   5.161   0.036
 7974TIP3    H223866   2.525   5.048  -0.015
 7975TIP3   OH223867   6.049   7.200   0.442
 7975TIP3    H123868   5.979   7.162   0.390
 7975TIP3    H223869   6.021   7.290   0.458
 7976TIP3   OH223870   1.897   0.671   3.189
 7976TIP3    H123871   1.841   0.636   3.258
 7976TIP3    H223872   1.931   0.753   3.225
 7977TIP3   OH223873   6.544   4.338   5.188
 7977TIP3    H123874   6.530   4.270   5.254
 7977TIP3    H223875   6.478   4.320   5.121
 7978TIP3   OH223876   5.852   7.276   2.822
 7978TIP3    H123877   5.910   7.206   2.853
 7978TIP3    H223878   5.788   7.231   2.766
 7979TIP3   OH223879   4.532   2.151   4.314
 7979TIP3    H123880   4.515   2.057   4.323
 7979TIP3    H223881   4.498   2.173   4.227
 7980TIP3   OH223882   8.275   1.120   1.966
 7980TIP3    H123883   8.273   1.041   1.912
 7980TIP3    H223884   8.204   1.109   2.028
 7981TIP3   OH223885   7.201   5.118   1.884
 7981TIP3    H123886   7.267   5.114   1.815
 7981TIP3    H223887   7.137   5.182   1.852
 7982TIP3   OH223888   0.872   0.701   4.155
 7982TIP3    H123889   0.937   0.658   4.100
 7982TIP3    H223890   0.790   0.657   4.132
 7983TIP3   OH223891   3.832   7.494   3.812
 7983TIP3    H123892   3.895   7.555   3.851
 7983TIP3    H223893   3.826   7.422   3.874
 7984TIP3   OH223894   3.949   4.063   2.563
 7984TIP3    H123895   4.045   4.069   2.568
 7984TIP3    H223896   3.933   3.978   2.521
 7985TIP3   OH223897   1.588   1.928   0.203
 7985TIP3    H123898   1.681   1.946   0.214
 7985TIP3    H223899   1.584   1.834   0.185
 7986TIP3   OH223900   5.256   6.140   3.456
 7986TIP3    H123901   5.260   6.049   3.487
 7986TIP3    H223902   5.172   6.173   3.490
 7987TIP3   OH223903   4.495   5.109   0.934
 7987TIP3    H123904   4.455   5.024   0.914
 7987TIP3    H223905   4.425   5.159   0.974
 7988TIP3   OH223906   6.591   2.061   3.847
 7988TIP3    H123907   6.550   2.010   3.778
 7988TIP3    H223908   6.540   2.142   3.851
 7989TIP3   OH223909   2.323   5.623   6.759
 7989TIP3    H123910   2.333   5.705   6.711
 7989TIP3    H223911   2.331   5.647   6.851
 7990TIP3   OH223912   2.817   3.373   2.151
 7990TIP3    H123913   2.910   3.365   2.131
 7990TIP3    H223914   2.780   3.287   2.129
 7991TIP3   OH223915   4.990   0.417   6.251
 7991TIP3    H123916   4.924   0.474   6.211
 7991TIP3    H223917   4.942   0.361   6.311
 7992TIP3   OH223918   5.533   5.877   2.709
 7992TIP3    H123919   5.622   5.862   2.740
 7992TIP3    H223920   5.527   5.972   2.698
 7993TIP3   OH223921   1.918   0.649   0.205
 7993TIP3    H123922   1.825   0.667   0.217
 7993TIP3    H223923   1.959   0.679   0.287
 7994TIP3   OH223924   0.618   3.094   4.150
 7994TIP3    H123925   0.525   3.076   4.161
 7994TIP3    H223926   0.621   3.167   4.087
 7995TIP3   OH223927   5.178   1.846   1.952
 7995TIP3    H123928   5.109   1.912   1.962
 7995TIP3    H223929   5.149   1.791   1.879
 7996TIP3   OH223930   5.029   0.754   5.508
 7996TIP3    H123931   5.063   0.774   5.596
 7996TIP3    H223932   4.935   0.773   5.515
 7997TIP3   OH223933   1.602   5.452   1.831
 7997TIP3    H123934   1.615   5.358   1.819
 7997TIP3    H223935   1.620   5.490   1.744
 7998TIP3   OH223936   2.557   6.212   2.325
 7998TIP3    H123937   2.485   6.181   2.380
 7998TIP3    H223938   2.628   6.149   2.341
 7999TIP3   OH223939   4.841   3.188   6.343
 7999TIP3    H123940   4.912   3.224   6.396
 7999TIP3    H223941   4.795   3.128   6.402
 8000TIP3   OH223942   1.969   6.679   5.243
 8000TIP3    H123943   1.982   6.593   5.201
 8000TIP3    H223944   2.054   6.722   5.238
 8001TIP3   OH223945   3.138   7.263   2.248
 8001TIP3    H123946   3.091   7.346   2.260
 8001TIP3    H223947   3.176   7.271   2.160
 8002TIP3   OH223948   6.360   1.042   0.431
 8002TIP3    H123949   6.423   1.078   0.369
 8002TIP3    H223950   6.283   1.098   0.422
 8003TIP3   OH223951   4.564   5.587   5.285
 8003TIP3    H123952   4.475   5.555   5.303
 8003TIP3    H223953   4.552   5.679   5.262
 8004TIP3   OH223954   2.037   4.832   2.711
 8004TIP3    H123955   2.108   4.879   2.666
 8004TIP3    H223956   1.961   4.844   2.655
 8005TIP3   OH223957   6.006   6.447   5.705
 8005TIP3    H123958   6.052   6.374   5.746
 8005TIP3    H223959   5.964   6.408   5.628
 8006TIP3   OH223960   8.017   1.332   0.573
 8006TIP3    H123961   8.065   1.269   0.519
 8006TIP3    H223962   7.979   1.280   0.643
 8007TIP3   OH223963   7.948   4.438   4.012
 8007TIP3    H123964   7.945   4.356   3.962
 8007TIP3    H223965   8.004   4.496   3.959
 8008TIP3   OH223966   3.263   0.528   2.997
 8008TIP3    H123967   3.188   0.532   3.056
 8008TIP3    H223968   3.265   0.615   2.956
 8009TIP3   OH223969   3.900   5.380   1.235
 8009TIP3    H123970   3.896   5.310   1.300
 8009TIP3    H223971   3.821   5.432   1.251
 8010TIP3   OH223972   6.409   0.504   3.935
 8010TIP3    H123973   6.395   0.586   3.982
 8010TIP3    H223974   6.504   0.491   3.937
 8011TIP3   OH223975   4.207   6.315   1.438
 8011TIP3    H123976   4.264   6.369   1.383
 8011TIP3    H223977   4.264   6.243   1.467
 8012TIP3   OH223978   5.929   6.196   6.479
 8012TIP3    H123979   5.878   6.118   6.500
 8012TIP3    H223980   5.886   6.267   6.527
 8013TIP3   OH223981   0.116   7.479   4.648
 8013TIP3    H123982   0.181   7.532   4.695
 8013TIP3    H223983   0.166   7.438   4.577
 8014TIP3   OH223984   6.677   4.783   4.945
 8014TIP3    H123985   6.615   4.853   4.924
 8014TIP3    H223986   6.705   4.802   5.034
 8015TIP3   OH223987   6.034   0.110   3.065
 8015TIP3    H123988   6.016   0.167   3.140
 8015TIP3    H223989   6.055   0.025   3.104
 8016TIP3   OH223990   4.237   1.568   1.509
 8016TIP3    H123991   4.185   1.500   1.553
 8016TIP3    H223992   4.223   1.647   1.561
 8017TIP3   OH223993   8.205   0.045   0.728
 8017TIP3    H123994   8.292   0.013   0.705
 8017TIP3    H223995   8.211   0.066   0.821
 8018TIP3   OH223996   6.056   2.028   4.108
 8018TIP3    H123997   6.076   2.118   4.134
 8018TIP3    H223998   6.027   1.986   4.189
 8019TIP3   OH223999   2.557   7.605   4.790
 8019TIP3    H124000   2.580   7.698   4.789
 8019TIP3    H224001   2.463   7.604   4.806
 8020TIP3   OH224002   7.619   3.798   4.026
 8020TIP3    H124003   7.616   3.721   4.083
 8020TIP3    H224004   7.541   3.848   4.050
 8021TIP3   OH224005   1.152   6.249   0.645
 8021TIP3    H124006   1.195   6.271   0.727
 8021TIP3    H224007   1.128   6.157   0.654
 8022TIP3   OH224008   7.202   3.110   3.755
 8022TIP3    H124009   7.161   3.081   3.673
 8022TIP3    H224010   7.261   3.039   3.779
 8023TIP3   OH224011   6.219   0.098   4.148
 8023TIP3    H124012   6.170   0.147   4.082
 8023TIP3    H224013   6.154   0.043   4.190
 8024TIP3   OH224014   1.884   7.657   0.972
 8024TIP3    H124015   1.907   7.570   0.941
 8024TIP3    H224016   1.946   7.674   1.043
 8025TIP3   OH224017   5.465   2.610   3.787
 8025TIP3    H124018   5.402   2.545   3.754
 8025TIP3    H224019   5.540   2.602   3.729
 8026TIP3   OH224020   1.929   6.733   3.805
 8026TIP3    H124021   1.995   6.798   3.782
 8026TIP3    H224022   1.975   6.649   3.805
 8027TIP3   OH224023   3.348   2.395   4.336
 8027TIP3    H124024   3.315   2.452   4.266
 8027TIP3    H224025   3.269   2.364   4.380
 8028TIP3   OH224026   3.681   3.181   5.307
 8028TIP3    H124027   3.742   3.247   5.340
 8028TIP3    H224028   3.735   3.120   5.258
 8029TIP3   OH224029   1.655   5.801   2.618
 8029TIP3    H124030   1.681   5.830   2.531
 8029TIP3    H224031   1.723   5.740   2.645
 8030TIP3   OH224032   4.917   1.968   6.429
 8030TIP3    H124033   4.878   1.923   6.353
 8030TIP3    H224034   4.981   2.028   6.392
 8031TIP3   OH224035   0.249   1.266   2.973
 8031TIP3    H124036   0.278   1.357   2.980
 8031TIP3    H224037   0.202   1.261   2.890
 8032TIP3   OH224038   0.884   4.661   5.858
 8032TIP3    H124039   0.915   4.705   5.779
 8032TIP3    H224040   0.833   4.729   5.903
 8033TIP3   OH224041   2.095   7.173   0.936
 8033TIP3    H124042   2.176   7.210   0.900
 8033TIP3    H224043   2.115   7.080   0.949
 8034TIP3   OH224044   6.850   6.045   6.681
 8034TIP3    H124045   6.844   6.014   6.771
 8034TIP3    H224046   6.879   6.136   6.689
 8035TIP3   OH224047   7.901   5.045   5.688
 8035TIP3    H124048   7.847   5.038   5.767
 8035TIP3    H224049   7.844   5.088   5.624
 8036TIP3   OH224050   4.154   1.025   1.535
 8036TIP3    H124051   4.062   1.021   1.507
 8036TIP3    H224052   4.179   0.933   1.547
 8037TIP3   OH224053   4.049   1.972   5.127
 8037TIP3    H124054   4.099   2.026   5.189
 8037TIP3    H224055   3.987   2.034   5.088
 8038TIP3   OH224056   0.074   5.546   0.748
 8038TIP3    H124057   0.079   5.512   0.837
 8038TIP3    H224058   0.121   5.629   0.751
 8039TIP3   OH224059   2.557   5.794   1.334
 8039TIP3    H124060   2.565   5.869   1.275
 8039TIP3    H224061   2.465   5.792   1.359
 8040TIP3   OH224062   4.507   4.164   1.280
 8040TIP3    H124063   4.545   4.185   1.365
 8040TIP3    H224064   4.413   4.167   1.295
 8041TIP3   OH224065   0.624   0.762   2.838
 8041TIP3    H124066   0.620   0.670   2.811
 8041TIP3    H224067   0.656   0.759   2.928
 8042TIP3   OH224068   4.375   3.340   2.472
 8042TIP3    H124069   4.315   3.369   2.404
 8042TIP3    H224070   4.377   3.245   2.465
 8043TIP3   OH224071   3.925   4.747   3.547
 8043TIP3    H124072   4.014   4.749   3.583
 8043TIP3    H224073   3.868   4.749   3.624
 8044TIP3   OH224074   2.032   0.418   3.307
 8044TIP3    H124075   1.976   0.391   3.234
 8044TIP3    H224076   1.973   0.456   3.371
 8045TIP3   OH224077   1.225   1.200   6.620
 8045TIP3    H124078   1.206   1.266   6.686
 8045TIP3    H224079   1.271   1.248   6.551
 8046TIP3   OH224080   4.372   4.431   4.818
 8046TIP3    H124081   4.457   4.419   4.774
 8046TIP3    H224082   4.345   4.519   4.793
 8047TIP3   OH224083   0.380   0.476   5.026
 8047TIP3    H124084   0.372   0.447   5.117
 8047TIP3    H224085   0.470   0.454   5.002
 8048TIP3   OH224086   7.583   5.259   1.910
 8048TIP3    H124087   7.581   5.346   1.949
 8048TIP3    H224088   7.512   5.260   1.845
 8049TIP3   OH224089   2.070   1.933   6.514
 8049TIP3    H124090   2.072   1.869   6.443
 8049TIP3    H224091   1.994   1.909   6.566
 8050TIP3   OH224092   3.412   5.154   0.205
 8050TIP3    H124093   3.436   5.177   0.115
 8050TIP3    H224094   3.412   5.237   0.252
 8051TIP3   OH224095   5.595   1.881   2.818
 8051TIP3    H124096   5.564   1.894   2.728
 8051TIP3    H224097   5.534   1.818   2.855
 8052TIP3   OH224098   0.292   2.810   6.250
 8052TIP3    H124099   0.234   2.870   6.204
 8052TIP3    H224100   0.339   2.764   6.180
 8053TIP3   OH224101   7.065   2.652   4.233
 8053TIP3    H124102   7.150   2.688   4.259
 8053TIP3    H224103   7.011   2.729   4.217
 8054TIP3   OH224104   1.758   1.327   0.806
 8054TIP3    H124105   1.759   1.322   0.901
 8054TIP3    H224106   1.776   1.237   0.777
 8055TIP3   OH224107   6.049   7.091   5.304
 8055TIP3    H124108   6.031   7.124   5.392
 8055TIP3    H224109   6.044   6.996   5.313
 8056TIP3   OH224110   5.835   0.433   4.787
 8056TIP3    H124111   5.803   0.511   4.742
 8056TIP3    H224112   5.806   0.360   4.732
 8057TIP3   OH224113   2.293   3.348   5.987
 8057TIP3    H124114   2.232   3.332   5.916
 8057TIP3    H224115   2.379   3.353   5.944
 8058TIP3   OH224116   0.073   7.269   2.696
 8058TIP3    H124117   0.012   7.244   2.765
 8058TIP3    H224118   0.098   7.359   2.717
 8059TIP3   OH224119   4.304   4.893   4.025
 8059TIP3    H124120   4.393   4.925   4.042
 8059TIP3    H224121   4.300   4.882   3.930
 8060TIP3   OH224122   6.787   2.544   1.026
 8060TIP3    H124123   6.816   2.467   1.076
 8060TIP3    H224124   6.833   2.617   1.066
 8061TIP3   OH224125   0.853   6.547   5.725
 8061TIP3    H124126   0.889   6.512   5.644
 8061TIP3    H224127   0.794   6.479   5.757
 8062TIP3   OH224128   0.399   5.434   0.258
 8062TIP3    H124129   0.350   5.497   0.310
 8062TIP3    H224130   0.491   5.454   0.277
 8063TIP3   OH224131   0.576   0.099   5.240
 8063TIP3    H124132   0.482   0.082   5.247
 8063TIP3    H224133   0.617   0.014   5.259
 8064TIP3   OH224134   0.975   6.593   0.436
 8064TIP3    H124135   0.940   6.551   0.357
 8064TIP3    H224136   1.061   6.552   0.448
 8065TIP3   OH224137   7.334   2.907   2.717
 8065TIP3    H124138   7.320   2.891   2.624
 8065TIP3    H224139   7.419   2.950   2.722
 8066TIP3   OH224140   5.158   3.747   2.846
 8066TIP3    H124141   5.176   3.747   2.752
 8066TIP3    H224142   5.104   3.668   2.859
 8067TIP3   OH224143   3.770   2.540   0.570
 8067TIP3    H124144   3.858   2.532   0.532
 8067TIP3    H224145   3.742   2.628   0.545
 8068TIP3   OH224146   1.378   1.526   0.288
 8068TIP3    H124147   1.423   1.443   0.304
 8068TIP3    H224148   1.310   1.530   0.355
 8069TIP3   OH224149   6.961   7.050   2.953
 8069TIP3    H124150   6.955   6.973   2.896
 8069TIP3    H224151   6.950   7.015   3.042
 8070TIP3   OH224152   4.475   1.570   6.487
 8070TIP3    H124153   4.468   1.479   6.517
 8070TIP3    H224154   4.478   1.564   6.392
 8071TIP3   OH224155   0.312   1.609   1.466
 8071TIP3    H124156   0.285   1.547   1.398
 8071TIP3    H224157   0.248   1.680   1.459
 8072TIP3   OH224158   4.889   5.629   1.166
 8072TIP3    H124159   4.914   5.702   1.109
 8072TIP3    H224160   4.965   5.617   1.224
 8073TIP3   OH224161   2.378   1.093   5.115
 8073TIP3    H124162   2.354   1.186   5.120
 8073TIP3    H224163   2.353   1.066   5.027
 8074TIP3   OH224164   1.864   6.714   4.895
 8074TIP3    H124165   1.814   6.786   4.858
 8074TIP3    H224166   1.928   6.756   4.952
 8075TIP3   OH224167   4.929   4.432   5.860
 8075TIP3    H124168   4.922   4.381   5.941
 8075TIP3    H224169   5.023   4.440   5.845
 8076TIP3   OH224170   2.077   5.682   5.013
 8076TIP3    H124171   2.115   5.673   4.926
 8076TIP3    H224172   2.002   5.622   5.013
 8077TIP3   OH224173   2.058   1.249   5.601
 8077TIP3    H124174   2.091   1.330   5.641
 8077TIP3    H224175   1.980   1.227   5.652
 8078TIP3   OH224176   1.889   7.525   1.884
 8078TIP3    H124177   1.796   7.523   1.905
 8078TIP3    H224178   1.911   7.434   1.863
 8079TIP3   OH224179   2.916   0.795   0.570
 8079TIP3    H124180   2.827   0.767   0.548
 8079TIP3    H224181   2.944   0.732   0.636
 8080TIP3   OH224182   2.671   6.793   0.006
 8080TIP3    H124183   2.636   6.853  -0.059
 8080TIP3    H224184   2.619   6.808   0.085
 8081TIP3   OH224185   6.052   3.476   5.282
 8081TIP3    H124186   6.001   3.553   5.258
 8081TIP3    H224187   6.098   3.502   5.362
 8082TIP3   OH224188   8.203   3.921   1.095
 8082TIP3    H124189   8.257   3.876   1.160
 8082TIP3    H224190   8.144   3.853   1.062
 8083TIP3   OH224191   1.487   7.007   1.420
 8083TIP3    H124192   1.545   7.017   1.495
 8083TIP3    H224193   1.427   7.081   1.426
 8084TIP3   OH224194   1.406   7.154   0.921
 8084TIP3    H124195   1.325   7.195   0.952
 8084TIP3    H224196   1.455   7.135   1.001
 8085TIP3   OH224197   3.710   4.189   4.954
 8085TIP3    H124198   3.724   4.189   5.048
 8085TIP3    H224199   3.772   4.255   4.920
 8086TIP3   OH224200   7.986   7.522   5.723
 8086TIP3    H124201   8.000   7.449   5.662
 8086TIP3    H224202   8.031   7.495   5.802
 8087TIP3   OH224203   2.270   2.649   3.685
 8087TIP3    H124204   2.292   2.730   3.731
 8087TIP3    H224205   2.299   2.579   3.743
 8088TIP3   OH224206   5.323   5.586   3.002
 8088TIP3    H124207   5.233   5.558   3.013
 8088TIP3    H224208   5.338   5.585   2.907
 8089TIP3   OH224209   5.301   5.113   0.778
 8089TIP3    H124210   5.289   5.031   0.826
 8089TIP3    H224211   5.395   5.120   0.766
 8090TIP3   OH224212   1.743   4.851   0.426
 8090TIP3    H124213   1.729   4.776   0.484
 8090TIP3    H224214   1.657   4.889   0.414
 8091TIP3   OH224215   6.074   4.357   1.436
 8091TIP3    H124216   6.151   4.352   1.494
 8091TIP3    H224217   6.110   4.385   1.352
 8092TIP3   OH224218   1.751   0.925   6.655
 8092TIP3    H124219   1.657   0.908   6.646
 8092TIP3    H224220   1.771   0.898   6.745
 8093TIP3   OH224221   4.905   2.336   1.072
 8093TIP3    H124222   4.813   2.361   1.085
 8093TIP3    H224223   4.903   2.278   0.996
 8094TIP3   OH224224   1.269   0.230   3.324
 8094TIP3    H124225   1.272   0.274   3.238
 8094TIP3    H224226   1.193   0.267   3.367
 8095TIP3   OH224227   5.041   2.758   0.470
 8095TIP3    H124228   4.979   2.704   0.520
 8095TIP3    H224229   5.094   2.694   0.422
 8096TIP3   OH224230   0.233   7.255   3.037
 8096TIP3    H124231   0.252   7.297   2.953
 8096TIP3    H224232   0.139   7.240   3.035
 8097TIP3   OH224233   2.032   0.416   5.340
 8097TIP3    H124234   2.096   0.465   5.391
 8097TIP3    H224235   2.052   0.437   5.249
 8098TIP3   OH224236   3.356   3.399   6.553
 8098TIP3    H124237   3.383   3.428   6.640
 8098TIP3    H224238   3.353   3.304   6.559
 8099TIP3   OH224239   6.069   2.384   0.932
 8099TIP3    H124240   6.036   2.353   1.016
 8099TIP3    H224241   5.994   2.431   0.892
 8100TIP3   OH224242   7.076   1.067   3.428
 8100TIP3    H124243   6.991   1.073   3.386
 8100TIP3    H224244   7.095   0.973   3.429
 8101TIP3   OH224245   0.833   1.926   6.128
 8101TIP3    H124246   0.762   1.950   6.187
 8101TIP3    H224247   0.862   2.009   6.090
 8102TIP3   OH224248   7.885   3.360   4.477
 8102TIP3    H124249   7.922   3.365   4.389
 8102TIP3    H224250   7.921   3.280   4.514
 8103TIP3   OH224251   2.274   1.681   2.935
 8103TIP3    H124252   2.284   1.586   2.946
 8103TIP3    H224253   2.206   1.691   2.868
 8104TIP3   OH224254   7.272   4.201   5.279
 8104TIP3    H124255   7.222   4.126   5.248
 8104TIP3    H224256   7.335   4.219   5.209
 8105TIP3   OH224257   3.589   3.368   1.799
 8105TIP3    H124258   3.545   3.404   1.722
 8105TIP3    H224259   3.535   3.397   1.873
 8106TIP3   OH224260   5.030   7.784   3.112
 8106TIP3    H124261   5.109   7.811   3.158
 8106TIP3    H224262   5.006   7.861   3.060
 8107TIP3   OH224263   7.207   6.215   2.950
 8107TIP3    H124264   7.265   6.238   2.878
 8107TIP3    H224265   7.130   6.177   2.908
 8108TIP3   OH224266   3.029   1.514   1.685
 8108TIP3    H124267   3.119   1.546   1.675
 8108TIP3    H224268   3.000   1.551   1.768
 8109TIP3   OH224269   0.116   7.738   4.215
 8109TIP3    H124270   0.151   7.820   4.250
 8109TIP3    H224271   0.084   7.691   4.292
 8110TIP3   OH224272   6.156   5.066   6.651
 8110TIP3    H124273   6.133   4.990   6.598
 8110TIP3    H224274   6.172   5.136   6.587
 8111TIP3   OH224275   5.689   0.964   6.156
 8111TIP3    H124276   5.608   1.000   6.191
 8111TIP3    H224277   5.743   0.947   6.233
 8112TIP3   OH224278   6.365   0.231   3.902
 8112TIP3    H124279   6.378   0.323   3.881
 8112TIP3    H224280   6.450   0.201   3.935
 8113TIP3   OH224281   5.927   5.604   4.135
 8113TIP3    H124282   5.944   5.687   4.090
 8113TIP3    H224283   5.874   5.629   4.211
 8114TIP3   OH224284   5.724   2.520   2.338
 8114TIP3    H124285   5.771   2.443   2.371
 8114TIP3    H224286   5.642   2.520   2.386
 8115TIP3   OH224287   1.372   2.713   5.009
 8115TIP3    H124288   1.433   2.676   4.945
 8115TIP3    H224289   1.419   2.707   5.093
 8116TIP3   OH224290   5.393   6.251   6.589
 8116TIP3    H124291   5.303   6.220   6.598
 8116TIP3    H224292   5.444   6.172   6.569
 8117TIP3   OH224293   7.335   2.940   0.072
 8117TIP3    H124294   7.372   2.995   0.141
 8117TIP3    H224295   7.282   3.000   0.020
 8118TIP3   OH224296   3.320   6.254   4.146
 8118TIP3    H124297   3.332   6.238   4.052
 8118TIP3    H224298   3.244   6.200   4.169
 8119TIP3   OH224299   7.005   6.119   4.291
 8119TIP3    H124300   7.007   6.164   4.376
 8119TIP3    H224301   7.015   6.027   4.313
 8120TIP3   OH224302   1.502   2.695   4.091
 8120TIP3    H124303   1.557   2.636   4.141
 8120TIP3    H224304   1.556   2.723   4.018
 8121TIP3   OH224305   7.477   1.226   5.521
 8121TIP3    H124306   7.467   1.214   5.616
 8121TIP3    H224307   7.529   1.307   5.513
 8122TIP3   OH224308   6.590   6.944  -0.058
 8122TIP3    H124309   6.665   6.896  -0.094
 8122TIP3    H224310   6.630   7.005   0.005
 8123TIP3   OH224311   1.039   6.642   1.998
 8123TIP3    H124312   1.018   6.622   1.907
 8123TIP3    H224313   1.130   6.672   1.995
 8124TIP3   OH224314   5.727   5.307   6.564
 8124TIP3    H124315   5.639   5.343   6.569
 8124TIP3    H224316   5.716   5.213   6.583
 8125TIP3   OH224317   0.558   2.016   6.353
 8125TIP3    H124318   0.490   1.949   6.357
 8125TIP3    H224319   0.511   2.098   6.337
 8126TIP3   OH224320   1.324   1.591   4.049
 8126TIP3    H124321   1.363   1.654   4.109
 8126TIP3    H224322   1.344   1.626   3.962
 8127TIP3   OH224323   3.620   0.904   3.134
 8127TIP3    H124324   3.565   0.920   3.211
 8127TIP3    H224325   3.676   0.981   3.127
 8128TIP3   OH224326   0.877   1.765   4.496
 8128TIP3    H124327   0.855   1.789   4.406
 8128TIP3    H224328   0.964   1.727   4.491
 8129TIP3   OH224329   7.217   4.707   3.434
 8129TIP3    H124330   7.307   4.685   3.455
 8129TIP3    H224331   7.167   4.687   3.513
 8130TIP3   OH224332   3.622   0.452   1.153
 8130TIP3    H124333   3.545   0.448   1.096
 8130TIP3    H224334   3.596   0.403   1.231
 8131TIP3   OH224335   6.885   1.976   0.129
 8131TIP3    H124336   6.856   1.958   0.039
 8131TIP3    H224337   6.927   2.062   0.123
 8132TIP3   OH224338   5.585   7.383   6.245
 8132TIP3    H124339   5.510   7.416   6.195
 8132TIP3    H224340   5.636   7.461   6.267
 8133TIP3   OH224341   2.474   4.231   0.897
 8133TIP3    H124342   2.420   4.177   0.954
 8133TIP3    H224343   2.429   4.230   0.812
 8134TIP3   OH224344   3.234   1.650   6.387
 8134TIP3    H124345   3.325   1.643   6.359
 8134TIP3    H224346   3.186   1.591   6.328
 8135TIP3   OH224347   4.437   2.245   0.694
 8135TIP3    H124348   4.425   2.339   0.680
 8135TIP3    H224349   4.452   2.210   0.606
 8136TIP3   OH224350   3.879   1.746   5.321
 8136TIP3    H124351   3.789   1.757   5.351
 8136TIP3    H224352   3.932   1.792   5.386
 8137TIP3   OH224353   5.665   0.503   4.423
 8137TIP3    H124354   5.703   0.417   4.443
 8137TIP3    H224355   5.606   0.521   4.497
 8138TIP3   OH224356   1.839   3.961   5.206
 8138TIP3    H124357   1.919   4.013   5.197
 8138TIP3    H224358   1.802   3.988   5.290
 8139TIP3   OH224359   0.079   0.302   3.323
 8139TIP3    H124360   0.073   0.275   3.231
 8139TIP3    H224361   0.173   0.304   3.341
 8140TIP3   OH224362   0.271   6.364   3.261
 8140TIP3    H124363   0.303   6.352   3.350
 8140TIP3    H224364   0.348   6.394   3.212
 8141TIP3   OH224365   3.239   1.743   1.242
 8141TIP3    H124366   3.168   1.799   1.275
 8141TIP3    H224367   3.300   1.736   1.316
 8142TIP3   OH224368   4.191   2.698   3.757
 8142TIP3    H124369   4.127   2.651   3.703
 8142TIP3    H224370   4.206   2.641   3.832
 8143TIP3   OH224371   4.579   4.052   1.825
 8143TIP3    H124372   4.572   4.035   1.919
 8143TIP3    H224373   4.618   3.973   1.789
 8144TIP3   OH224374   6.261   6.692   3.294
 8144TIP3    H124375   6.316   6.629   3.341
 8144TIP3    H224376   6.178   6.690   3.340
 8145TIP3   OH224377   6.607   5.442   1.332
 8145TIP3    H124378   6.636   5.459   1.422
 8145TIP3    H224379   6.512   5.451   1.335
 8146TIP3   OH224380   3.769   4.954   5.735
 8146TIP3    H124381   3.835   4.972   5.801
 8146TIP3    H224382   3.695   5.010   5.758
 8147TIP3   OH224383   3.481   7.803   1.278
 8147TIP3    H124384   3.541   7.731   1.295
 8147TIP3    H224385   3.530   7.882   1.301
 8148TIP3   OH224386   7.181   6.544   2.342
 8148TIP3    H124387   7.090   6.517   2.358
 8148TIP3    H224388   7.232   6.465   2.357
 8149TIP3   OH224389   0.552   4.743   1.403
 8149TIP3    H124390   0.556   4.833   1.370
 8149TIP3    H224391   0.465   4.712   1.376
 8150TIP3   OH224392   0.369   4.109   6.113
 8150TIP3    H124393   0.286   4.136   6.073
 8150TIP3    H224394   0.436   4.149   6.057
 8151TIP3   OH224395   4.449   1.628   1.756
 8151TIP3    H124396   4.364   1.659   1.787
 8151TIP3    H224397   4.486   1.582   1.832
 8152TIP3   OH224398   7.742   1.058   5.568
 8152TIP3    H124399   7.802   1.004   5.517
 8152TIP3    H224400   7.663   1.064   5.514
 8153TIP3   OH224401   0.601   6.766   5.958
 8153TIP3    H124402   0.664   6.777   5.887
 8153TIP3    H224403   0.528   6.718   5.919
 8154TIP3   OH224404   6.915   4.402   6.046
 8154TIP3    H124405   6.973   4.339   6.088
 8154TIP3    H224406   6.973   4.456   5.992
 8155TIP3   OH224407   4.870   4.385   4.975
 8155TIP3    H124408   4.895   4.318   5.039
 8155TIP3    H224409   4.875   4.468   5.023
 8156TIP3   OH224410   1.359   6.995   3.796
 8156TIP3    H124411   1.417   7.001   3.872
 8156TIP3    H224412   1.349   6.901   3.780
 8157TIP3   OH224413   4.287   1.556   1.019
 8157TIP3    H124414   4.278   1.493   1.090
 8157TIP3    H224415   4.367   1.531   0.974
 8158TIP3   OH224416   7.921   2.369   0.271
 8158TIP3    H124417   7.962   2.309   0.207
 8158TIP3    H224418   7.954   2.455   0.248
 8159TIP3   OH224419   2.898   4.675   4.089
 8159TIP3    H124420   2.859   4.639   4.168
 8159TIP3    H224421   2.990   4.649   4.093
 8160TIP3   OH224422   4.296   7.047   1.531
 8160TIP3    H124423   4.358   7.113   1.498
 8160TIP3    H224424   4.294   7.062   1.625
 8161TIP3   OH224425   7.524   6.024   0.211
 8161TIP3    H124426   7.502   5.990   0.298
 8161TIP3    H224427   7.542   5.946   0.158
 8162TIP3   OH224428   4.676   1.052   2.234
 8162TIP3    H124429   4.615   1.122   2.261
 8162TIP3    H224430   4.631   1.007   2.163
 8163TIP3   OH224431   7.006   6.108   2.051
 8163TIP3    H124432   6.966   6.195   2.052
 8163TIP3    H224433   7.098   6.124   2.032
 8164TIP3   OH224434   6.474   4.867   4.497
 8164TIP3    H124435   6.414   4.829   4.561
 8164TIP3    H224436   6.431   4.854   4.413
 8165TIP3   OH224437   1.658   4.772   6.239
 8165TIP3    H124438   1.569   4.758   6.208
 8165TIP3    H224439   1.680   4.860   6.209
 8166TIP3   OH224440   4.740   2.973   4.849
 8166TIP3    H124441   4.695   2.931   4.922
 8166TIP3    H224442   4.760   2.901   4.788
 8167TIP3   OH224443   3.821   7.109   5.957
 8167TIP3    H124444   3.838   7.114   5.863
 8167TIP3    H224445   3.731   7.140   5.967
 8168TIP3   OH224446   7.514   0.589   1.651
 8168TIP3    H124447   7.428   0.592   1.691
 8168TIP3    H224448   7.512   0.511   1.594
 8169TIP3   OH224449   0.077   3.016   4.171
 8169TIP3    H124450   0.057   2.927   4.201
 8169TIP3    H224451   0.034   3.074   4.233
 8170TIP3   OH224452   0.437   0.303   2.468
 8170TIP3    H124453   0.497   0.240   2.427
 8170TIP3    H224454   0.427   0.372   2.402
 8171TIP3   OH224455   7.182   2.720   0.461
 8171TIP3    H124456   7.188   2.736   0.367
 8171TIP3    H224457   7.273   2.721   0.491
 8172TIP3   OH224458   7.738   6.544   6.020
 8172TIP3    H124459   7.747   6.515   5.929
 8172TIP3    H224460   7.817   6.595   6.037
 8173TIP3   OH224461   1.020   5.382   4.890
 8173TIP3    H124462   0.945   5.347   4.843
 8173TIP3    H224463   1.009   5.350   4.980
 8174TIP3   OH224464   6.731   7.249   3.996
 8174TIP3    H124465   6.711   7.342   3.981
 8174TIP3    H224466   6.669   7.202   3.939
 8175TIP3   OH224467   7.330   3.461   5.265
 8175TIP3    H124468   7.422   3.454   5.241
 8175TIP3    H224469   7.289   3.505   5.190
 8176TIP3   OH224470   5.061   1.504   6.133
 8176TIP3    H124471   5.060   1.452   6.052
 8176TIP3    H224472   5.073   1.440   6.203
 8177TIP3   OH224473   2.246   4.968   3.207
 8177TIP3    H124474   2.208   4.983   3.293
 8177TIP3    H224475   2.272   4.876   3.207
 8178TIP3   OH224476   0.173   1.873   1.694
 8178TIP3    H124477   0.260   1.837   1.707
 8178TIP3    H224478   0.186   1.948   1.637
 8179TIP3   OH224479   7.866   5.391   4.320
 8179TIP3    H124480   7.796   5.411   4.258
 8179TIP3    H224481   7.846   5.303   4.350
 8180TIP3   OH224482   7.400   1.590   6.667
 8180TIP3    H124483   7.437   1.563   6.583
 8180TIP3    H224484   7.476   1.611   6.722
 8181TIP3   OH224485   4.303   5.083   1.872
 8181TIP3    H124486   4.231   5.057   1.930
 8181TIP3    H224487   4.370   5.016   1.884
 8182TIP3   OH224488   6.761   5.318   6.598
 8182TIP3    H124489   6.734   5.367   6.676
 8182TIP3    H224490   6.852   5.293   6.616
 8183TIP3   OH224491   1.104   6.320   2.949
 8183TIP3    H124492   1.137   6.397   2.902
 8183TIP3    H224493   1.020   6.301   2.907
 8184TIP3   OH224494   3.907   4.464   5.104
 8184TIP3    H124495   3.994   4.436   5.131
 8184TIP3    H224496   3.902   4.556   5.128
 8185TIP3   OH224497   5.845   2.727   5.419
 8185TIP3    H124498   5.919   2.667   5.415
 8185TIP3    H224499   5.852   2.781   5.341
 8186TIP3   OH224500   1.935   4.656   0.787
 8186TIP3    H124501   1.920   4.748   0.765
 8186TIP3    H224502   1.868   4.636   0.852
 8187TIP3   OH224503   1.089   7.094   6.574
 8187TIP3    H124504   1.142   7.072   6.651
 8187TIP3    H224505   0.999   7.100   6.608
 8188TIP3   OH224506   3.033   4.903   4.842
 8188TIP3    H124507   3.059   4.995   4.836
 8188TIP3    H224508   3.110   4.854   4.810
 8189TIP3   OH224509   0.963   4.477   1.548
 8189TIP3    H124510   0.984   4.544   1.613
 8189TIP3    H224511   1.034   4.483   1.485
 8190TIP3   OH224512   7.562   4.227   6.619
 8190TIP3    H124513   7.627   4.264   6.679
 8190TIP3    H224514   7.479   4.269   6.645
 8191TIP3   OH224515   5.066   0.771   5.797
 8191TIP3    H124516   5.031   0.689   5.834
 8191TIP3    H224517   5.155   0.749   5.769
 8192TIP3   OH224518   5.350   0.717   5.106
 8192TIP3    H124519   5.354   0.626   5.134
 8192TIP3    H224520   5.297   0.761   5.173
 8193TIP3   OH224521   8.274   2.730   1.478
 8193TIP3    H124522   8.271   2.816   1.520
 8193TIP3    H224523   8.266   2.668   1.550
 8194TIP3   OH224524   8.177   5.360   4.678
 8194TIP3    H124525   8.142   5.302   4.745
 8194TIP3    H224526   8.247   5.309   4.637
 8195TIP3   OH224527   1.666   3.366   2.575
 8195TIP3    H124528   1.739   3.335   2.521
 8195TIP3    H224529   1.621   3.286   2.602
 8196TIP3   OH224530   0.840   1.702   5.170
 8196TIP3    H124531   0.885   1.622   5.195
 8196TIP3    H224532   0.771   1.673   5.110
 8197TIP3   OH224533   3.661   1.850   5.425
 8197TIP3    H124534   3.630   1.936   5.452
 8197TIP3    H224535   3.639   1.792   5.498
 8198TIP3   OH224536   1.196   6.248   3.172
 8198TIP3    H124537   1.152   6.286   3.096
 8198TIP3    H224538   1.155   6.290   3.248
 8199TIP3   OH224539   0.628   3.542   1.699
 8199TIP3    H124540   0.721   3.519   1.693
 8199TIP3    H224541   0.622   3.599   1.776
 8200TIP3   OH224542   6.084   1.613   4.147
 8200TIP3    H124543   6.117   1.667   4.219
 8200TIP3    H224544   6.015   1.560   4.187
 8201TIP3   OH224545   2.229   6.457   2.456
 8201TIP3    H124546   2.168   6.472   2.383
 8201TIP3    H224547   2.218   6.534   2.512
 8202TIP3   OH224548   6.444   1.080   5.241
 8202TIP3    H124549   6.357   1.117   5.257
 8202TIP3    H224550   6.476   1.127   5.164
 8203TIP3   OH224551   6.051   4.221   2.553
 8203TIP3    H124552   6.040   4.186   2.464
 8203TIP3    H224553   6.089   4.308   2.540
 8204TIP3   OH224554   2.724   5.503   4.475
 8204TIP3    H124555   2.763   5.418   4.457
 8204TIP3    H224556   2.650   5.509   4.414
 8205TIP3   OH224557   1.755   3.241   4.091
 8205TIP3    H124558   1.776   3.178   4.021
 8205TIP3    H224559   1.711   3.188   4.157
 8206TIP3   OH224560   3.830   4.501   3.184
 8206TIP3    H124561   3.872   4.430   3.136
 8206TIP3    H224562   3.824   4.469   3.274
 8207TIP3   OH224563   1.960   2.390   5.030
 8207TIP3    H124564   1.921   2.468   5.069
 8207TIP3    H224565   1.893   2.322   5.037
 8208TIP3   OH224566   2.911   4.097   0.728
 8208TIP3    H124567   2.860   4.114   0.649
 8208TIP3    H224568   2.929   4.003   0.725
 8209TIP3   OH224569   5.570   1.400  -0.011
 8209TIP3    H124570   5.584   1.456   0.066
 8209TIP3    H224571   5.654   1.355  -0.023
 8210TIP3   OH224572   4.748   6.202   5.485
 8210TIP3    H124573   4.699   6.152   5.420
 8210TIP3    H224574   4.839   6.178   5.469
 8211TIP3   OH224575   2.775   6.952   4.323
 8211TIP3    H124576   2.841   7.020   4.309
 8211TIP3    H224577   2.752   6.922   4.235
 8212TIP3   OH224578   3.330   2.170   6.349
 8212TIP3    H124579   3.391   2.112   6.303
 8212TIP3    H224580   3.249   2.119   6.355
 8213TIP3   OH224581   3.495   4.353   5.701
 8213TIP3    H124582   3.539   4.366   5.785
 8213TIP3    H224583   3.564   4.368   5.636
 8214TIP3   OH224584   6.412   2.148   5.547
 8214TIP3    H124585   6.490   2.196   5.576
 8214TIP3    H224586   6.397   2.083   5.616
 8215TIP3   OH224587   1.959   6.518   2.365
 8215TIP3    H124588   1.908   6.494   2.443
 8215TIP3    H224589   1.967   6.436   2.316
 8216TIP3   OH224590   3.212   1.002   3.130
 8216TIP3    H124591   3.264   1.037   3.058
 8216TIP3    H224592   3.147   1.069   3.148
 8217TIP3   OH224593   1.945   7.603   5.015
 8217TIP3    H124594   1.891   7.598   4.936
 8217TIP3    H224595   2.000   7.680   5.001
 8218TIP3   OH224596   2.984   4.657   5.465
 8218TIP3    H124597   3.060   4.714   5.452
 8218TIP3    H224598   2.977   4.648   5.560
 8219TIP3   OH224599   4.439   2.899   4.104
 8219TIP3    H124600   4.441   2.935   4.193
 8219TIP3    H224601   4.369   2.834   4.106
 8220TIP3   OH224602   7.497   2.084   6.436
 8220TIP3    H124603   7.430   2.118   6.376
 8220TIP3    H224604   7.578   2.123   6.405
 8221TIP3   OH224605   2.599   7.616   4.013
 8221TIP3    H124606   2.684   7.584   4.043
 8221TIP3    H224607   2.538   7.544   4.034
 8222TIP3   OH224608   4.079   7.775   2.925
 8222TIP3    H124609   4.058   7.693   2.970
 8222TIP3    H224610   4.047   7.844   2.984
 8223TIP3   OH224611   4.412   5.181   5.274
 8223TIP3    H124612   4.492   5.138   5.246
 8223TIP3    H224613   4.367   5.116   5.328
 8224TIP3   OH224614   6.647   6.660   0.279
 8224TIP3    H124615   6.686   6.747   0.290
 8224TIP3    H224616   6.630   6.653   0.185
 8225TIP3   OH224617   3.593   1.159   4.688
 8225TIP3    H124618   3.546   1.228   4.734
 8225TIP3    H224619   3.545   1.148   4.606
 8226TIP3   OH224620   5.862   7.341   4.144
 8226TIP3    H124621   5.781   7.302   4.178
 8226TIP3    H224622   5.832   7.412   4.086
 8227TIP3   OH224623   5.865   6.113   3.401
 8227TIP3    H124624   5.932   6.051   3.373
 8227TIP3    H224625   5.914   6.185   3.442
 8228TIP3   OH224626   0.137   5.224   1.221
 8228TIP3    H124627   0.218   5.174   1.224
 8228TIP3    H224628   0.085   5.181   1.153
 8229TIP3   OH224629   7.776   5.978   0.799
 8229TIP3    H124630   7.848   5.918   0.815
 8229TIP3    H224631   7.796   6.054   0.854
 8230TIP3   OH224632   5.398   7.213   5.899
 8230TIP3    H124633   5.488   7.245   5.910
 8230TIP3    H224634   5.346   7.270   5.956
 8231TIP3   OH224635   8.082   7.193   2.771
 8231TIP3    H124636   8.063   7.123   2.708
 8231TIP3    H224637   8.004   7.248   2.769
 8232TIP3   OH224638   0.335   6.255   4.574
 8232TIP3    H124639   0.273   6.257   4.501
 8232TIP3    H224640   0.397   6.186   4.549
 8233TIP3   OH224641   5.828   2.107   1.758
 8233TIP3    H124642   5.854   2.029   1.807
 8233TIP3    H224643   5.910   2.141   1.722
 8234TIP3   OH224644   4.339   5.820   3.143
 8234TIP3    H124645   4.283   5.869   3.083
 8234TIP3    H224646   4.289   5.741   3.164
 8235TIP3   OH224647   3.278   5.840   6.190
 8235TIP3    H124648   3.258   5.901   6.261
 8235TIP3    H224649   3.193   5.818   6.153
 8236TIP3   OH224650   7.003   2.816   4.995
 8236TIP3    H124651   6.915   2.779   4.999
 8236TIP3    H224652   7.049   2.763   4.930
 8237TIP3   OH224653   6.891   5.996   1.153
 8237TIP3    H124654   6.812   5.959   1.192
 8237TIP3    H224655   6.960   5.977   1.217
 8238TIP3   OH224656   7.799   3.689   1.412
 8238TIP3    H124657   7.738   3.681   1.485
 8238TIP3    H224658   7.817   3.783   1.405
 8239TIP3   OH224659   5.568   0.522   4.685
 8239TIP3    H124660   5.638   0.587   4.692
 8239TIP3    H224661   5.497   0.557   4.739
 8240TIP3   OH224662   3.372   0.340   2.356
 8240TIP3    H124663   3.397   0.395   2.282
 8240TIP3    H224664   3.403   0.252   2.333
 8241TIP3   OH224665   1.892   2.506   0.447
 8241TIP3    H124666   1.867   2.555   0.369
 8241TIP3    H224667   1.862   2.417   0.430
 8242TIP3   OH224668   3.443   0.821   4.853
 8242TIP3    H124669   3.478   0.754   4.795
 8242TIP3    H224670   3.519   0.871   4.881
 8243TIP3   OH224671   4.007   6.861   0.955
 8243TIP3    H124672   4.077   6.918   0.924
 8243TIP3    H224673   3.955   6.916   1.015
 8244TIP3   OH224674   3.536   6.317   4.581
 8244TIP3    H124675   3.524   6.325   4.487
 8244TIP3    H224676   3.476   6.248   4.607
 8245TIP3   OH224677   1.911   0.399   3.644
 8245TIP3    H124678   1.983   0.342   3.671
 8245TIP3    H224679   1.854   0.343   3.591
 8246TIP3   OH224680   5.674   5.698   4.995
 8246TIP3    H124681   5.604   5.686   4.931
 8246TIP3    H224682   5.751   5.720   4.942
 8247TIP3   OH224683   7.934   1.821   1.282
 8247TIP3    H124684   7.941   1.726   1.289
 8247TIP3    H224685   8.010   1.854   1.329
 8248TIP3   OH224686   6.845   0.473   5.299
 8248TIP3    H124687   6.766   0.422   5.319
 8248TIP3    H224688   6.819   0.528   5.225
 8249TIP3   OH224689   6.183   2.559   3.427
 8249TIP3    H124690   6.236   2.630   3.391
 8249TIP3    H224691   6.096   2.572   3.389
 8250TIP3   OH224692   8.118   3.222   6.198
 8250TIP3    H124693   8.131   3.136   6.239
 8250TIP3    H224694   8.033   3.252   6.230
 8251TIP3   OH224695   2.781   4.376   5.000
 8251TIP3    H124696   2.719   4.411   4.935
 8251TIP3    H224697   2.808   4.453   5.050
 8252TIP3   OH224698   2.315   2.486   2.778
 8252TIP3    H124699   2.288   2.506   2.868
 8252TIP3    H224700   2.402   2.449   2.787
 8253TIP3   OH224701   1.612   5.877   5.778
 8253TIP3    H124702   1.593   5.917   5.693
 8253TIP3    H224703   1.634   5.951   5.834
 8254TIP3   OH224704   1.184   1.380   2.413
 8254TIP3    H124705   1.160   1.296   2.452
 8254TIP3    H224706   1.110   1.438   2.434
 8255TIP3   OH224707   1.959   1.555   2.990
 8255TIP3    H124708   1.886   1.615   3.005
 8255TIP3    H224709   1.985   1.571   2.899
 8256TIP3   OH224710   8.062   6.943   2.109
 8256TIP3    H124711   8.039   7.036   2.115
 8256TIP3    H224712   7.986   6.902   2.067
 8257TIP3   OH224713   4.256   5.469   0.408
 8257TIP3    H124714   4.276   5.379   0.383
 8257TIP3    H224715   4.342   5.510   0.417
 8258TIP3   OH224716   6.294   0.219   2.214
 8258TIP3    H124717   6.210   0.257   2.239
 8258TIP3    H224718   6.284   0.195   2.122
 8259TIP3   OH224719   0.892   2.028   3.492
 8259TIP3    H124720   0.871   2.115   3.460
 8259TIP3    H224721   0.935   1.985   3.418
 8260TIP3   OH224722   7.480   1.403   6.035
 8260TIP3    H124723   7.483   1.367   5.946
 8260TIP3    H224724   7.464   1.327   6.091
 8261TIP3   OH224725   4.621   7.334   1.678
 8261TIP3    H124726   4.669   7.252   1.691
 8261TIP3    H224727   4.676   7.401   1.720
 8262TIP3   OH224728   5.176   5.683   0.744
 8262TIP3    H124729   5.193   5.648   0.832
 8262TIP3    H224730   5.165   5.605   0.689
 8263TIP3   OH224731   7.243   1.000   5.161
 8263TIP3    H124732   7.298   1.075   5.140
 8263TIP3    H224733   7.277   0.928   5.108
 8264TIP3   OH224734   7.660   3.194   2.930
 8264TIP3    H124735   7.637   3.196   2.837
 8264TIP3    H224736   7.621   3.113   2.963
 8265TIP3   OH224737   4.227   4.361   3.870
 8265TIP3    H124738   4.163   4.310   3.919
 8265TIP3    H224739   4.278   4.406   3.938
 8266TIP3   OH224740   7.082   1.740   1.817
 8266TIP3    H124741   7.162   1.693   1.796
 8266TIP3    H224742   7.111   1.828   1.842
 8267TIP3   OH224743   6.264   1.188   1.666
 8267TIP3    H124744   6.296   1.270   1.704
 8267TIP3    H224745   6.280   1.198   1.572
 8268TIP3   OH224746   4.901   7.552   3.013
 8268TIP3    H124747   4.813   7.574   2.981
 8268TIP3    H224748   4.947   7.636   3.016
 8269TIP3   OH224749   7.018   1.736   5.696
 8269TIP3    H124750   7.081   1.677   5.655
 8269TIP3    H224751   7.059   1.761   5.779
 8270TIP3   OH224752   5.091   6.752   3.838
 8270TIP3    H124753   5.031   6.764   3.912
 8270TIP3    H224754   5.040   6.702   3.774
 8271TIP3   OH224755   1.336   7.019   5.734
 8271TIP3    H124756   1.335   7.112   5.709
 8271TIP3    H224757   1.376   7.019   5.822
 8272TIP3   OH224758   1.965   7.136   3.867
 8272TIP3    H124759   2.046   7.171   3.831
 8272TIP3    H224760   1.966   7.165   3.959
 8273TIP3   OH224761   0.271   0.525   4.091
 8273TIP3    H124762   0.279   0.432   4.111
 8273TIP3    H224763   0.305   0.570   4.168
 8274TIP3   OH224764   6.885   3.908   5.321
 8274TIP3    H124765   6.901   3.822   5.360
 8274TIP3    H224766   6.972   3.940   5.297
 8275TIP3   OH224767   1.980   0.935   3.745
 8275TIP3    H124768   2.035   0.982   3.808
 8275TIP3    H224769   2.028   0.854   3.727
 8276TIP3   OH224770   8.066   4.843   6.756
 8276TIP3    H124771   8.089   4.829   6.664
 8276TIP3    H224772   8.067   4.756   6.795
 8277TIP3   OH224773   7.835   1.237   2.784
 8277TIP3    H124774   7.765   1.246   2.849
 8277TIP3    H224775   7.909   1.200   2.833
 8278TIP3   OH224776   1.004   6.291   1.305
 8278TIP3    H124777   1.056   6.257   1.232
 8278TIP3    H224778   1.027   6.384   1.310
 8279TIP3   OH224779   0.603   1.692   6.571
 8279TIP3    H124780   0.649   1.675   6.489
 8279TIP3    H224781   0.510   1.693   6.547
 8280TIP3   OH224782   6.120   6.147   2.666
 8280TIP3    H124783   6.045   6.092   2.686
 8280TIP3    H224784   6.095   6.194   2.586
 8281TIP3   OH224785   6.187   0.502   1.602
 8281TIP3    H124786   6.121   0.551   1.649
 8281TIP3    H224787   6.269   0.521   1.647
 8282TIP3   OH224788   6.374   5.141   5.687
 8282TIP3    H124789   6.432   5.082   5.734
 8282TIP3    H224790   6.372   5.106   5.598
 8283TIP3   OH224791   5.661   3.116   5.690
 8283TIP3    H124792   5.679   3.183   5.624
 8283TIP3    H224793   5.645   3.037   5.639
 8284TIP3   OH224794   6.686   3.322   0.953
 8284TIP3    H124795   6.643   3.331   0.867
 8284TIP3    H224796   6.727   3.236   0.950
 8285TIP3   OH224797   6.692   4.512   5.892
 8285TIP3    H124798   6.619   4.552   5.939
 8285TIP3    H224799   6.765   4.518   5.953
 8286TIP3   OH224800   0.743   1.203   1.882
 8286TIP3    H124801   0.797   1.207   1.960
 8286TIP3    H224802   0.697   1.287   1.880
 8287TIP3   OH224803   1.973   3.158   5.933
 8287TIP3    H124804   1.918   3.160   5.854
 8287TIP3    H224805   1.944   3.234   5.984
 8288TIP3   OH224806   7.689   3.225   0.168
 8288TIP3    H124807   7.713   3.317   0.158
 8288TIP3    H224808   7.674   3.214   0.262
 8289TIP3   OH224809   2.249   6.584   0.372
 8289TIP3    H124810   2.337   6.545   0.368
 8289TIP3    H224811   2.242   6.633   0.290
 8290TIP3   OH224812   6.746   3.484   2.293
 8290TIP3    H124813   6.736   3.530   2.209
 8290TIP3    H224814   6.773   3.553   2.355
 8291TIP3   OH224815   1.112   7.376   4.141
 8291TIP3    H124816   1.107   7.300   4.083
 8291TIP3    H224817   1.205   7.398   4.145
 8292TIP3   OH224818   3.183   2.424   2.171
 8292TIP3    H124819   3.103   2.471   2.195
 8292TIP3    H224820   3.249   2.493   2.161
 8293TIP3   OH224821   6.924   4.014   1.999
 8293TIP3    H124822   6.937   4.094   2.050
 8293TIP3    H224823   6.863   4.039   1.929
 8294TIP3   OH224824   1.054   1.585   2.683
 8294TIP3    H124825   1.138   1.567   2.725
 8294TIP3    H224826   1.074   1.655   2.620
 8295TIP3   OH224827   4.447   3.101   3.565
 8295TIP3    H124828   4.468   3.193   3.549
 8295TIP3    H224829   4.397   3.101   3.646
 8296TIP3   OH224830   1.166   1.522   6.188
 8296TIP3    H124831   1.259   1.546   6.189
 8296TIP3    H224832   1.120   1.605   6.194
 8297TIP3   OH224833   2.700   2.418   4.345
 8297TIP3    H124834   2.776   2.435   4.400
 8297TIP3    H224835   2.625   2.448   4.397
 8298TIP3   OH224836   3.627   5.914   3.719
 8298TIP3    H124837   3.699   5.853   3.699
 8298TIP3    H224838   3.557   5.858   3.751
 8299TIP3   OH224839   6.975   4.844   5.196
 8299TIP3    H124840   7.031   4.824   5.120
 8299TIP3    H224841   6.996   4.775   5.259
 8300TIP3   OH224842   1.680   6.724   4.592
 8300TIP3    H124843   1.631   6.659   4.642
 8300TIP3    H224844   1.685   6.800   4.650
 8301TIP3   OH224845   5.059   5.138   4.885
 8301TIP3    H124846   5.066   5.161   4.978
 8301TIP3    H224847   5.149   5.144   4.852
 8302TIP3   OH224848   5.719   3.517   6.355
 8302TIP3    H124849   5.664   3.506   6.277
 8302TIP3    H224850   5.763   3.601   6.341
 8303TIP3   OH224851   3.598   7.624   6.324
 8303TIP3    H124852   3.691   7.607   6.312
 8303TIP3    H224853   3.595   7.700   6.383
 8304TIP3   OH224854   0.554   1.772   5.964
 8304TIP3    H124855   0.534   1.865   5.968
 8304TIP3    H224856   0.638   1.768   5.919
 8305TIP3   OH224857   5.831   0.447   2.549
 8305TIP3    H124858   5.796   0.371   2.596
 8305TIP3    H224859   5.876   0.498   2.617
 8306TIP3   OH224860   7.465   6.200   6.256
 8306TIP3    H124861   7.376   6.201   6.220
 8306TIP3    H224862   7.457   6.153   6.339
 8307TIP3   OH224863   0.081   6.560   2.088
 8307TIP3    H124864   0.047   6.647   2.065
 8307TIP3    H224865   0.038   6.538   2.170
 8308TIP3   OH224866   0.881   4.911   4.320
 8308TIP3    H124867   0.934   4.929   4.397
 8308TIP3    H224868   0.848   4.822   4.334
 8309TIP3   OH224869   7.625   2.177   2.067
 8309TIP3    H124870   7.690   2.149   2.131
 8309TIP3    H224871   7.543   2.137   2.097
 8310TIP3   OH224872   3.606   3.455   0.510
 8310TIP3    H124873   3.693   3.440   0.475
 8310TIP3    H224874   3.602   3.400   0.588
 8311TIP3   OH224875   0.683   0.562   0.170
 8311TIP3    H124876   0.732   0.604   0.240
 8311TIP3    H224877   0.638   0.489   0.213
 8312TIP3   OH224878   6.562   0.552   2.569
 8312TIP3    H124879   6.487   0.545   2.511
 8312TIP3    H224880   6.599   0.464   2.572
 8313TIP3   OH224881   5.195   6.035   3.816
 8313TIP3    H124882   5.149   5.958   3.850
 8313TIP3    H224883   5.277   6.038   3.866
 8314TIP3   OH224884   4.833   7.452   3.826
 8314TIP3    H124885   4.925   7.429   3.834
 8314TIP3    H224886   4.787   7.369   3.819
 8315TIP3   OH224887   0.423   3.748   5.561
 8315TIP3    H124888   0.405   3.682   5.628
 8315TIP3    H224889   0.344   3.802   5.558
 8316TIP3   OH224890   0.572   7.057   1.649
 8316TIP3    H124891   0.538   7.089   1.566
 8316TIP3    H224892   0.520   7.101   1.716
 8317TIP3   OH224893   1.794   1.296   5.076
 8317TIP3    H124894   1.803   1.206   5.044
 8317TIP3    H224895   1.700   1.307   5.090
 8318TIP3   OH224896   1.746   2.779   1.219
 8318TIP3    H124897   1.726   2.831   1.142
 8318TIP3    H224898   1.828   2.815   1.252
 8319TIP3   OH224899   4.218   2.011   6.370
 8319TIP3    H124900   4.265   2.087   6.405
 8319TIP3    H224901   4.282   1.940   6.372
 8320TIP3   OH224902   0.268   7.721   0.448
 8320TIP3    H124903   0.265   7.763   0.534
 8320TIP3    H224904   0.300   7.632   0.466
 8321TIP3   OH224905   5.488   2.552   4.841
 8321TIP3    H124906   5.406   2.516   4.872
 8321TIP3    H224907   5.514   2.495   4.769
 8322TIP3   OH224908   4.796   1.305   3.594
 8322TIP3    H124909   4.799   1.384   3.539
 8322TIP3    H224910   4.867   1.250   3.562
 8323TIP3   OH224911   0.564   2.112   3.506
 8323TIP3    H124912   0.645   2.142   3.467
 8323TIP3    H224913   0.563   2.152   3.593
 8324TIP3   OH224914   6.482   4.711   1.188
 8324TIP3    H124915   6.562   4.764   1.192
 8324TIP3    H224916   6.411   4.774   1.188
 8325TIP3   OH224917   6.488   4.840   1.739
 8325TIP3    H124918   6.577   4.862   1.766
 8325TIP3    H224919   6.461   4.912   1.683
 8326TIP3   OH224920   3.838   0.689   6.186
 8326TIP3    H124921   3.906   0.744   6.147
 8326TIP3    H224922   3.883   0.638   6.253
 8327TIP3   OH224923   3.756   4.284   1.746
 8327TIP3    H124924   3.665   4.312   1.735
 8327TIP3    H224925   3.756   4.235   1.828
 8328TIP3   OH224926   4.955   4.767   3.156
 8328TIP3    H124927   4.860   4.776   3.153
 8328TIP3    H224928   4.972   4.683   3.112
 8329TIP3   OH224929   5.494   2.007   3.598
 8329TIP3    H124930   5.433   1.934   3.608
 8329TIP3    H224931   5.580   1.969   3.613
 8330TIP3   OH224932   0.271   4.958   6.054
 8330TIP3    H124933   0.185   4.996   6.071
 8330TIP3    H224934   0.259   4.864   6.066
 8331TIP3   OH224935   5.556   6.951   6.156
 8331TIP3    H124936   5.589   6.882   6.098
 8331TIP3    H224937   5.625   7.017   6.156
 8332TIP3   OH224938   0.938   1.676   0.755
 8332TIP3    H124939   0.962   1.626   0.833
 8332TIP3    H224940   0.843   1.684   0.761
 8333TIP3   OH224941   1.969   7.586   5.974
 8333TIP3    H124942   1.999   7.495   5.971
 8333TIP3    H224943   1.899   7.590   5.909
 8334TIP3   OH224944   3.629   4.341   2.028
 8334TIP3    H124945   3.659   4.431   2.010
 8334TIP3    H224946   3.709   4.293   2.048
 8335TIP3   OH224947   8.127   2.348   2.526
 8335TIP3    H124948   8.155   2.310   2.442
 8335TIP3    H224949   8.209   2.359   2.575
 8336TIP3   OH224950   5.177   1.690   0.984
 8336TIP3    H124951   5.103   1.746   0.961
 8336TIP3    H224952   5.246   1.716   0.923
 8337TIP3   OH224953   5.163   2.480   3.625
 8337TIP3    H124954   5.148   2.452   3.716
 8337TIP3    H224955   5.252   2.450   3.605
 8338TIP3   OH224956   3.310   3.639   0.670
 8338TIP3    H124957   3.289   3.714   0.614
 8338TIP3    H224958   3.397   3.658   0.705
 8339TIP3   OH224959   5.661   3.610   0.156
 8339TIP3    H124960   5.719   3.646   0.224
 8339TIP3    H224961   5.661   3.515   0.172
 8340TIP3   OH224962   5.262   2.361   4.602
 8340TIP3    H124963   5.204   2.286   4.586
 8340TIP3    H224964   5.225   2.403   4.680
 8341TIP3   OH224965   1.658   2.920   3.640
 8341TIP3    H124966   1.694   2.871   3.714
 8341TIP3    H224967   1.579   2.962   3.676
 8342TIP3   OH224968   0.511   1.512   4.776
 8342TIP3    H124969   0.467   1.546   4.854
 8342TIP3    H224970   0.576   1.579   4.754
 8343TIP3   OH224971   1.542   4.498   1.813
 8343TIP3    H124972   1.449   4.515   1.801
 8343TIP3    H224973   1.566   4.439   1.741
 8344TIP3   OH224974   8.189   5.162   6.404
 8344TIP3    H124975   8.151   5.166   6.492
 8344TIP3    H224976   8.283   5.152   6.419
 8345TIP3   OH224977   2.943   4.438   1.121
 8345TIP3    H124978   2.919   4.400   1.036
 8345TIP3    H224979   3.035   4.414   1.132
 8346TIP3   OH224980   6.169   2.521   6.732
 8346TIP3    H124981   6.227   2.537   6.806
 8346TIP3    H224982   6.105   2.592   6.735
 8347TIP3   OH224983   3.151   4.666   2.551
 8347TIP3    H124984   3.181   4.733   2.490
 8347TIP3    H224985   3.229   4.615   2.573
 8348TIP3   OH224986   4.529   1.720   4.596
 8348TIP3    H124987   4.619   1.707   4.626
 8348TIP3    H224988   4.498   1.632   4.575
 8349TIP3   OH224989   8.022   3.399   4.248
 8349TIP3    H124990   7.971   3.419   4.170
 8349TIP3    H224991   8.111   3.428   4.227
 8350TIP3   OH224992   1.579   3.619   0.823
 8350TIP3    H124993   1.653   3.575   0.866
 8350TIP3    H224994   1.560   3.564   0.747
 8351TIP3   OH224995   3.308   2.315   2.450
 8351TIP3    H124996   3.216   2.337   2.442
 8351TIP3    H224997   3.346   2.340   2.366
 8352TIP3   OH224998   2.382   1.691   0.519
 8352TIP3    H124999   2.399   1.649   0.435
 8352TIP3    H225000   2.469   1.720   0.549
 8353TIP3   OH225001   7.648   5.527   1.887
 8353TIP3    H125002   7.663   5.591   1.956
 8353TIP3    H225003   7.625   5.580   1.810
 8354TIP3   OH225004   0.056   4.579   1.065
 8354TIP3    H125005   0.079   4.528   0.987
 8354TIP3    H225006   0.104   4.535   1.136
 8355TIP3   OH225007   3.682   7.611   5.239
 8355TIP3    H125008   3.682   7.665   5.318
 8355TIP3    H225009   3.770   7.620   5.204
 8356TIP3   OH225010   2.098   5.117   2.207
 8356TIP3    H125011   2.169   5.053   2.199
 8356TIP3    H225012   2.122   5.170   2.282
 8357TIP3   OH225013   7.573   2.857   5.690
 8357TIP3    H125014   7.511   2.785   5.704
 8357TIP3    H225015   7.658   2.813   5.679
 8358TIP3   OH225016   3.578   5.211   3.213
 8358TIP3    H125017   3.560   5.161   3.133
 8358TIP3    H225018   3.672   5.199   3.228
 8359TIP3   OH225019   5.967   2.310   6.441
 8359TIP3    H125020   6.005   2.348   6.362
 8359TIP3    H225021   5.895   2.369   6.464
 8360TIP3   OH225022   0.273   4.209   1.619
 8360TIP3    H125023   0.314   4.291   1.649
 8360TIP3    H225024   0.199   4.196   1.678
 8361TIP3   OH225025   6.546   7.740   5.106
 8361TIP3    H125026   6.527   7.690   5.027
 8361TIP3    H225027   6.638   7.720   5.124
 8362TIP3   OH225028   0.134   3.149   2.975
 8362TIP3    H125029   0.080   3.071   2.990
 8362TIP3    H225030   0.207   3.117   2.923
 8363TIP3   OH225031   3.851   0.139   0.262
 8363TIP3    H125032   3.781   0.201   0.241
 8363TIP3    H225033   3.878   0.163   0.351
 8364TIP3   OH225034   3.836   6.585   5.709
 8364TIP3    H125035   3.829   6.571   5.615
 8364TIP3    H225036   3.888   6.665   5.718
 8365TIP3   OH225037   6.586   3.252   4.008
 8365TIP3    H125038   6.582   3.332   4.061
 8365TIP3    H225039   6.540   3.275   3.927
 8366TIP3   OH225040   4.321   1.673   0.650
 8366TIP3    H125041   4.240   1.692   0.696
 8366TIP3    H225042   4.328   1.743   0.585
 8367TIP3   OH225043   5.262   5.859   3.554
 8367TIP3    H125044   5.287   5.885   3.643
 8367TIP3    H225045   5.317   5.782   3.536
 8368TIP3   OH225046   7.964   5.818   3.329
 8368TIP3    H125047   8.048   5.772   3.338
 8368TIP3    H225048   7.944   5.850   3.417
 8369TIP3   OH225049   0.883   3.023   2.684
 8369TIP3    H125050   0.971   2.997   2.656
 8369TIP3    H225051   0.874   3.114   2.655
 8370TIP3   OH225052   0.094   3.113   5.257
 8370TIP3    H125053   0.065   3.204   5.254
 8370TIP3    H225054   0.184   3.115   5.224
 8371TIP3   OH225055   6.517   6.456   0.737
 8371TIP3    H125056   6.511   6.468   0.643
 8371TIP3    H225057   6.599   6.407   0.750
 8372TIP3   OH225058   6.276   1.956   2.153
 8372TIP3    H125059   6.294   1.862   2.157
 8372TIP3    H225060   6.228   1.967   2.071
 8373TIP3   OH225061   7.656   2.233   1.059
 8373TIP3    H125062   7.721   2.191   1.004
 8373TIP3    H225063   7.661   2.326   1.035
 8374TIP3   OH225064  -0.003   0.672   3.565
 8374TIP3    H125065   0.072   0.614   3.575
 8374TIP3    H225066  -0.071   0.634   3.621
 8375TIP3   OH225067   7.482   4.616   3.221
 8375TIP3    H125068   7.425   4.658   3.157
 8375TIP3    H225069   7.506   4.686   3.282
 8376TIP3   OH225070   7.696   1.290   2.557
 8376TIP3    H125071   7.721   1.301   2.649
 8376TIP3    H225072   7.622   1.349   2.545
 8377TIP3   OH225073   0.763   5.162   3.565
 8377TIP3    H125074   0.680   5.208   3.577
 8377TIP3    H225075   0.787   5.133   3.652
 8378TIP3   OH225076  -0.032   7.469   0.412
 8378TIP3    H125077   0.013   7.479   0.328
 8378TIP3    H225078   0.026   7.412   0.463
 8379TIP3   OH225079   2.003   1.648   6.626
 8379TIP3    H125080   1.968   1.718   6.681
 8379TIP3    H225081   1.978   1.567   6.671
 8380TIP3   OH225082   7.098   1.905   3.721
 8380TIP3    H125083   7.179   1.930   3.678
 8380TIP3    H225084   7.060   1.988   3.751
 8381TIP3   OH225085   7.902   3.575   0.355
 8381TIP3    H125086   7.988   3.565   0.394
 8381TIP3    H225087   7.875   3.664   0.378
 8382TIP3   OH225088   4.634   6.859   2.483
 8382TIP3    H125089   4.686   6.874   2.562
 8382TIP3    H225090   4.577   6.935   2.477
 8383TIP3   OH225091   1.467   2.466   1.608
 8383TIP3    H125092   1.459   2.517   1.688
 8383TIP3    H225093   1.513   2.523   1.547
 8384TIP3   OH225094   1.518   6.476   5.512
 8384TIP3    H125095   1.469   6.522   5.580
 8384TIP3    H225096   1.609   6.499   5.528
 8385TIP3   OH225097   1.855   4.272   1.770
 8385TIP3    H125098   1.927   4.313   1.724
 8385TIP3    H225099   1.866   4.299   1.861
 8386TIP3   OH225100   5.096   3.761   3.858
 8386TIP3    H125101   5.048   3.838   3.826
 8386TIP3    H225102   5.131   3.720   3.778
 8387TIP3   OH225103   2.259   0.700   2.809
 8387TIP3    H125104   2.341   0.679   2.854
 8387TIP3    H225105   2.195   0.711   2.880
 8388TIP3   OH225106   1.491   1.097   4.535
 8388TIP3    H125107   1.421   1.036   4.513
 8388TIP3    H225108   1.570   1.044   4.534
 8389TIP3   OH225109   1.180   4.861   4.212
 8389TIP3    H125110   1.103   4.866   4.268
 8389TIP3    H225111   1.252   4.842   4.273
 8390TIP3   OH225112   2.499   2.032   5.484
 8390TIP3    H125113   2.564   2.064   5.548
 8390TIP3    H225114   2.440   1.978   5.536
 8391TIP3   OH225115   6.334   6.975   6.167
 8391TIP3    H125116   6.250   6.944   6.132
 8391TIP3    H225117   6.384   6.894   6.183
 8392TIP3   OH225118   2.712   1.853   3.611
 8392TIP3    H125119   2.649   1.902   3.663
 8392TIP3    H225120   2.711   1.765   3.648
 8393TIP3   OH225121   0.238   1.670   2.069
 8393TIP3    H125122   0.303   1.676   2.000
 8393TIP3    H225123   0.277   1.612   2.135
 8394TIP3   OH225124   1.812   2.294   3.125
 8394TIP3    H125125   1.797   2.379   3.167
 8394TIP3    H225126   1.894   2.306   3.076
 8395TIP3   OH225127   5.309   0.915   6.305
 8395TIP3    H125128   5.360   0.995   6.288
 8395TIP3    H225129   5.262   0.934   6.386
 8396TIP3   OH225130   8.053   2.750   6.467
 8396TIP3    H125131   7.965   2.787   6.472
 8396TIP3    H225132   8.050   2.671   6.521
 8397TIP3   OH225133   0.718   7.270   0.177
 8397TIP3    H125134   0.675   7.234   0.099
 8397TIP3    H225135   0.668   7.234   0.251
 8398TIP3   OH225136   7.481   0.609   4.613
 8398TIP3    H125137   7.540   0.619   4.538
 8398TIP3    H225138   7.522   0.661   4.682
 8399TIP3   OH225139   5.291   4.172   4.781
 8399TIP3    H125140   5.276   4.207   4.694
 8399TIP3    H225141   5.272   4.245   4.840
 8400TIP3   OH225142   6.841   6.974   3.847
 8400TIP3    H125143   6.777   7.028   3.801
 8400TIP3    H225144   6.926   7.012   3.822
 8401TIP3   OH225145   1.114   2.691   5.295
 8401TIP3    H125146   1.134   2.651   5.211
 8401TIP3    H225147   1.060   2.767   5.274
 8402TIP3   OH225148   0.286   5.230   6.660
 8402TIP3    H125149   0.335   5.148   6.669
 8402TIP3    H225150   0.343   5.296   6.699
 8403TIP3   OH225151   0.803   5.673   0.740
 8403TIP3    H125152   0.824   5.625   0.660
 8403TIP3    H225153   0.709   5.689   0.734
 8404TIP3   OH225154   7.284   3.809   4.944
 8404TIP3    H125155   7.357   3.870   4.953
 8404TIP3    H225156   7.313   3.746   4.878
 8405TIP3   OH225157   7.782   1.065   0.509
 8405TIP3    H125158   7.837   1.020   0.445
 8405TIP3    H225159   7.768   1.001   0.579
 8406TIP3   OH225160   4.313   6.666   0.647
 8406TIP3    H125161   4.245   6.635   0.708
 8406TIP3    H225162   4.327   6.593   0.587
 8407TIP3   OH225163   8.277   4.165   1.045
 8407TIP3    H125164   8.205   4.213   1.004
 8407TIP3    H225165   8.242   4.077   1.061
 8408TIP3   OH225166   0.136   1.199   1.066
 8408TIP3    H125167   0.065   1.139   1.087
 8408TIP3    H225168   0.125   1.217   0.972
 8409TIP3   OH225169   0.059   7.074   0.130
 8409TIP3    H125170   0.140   7.040   0.093
 8409TIP3    H225171   0.085   7.111   0.214
 8410TIP3   OH225172   3.616   1.457   6.548
 8410TIP3    H125173   3.670   1.395   6.597
 8410TIP3    H225174   3.614   1.422   6.459
 8411TIP3   OH225175   2.562   7.034   5.794
 8411TIP3    H125176   2.581   7.094   5.723
 8411TIP3    H225177   2.559   7.088   5.872
 8412TIP3   OH225178   7.328   4.064   2.779
 8412TIP3    H125179   7.339   3.972   2.758
 8412TIP3    H225180   7.242   4.068   2.823
 8413TIP3   OH225181   6.370   3.562   0.871
 8413TIP3    H125182   6.399   3.653   0.870
 8413TIP3    H225183   6.394   3.530   0.958
 8414TIP3   OH225184   5.600   0.766   3.231
 8414TIP3    H125185   5.695   0.777   3.236
 8414TIP3    H225186   5.583   0.679   3.268
 8415TIP3   OH225187   5.629   0.751   3.644
 8415TIP3    H125188   5.645   0.666   3.604
 8415TIP3    H225189   5.535   0.754   3.658
 8416TIP3   OH225190   7.459   2.376   2.997
 8416TIP3    H125191   7.450   2.432   3.074
 8416TIP3    H225192   7.386   2.400   2.941
 8417TIP3   OH225193  -0.046   5.007   3.564
 8417TIP3    H125194   0.022   5.009   3.631
 8417TIP3    H225195  -0.128   5.005   3.612
 8418TIP3   OH225196   7.191   3.993   4.565
 8418TIP3    H125197   7.286   3.993   4.563
 8418TIP3    H225198   7.168   3.951   4.648
 8419TIP3   OH225199   7.952   0.353   4.087
 8419TIP3    H125200   7.864   0.378   4.060
 8419TIP3    H225201   7.997   0.329   4.006
 8420TIP3   OH225202   7.264   4.753   3.095
 8420TIP3    H125203   7.197   4.791   3.153
 8420TIP3    H225204   7.213   4.711   3.026
 8421TIP3   OH225205   5.570   6.217   5.942
 8421TIP3    H125206   5.523   6.291   5.905
 8421TIP3    H225207   5.532   6.204   6.029
 8422TIP3   OH225208   6.507   5.806   4.661
 8422TIP3    H125209   6.471   5.889   4.632
 8422TIP3    H225210   6.573   5.830   4.727
 8423TIP3   OH225211   1.587   0.550   4.127
 8423TIP3    H125212   1.581   0.515   4.216
 8423TIP3    H225213   1.566   0.643   4.136
 8424TIP3   OH225214   7.040   0.397   2.480
 8424TIP3    H125215   6.945   0.409   2.480
 8424TIP3    H225216   7.061   0.377   2.571
 8425TIP3   OH225217   1.959   7.478   3.635
 8425TIP3    H125218   2.035   7.485   3.692
 8425TIP3    H225219   1.914   7.562   3.643
 8426TIP3   OH225220   2.273   3.632   2.266
 8426TIP3    H125221   2.218   3.555   2.250
 8426TIP3    H225222   2.282   3.635   2.361
 8427TIP3   OH225223   5.740   7.592   6.316
 8427TIP3    H125224   5.758   7.659   6.250
 8427TIP3    H225225   5.748   7.638   6.399
 8428TIP3   OH225226   1.280   6.183   0.207
 8428TIP3    H125227   1.348   6.243   0.237
 8428TIP3    H225228   1.198   6.232   0.218
 8429TIP3   OH225229   5.149   2.164   1.732
 8429TIP3    H125230   5.208   2.109   1.682
 8429TIP3    H225231   5.190   2.172   1.818
 8430TIP3   OH225232   1.925   5.182   0.887
 8430TIP3    H125233   1.905   5.189   0.981
 8430TIP3    H225234   2.009   5.227   0.877
 8431TIP3   OH225235   6.635   0.905   4.928
 8431TIP3    H125236   6.540   0.921   4.923
 8431TIP3    H225237   6.648   0.822   4.881
 8432TIP3   OH225238   6.179   5.247   2.152
 8432TIP3    H125239   6.135   5.329   2.129
 8432TIP3    H225240   6.116   5.179   2.126
 8433TIP3   OH225241   0.463   4.164   4.283
 8433TIP3    H125242   0.410   4.236   4.314
 8433TIP3    H225243   0.461   4.099   4.354
 8434TIP3   OH225244   6.333   0.244   1.300
 8434TIP3    H125245   6.356   0.329   1.263
 8434TIP3    H225246   6.249   0.259   1.344
 8435TIP3   OH225247   3.783   5.551   3.302
 8435TIP3    H125248   3.691   5.579   3.302
 8435TIP3    H225249   3.815   5.574   3.215
 8436TIP3   OH225250   6.591   6.395   3.228
 8436TIP3    H125251   6.601   6.486   3.256
 8436TIP3    H225252   6.652   6.346   3.282
 8437TIP3   OH225253   4.113   5.736   4.086
 8437TIP3    H125254   4.095   5.649   4.123
 8437TIP3    H225255   4.142   5.789   4.160
 8438TIP3   OH225256   8.239   4.454   2.306
 8438TIP3    H125257   8.182   4.396   2.356
 8438TIP3    H225258   8.264   4.403   2.229
 8439TIP3   OH225259   2.167   1.111   5.413
 8439TIP3    H125260   2.117   1.169   5.470
 8439TIP3    H225261   2.242   1.163   5.384
 8440TIP3   OH225262   6.639   4.484   1.101
 8440TIP3    H125263   6.668   4.449   1.186
 8440TIP3    H225264   6.580   4.555   1.123
 8441TIP3   OH225265   5.382   0.071   4.338
 8441TIP3    H125266   5.412   0.150   4.293
 8441TIP3    H225267   5.290   0.087   4.357
 8442TIP3   OH225268   0.452   3.006   0.307
 8442TIP3    H125269   0.457   2.911   0.314
 8442TIP3    H225270   0.493   3.027   0.223
 8443TIP3   OH225271   8.201   3.403   0.860
 8443TIP3    H125272   8.198   3.396   0.956
 8443TIP3    H225273   8.281   3.357   0.835
 8444TIP3   OH225274   3.821   1.891   2.291
 8444TIP3    H125275   3.830   1.804   2.330
 8444TIP3    H225276   3.745   1.883   2.234
 8445TIP3   OH225277   5.009   6.219   6.379
 8445TIP3    H125278   4.959   6.300   6.385
 8445TIP3    H225279   4.960   6.166   6.316
 8446TIP3   OH225280   6.889   3.336   2.609
 8446TIP3    H125281   6.801   3.367   2.589
 8446TIP3    H225282   6.877   3.245   2.637
 8447TIP3   OH225283   6.839   3.376   3.625
 8447TIP3    H125284   6.874   3.409   3.708
 8447TIP3    H225285   6.914   3.334   3.583
 8448TIP3   OH225286   5.071   4.876   5.775
 8448TIP3    H125287   5.120   4.958   5.787
 8448TIP3    H225288   5.029   4.861   5.859
 8449TIP3   OH225289   0.744   5.274   4.501
 8449TIP3    H125290   0.781   5.206   4.445
 8449TIP3    H225291   0.654   5.283   4.470
 8450TIP3   OH225292   1.903   3.074   2.770
 8450TIP3    H125293   1.938   3.073   2.681
 8450TIP3    H225294   1.886   3.166   2.789
 8451TIP3   OH225295   3.496   4.872   5.118
 8451TIP3    H125296   3.531   4.819   5.046
 8451TIP3    H225297   3.554   4.852   5.192
 8452TIP3   OH225298   7.271   5.839   1.107
 8452TIP3    H125299   7.346   5.866   1.054
 8452TIP3    H225300   7.208   5.805   1.043
 8453TIP3   OH225301   0.365   5.414   2.733
 8453TIP3    H125302   0.383   5.336   2.785
 8453TIP3    H225303   0.347   5.482   2.797
 8454TIP3   OH225304   3.775   0.517   6.496
 8454TIP3    H125305   3.839   0.482   6.434
 8454TIP3    H225306   3.804   0.484   6.581
 8455TIP3   OH225307   4.027   1.695   1.333
 8455TIP3    H125308   4.076   1.719   1.254
 8455TIP3    H225309   4.093   1.688   1.402
 8456TIP3   OH225310   0.158   3.044   3.680
 8456TIP3    H125311   0.089   3.110   3.686
 8456TIP3    H225312   0.217   3.077   3.612
 8457TIP3   OH225313   6.564   7.762   5.948
 8457TIP3    H125314   6.572   7.743   5.854
 8457TIP3    H225315   6.642   7.814   5.968
 8458TIP3   OH225316   2.077   6.507   3.809
 8458TIP3    H125317   2.081   6.486   3.716
 8458TIP3    H225318   2.168   6.504   3.839
 8459TIP3   OH225319   8.158   1.200   2.846
 8459TIP3    H125320   8.154   1.294   2.860
 8459TIP3    H225321   8.104   1.163   2.916
 8460TIP3   OH225322   6.011   1.427   5.422
 8460TIP3    H125323   5.960   1.493   5.469
 8460TIP3    H225324   6.085   1.408   5.480
 8461TIP3   OH225325   1.422   0.018   1.068
 8461TIP3    H125326   1.429   0.088   1.132
 8461TIP3    H225327   1.329   0.011   1.049
 8462TIP3   OH225328   5.086   4.543   3.412
 8462TIP3    H125329   5.043   4.460   3.435
 8462TIP3    H225330   5.055   4.605   3.477
 8463TIP3   OH225331   6.519   0.438   5.901
 8463TIP3    H125332   6.431   0.416   5.931
 8463TIP3    H225333   6.575   0.429   5.979
 8464TIP3   OH225334   0.107   4.966   0.048
 8464TIP3    H125335   0.075   4.998   0.133
 8464TIP3    H225336   0.030   4.924   0.009
 8465TIP3   OH225337   4.501   2.474   3.784
 8465TIP3    H125338   4.518   2.498   3.693
 8465TIP3    H225339   4.496   2.378   3.783
 8466TIP3   OH225340   7.926   6.239   2.707
 8466TIP3    H125341   7.912   6.334   2.705
 8466TIP3    H225342   8.020   6.229   2.718
 8467TIP3   OH225343   6.004   1.126   0.098
 8467TIP3    H125344   6.026   1.050   0.151
 8467TIP3    H225345   6.073   1.129   0.031
 8468TIP3   OH225346   2.433   4.588   2.459
 8468TIP3    H125347   2.496   4.642   2.411
 8468TIP3    H225348   2.375   4.553   2.391
 8469TIP3   OH225349   2.343   7.789   5.723
 8469TIP3    H125350   2.328   7.698   5.697
 8469TIP3    H225351   2.420   7.785   5.780
 8470TIP3   OH225352   2.881   4.885   1.288
 8470TIP3    H125353   2.891   4.837   1.370
 8470TIP3    H225354   2.911   4.825   1.220
 8471TIP3   OH225355   7.732   6.800   3.687
 8471TIP3    H125356   7.685   6.881   3.707
 8471TIP3    H225357   7.707   6.741   3.758
 8472TIP3   OH225358   6.802   2.327   1.625
 8472TIP3    H125359   6.784   2.247   1.675
 8472TIP3    H225360   6.791   2.301   1.534
 8473TIP3   OH225361   0.972   3.473   0.054
 8473TIP3    H125362   0.998   3.504  -0.033
 8473TIP3    H225363   0.879   3.454   0.045
 8474TIP3   OH225364   4.887   5.793   0.109
 8474TIP3    H125365   4.808   5.800   0.055
 8474TIP3    H225366   4.854   5.773   0.197
 8475TIP3   OH225367   6.887   1.575   1.713
 8475TIP3    H125368   6.923   1.602   1.797
 8475TIP3    H225369   6.959   1.529   1.670
 8476TIP3   OH225370   5.429   6.593   6.006
 8476TIP3    H125371   5.404   6.501   6.016
 8476TIP3    H225372   5.347   6.641   6.008
 8477TIP3   OH225373   6.762   1.293   6.605
 8477TIP3    H125374   6.769   1.238   6.527
 8477TIP3    H225375   6.843   1.344   6.605
 8478TIP3   OH225376   6.483   1.469   6.466
 8478TIP3    H125377   6.562   1.429   6.432
 8478TIP3    H225378   6.416   1.401   6.459
 8479TIP3   OH225379   6.564   5.787   4.382
 8479TIP3    H125380   6.570   5.774   4.477
 8479TIP3    H225381   6.524   5.873   4.372
 8480TIP3   OH225382   3.734   1.690   4.764
 8480TIP3    H125383   3.672   1.623   4.736
 8480TIP3    H225384   3.811   1.677   4.708
 8481TIP3   OH225385   1.528   5.391   3.588
 8481TIP3    H125386   1.537   5.334   3.511
 8481TIP3    H225387   1.475   5.340   3.649
 8482TIP3   OH225388   5.045   1.589   2.882
 8482TIP3    H125389   4.985   1.594   2.956
 8482TIP3    H225390   4.995   1.626   2.809
 8483TIP3   OH225391   1.226   6.876   6.422
 8483TIP3    H125392   1.188   6.793   6.451
 8483TIP3    H225393   1.157   6.941   6.440
 8484TIP3   OH225394   0.965   4.105   6.756
 8484TIP3    H125395   0.963   4.079   6.848
 8484TIP3    H225396   0.945   4.198   6.756
 8485TIP3   OH225397   3.766   6.920   4.471
 8485TIP3    H125398   3.716   6.953   4.546
 8485TIP3    H225399   3.715   6.845   4.440
 8486TIP3   OH225400   6.702   1.884   3.540
 8486TIP3    H125401   6.763   1.811   3.547
 8486TIP3    H225402   6.724   1.925   3.457
 8487TIP3   OH225403   7.928   3.745   6.440
 8487TIP3    H125404   7.989   3.778   6.506
 8487TIP3    H225405   7.875   3.821   6.416
 8488TIP3   OH225406   1.228   6.417   6.644
 8488TIP3    H125407   1.281   6.438   6.568
 8488TIP3    H225408   1.283   6.440   6.719
 8489TIP3   OH225409   5.545   0.730   0.715
 8489TIP3    H125410   5.580   0.782   0.643
 8489TIP3    H225411   5.576   0.774   0.794
 8490TIP3   OH225412   1.334   0.277   5.342
 8490TIP3    H125413   1.290   0.201   5.377
 8490TIP3    H225414   1.427   0.255   5.345
 8491TIP3   OH225415   3.310   5.244   0.872
 8491TIP3    H125416   3.243   5.177   0.887
 8491TIP3    H225417   3.261   5.326   0.861
 8492TIP3   OH225418   1.585   7.152   3.346
 8492TIP3    H125419   1.651   7.095   3.306
 8492TIP3    H225420   1.603   7.239   3.310
 8493TIP3   OH225421   6.337   1.608   6.672
 8493TIP3    H125422   6.296   1.524   6.654
 8493TIP3    H225423   6.425   1.586   6.703
 8494TIP3   OH225424   3.435   4.336   2.250
 8494TIP3    H125425   3.513   4.361   2.200
 8494TIP3    H225426   3.410   4.251   2.214
 8495TIP3   OH225427   1.046   3.454   5.012
 8495TIP3    H125428   1.048   3.370   4.965
 8495TIP3    H225429   1.135   3.465   5.045
 8496TIP3   OH225430   5.621   4.897   0.528
 8496TIP3    H125431   5.603   4.805   0.546
 8496TIP3    H225432   5.711   4.898   0.495
 8497TIP3   OH225433   4.600   3.181   5.698
 8497TIP3    H125434   4.688   3.185   5.660
 8497TIP3    H225435   4.555   3.258   5.663
 8498TIP3   OH225436   1.724   3.683   2.971
 8498TIP3    H125437   1.720   3.634   3.054
 8498TIP3    H225438   1.766   3.766   2.994
 8499TIP3   OH225439   5.689   7.144   2.669
 8499TIP3    H125440   5.719   7.053   2.661
 8499TIP3    H225441   5.596   7.136   2.689
 8500TIP3   OH225442   4.169   6.936   3.208
 8500TIP3    H125443   4.260   6.931   3.237
 8500TIP3    H225444   4.143   6.844   3.195
 8501TIP3   OH225445   3.646   2.081   5.235
 8501TIP3    H125446   3.666   1.988   5.232
 8501TIP3    H225447   3.583   2.090   5.307
 8502TIP3   OH225448   4.402   3.814   0.523
 8502TIP3    H125449   4.331   3.764   0.482
 8502TIP3    H225450   4.360   3.865   0.591
 8503TIP3   OH225451   7.186   7.224   3.667
 8503TIP3    H125452   7.173   7.132   3.689
 8503TIP3    H225453   7.126   7.271   3.725
 8504TIP3   OH225454   0.505   3.935   3.940
 8504TIP3    H125455   0.518   3.891   4.024
 8504TIP3    H225456   0.563   4.010   3.942
 8505TIP3   OH225457   7.573   0.345   6.610
 8505TIP3    H125458   7.540   0.423   6.656
 8505TIP3    H225459   7.668   0.353   6.616
 8506TIP3   OH225460   0.472   4.022   6.609
 8506TIP3    H125461   0.420   3.942   6.620
 8506TIP3    H225462   0.562   3.991   6.598
 8507TIP3   OH225463   1.042   2.441   3.157
 8507TIP3    H125464   0.947   2.433   3.146
 8507TIP3    H225465   1.073   2.475   3.073
 8508TIP3   OH225466   3.973   5.349   0.471
 8508TIP3    H125467   4.055   5.385   0.436
 8508TIP3    H225468   3.913   5.423   0.473
 8509TIP3   OH225469   1.412   2.716   3.458
 8509TIP3    H125470   1.326   2.692   3.424
 8509TIP3    H225471   1.402   2.806   3.490
 8510TIP3   OH225472   0.250   1.657   0.016
 8510TIP3    H125473   0.160   1.635  -0.008
 8510TIP3    H225474   0.298   1.652  -0.066
 8511TIP3   OH225475   0.000   5.618   0.338
 8511TIP3    H125476  -0.017   5.709   0.314
 8511TIP3    H225477  -0.073   5.595   0.396
 8512TIP3   OH225478   7.342   5.482   2.123
 8512TIP3    H125479   7.277   5.468   2.193
 8512TIP3    H225480   7.339   5.576   2.107
 8513TIP3   OH225481   1.126   6.204   4.582
 8513TIP3    H125482   1.204   6.259   4.587
 8513TIP3    H225483   1.127   6.168   4.494
 8514TIP3   OH225484   0.028   1.065   3.230
 8514TIP3    H125485   0.024   1.031   3.319
 8514TIP3    H225486  -0.004   1.155   3.237
 8515TIP3   OH225487   0.194   5.981   1.507
 8515TIP3    H125488   0.246   5.911   1.467
 8515TIP3    H225489   0.214   6.058   1.454
 8516TIP3   OH225490   0.571   7.617   2.814
 8516TIP3    H125491   0.629   7.581   2.747
 8516TIP3    H225492   0.605   7.705   2.831
 8517TIP3   OH225493   6.866   5.331   4.135
 8517TIP3    H125494   6.930   5.293   4.074
 8517TIP3    H225495   6.919   5.375   4.201
 8518TIP3   OH225496   5.139   2.586   0.280
 8518TIP3    H125497   5.081   2.579   0.204
 8518TIP3    H225498   5.225   2.605   0.243
 8519TIP3   OH225499   3.773   3.697   4.299
 8519TIP3    H125500   3.778   3.723   4.391
 8519TIP3    H225501   3.846   3.741   4.257
 8520TIP3   OH225502   1.709   7.272   0.348
 8520TIP3    H125503   1.627   7.252   0.302
 8520TIP3    H225504   1.739   7.353   0.307
 8521TIP3   OH225505   6.720   7.174   0.887
 8521TIP3    H125506   6.793   7.113   0.883
 8521TIP3    H225507   6.757   7.253   0.926
 8522TIP3   OH225508   5.136   0.663   0.174
 8522TIP3    H125509   5.122   0.619   0.257
 8522TIP3    H225510   5.054   0.652   0.126
 8523TIP3   OH225511   0.777   2.102   3.251
 8523TIP3    H125512   0.729   2.019   3.253
 8523TIP3    H225513   0.826   2.099   3.169
 8524TIP3   OH225514   5.287   1.546   0.483
 8524TIP3    H125515   5.231   1.590   0.547
 8524TIP3    H225516   5.368   1.526   0.530
 8525TIP3   OH225517   6.712   4.361   3.992
 8525TIP3    H125518   6.697   4.399   4.078
 8525TIP3    H225519   6.783   4.298   4.006
 8526TIP3   OH225520   4.341   4.278   4.462
 8526TIP3    H125521   4.380   4.301   4.546
 8526TIP3    H225522   4.263   4.227   4.486
 8527TIP3   OH225523   5.242   5.300   3.625
 8527TIP3    H125524   5.222   5.276   3.534
 8527TIP3    H225525   5.309   5.237   3.652
 8528TIP3   OH225526   5.177   0.640   1.395
 8528TIP3    H125527   5.195   0.590   1.475
 8528TIP3    H225528   5.087   0.670   1.406
 8529TIP3   OH225529   6.132   1.097   1.337
 8529TIP3    H125530   6.112   1.058   1.252
 8529TIP3    H225531   6.180   1.177   1.316
 8530TIP3   OH225532   6.850   4.659   3.129
 8530TIP3    H125533   6.936   4.678   3.166
 8530TIP3    H225534   6.862   4.576   3.082
 8531TIP3   OH225535   2.560   1.650   4.728
 8531TIP3    H125536   2.632   1.588   4.718
 8531TIP3    H225537   2.509   1.640   4.648
 8532TIP3   OH225538   1.835   1.100   0.031
 8532TIP3    H125539   1.853   1.050  -0.049
 8532TIP3    H225540   1.904   1.073   0.092
 8533TIP3   OH225541   4.447   7.001   4.726
 8533TIP3    H125542   4.450   7.090   4.761
 8533TIP3    H225543   4.484   7.008   4.638
 8534TIP3   OH225544   8.209   0.375   3.520
 8534TIP3    H125545   8.257   0.447   3.561
 8534TIP3    H225546   8.254   0.360   3.437
 8535TIP3   OH225547   2.696   1.952   5.306
 8535TIP3    H125548   2.765   1.945   5.371
 8535TIP3    H225549   2.618   1.974   5.356
 8536TIP3   OH225550   5.545   3.419   6.776
 8536TIP3    H125551   5.561   3.344   6.832
 8536TIP3    H225552   5.632   3.453   6.754
 8537TIP3   OH225553   1.347   6.151   6.753
 8537TIP3    H125554   1.399   6.092   6.698
 8537TIP3    H225555   1.303   6.208   6.690
 8538TIP3   OH225556   2.394   7.336   2.121
 8538TIP3    H125557   2.315   7.341   2.068
 8538TIP3    H225558   2.451   7.276   2.073
 8539TIP3   OH225559   5.786   1.441   2.350
 8539TIP3    H125560   5.774   1.347   2.334
 8539TIP3    H225561   5.697   1.477   2.349
 8540TIP3   OH225562   8.200   0.044   4.446
 8540TIP3    H125563   8.140   0.070   4.376
 8540TIP3    H225564   8.211   0.123   4.498
 8541TIP3   OH225565   0.937   2.791   5.531
 8541TIP3    H125566   0.857   2.822   5.489
 8541TIP3    H225567   0.991   2.758   5.459
 8542TIP3   OH225568   5.456   4.815   0.230
 8542TIP3    H125569   5.430   4.792   0.319
 8542TIP3    H225570   5.383   4.865   0.195
 8543TIP3   OH225571   7.373   5.712   5.751
 8543TIP3    H125572   7.282   5.741   5.761
 8543TIP3    H225573   7.425   5.780   5.795
 8544TIP3   OH225574   1.763   3.315   5.356
 8544TIP3    H125575   1.783   3.377   5.426
 8544TIP3    H225576   1.783   3.363   5.275
 8545TIP3   OH225577   2.770   6.131   5.332
 8545TIP3    H125578   2.819   6.210   5.353
 8545TIP3    H225579   2.817   6.060   5.376
 8546TIP3   OH225580   5.643   7.409   4.472
 8546TIP3    H125581   5.616   7.350   4.402
 8546TIP3    H225582   5.624   7.497   4.439
 8547TIP3   OH225583   1.764   5.945   6.428
 8547TIP3    H125584   1.762   5.856   6.393
 8547TIP3    H225585   1.831   5.991   6.377
 8548TIP3   OH225586   6.248   0.217   4.555
 8548TIP3    H125587   6.214   0.129   4.575
 8548TIP3    H225588   6.196   0.245   4.480
 8549TIP3   OH225589   3.591   1.143   1.264
 8549TIP3    H125590   3.509   1.128   1.311
 8549TIP3    H225591   3.627   1.222   1.304
 8550TIP3   OH225592   0.863   1.112   6.325
 8550TIP3    H125593   0.957   1.115   6.309
 8550TIP3    H225594   0.854   1.055   6.401
 8551TIP3   OH225595   1.147   4.879   3.809
 8551TIP3    H125596   1.085   4.921   3.750
 8551TIP3    H225597   1.190   4.951   3.856
 8552TIP3   OH225598   3.548   5.507   4.936
 8552TIP3    H125599   3.474   5.477   4.988
 8552TIP3    H225600   3.522   5.595   4.907
 8553TIP3   OH225601   0.412   6.308   0.176
 8553TIP3    H125602   0.412   6.394   0.133
 8553TIP3    H225603   0.484   6.260   0.134
 8554TIP3   OH225604   1.673   7.535   2.161
 8554TIP3    H125605   1.636   7.504   2.244
 8554TIP3    H225606   1.696   7.455   2.114
 8555TIP3   OH225607   2.139   6.781   1.454
 8555TIP3    H125608   2.048   6.793   1.481
 8555TIP3    H225609   2.182   6.743   1.531
 8556TIP3   OH225610   0.299   1.179   1.599
 8556TIP3    H125611   0.259   1.105   1.644
 8556TIP3    H225612   0.271   1.169   1.508
 8557TIP3   OH225613   4.021   4.420   1.987
 8557TIP3    H125614   4.023   4.485   1.917
 8557TIP3    H225615   4.077   4.349   1.954
 8558TIP3   OH225616   3.532   2.047   6.218
 8558TIP3    H125617   3.585   1.985   6.268
 8558TIP3    H225618   3.596   2.105   6.177
 8559TIP3   OH225619   3.348   6.535   6.184
 8559TIP3    H125620   3.327   6.563   6.095
 8559TIP3    H225621   3.369   6.442   6.176
 8560TIP3   OH225622   4.197   6.445   2.698
 8560TIP3    H125623   4.192   6.516   2.763
 8560TIP3    H225624   4.140   6.377   2.732
 8561TIP3   OH225625   6.013   5.923   5.394
 8561TIP3    H125626   6.098   5.909   5.351
 8561TIP3    H225627   5.949   5.887   5.333
 8562TIP3   OH225628   0.550   1.823   3.517
 8562TIP3    H125629   0.551   1.914   3.488
 8562TIP3    H225630   0.561   1.771   3.437
 8563TIP3   OH225631   7.956   3.965   2.836
 8563TIP3    H125632   8.027   3.908   2.805
 8563TIP3    H225633   7.910   3.992   2.757
 8564TIP3   OH225634   7.508   7.692   2.737
 8564TIP3    H125635   7.511   7.699   2.642
 8564TIP3    H225636   7.581   7.634   2.759
 8565TIP3   OH225637   5.094   2.157   4.650
 8565TIP3    H125638   5.131   2.109   4.724
 8565TIP3    H225639   5.058   2.089   4.593
 8566TIP3   OH225640   2.874   5.331   3.816
 8566TIP3    H125641   2.946   5.355   3.874
 8566TIP3    H225642   2.795   5.351   3.867
 8567TIP3   OH225643   2.822   1.953   2.757
 8567TIP3    H125644   2.878   2.007   2.700
 8567TIP3    H225645   2.751   1.924   2.700
 8568TIP3   OH225646   5.743   7.010   0.878
 8568TIP3    H125647   5.709   6.952   0.946
 8568TIP3    H225648   5.698   7.093   0.893
 8569TIP3   OH225649   4.005   2.713   0.112
 8569TIP3    H125650   3.911   2.701   0.116
 8569TIP3    H225651   4.040   2.650   0.176
 8570TIP3   OH225652   1.908   5.370   1.442
 8570TIP3    H125653   1.927   5.277   1.430
 8570TIP3    H225654   1.975   5.415   1.391
 8571TIP3   OH225655   6.185   0.562   2.442
 8571TIP3    H125656   6.186   0.578   2.536
 8571TIP3    H225657   6.131   0.632   2.406
 8572TIP3   OH225658   3.375   3.361   3.356
 8572TIP3    H125659   3.332   3.428   3.409
 8572TIP3    H225660   3.304   3.321   3.306
 8573TIP3   OH225661   2.414   2.677   4.491
 8573TIP3    H125662   2.478   2.724   4.544
 8573TIP3    H225663   2.426   2.585   4.515
 8574TIP3   OH225664   1.303   1.654   3.239
 8574TIP3    H125665   1.331   1.719   3.174
 8574TIP3    H225666   1.221   1.618   3.204
 8575TIP3   OH225667   3.233   6.569   1.715
 8575TIP3    H125668   3.320   6.531   1.705
 8575TIP3    H225669   3.217   6.615   1.632
 8576TIP3   OH225670   7.476   0.200   0.368
 8576TIP3    H125671   7.434   0.191   0.282
 8576TIP3    H225672   7.542   0.131   0.369
 8577TIP3   OH225673   5.995   0.718   0.061
 8577TIP3    H125674   6.004   0.732   0.155
 8577TIP3    H225675   5.921   0.658   0.053
 8578TIP3   OH225676   2.456   2.627   3.225
 8578TIP3    H125677   2.433   2.583   3.307
 8578TIP3    H225678   2.373   2.635   3.178
 8579TIP3   OH225679   5.105   5.787   6.124
 8579TIP3    H125680   5.012   5.784   6.146
 8579TIP3    H225681   5.119   5.876   6.092
 8580TIP3   OH225682   3.262   3.599   4.300
 8580TIP3    H125683   3.235   3.674   4.247
 8580TIP3    H225684   3.316   3.547   4.241
 8581TIP3   OH225685   2.121   5.981   0.715
 8581TIP3    H125686   2.039   5.964   0.668
 8581TIP3    H225687   2.182   5.916   0.681
 8582TIP3   OH225688   6.987   1.040   1.115
 8582TIP3    H125689   6.919   1.081   1.062
 8582TIP3    H225690   7.065   1.040   1.059
 8583TIP3   OH225691   4.515   4.346   6.475
 8583TIP3    H125692   4.424   4.375   6.476
 8583TIP3    H225693   4.557   4.395   6.545
 8584TIP3   OH225694   5.979   1.392   3.531
 8584TIP3    H125695   6.028   1.347   3.600
 8584TIP3    H225696   6.047   1.422   3.470
 8585TIP3   OH225697   8.069   5.562   6.419
 8585TIP3    H125698   8.006   5.490   6.411
 8585TIP3    H225699   8.015   5.640   6.427
 8586TIP3   OH225700   7.662   6.518   5.322
 8586TIP3    H125701   7.573   6.499   5.349
 8586TIP3    H225702   7.657   6.607   5.286
 8587TIP3   OH225703   3.366   4.478   4.431
 8587TIP3    H125704   3.397   4.387   4.430
 8587TIP3    H225705   3.412   4.520   4.359
 8588TIP3   OH225706   6.625   7.365   2.297
 8588TIP3    H125707   6.717   7.380   2.320
 8588TIP3    H225708   6.628   7.331   2.208
 8589TIP3   OH225709   7.611   0.889   4.478
 8589TIP3    H125710   7.638   0.798   4.490
 8589TIP3    H225711   7.673   0.924   4.414
 8590TIP3   OH225712   2.605   1.701   6.124
 8590TIP3    H125713   2.687   1.656   6.106
 8590TIP3    H225714   2.539   1.652   6.074
 8591TIP3   OH225715   4.158   7.461   2.775
 8591TIP3    H125716   4.175   7.553   2.755
 8591TIP3    H225717   4.099   7.431   2.707
 8592TIP3   OH225718   2.891   5.276   6.092
 8592TIP3    H125719   2.860   5.304   6.178
 8592TIP3    H225720   2.952   5.345   6.065
 8593TIP3   OH225721   5.453   4.007   3.896
 8593TIP3    H125722   5.407   4.080   3.855
 8593TIP3    H225723   5.519   3.981   3.832
 8594TIP3   OH225724   2.135   6.937   0.367
 8594TIP3    H125725   2.173   6.880   0.434
 8594TIP3    H225726   2.045   6.951   0.397
 8595TIP3   OH225727   6.066   5.440   1.369
 8595TIP3    H125728   6.079   5.367   1.429
 8595TIP3    H225729   5.993   5.413   1.313
 8596TIP3   OH225730   6.927   0.796   0.648
 8596TIP3    H125731   7.021   0.802   0.633
 8596TIP3    H225732   6.896   0.887   0.645
 8597TIP3   OH225733   2.084   0.194   6.629
 8597TIP3    H125734   1.992   0.207   6.606
 8597TIP3    H225735   2.131   0.203   6.545
 8598TIP3   OH225736   6.849   1.459   5.704
 8598TIP3    H125737   6.924   1.495   5.752
 8598TIP3    H225738   6.887   1.401   5.640
 8599TIP3   OH225739   7.240   1.499   0.679
 8599TIP3    H125740   7.206   1.517   0.767
 8599TIP3    H225741   7.164   1.508   0.622
 8600TIP3   OH225742   4.747   2.126   1.388
 8600TIP3    H125743   4.660   2.113   1.427
 8600TIP3    H225744   4.806   2.124   1.463
 8601TIP3   OH225745   7.799   6.076   4.374
 8601TIP3    H125746   7.888   6.103   4.355
 8601TIP3    H225747   7.796   6.070   4.470
 8602TIP3   OH225748   3.466   1.515   4.956
 8602TIP3    H125749   3.464   1.452   5.029
 8602TIP3    H225750   3.381   1.558   4.959
 8603TIP3   OH225751   7.507   0.452   2.952
 8603TIP3    H125752   7.441   0.387   2.975
 8603TIP3    H225753   7.569   0.449   3.025
 8604TIP3   OH225754   0.617   2.095   0.433
 8604TIP3    H125755   0.662   2.155   0.374
 8604TIP3    H225756   0.525   2.099   0.406
 8605TIP3   OH225757   2.836   4.629   2.510
 8605TIP3    H125758   2.767   4.563   2.504
 8605TIP3    H225759   2.791   4.712   2.494
 8606TIP3   OH225760   6.268   0.658   0.259
 8606TIP3    H125761   6.193   0.598   0.265
 8606TIP3    H225762   6.344   0.600   0.249
 8607TIP3   OH225763   0.145   4.975   2.293
 8607TIP3    H125764   0.119   4.885   2.271
 8607TIP3    H225765   0.107   4.990   2.380
 8608TIP3   OH225766   5.181   3.146   2.565
 8608TIP3    H125767   5.092   3.132   2.535
 8608TIP3    H225768   5.188   3.095   2.646
 8609TIP3   OH225769   1.624   5.944   0.677
 8609TIP3    H125770   1.538   5.985   0.685
 8609TIP3    H225771   1.677   6.009   0.631
 8610TIP3   OH225772   4.803   1.657   4.658
 8610TIP3    H125773   4.851   1.636   4.578
 8610TIP3    H225774   4.854   1.616   4.728
 8611TIP3   OH225775   3.258   0.890   2.309
 8611TIP3    H125776   3.340   0.928   2.340
 8611TIP3    H225777   3.273   0.796   2.312
 8612TIP3   OH225778   2.848   3.778   1.004
 8612TIP3    H125779   2.849   3.727   0.923
 8612TIP3    H225780   2.874   3.866   0.977
 8613TIP3   OH225781   6.190   6.140   3.899
 8613TIP3    H125782   6.235   6.184   3.827
 8613TIP3    H225783   6.196   6.047   3.877
 8614TIP3   OH225784   1.374   0.136   6.285
 8614TIP3    H125785   1.388   0.075   6.212
 8614TIP3    H225786   1.429   0.102   6.356
 8615TIP3   OH225787   2.140   2.792   5.056
 8615TIP3    H125788   2.226   2.830   5.076
 8615TIP3    H225789   2.151   2.750   4.972
 8616TIP3   OH225790   4.608   3.497   6.629
 8616TIP3    H125791   4.607   3.571   6.569
 8616TIP3    H225792   4.669   3.523   6.698
 8617TIP3   OH225793   2.762   7.169   5.403
 8617TIP3    H125794   2.771   7.098   5.340
 8617TIP3    H225795   2.712   7.236   5.357
 8618TIP3   OH225796   5.463   3.706   4.943
 8618TIP3    H125797   5.482   3.712   5.037
 8618TIP3    H225798   5.470   3.612   4.924
 8619TIP3   OH225799   0.366   5.834   5.305
 8619TIP3    H125800   0.446   5.885   5.318
 8619TIP3    H225801   0.396   5.751   5.268
 8620TIP3   OH225802   0.665   3.813   4.701
 8620TIP3    H125803   0.585   3.785   4.656
 8620TIP3    H225804   0.712   3.732   4.719
 8621TIP3   OH225805   1.637   4.355   1.603
 8621TIP3    H125806   1.684   4.411   1.540
 8621TIP3    H225807   1.705   4.314   1.655
 8622TIP3   OH225808   6.266   1.397   2.633
 8622TIP3    H125809   6.216   1.322   2.665
 8622TIP3    H225810   6.334   1.410   2.699
 8623TIP3   OH225811   5.354   5.672   2.742
 8623TIP3    H125812   5.412   5.746   2.761
 8623TIP3    H225813   5.279   5.711   2.698
 8624TIP3   OH225814   1.306   4.413   2.466
 8624TIP3    H125815   1.370   4.461   2.414
 8624TIP3    H225816   1.229   4.405   2.409
 8625TIP3   OH225817   2.742   7.557   6.408
 8625TIP3    H125818   2.652   7.569   6.438
 8625TIP3    H225819   2.794   7.559   6.488
 8626TIP3   OH225820   6.547   2.367   2.966
 8626TIP3    H125821   6.590   2.339   3.047
 8626TIP3    H225822   6.486   2.296   2.946
 8627TIP3   OH225823   1.514   4.254   1.217
 8627TIP3    H125824   1.569   4.281   1.143
 8627TIP3    H225825   1.438   4.211   1.176
 8628TIP3   OH225826   0.787   3.275   0.346
 8628TIP3    H125827   0.693   3.290   0.350
 8628TIP3    H225828   0.799   3.184   0.371
 8629TIP3   OH225829   2.647   3.232   0.806
 8629TIP3    H125830   2.739   3.254   0.825
 8629TIP3    H225831   2.634   3.266   0.717
 8630TIP3   OH225832   4.005   3.856   3.937
 8630TIP3    H125833   3.970   3.775   3.975
 8630TIP3    H225834   4.083   3.875   3.989
 8631TIP3   OH225835   4.051   5.354   2.096
 8631TIP3    H125836   4.034   5.442   2.064
 8631TIP3    H225837   4.037   5.298   2.019
 8632TIP3   OH225838   3.659   6.355   3.992
 8632TIP3    H125839   3.575   6.338   3.948
 8632TIP3    H225840   3.715   6.283   3.965
 8633TIP3   OH225841   4.603   2.680   4.519
 8633TIP3    H125842   4.650   2.654   4.439
 8633TIP3    H225843   4.511   2.676   4.495
 8634TIP3   OH225844   6.792   0.291   2.568
 8634TIP3    H125845   6.842   0.263   2.645
 8634TIP3    H225846   6.700   0.280   2.594
 8635TIP3   OH225847   5.722   2.825   3.898
 8635TIP3    H125848   5.789   2.758   3.885
 8635TIP3    H225849   5.686   2.840   3.811
 8636TIP3   OH225850   5.369   2.598   6.491
 8636TIP3    H125851   5.386   2.686   6.525
 8636TIP3    H225852   5.431   2.542   6.537
 8637TIP3   OH225853   4.857   0.453   4.514
 8637TIP3    H125854   4.867   0.547   4.531
 8637TIP3    H225855   4.917   0.436   4.441
 8638TIP3   OH225856   5.812   1.105   2.818
 8638TIP3    H125857   5.852   1.033   2.866
 8638TIP3    H225858   5.852   1.102   2.732
 8639TIP3   OH225859   3.581   0.943   2.586
 8639TIP3    H125860   3.671   0.935   2.555
 8639TIP3    H225861   3.590   0.964   2.679
 8640TIP3   OH225862   3.025   4.044   0.305
 8640TIP3    H125863   3.103   4.066   0.357
 8640TIP3    H225864   2.972   3.990   0.364
 8641TIP3   OH225865   6.759   5.998   2.104
 8641TIP3    H125866   6.772   5.999   2.199
 8641TIP3    H225867   6.838   6.038   2.068
 8642TIP3   OH225868   2.903   7.471   0.344
 8642TIP3    H125869   2.994   7.453   0.321
 8642TIP3    H225870   2.907   7.506   0.433
 8643TIP3   OH225871   2.695   7.023   2.844
 8643TIP3    H125872   2.718   7.003   2.935
 8643TIP3    H225873   2.632   6.955   2.820
 8644TIP3   OH225874   7.410   5.503   1.372
 8644TIP3    H125875   7.420   5.423   1.423
 8644TIP3    H225876   7.346   5.481   1.304
 8645TIP3   OH225877   4.225   3.472   6.703
 8645TIP3    H125878   4.133   3.475   6.678
 8645TIP3    H225879   4.225   3.492   6.796
 8646TIP3   OH225880   6.492   5.443   4.203
 8646TIP3    H125881   6.477   5.425   4.296
 8646TIP3    H225882   6.443   5.523   4.186
 8647TIP3   OH225883   1.210   7.137   4.034
 8647TIP3    H125884   1.186   7.055   4.078
 8647TIP3    H225885   1.301   7.123   4.005
 8648TIP3   OH225886   7.780   1.677   6.119
 8648TIP3    H125887   7.684   1.681   6.119
 8648TIP3    H225888   7.807   1.755   6.167
 8649TIP3   OH225889   6.881   3.659   6.430
 8649TIP3    H125890   6.842   3.579   6.465
 8649TIP3    H225891   6.917   3.704   6.507
 8650TIP3   OH225892   1.203   6.998   6.147
 8650TIP3    H125893   1.185   7.088   6.121
 8650TIP3    H225894   1.119   6.966   6.182
 8651TIP3   OH225895   4.677   0.774   3.888
 8651TIP3    H125896   4.637   0.730   3.813
 8651TIP3    H225897   4.604   0.797   3.945
 8652TIP3   OH225898   0.827   3.962   4.525
 8652TIP3    H125899   0.916   3.927   4.514
 8652TIP3    H225900   0.784   3.898   4.583
 8653TIP3   OH225901   7.194   0.347   0.560
 8653TIP3    H125902   7.266   0.297   0.600
 8653TIP3    H225903   7.181   0.421   0.618
 8654TIP3   OH225904   7.059   4.815   3.253
 8654TIP3    H125905   6.982   4.855   3.292
 8654TIP3    H225906   7.122   4.809   3.325
 8655TIP3   OH225907   2.979   7.787   0.846
 8655TIP3    H125908   3.004   7.702   0.881
 8655TIP3    H225909   2.897   7.771   0.799
 8656TIP3   OH225910   4.557   1.605   6.182
 8656TIP3    H125911   4.541   1.653   6.101
 8656TIP3    H225912   4.590   1.520   6.153
 8657TIP3   OH225913   1.394   5.222   2.180
 8657TIP3    H125914   1.313   5.272   2.190
 8657TIP3    H225915   1.401   5.172   2.262
 8658TIP3   OH225916  -0.003   1.894   3.441
 8658TIP3    H125917   0.010   1.983   3.474
 8658TIP3    H225918  -0.021   1.842   3.518
 8659TIP3   OH225919   4.724   0.500   0.212
 8659TIP3    H125920   4.679   0.417   0.198
 8659TIP3    H225921   4.787   0.506   0.140
 8660TIP3   OH225922   3.050   3.451   0.701
 8660TIP3    H125923   3.135   3.482   0.671
 8660TIP3    H225924   3.070   3.379   0.761
 8661TIP3   OH225925   4.726   4.264   2.438
 8661TIP3    H125926   4.707   4.260   2.344
 8661TIP3    H225927   4.799   4.326   2.444
 8662TIP3   OH225928   0.952   6.921   5.888
 8662TIP3    H125929   0.968   7.013   5.868
 8662TIP3    H225930   0.883   6.895   5.826
 8663TIP3   OH225931   4.387   6.082   0.440
 8663TIP3    H125932   4.339   6.120   0.514
 8663TIP3    H225933   4.467   6.135   0.434
 8664TIP3   OH225934   4.592   0.506   2.079
 8664TIP3    H125935   4.540   0.536   2.154
 8664TIP3    H225936   4.679   0.543   2.093
 8665TIP3   OH225937   3.934   1.477   6.462
 8665TIP3    H125938   3.881   1.553   6.487
 8665TIP3    H225939   3.937   1.423   6.541
 8666TIP3   OH225940   6.281   3.239   4.615
 8666TIP3    H125941   6.226   3.193   4.551
 8666TIP3    H225942   6.252   3.330   4.609
 8667TIP3   OH225943   4.576   0.059   4.827
 8667TIP3    H125944   4.643   0.114   4.867
 8667TIP3    H225945   4.493   0.095   4.859
 8668TIP3   OH225946   3.261   1.569   5.617
 8668TIP3    H125947   3.179   1.556   5.568
 8668TIP3    H225948   3.324   1.511   5.575
 8669TIP3   OH225949   3.962   5.231   0.791
 8669TIP3    H125950   4.039   5.277   0.825
 8669TIP3    H225951   3.892   5.254   0.851
 8670TIP3   OH225952   0.873   5.038   4.844
 8670TIP3    H125953   0.923   4.957   4.842
 8670TIP3    H225954   0.864   5.059   4.937
 8671TIP3   OH225955   8.151  -0.021   2.525
 8671TIP3    H125956   8.127  -0.060   2.441
 8671TIP3    H225957   8.223   0.038   2.505
 8672TIP3   OH225958   3.313   0.431   3.874
 8672TIP3    H125959   3.394   0.482   3.864
 8672TIP3    H225960   3.244   0.497   3.876
 8673TIP3   OH225961   0.852   3.297   2.782
 8673TIP3    H125962   0.796   3.241   2.836
 8673TIP3    H225963   0.845   3.384   2.822
 8674TIP3   OH225964   7.648   2.589   6.647
 8674TIP3    H125965   7.590   2.663   6.664
 8674TIP3    H225966   7.592   2.523   6.607
 8675TIP3   OH225967   5.764   1.378   3.726
 8675TIP3    H125968   5.857   1.379   3.702
 8675TIP3    H225969   5.744   1.286   3.744
 8676TIP3   OH225970   1.504   2.234   5.358
 8676TIP3    H125971   1.518   2.159   5.415
 8676TIP3    H225972   1.422   2.215   5.313
 8677TIP3   OH225973   7.657   6.683   5.597
 8677TIP3    H125974   7.598   6.703   5.525
 8677TIP3    H225975   7.741   6.720   5.569
 8678TIP3   OH225976   4.110   2.670   5.508
 8678TIP3    H125977   4.161   2.747   5.485
 8678TIP3    H225978   4.019   2.698   5.503
 8679TIP3   OH225979   5.966   5.855   2.189
 8679TIP3    H125980   5.949   5.865   2.096
 8679TIP3    H225981   6.058   5.829   2.194
 8680TIP3   OH225982   3.891   0.117   6.174
 8680TIP3    H125983   3.831   0.047   6.198
 8680TIP3    H225984   3.961   0.113   6.240
 8681TIP3   OH225985   3.962   1.624   1.799
 8681TIP3    H125986   3.952   1.529   1.811
 8681TIP3    H225987   4.056   1.638   1.794
 8682TIP3   OH225988   3.649   7.025   6.252
 8682TIP3    H125989   3.635   6.931   6.244
 8682TIP3    H225990   3.662   7.055   6.161
 8683TIP3   OH225991   4.885   5.894   1.065
 8683TIP3    H125992   4.850   5.982   1.074
 8683TIP3    H225993   4.828   5.851   1.001
 8684TIP3   OH225994   2.395   6.922   4.086
 8684TIP3    H125995   2.449   6.844   4.077
 8684TIP3    H225996   2.306   6.893   4.066
 8685TIP3   OH225997   7.853   3.562   5.982
 8685TIP3    H125998   7.808   3.644   5.963
 8685TIP3    H225999   7.934   3.588   6.025
 8686TIP3   OH226000   4.466   5.616   4.394
 8686TIP3    H126001   4.548   5.664   4.387
 8686TIP3    H226002   4.492   5.524   4.390
 8687TIP3   OH226003   2.030   5.686   6.146
 8687TIP3    H126004   2.009   5.778   6.131
 8687TIP3    H226005   1.958   5.638   6.104
 8688TIP3   OH226006   3.624   6.312   2.306
 8688TIP3    H126007   3.533   6.336   2.327
 8688TIP3    H226008   3.623   6.216   2.301
 8689TIP3   OH226009   6.090   3.321   5.852
 8689TIP3    H126010   6.151   3.391   5.829
 8689TIP3    H226011   6.045   3.302   5.770
 8690TIP3   OH226012   0.417   5.160   0.261
 8690TIP3    H126013   0.418   5.255   0.276
 8690TIP3    H226014   0.425   5.151   0.166
 8691TIP3   OH226015   2.421   3.592   0.358
 8691TIP3    H126016   2.403   3.662   0.295
 8691TIP3    H226017   2.412   3.512   0.306
 8692TIP3   OH226018   2.499   5.602   3.014
 8692TIP3    H126019   2.436   5.539   3.049
 8692TIP3    H226020   2.583   5.575   3.051
 8693TIP3   OH226021   4.745   6.906   4.732
 8693TIP3    H126022   4.702   6.833   4.688
 8693TIP3    H226023   4.716   6.983   4.684
 8694TIP3   OH226024   2.088   1.096   6.298
 8694TIP3    H126025   2.071   1.099   6.203
 8694TIP3    H226026   2.025   1.032   6.331
 8695TIP3   OH226027   0.742   5.788   2.163
 8695TIP3    H126028   0.714   5.800   2.254
 8695TIP3    H226029   0.688   5.850   2.114
 8696TIP3   OH226030   5.888   0.293   5.483
 8696TIP3    H126031   5.800   0.258   5.498
 8696TIP3    H226032   5.896   0.365   5.545
 8697TIP3   OH226033   3.623   7.373   2.685
 8697TIP3    H126034   3.569   7.335   2.754
 8697TIP3    H226035   3.696   7.312   2.674
 8698TIP3   OH226036   4.970   4.091   3.466
 8698TIP3    H126037   4.989   4.183   3.487
 8698TIP3    H226038   4.936   4.093   3.377
 8699TIP3   OH226039   0.294   7.124   6.364
 8699TIP3    H126040   0.341   7.049   6.400
 8699TIP3    H226041   0.233   7.150   6.433
 8700TIP3   OH226042   2.859   2.153   3.925
 8700TIP3    H126043   2.847   2.215   3.853
 8700TIP3    H226044   2.811   2.192   3.998
 8701TIP3   OH226045   4.358   7.676   5.800
 8701TIP3    H126046   4.271   7.678   5.839
 8701TIP3    H226047   4.389   7.587   5.814
 8702TIP3   OH226048   6.765   6.048   1.652
 8702TIP3    H126049   6.759   6.037   1.557
 8702TIP3    H226050   6.835   5.988   1.678
 8703TIP3   OH226051   5.893   1.622   6.181
 8703TIP3    H126052   5.874   1.715   6.191
 8703TIP3    H226053   5.878   1.604   6.088
 8704TIP3   OH226054   6.880   5.806   2.585
 8704TIP3    H126055   6.894   5.898   2.562
 8704TIP3    H226056   6.937   5.792   2.661
 8705TIP3   OH226057   2.744   7.601   2.741
 8705TIP3    H126058   2.695   7.574   2.663
 8705TIP3    H226059   2.760   7.694   2.728
 8706TIP3   OH226060   2.928   4.135   4.768
 8706TIP3    H126061   3.012   4.089   4.778
 8706TIP3    H226062   2.952   4.228   4.770
 8707TIP3   OH226063   0.883   7.794   6.167
 8707TIP3    H126064   0.896   7.703   6.193
 8707TIP3    H226065   0.810   7.824   6.221
 8708TIP3   OH226066   4.047   6.829   1.867
 8708TIP3    H126067   4.133   6.833   1.825
 8708TIP3    H226068   3.995   6.771   1.810
 8709TIP3   OH226069   2.432   2.577   1.681
 8709TIP3    H126070   2.372   2.521   1.631
 8709TIP3    H226071   2.424   2.547   1.771
 8710TIP3   OH226072   6.915   5.414   3.616
 8710TIP3    H126073   6.937   5.417   3.523
 8710TIP3    H226074   6.959   5.490   3.653
 8711TIP3   OH226075   6.191   0.182   3.442
 8711TIP3    H126076   6.241   0.140   3.511
 8711TIP3    H226077   6.256   0.232   3.392
 8712TIP3   OH226078   2.401   0.042   6.467
 8712TIP3    H126079   2.321   0.020   6.514
 8712TIP3    H226080   2.389   0.003   6.380
 8713TIP3   OH226081   1.384   3.616   5.904
 8713TIP3    H126082   1.420   3.614   5.816
 8713TIP3    H226083   1.292   3.593   5.894
 8714TIP3   OH226084   7.776   0.085   3.725
 8714TIP3    H126085   7.820   0.057   3.645
 8714TIP3    H226086   7.692   0.038   3.724
 8715TIP3   OH226087   5.186   3.450   4.848
 8715TIP3    H126088   5.113   3.503   4.882
 8715TIP3    H226089   5.174   3.452   4.753
 8716TIP3   OH226090   0.533   4.405   6.295
 8716TIP3    H126091   0.529   4.313   6.322
 8716TIP3    H226092   0.587   4.448   6.361
 8717TIP3   OH226093   3.719   6.288   0.624
 8717TIP3    H126094   3.634   6.290   0.668
 8717TIP3    H226095   3.728   6.198   0.592
 8718TIP3   OH226096   6.037   0.799   1.966
 8718TIP3    H126097   6.047   0.889   1.937
 8718TIP3    H226098   5.977   0.804   2.040
 8719TIP3   OH226099   4.729   2.447   2.398
 8719TIP3    H126100   4.697   2.357   2.392
 8719TIP3    H226101   4.768   2.453   2.485
 8720TIP3   OH226102   6.599   3.875   0.621
 8720TIP3    H126103   6.596   3.909   0.711
 8720TIP3    H226104   6.597   3.954   0.567
 8721TIP3   OH226105   6.222   3.960   2.366
 8721TIP3    H126106   6.192   3.970   2.457
 8721TIP3    H226107   6.181   3.879   2.336
 8722TIP3   OH226108   7.235   3.845   2.068
 8722TIP3    H126109   7.315   3.817   2.111
 8722TIP3    H226110   7.262   3.863   1.978
 8723TIP3   OH226111   7.474   1.243   2.934
 8723TIP3    H126112   7.546   1.220   2.993
 8723TIP3    H226113   7.482   1.181   2.862
 8724TIP3   OH226114   0.476   0.934   1.380
 8724TIP3    H126115   0.519   1.015   1.351
 8724TIP3    H226116   0.544   0.888   1.430
 8725TIP3   OH226117   3.599   0.255   6.590
 8725TIP3    H126118   3.692   0.274   6.605
 8725TIP3    H226119   3.557   0.341   6.591
 8726TIP3   OH226120   7.150   4.528   3.243
 8726TIP3    H126121   7.167   4.602   3.301
 8726TIP3    H226122   7.194   4.549   3.161
 8727TIP3   OH226123   6.252   3.859   5.738
 8727TIP3    H126124   6.258   3.917   5.662
 8727TIP3    H226125   6.307   3.901   5.804
 8728TIP3   OH226126   6.871   6.428   3.879
 8728TIP3    H126127   6.862   6.521   3.857
 8728TIP3    H226128   6.848   6.422   3.971
 8729TIP3   OH226129   3.274   7.004   0.124
 8729TIP3    H126130   3.264   7.099   0.112
 8729TIP3    H226131   3.326   6.976   0.048
 8730TIP3   OH226132   3.857   2.295   3.567
 8730TIP3    H126133   3.771   2.295   3.524
 8730TIP3    H226134   3.879   2.202   3.574
 8731TIP3   OH226135   3.237   2.205   4.730
 8731TIP3    H126136   3.268   2.122   4.767
 8731TIP3    H226137   3.295   2.271   4.767
 8732TIP3   OH226138   7.944   7.609   3.128
 8732TIP3    H126139   7.857   7.570   3.115
 8732TIP3    H226140   7.930   7.703   3.114
 8733TIP3   OH226141   0.808   1.550   1.315
 8733TIP3    H126142   0.744   1.508   1.373
 8733TIP3    H226143   0.891   1.546   1.362
 8734TIP3   OH226144   3.440   1.079   6.170
 8734TIP3    H126145   3.373   1.140   6.200
 8734TIP3    H226146   3.428   1.001   6.224
 8735TIP3   OH226147   0.856   1.155   2.369
 8735TIP3    H126148   0.821   1.066   2.375
 8735TIP3    H226149   0.945   1.147   2.404
 8736TIP3   OH226150   0.975   1.984   5.719
 8736TIP3    H126151   1.043   1.940   5.668
 8736TIP3    H226152   0.949   2.059   5.665
 8737TIP3   OH226153   0.070   4.509   4.748
 8737TIP3    H126154   0.065   4.605   4.747
 8737TIP3    H226155   0.162   4.490   4.730
 8738TIP3   OH226156   4.738   0.615   4.117
 8738TIP3    H126157   4.717   0.669   4.041
 8738TIP3    H226158   4.796   0.548   4.083
 8739TIP3   OH226159   1.307   1.768   6.000
 8739TIP3    H126160   1.227   1.786   6.051
 8739TIP3    H226161   1.345   1.854   5.985
 8740TIP3   OH226162   4.696   0.333   6.786
 8740TIP3    H126163   4.682   0.256   6.731
 8740TIP3    H226164   4.768   0.379   6.744
 8741TIP3   OH226165   0.268   6.463   6.029
 8741TIP3    H126166   0.226   6.383   5.997
 8741TIP3    H226167   0.353   6.434   6.061
 8742TIP3   OH226168   7.604   7.747   3.810
 8742TIP3    H126169   7.533   7.799   3.771
 8742TIP3    H226170   7.671   7.742   3.741
 8743TIP3   OH226171   5.315   6.615   4.662
 8743TIP3    H126172   5.264   6.623   4.581
 8743TIP3    H226173   5.263   6.660   4.728
 8744TIP3   OH226174   7.082   5.726   2.782
 8744TIP3    H126175   7.163   5.775   2.768
 8744TIP3    H226176   7.079   5.710   2.876
 8745TIP3   OH226177   7.663   1.625   5.065
 8745TIP3    H126178   7.697   1.648   5.151
 8745TIP3    H226179   7.683   1.701   5.010
 8746TIP3   OH226180   5.697   0.782   6.651
 8746TIP3    H126181   5.603   0.783   6.671
 8746TIP3    H226182   5.735   0.847   6.710
 8747TIP3   OH226183   4.565   0.233   6.119
 8747TIP3    H126184   4.585   0.165   6.054
 8747TIP3    H226185   4.617   0.209   6.196
 8748TIP3   OH226186   0.586   2.762   0.364
 8748TIP3    H126187   0.567   2.728   0.451
 8748TIP3    H226188   0.560   2.691   0.305
 8749TIP3   OH226189   0.855   5.196   0.747
 8749TIP3    H126190   0.891   5.168   0.663
 8749TIP3    H226191   0.874   5.124   0.807
 8750TIP3   OH226192   8.331   7.312   6.246
 8750TIP3    H126193   8.290   7.231   6.278
 8750TIP3    H226194   8.258   7.369   6.223
 8751TIP3   OH226195   2.959   0.224   3.674
 8751TIP3    H126196   2.974   0.211   3.768
 8751TIP3    H226197   2.864   0.233   3.666
 8752TIP3   OH226198   5.814   6.311   0.682
 8752TIP3    H126199   5.795   6.350   0.597
 8752TIP3    H226200   5.728   6.301   0.724
 8753TIP3   OH226201   3.194   1.303   1.887
 8753TIP3    H126202   3.110   1.348   1.892
 8753TIP3    H226203   3.181   1.233   1.823
 8754TIP3   OH226204   1.246   7.500   2.921
 8754TIP3    H126205   1.204   7.571   2.970
 8754TIP3    H226206   1.340   7.516   2.931
 8755TIP3   OH226207   5.619   1.909   1.176
 8755TIP3    H126208   5.524   1.901   1.171
 8755TIP3    H226209   5.637   1.922   1.269
 8756TIP3   OH226210   4.083   0.131   4.288
 8756TIP3    H126211   4.124   0.132   4.374
 8756TIP3    H226212   4.013   0.197   4.294
 8757TIP3   OH226213   3.098   3.108   3.495
 8757TIP3    H126214   3.132   3.177   3.552
 8757TIP3    H226215   3.155   3.111   3.418
 8758TIP3   OH226216   0.903   2.519   5.986
 8758TIP3    H126217   0.892   2.465   6.064
 8758TIP3    H226218   0.974   2.478   5.938
 8759TIP3   OH226219   6.987   2.514   1.703
 8759TIP3    H126220   6.904   2.470   1.717
 8759TIP3    H226221   7.038   2.452   1.650
 8760TIP3   OH226222   0.593   6.647   4.415
 8760TIP3    H126223   0.564   6.735   4.392
 8760TIP3    H226224   0.533   6.618   4.484
 8761TIP3   OH226225   1.876   2.415   5.385
 8761TIP3    H126226   1.958   2.412   5.335
 8761TIP3    H226227   1.904   2.434   5.475
 8762TIP3   OH226228   6.059   7.657   5.142
 8762TIP3    H126229   6.098   7.619   5.064
 8762TIP3    H226230   5.978   7.698   5.111
 8763TIP3   OH226231   2.302   7.582   5.134
 8763TIP3    H126232   2.394   7.587   5.106
 8763TIP3    H226233   2.306   7.582   5.230
 8764TIP3   OH226234   6.905   5.686   0.586
 8764TIP3    H126235   6.957   5.608   0.605
 8764TIP3    H226236   6.909   5.694   0.490
 8765TIP3   OH226237   5.768   0.682   5.737
 8765TIP3    H126238   5.744   0.722   5.821
 8765TIP3    H226239   5.791   0.755   5.681
 8766TIP3   OH226240   5.191   6.622   5.548
 8766TIP3    H126241   5.144   6.544   5.518
 8766TIP3    H226242   5.210   6.606   5.640
 8767TIP3   OH226243   6.949  -0.012   1.558
 8767TIP3    H126244   7.011   0.053   1.525
 8767TIP3    H226245   6.929   0.017   1.647
 8768TIP3   OH226246   1.299   6.513   4.703
 8768TIP3    H126247   1.362   6.454   4.745
 8768TIP3    H226248   1.324   6.513   4.610
 8769TIP3   OH226249   1.259   0.994   4.366
 8769TIP3    H126250   1.250   0.993   4.271
 8769TIP3    H226251   1.183   1.043   4.397
 8770TIP3   OH226252   0.051   5.866   3.070
 8770TIP3    H126253   0.124   5.818   3.031
 8770TIP3    H226254   0.053   5.951   3.027
 8771TIP3   OH226255   2.562   3.051   2.546
 8771TIP3    H126256   2.486   3.063   2.602
 8771TIP3    H226257   2.613   3.132   2.557
 8772TIP3   OH226258   0.795   1.346   5.865
 8772TIP3    H126259   0.813   1.390   5.948
 8772TIP3    H226260   0.871   1.288   5.852
 8773TIP3   OH226261   0.985   1.652   3.859
 8773TIP3    H126262   1.011   1.744   3.856
 8773TIP3    H226263   0.967   1.635   3.951
 8774TIP3   OH226264   4.609   6.247   4.720
 8774TIP3    H126265   4.537   6.309   4.733
 8774TIP3    H226266   4.644   6.232   4.808
 8775TIP3   OH226267   7.805   3.225   5.672
 8775TIP3    H126268   7.849   3.185   5.597
 8775TIP3    H226269   7.857   3.303   5.691
 8776TIP3   OH226270   0.091   0.537   2.967
 8776TIP3    H126271   0.003   0.513   2.937
 8776TIP3    H226272   0.080   0.623   3.008
 8777TIP3   OH226273   0.263   6.108   3.919
 8777TIP3    H126274   0.342   6.094   3.972
 8777TIP3    H226275   0.191   6.077   3.974
 8778TIP3   OH226276   7.828   3.412   5.263
 8778TIP3    H126277   7.786   3.355   5.327
 8778TIP3    H226278   7.780   3.495   5.271
 8779TIP3   OH226279   2.538   4.784   1.900
 8779TIP3    H126280   2.454   4.812   1.863
 8779TIP3    H226281   2.603   4.842   1.859
 8780TIP3   OH226282   6.136   4.464   2.866
 8780TIP3    H126283   6.058   4.516   2.844
 8780TIP3    H226284   6.121   4.436   2.956
 8781TIP3   OH226285   4.055   5.834   2.754
 8781TIP3    H126286   4.125   5.814   2.691
 8781TIP3    H226287   4.043   5.929   2.747
 8782TIP3   OH226288   8.087   1.927   1.486
 8782TIP3    H126289   8.148   2.002   1.482
 8782TIP3    H226290   8.093   1.897   1.576
 8783TIP3   OH226291   3.671   4.129   6.227
 8783TIP3    H126292   3.657   4.179   6.307
 8783TIP3    H226293   3.753   4.081   6.243
 8784TIP3   OH226294   7.994   6.397   1.112
 8784TIP3    H126295   8.061   6.353   1.164
 8784TIP3    H226296   7.961   6.467   1.169
 8785TIP3   OH226297   4.728   4.834   4.291
 8785TIP3    H126298   4.795   4.798   4.349
 8785TIP3    H226299   4.700   4.915   4.333
 8786TIP3   OH226300   2.008   0.708   0.453
 8786TIP3    H126301   1.964   0.623   0.458
 8786TIP3    H226302   1.950   0.767   0.501
 8787TIP3   OH226303   5.616   3.327   4.428
 8787TIP3    H126304   5.540   3.364   4.472
 8787TIP3    H226305   5.629   3.383   4.351
 8788TIP3   OH226306   8.025   1.402   4.340
 8788TIP3    H126307   8.044   1.345   4.266
 8788TIP3    H226308   8.078   1.367   4.412
 8789TIP3   OH226309   2.088   2.017  -0.003
 8789TIP3    H126310   2.144   2.094   0.004
 8789TIP3    H226311   2.113   1.963   0.072
 8790TIP3   OH226312   3.974   2.829   4.090
 8790TIP3    H126313   3.942   2.808   4.178
 8790TIP3    H226314   3.895   2.831   4.036
 8791TIP3   OH226315   1.361   2.418   0.650
 8791TIP3    H126316   1.282   2.449   0.695
 8791TIP3    H226317   1.397   2.352   0.709
 8792TIP3   OH226318   6.406   2.310   1.287
 8792TIP3    H126319   6.425   2.254   1.362
 8792TIP3    H226320   6.472   2.379   1.292
 8793TIP3   OH226321   0.707   3.472   0.125
 8793TIP3    H126322   0.615   3.473   0.101
 8793TIP3    H226323   0.713   3.407   0.196
 8794TIP3   OH226324   2.276   1.142   1.545
 8794TIP3    H126325   2.261   1.152   1.451
 8794TIP3    H226326   2.313   1.054   1.555
 8795TIP3   OH226327   4.886   5.210   4.553
 8795TIP3    H126328   4.912   5.263   4.628
 8795TIP3    H226329   4.921   5.257   4.477
 8796TIP3   OH226330   5.055   4.828   0.405
 8796TIP3    H126331   5.114   4.850   0.333
 8796TIP3    H226332   5.006   4.909   0.421
 8797TIP3   OH226333   4.008   6.161   3.397
 8797TIP3    H126334   4.102   6.143   3.398
 8797TIP3    H226335   3.967   6.075   3.398
 8798TIP3   OH226336   1.293   2.350   3.345
 8798TIP3    H126337   1.223   2.373   3.285
 8798TIP3    H226338   1.250   2.301   3.415
 8799TIP3   OH226339   4.965   5.589   5.877
 8799TIP3    H126340   4.914   5.515   5.910
 8799TIP3    H226341   4.997   5.560   5.792
 8800TIP3   OH226342   1.153   2.168   0.489
 8800TIP3    H126343   1.152   2.235   0.422
 8800TIP3    H226344   1.087   2.196   0.552
 8801TIP3   OH226345   6.544   2.707   2.402
 8801TIP3    H126346   6.588   2.635   2.357
 8801TIP3    H226347   6.451   2.682   2.401
 8802TIP3   OH226348   8.123   1.994   4.724
 8802TIP3    H126349   8.164   2.063   4.673
 8802TIP3    H226350   8.169   1.914   4.698
 8803TIP3   OH226351   3.022   2.054   2.607
 8803TIP3    H126352   3.100   2.021   2.653
 8803TIP3    H226353   2.998   1.983   2.547
 8804TIP3   OH226354   3.847   7.411   6.591
 8804TIP3    H126355   3.819   7.347   6.525
 8804TIP3    H226356   3.943   7.412   6.584
 8805TIP3   OH226357   4.500   1.849   4.340
 8805TIP3    H126358   4.484   1.825   4.431
 8805TIP3    H226359   4.431   1.804   4.291
 8806TIP3   OH226360   7.559   0.168   0.972
 8806TIP3    H126361   7.585   0.220   0.896
 8806TIP3    H226362   7.467   0.191   0.987
 8807TIP3   OH226363   6.682   0.158   2.337
 8807TIP3    H126364   6.593   0.179   2.365
 8807TIP3    H226365   6.738   0.215   2.390
 8808TIP3   OH226366   6.583   1.344   0.085
 8808TIP3    H126367   6.580   1.292   0.005
 8808TIP3    H226368   6.665   1.393   0.078
 8809TIP3   OH226369   1.364   0.743   3.738
 8809TIP3    H126370   1.301   0.792   3.791
 8809TIP3    H226371   1.329   0.746   3.649
 8810TIP3   OH226372   6.250   6.504   4.561
 8810TIP3    H126373   6.341   6.503   4.530
 8810TIP3    H226374   6.209   6.576   4.513
 8811TIP3   OH226375   2.900   6.618   1.627
 8811TIP3    H126376   2.814   6.618   1.670
 8811TIP3    H226377   2.919   6.710   1.612
 8812TIP3   OH226378   7.924   4.175   6.290
 8812TIP3    H126379   7.993   4.241   6.296
 8812TIP3    H226380   7.930   4.143   6.199
 8813TIP3   OH226381   2.534   2.800   1.607
 8813TIP3    H126382   2.473   2.866   1.637
 8813TIP3    H226383   2.492   2.716   1.629
 8814TIP3   OH226384   1.989   3.617   4.133
 8814TIP3    H126385   2.058   3.577   4.187
 8814TIP3    H226386   1.926   3.651   4.197
 8815TIP3   OH226387   3.957   3.921   2.939
 8815TIP3    H126388   4.019   3.863   2.894
 8815TIP3    H226389   3.994   4.008   2.928
 8816TIP3   OH226390   3.809   7.718   5.781
 8816TIP3    H126391   3.754   7.720   5.859
 8816TIP3    H226392   3.817   7.625   5.760
 8817TIP3   OH226393   3.138   7.280   3.586
 8817TIP3    H126394   3.231   7.259   3.583
 8817TIP3    H226395   3.130   7.362   3.537
 8818TIP3   OH226396   3.291   1.327   6.275
 8818TIP3    H126397   3.291   1.410   6.227
 8818TIP3    H226398   3.356   1.341   6.345
 8819TIP3   OH226399   4.656   2.372   6.109
 8819TIP3    H126400   4.658   2.399   6.017
 8819TIP3    H226401   4.647   2.455   6.157
 8820TIP3   OH226402   1.484   7.628   3.520
 8820TIP3    H126403   1.496   7.543   3.562
 8820TIP3    H226404   1.390   7.632   3.502
 8821TIP3   OH226405   5.288   3.370   0.290
 8821TIP3    H126406   5.336   3.415   0.221
 8821TIP3    H226407   5.309   3.277   0.277
 8822TIP3   OH226408   2.262   2.402   4.734
 8822TIP3    H126409   2.193   2.464   4.757
 8822TIP3    H226410   2.257   2.335   4.803
 8823TIP3   OH226411   7.627   7.668   2.492
 8823TIP3    H126412   7.587   7.587   2.458
 8823TIP3    H226413   7.608   7.734   2.425
 8824TIP3   OH226414   2.238   3.099   5.516
 8824TIP3    H126415   2.313   3.156   5.501
 8824TIP3    H226416   2.184   3.109   5.438
 8825TIP3   OH226417   7.874   0.204   1.409
 8825TIP3    H126418   7.840   0.293   1.399
 8825TIP3    H226419   7.923   0.206   1.492
 8826TIP3   OH226420   5.371   1.956   5.315
 8826TIP3    H126421   5.294   1.908   5.346
 8826TIP3    H226422   5.413   1.988   5.395
 8827TIP3   OH226423   4.919   0.445   6.653
 8827TIP3    H126424   4.904   0.527   6.699
 8827TIP3    H226425   5.014   0.439   6.644
 8828TIP3   OH226426   2.669   5.161   6.623
 8828TIP3    H126427   2.688   5.255   6.623
 8828TIP3    H226428   2.735   5.124   6.564
 8829TIP3   OH226429   5.292   4.859   1.318
 8829TIP3    H126430   5.318   4.934   1.264
 8829TIP3    H226431   5.369   4.803   1.320
 8830TIP3   OH226432   1.078   6.688   3.923
 8830TIP3    H126433   1.065   6.597   3.950
 8830TIP3    H226434   1.166   6.689   3.885
 8831TIP3   OH226435  -0.048   1.789   3.687
 8831TIP3    H126436  -0.002   1.720   3.735
 8831TIP3    H226437  -0.103   1.831   3.753
 8832TIP3   OH226438   5.757   7.798   6.083
 8832TIP3    H126439   5.832   7.854   6.067
 8832TIP3    H226440   5.719   7.783   5.996
 8833TIP3   OH226441   7.483   4.033   4.969
 8833TIP3    H126442   7.417   4.102   4.971
 8833TIP3    H226443   7.565   4.078   4.949
 8834TIP3   OH226444   7.675   1.883   2.893
 8834TIP3    H126445   7.636   1.965   2.863
 8834TIP3    H226446   7.710   1.903   2.980
 8835TIP3   OH226447   0.336   1.851   2.357
 8835TIP3    H126448   0.312   1.766   2.320
 8835TIP3    H226449   0.363   1.830   2.447
 8836TIP3   OH226450   5.812   7.296   5.729
 8836TIP3    H126451   5.831   7.387   5.707
 8836TIP3    H226452   5.768   7.301   5.814
 8837TIP3   OH226453   2.399   0.634   0.700
 8837TIP3    H126454   2.338   0.609   0.631
 8837TIP3    H226455   2.367   0.719   0.731
 8838TIP3   OH226456   4.246   4.667   4.261
 8838TIP3    H126457   4.342   4.662   4.271
 8838TIP3    H226458   4.212   4.632   4.344
 8839TIP3   OH226459   3.254   4.190   4.201
 8839TIP3    H126460   3.308   4.129   4.150
 8839TIP3    H226461   3.300   4.199   4.285
 8840TIP3   OH226462   4.176   3.039  -0.026
 8840TIP3    H126463   4.152   3.050   0.067
 8840TIP3    H226464   4.230   3.116  -0.045
 8841TIP3   OH226465   6.308   3.076   6.349
 8841TIP3    H126466   6.239   3.033   6.297
 8841TIP3    H226467   6.385   3.076   6.292
 8842TIP3   OH226468   1.480   4.025   0.977
 8842TIP3    H126469   1.504   3.985   0.894
 8842TIP3    H226470   1.443   4.110   0.953
 8843TIP3   OH226471   7.148   2.104   5.054
 8843TIP3    H126472   7.167   2.013   5.078
 8843TIP3    H226473   7.142   2.103   4.959
 8844TIP3   OH226474   7.789   1.848   1.553
 8844TIP3    H126475   7.814   1.756   1.546
 8844TIP3    H226476   7.860   1.895   1.507
 8845TIP3   OH226477   4.631   2.707   4.058
 8845TIP3    H126478   4.556   2.766   4.065
 8845TIP3    H226479   4.598   2.622   4.084
 8846TIP3   OH226480   5.513   3.973   4.231
 8846TIP3    H126481   5.519   3.995   4.324
 8846TIP3    H226482   5.578   4.030   4.189
 8847TIP3   OH226483   2.843   7.539   0.923
 8847TIP3    H126484   2.858   7.534   1.018
 8847TIP3    H226485   2.750   7.518   0.913
 8848TIP3   OH226486   5.196   2.747   5.311
 8848TIP3    H126487   5.202   2.711   5.223
 8848TIP3    H226488   5.241   2.831   5.307
 8849TIP3   OH226489   0.738   1.430   3.558
 8849TIP3    H126490   0.790   1.372   3.502
 8849TIP3    H226491   0.771   1.518   3.540
 8850TIP3   OH226492   5.296   6.926   6.235
 8850TIP3    H126493   5.250   7.008   6.218
 8850TIP3    H226494   5.377   6.933   6.184
 8851TIP3   OH226495   5.290   1.692   3.118
 8851TIP3    H126496   5.334   1.755   3.175
 8851TIP3    H226497   5.345   1.688   3.039
 8852TIP3   OH226498   5.940   3.301   4.816
 8852TIP3    H126499   5.867   3.245   4.841
 8852TIP3    H226500   5.938   3.373   4.879
 8853TIP3   OH226501   5.917   0.920   5.849
 8853TIP3    H126502   5.872   1.004   5.854
 8853TIP3    H226503   6.005   0.941   5.818
 8854TIP3   OH226504   5.040   3.025   5.245
 8854TIP3    H126505   5.127   2.985   5.242
 8854TIP3    H226506   5.005   3.012   5.156
 8855TIP3   OH226507   8.160   4.360   6.277
 8855TIP3    H126508   8.173   4.400   6.363
 8855TIP3    H226509   8.221   4.286   6.276
 8856TIP3   OH226510   3.508   4.744   4.159
 8856TIP3    H126511   3.478   4.756   4.249
 8856TIP3    H226512   3.541   4.654   4.157
 8857TIP3   OH226513   7.638   7.039   5.474
 8857TIP3    H126514   7.624   6.951   5.439
 8857TIP3    H226515   7.550   7.071   5.493
 8858TIP3   OH226516   5.500   1.100   0.828
 8858TIP3    H126517   5.476   1.034   0.764
 8858TIP3    H226518   5.492   1.184   0.782
 8859TIP3   OH226519   2.853   4.580   5.169
 8859TIP3    H126520   2.762   4.610   5.160
 8859TIP3    H226521   2.904   4.661   5.180
 8860TIP3   OH226522   5.027   6.333   4.246
 8860TIP3    H126523   5.087   6.264   4.219
 8860TIP3    H226524   5.053   6.409   4.194
 8861TIP3   OH226525   3.934   2.798   1.806
 8861TIP3    H126526   3.975   2.839   1.730
 8861TIP3    H226527   3.947   2.861   1.878
 8862TIP3   OH226528   3.625   7.049   4.673
 8862TIP3    H126529   3.651   7.102   4.748
 8862TIP3    H226530   3.620   6.960   4.707
 8863TIP3   OH226531   5.871   5.218   1.133
 8863TIP3    H126532   5.890   5.148   1.071
 8863TIP3    H226533   5.832   5.174   1.208
 8864TIP3   OH226534   4.973   3.654   1.576
 8864TIP3    H126535   4.887   3.613   1.588
 8864TIP3    H226536   4.992   3.694   1.660
 8865TIP3   OH226537   7.596   4.686   5.551
 8865TIP3    H126538   7.543   4.696   5.630
 8865TIP3    H226539   7.623   4.594   5.551
 8866TIP3   OH226540   1.789   5.760   3.613
 8866TIP3    H126541   1.876   5.779   3.648
 8866TIP3    H226542   1.775   5.668   3.634
 8867TIP3   OH226543   2.098   2.453   4.048
 8867TIP3    H126544   2.003   2.463   4.040
 8867TIP3    H226545   2.110   2.370   4.093
 8868TIP3   OH226546   0.698   6.008   1.262
 8868TIP3    H126547   0.740   6.058   1.332
 8868TIP3    H226548   0.749   5.927   1.257
 8869TIP3   OH226549   1.273   3.728   5.311
 8869TIP3    H126550   1.250   3.809   5.265
 8869TIP3    H226551   1.192   3.677   5.312
 8870TIP3   OH226552   1.955   0.196   5.831
 8870TIP3    H126553   1.975   0.283   5.866
 8870TIP3    H226554   1.913   0.213   5.747
 8871TIP3   OH226555   5.724   2.825   4.432
 8871TIP3    H126556   5.782   2.770   4.378
 8871TIP3    H226557   5.694   2.894   4.372
 8872TIP3   OH226558   4.120   0.698   5.802
 8872TIP3    H126559   4.057   0.692   5.730
 8872TIP3    H226560   4.204   0.709   5.759
 8873TIP3   OH226561   2.954   5.147   0.667
 8873TIP3    H126562   2.927   5.239   0.663
 8873TIP3    H226563   2.983   5.134   0.757
 8874TIP3   OH226564   0.748   4.917   6.439
 8874TIP3    H126565   0.802   4.837   6.437
 8874TIP3    H226566   0.699   4.915   6.357
 8875TIP3   OH226567   4.557   4.087   2.587
 8875TIP3    H126568   4.581   4.073   2.678
 8875TIP3    H226569   4.634   4.127   2.547
 8876TIP3   OH226570   2.271   5.714   0.709
 8876TIP3    H126571   2.249   5.689   0.619
 8876TIP3    H226572   2.326   5.791   0.699
 8877TIP3   OH226573   1.126   5.235   3.792
 8877TIP3    H126574   1.156   5.176   3.862
 8877TIP3    H226575   1.031   5.236   3.801
 8878TIP3   OH226576   5.543   1.739   1.409
 8878TIP3    H126577   5.493   1.744   1.490
 8878TIP3    H226578   5.496   1.795   1.348
 8879TIP3   OH226579   5.281   7.399   4.791
 8879TIP3    H126580   5.331   7.352   4.857
 8879TIP3    H226581   5.343   7.464   4.756
 8880TIP3   OH226582   2.167   0.972   2.511
 8880TIP3    H126583   2.255   0.938   2.493
 8880TIP3    H226584   2.181   1.046   2.570
 8881TIP3   OH226585   7.835   0.217   1.813
 8881TIP3    H126586   7.751   0.214   1.857
 8881TIP3    H226587   7.886   0.282   1.861
 8882TIP3   OH226588   0.040   6.855   3.168
 8882TIP3    H126589   0.080   6.814   3.244
 8882TIP3    H226590   0.079   6.809   3.093
 8883TIP3   OH226591   0.090   3.780   0.908
 8883TIP3    H126592   0.066   3.732   0.987
 8883TIP3    H226593   0.064   3.723   0.836
 8884TIP3   OH226594   3.665   1.307   5.131
 8884TIP3    H126595   3.700   1.393   5.110
 8884TIP3    H226596   3.575   1.324   5.160
 8885TIP3   OH226597   6.899   3.512   0.697
 8885TIP3    H126598   6.961   3.544   0.762
 8885TIP3    H226599   6.813   3.533   0.733
 8886TIP3   OH226600   4.127   6.667   2.159
 8886TIP3    H126601   4.164   6.638   2.243
 8886TIP3    H226602   4.193   6.728   2.125
 8887TIP3   OH226603   4.244   1.759   3.599
 8887TIP3    H126604   4.191   1.688   3.636
 8887TIP3    H226605   4.334   1.726   3.600
 8888TIP3   OH226606   3.526   4.452   4.937
 8888TIP3    H126607   3.530   4.357   4.932
 8888TIP3    H226608   3.543   4.482   4.847
 8889TIP3   OH226609   4.600   4.904   6.554
 8889TIP3    H126610   4.692   4.881   6.540
 8889TIP3    H226611   4.574   4.947   6.473
 8890TIP3   OH226612   7.103   1.449   5.325
 8890TIP3    H126613   7.091   1.380   5.260
 8890TIP3    H226614   7.100   1.531   5.274
 8891TIP3   OH226615   2.054   0.678   1.920
 8891TIP3    H126616   2.123   0.745   1.915
 8891TIP3    H226617   2.052   0.652   2.012
 8892TIP3   OH226618   5.564   4.786   3.580
 8892TIP3    H126619   5.579   4.851   3.512
 8892TIP3    H226620   5.469   4.777   3.584
 8893TIP3   OH226621   4.731   6.915   1.457
 8893TIP3    H126622   4.773   6.937   1.374
 8893TIP3    H226623   4.788   6.953   1.524
 8894TIP3   OH226624   6.973   0.396   4.154
 8894TIP3    H126625   6.879   0.407   4.147
 8894TIP3    H226626   6.985   0.328   4.221
 8895TIP3   OH226627   3.572   4.505   0.026
 8895TIP3    H126628   3.550   4.449   0.101
 8895TIP3    H226629   3.620   4.579   0.065
 8896TIP3   OH226630   7.026   2.877   1.889
 8896TIP3    H126631   6.946   2.830   1.866
 8896TIP3    H226632   6.999   2.935   1.960
 8897TIP3   OH226633   6.951   1.531   6.533
 8897TIP3    H126634   7.000   1.504   6.611
 8897TIP3    H226635   6.985   1.618   6.512
 8898TIP3   OH226636   7.285   6.961   4.322
 8898TIP3    H126637   7.345   7.034   4.306
 8898TIP3    H226638   7.342   6.884   4.329
 8899TIP3   OH226639   6.200   3.553   0.027
 8899TIP3    H126640   6.200   3.509  -0.058
 8899TIP3    H226641   6.255   3.497   0.083
 8900TIP3   OH226642   1.961   2.596   5.598
 8900TIP3    H126643   1.932   2.647   5.673
 8900TIP3    H226644   2.007   2.659   5.543
 8901TIP3   OH226645   1.620   5.771   2.964
 8901TIP3    H126646   1.617   5.701   3.028
 8901TIP3    H226647   1.693   5.826   2.992
 8902TIP3   OH226648   1.167   1.589   3.023
 8902TIP3    H126649   1.220   1.668   3.015
 8902TIP3    H226650   1.218   1.521   2.978
 8903TIP3   OH226651   2.886   1.220   4.450
 8903TIP3    H126652   2.812   1.233   4.511
 8903TIP3    H226653   2.957   1.188   4.506
 8904TIP3   OH226654   3.282   6.821   2.380
 8904TIP3    H126655   3.272   6.888   2.313
 8904TIP3    H226656   3.292   6.870   2.462
 8905TIP3   OH226657   7.697   7.194   1.599
 8905TIP3    H126658   7.659   7.281   1.610
 8905TIP3    H226659   7.653   7.157   1.523
 8906TIP3   OH226660   5.992   0.054   1.809
 8906TIP3    H126661   6.020  -0.033   1.837
 8906TIP3    H226662   5.991   0.049   1.713
 8907TIP3   OH226663   2.509   2.558   4.075
 8907TIP3    H126664   2.601   2.543   4.053
 8907TIP3    H226665   2.481   2.476   4.117
 8908TIP3   OH226666   7.164   7.611   1.989
 8908TIP3    H126667   7.205   7.590   2.073
 8908TIP3    H226668   7.207   7.692   1.962
 8909TIP3   OH226669   7.761   3.502   0.140
 8909TIP3    H126670   7.806   3.498   0.224
 8909TIP3    H226671   7.793   3.582   0.099
 8910TIP3   OH226672   3.302   5.080   6.585
 8910TIP3    H126673   3.376   5.021   6.571
 8910TIP3    H226674   3.317   5.152   6.524
 8911TIP3   OH226675   1.313   4.095   5.134
 8911TIP3    H126676   1.232   4.068   5.091
 8911TIP3    H226677   1.286   4.162   5.197
 8912TIP3   OH226678   4.771   7.114   1.731
 8912TIP3    H126679   4.760   7.029   1.774
 8912TIP3    H226680   4.847   7.153   1.773
 8913TIP3   OH226681   7.214   1.163   5.457
 8913TIP3    H126682   7.230   1.092   5.395
 8913TIP3    H226683   7.301   1.198   5.477
 8914TIP3   OH226684   8.228   5.451   6.209
 8914TIP3    H126685   8.276   5.534   6.209
 8914TIP3    H226686   8.198   5.442   6.300
 8915TIP3   OH226687   4.275   6.189   3.489
 8915TIP3    H126688   4.277   6.132   3.566
 8915TIP3    H226689   4.361   6.175   3.448
 8916TIP3   OH226690   6.588   7.606   5.690
 8916TIP3    H126691   6.536   7.564   5.622
 8916TIP3    H226692   6.679   7.588   5.665
 8917TIP3   OH226693   0.521   7.541   6.223
 8917TIP3    H126694   0.579   7.471   6.256
 8917TIP3    H226695   0.440   7.529   6.272
 8918TIP3   OH226696   7.601   0.656   4.169
 8918TIP3    H126697   7.581   0.749   4.182
 8918TIP3    H226698   7.634   0.626   4.253
 8919TIP3   OH226699   6.575   7.037   0.650
 8919TIP3    H126700   6.575   7.132   0.664
 8919TIP3    H226701   6.667   7.013   0.645
 8920TIP3   OH226702   8.220   2.807   4.231
 8920TIP3    H126703   8.197   2.716   4.252
 8920TIP3    H226704   8.185   2.820   4.142
 8921TIP3   OH226705   7.043   3.743   2.238
 8921TIP3    H126706   7.061   3.783   2.152
 8921TIP3    H226707   7.061   3.813   2.301
 8922TIP3   OH226708   5.233   7.008   3.899
 8922TIP3    H126709   5.314   6.957   3.908
 8922TIP3    H226710   5.167   6.943   3.874
 8923TIP3   OH226711   0.963   0.265   3.253
 8923TIP3    H126712   0.961   0.190   3.313
 8923TIP3    H226713   0.881   0.259   3.205
 8924TIP3   OH226714   2.980   5.413   4.845
 8924TIP3    H126715   2.889   5.416   4.876
 8924TIP3    H226716   3.016   5.498   4.871
 8925TIP3   OH226717   1.698   1.643   3.294
 8925TIP3    H126718   1.700   1.698   3.216
 8925TIP3    H226719   1.752   1.568   3.272
 8926TIP3   OH226720   7.093   6.232   1.068
 8926TIP3    H126721   7.039   6.155   1.048
 8926TIP3    H226722   7.031   6.300   1.091
 8927TIP3   OH226723   4.515   7.145   0.723
 8927TIP3    H126724   4.564   7.206   0.776
 8927TIP3    H226725   4.493   7.073   0.782
 8928TIP3   OH226726   4.726   2.298   1.761
 8928TIP3    H126727   4.759   2.312   1.850
 8928TIP3    H226728   4.665   2.226   1.769
 8929TIP3   OH226729   3.628   0.926   1.651
 8929TIP3    H126730   3.711   0.899   1.612
 8929TIP3    H226731   3.561   0.883   1.598
 8930TIP3   OH226732   5.254   0.284   1.746
 8930TIP3    H126733   5.293   0.295   1.833
 8930TIP3    H226734   5.269   0.192   1.725
 8931TIP3   OH226735   5.789   2.557   5.638
 8931TIP3    H126736   5.851   2.492   5.606
 8931TIP3    H226737   5.789   2.626   5.571
 8932TIP3   OH226738   4.279   0.388   3.637
 8932TIP3    H126739   4.221   0.360   3.566
 8932TIP3    H226740   4.337   0.314   3.652
 8933TIP3   OH226741   7.441   5.932   0.462
 8933TIP3    H126742   7.370   5.949   0.524
 8933TIP3    H226743   7.483   5.853   0.496
 8934TIP3   OH226744   1.523   4.031   0.701
 8934TIP3    H126745   1.612   4.005   0.678
 8934TIP3    H226746   1.529   4.125   0.718
 8935TIP3   OH226747   7.816   5.766   5.160
 8935TIP3    H126748   7.824   5.767   5.256
 8935TIP3    H226749   7.905   5.755   5.129
 8936TIP3   OH226750   7.087   4.704  -0.046
 8936TIP3    H126751   7.100   4.726   0.046
 8936TIP3    H226752   7.126   4.617  -0.056
 8937TIP3   OH226753   8.021   4.929   6.223
 8937TIP3    H126754   8.045   4.857   6.164
 8937TIP3    H226755   8.103   4.976   6.237
 8938TIP3   OH226756   1.150   1.697   4.500
 8938TIP3    H126757   1.237   1.705   4.461
 8938TIP3    H226758   1.166   1.694   4.594
 8939TIP3   OH226759   7.864   2.803   1.389
 8939TIP3    H126760   7.865   2.785   1.483
 8939TIP3    H226761   7.779   2.771   1.359
 8940TIP3   OH226762   6.172   2.925   2.769
 8940TIP3    H126763   6.216   2.894   2.690
 8940TIP3    H226764   6.232   2.905   2.840
 8941TIP3   OH226765   5.919   5.101   0.657
 8941TIP3    H126766   5.859   5.144   0.597
 8941TIP3    H226767   6.003   5.102   0.612
 8942TIP3   OH226768   0.720   6.603   3.738
 8942TIP3    H126769   0.731   6.626   3.646
 8942TIP3    H226770   0.689   6.684   3.779
 8943TIP3   OH226771   4.687   0.427   2.774
 8943TIP3    H126772   4.692   0.345   2.822
 8943TIP3    H226773   4.606   0.421   2.724
 8944TIP3   OH226774   0.769   4.175   2.452
 8944TIP3    H126775   0.860   4.189   2.425
 8944TIP3    H226776   0.728   4.132   2.378
 8945TIP3   OH226777   6.019   2.925   0.522
 8945TIP3    H126778   5.961   2.850   0.511
 8945TIP3    H226779   6.038   2.955   0.433
 8946TIP3   OH226780   0.072   3.981   0.425
 8946TIP3    H126781   0.061   3.896   0.382
 8946TIP3    H226782   0.161   3.979   0.460
 8947TIP3   OH226783   4.966   3.124   2.383
 8947TIP3    H126784   4.995   3.157   2.298
 8947TIP3    H226785   4.907   3.051   2.362
 8948TIP3   OH226786   1.759   1.587   6.429
 8948TIP3    H126787   1.833   1.648   6.432
 8948TIP3    H226788   1.691   1.629   6.482
 8949TIP3   OH226789   4.366   1.224   2.831
 8949TIP3    H126790   4.457   1.221   2.861
 8949TIP3    H226791   4.340   1.315   2.841
 8950TIP3   OH226792   0.955   0.829   4.522
 8950TIP3    H126793   0.930   0.893   4.590
 8950TIP3    H226794   1.005   0.763   4.570
 8951TIP3   OH226795   7.225   1.305   2.998
 8951TIP3    H126796   7.317   1.300   2.972
 8951TIP3    H226797   7.224   1.275   3.088
 8952TIP3   OH226798   7.379   5.997   5.974
 8952TIP3    H126799   7.404   5.950   6.054
 8952TIP3    H226800   7.337   6.077   6.006
 8953TIP3   OH226801   8.063   3.826   4.154
 8953TIP3    H126802   8.155   3.846   4.171
 8953TIP3    H226803   8.015   3.889   4.206
 8954TIP3   OH226804   4.225   0.224   0.488
 8954TIP3    H126805   4.320   0.209   0.487
 8954TIP3    H226806   4.213   0.303   0.435
 8955TIP3   OH226807   3.429   3.903   3.801
 8955TIP3    H126808   3.360   3.840   3.777
 8955TIP3    H226809   3.424   3.970   3.733
 8956TIP3   OH226810   4.380   5.939   5.770
 8956TIP3    H126811   4.330   5.989   5.705
 8956TIP3    H226812   4.422   6.006   5.824
 8957TIP3   OH226813   1.058   5.208   5.924
 8957TIP3    H126814   0.992   5.161   5.975
 8957TIP3    H226815   1.081   5.283   5.980
 8958TIP3   OH226816   7.443   2.235   5.631
 8958TIP3    H126817   7.456   2.148   5.669
 8958TIP3    H226818   7.441   2.220   5.537
 8959TIP3   OH226819   5.705   4.143   1.331
 8959TIP3    H126820   5.731   4.084   1.261
 8959TIP3    H226821   5.641   4.094   1.382
 8960TIP3   OH226822   4.413   2.747   6.185
 8960TIP3    H126823   4.397   2.842   6.184
 8960TIP3    H226824   4.335   2.709   6.146
 8961TIP3   OH226825   4.430   6.315   2.554
 8961TIP3    H126826   4.356   6.306   2.613
 8961TIP3    H226827   4.465   6.402   2.573
 8962TIP3   OH226828   5.877   5.466   6.382
 8962TIP3    H126829   5.828   5.426   6.454
 8962TIP3    H226830   5.964   5.425   6.386
 8963TIP3   OH226831   8.075   1.473   2.788
 8963TIP3    H126832   7.985   1.446   2.806
 8963TIP3    H226833   8.067   1.559   2.747
 8964TIP3   OH226834   4.653   0.543   5.156
 8964TIP3    H126835   4.684   0.631   5.135
 8964TIP3    H226836   4.727   0.486   5.132
 8965TIP3   OH226837   1.535   0.546   3.031
 8965TIP3    H126838   1.561   0.492   2.957
 8965TIP3    H226839   1.515   0.631   2.994
 8966TIP3   OH226840   1.571   4.705   3.858
 8966TIP3    H126841   1.527   4.784   3.886
 8966TIP3    H226842   1.551   4.698   3.765
 8967TIP3   OH226843   7.728   2.006   0.226
 8967TIP3    H126844   7.751   2.036   0.314
 8967TIP3    H226845   7.782   1.928   0.213
 8968TIP3   OH226846   2.846   0.254   5.843
 8968TIP3    H126847   2.874   0.278   5.755
 8968TIP3    H226848   2.906   0.301   5.901
 8969TIP3   OH226849   0.408   5.115   3.246
 8969TIP3    H126850   0.388   5.071   3.329
 8969TIP3    H226851   0.484   5.169   3.266
 8970TIP3   OH226852   6.081   5.529   2.765
 8970TIP3    H126853   6.166   5.503   2.729
 8970TIP3    H226854   6.040   5.580   2.696
 8971TIP3   OH226855   2.829   4.731   1.538
 8971TIP3    H126856   2.807   4.693   1.624
 8971TIP3    H226857   2.812   4.661   1.476
 8972TIP3   OH226858   2.896   1.141   3.596
 8972TIP3    H126859   2.958   1.124   3.668
 8972TIP3    H226860   2.951   1.176   3.526
 8973TIP3   OH226861   0.344   4.062   5.253
 8973TIP3    H126862   0.412   4.036   5.316
 8973TIP3    H226863   0.366   4.016   5.173
 8974TIP3   OH226864   6.131   4.515   0.720
 8974TIP3    H126865   6.062   4.581   0.721
 8974TIP3    H226866   6.088   4.436   0.754
 8975TIP3   OH226867   4.705   3.460   3.361
 8975TIP3    H126868   4.697   3.434   3.453
 8975TIP3    H226869   4.660   3.544   3.355
 8976TIP3   OH226870   5.252   6.713   6.704
 8976TIP3    H126871   5.295   6.755   6.630
 8976TIP3    H226872   5.277   6.621   6.697
 8977TIP3   OH226873   1.914   3.813   4.864
 8977TIP3    H126874   1.920   3.738   4.805
 8977TIP3    H226875   1.827   3.849   4.848
 8978TIP3   OH226876   3.317   0.780   5.661
 8978TIP3    H126877   3.410   0.784   5.638
 8978TIP3    H226878   3.316   0.783   5.757
 8979TIP3   OH226879   4.712   6.718   4.495
 8979TIP3    H126880   4.717   6.629   4.529
 8979TIP3    H226881   4.619   6.733   4.478
 8980TIP3   OH226882   3.404   6.871   5.948
 8980TIP3    H126883   3.448   6.926   5.883
 8980TIP3    H226884   3.374   6.795   5.899
 8981TIP3   OH226885   5.636   4.620   0.999
 8981TIP3    H126886   5.651   4.618   0.904
 8981TIP3    H226887   5.639   4.529   1.026
 8982TIP3   OH226888   4.544   2.475   4.710
 8982TIP3    H126889   4.597   2.521   4.645
 8982TIP3    H226890   4.559   2.382   4.692
 8983TIP3   OH226891   0.602   0.430   4.499
 8983TIP3    H126892   0.619   0.520   4.527
 8983TIP3    H226893   0.683   0.384   4.520
 8984TIP3   OH226894   1.463   4.065   2.193
 8984TIP3    H126895   1.450   4.070   2.288
 8984TIP3    H226896   1.395   4.120   2.156
 8985TIP3   OH226897   0.513   6.074   4.040
 8985TIP3    H126898   0.587   6.058   3.982
 8985TIP3    H226899   0.514   6.001   4.102
 8986TIP3   OH226900   0.027   6.718   0.758
 8986TIP3    H126901   0.076   6.678   0.830
 8986TIP3    H226902   0.077   6.798   0.738
 8987TIP3   OH226903   2.718   5.220   4.491
 8987TIP3    H126904   2.680   5.204   4.577
 8987TIP3    H226905   2.644   5.242   4.435
 8988TIP3   OH226906   6.548   3.678   5.495
 8988TIP3    H126907   6.562   3.751   5.556
 8988TIP3    H226908   6.567   3.600   5.546
 8989TIP3   OH226909   2.603   4.103   6.488
 8989TIP3    H126910   2.594   4.197   6.472
 8989TIP3    H226911   2.680   4.076   6.437
 8990TIP3   OH226912   7.952   7.391   1.936
 8990TIP3    H126913   7.892   7.335   1.887
 8990TIP3    H226914   7.993   7.333   2.000
 8991TIP3   OH226915   7.243   0.590   1.726
 8991TIP3    H126916   7.205   0.650   1.790
 8991TIP3    H226917   7.204   0.615   1.643
 8992TIP3   OH226918   1.940   0.218   0.072
 8992TIP3    H126919   1.902   0.205  -0.015
 8992TIP3    H226920   1.896   0.296   0.106
 8993TIP3   OH226921   4.212   1.907   4.898
 8993TIP3    H126922   4.152   1.942   4.963
 8993TIP3    H226923   4.237   1.821   4.932
 8994TIP3   OH226924   8.314   6.633  -0.010
 8994TIP3    H126925   8.228   6.638   0.032
 8994TIP3    H226926   8.311   6.698  -0.080
 8995TIP3   OH226927   5.636   7.676   4.435
 8995TIP3    H126928   5.570   7.743   4.452
 8995TIP3    H226929   5.719   7.717   4.459
 8996TIP3   OH226930  -0.007   6.345   1.123
 8996TIP3    H126931   0.069   6.290   1.101
 8996TIP3    H226932   0.027   6.434   1.121
 8997TIP3   OH226933   0.622   1.525   6.803
 8997TIP3    H126934   0.628   1.434   6.775
 8997TIP3    H226935   0.631   1.576   6.723
 8998TIP3   OH226936   0.254   2.704   4.080
 8998TIP3    H126937   0.204   2.766   4.028
 8998TIP3    H226938   0.329   2.754   4.112
 8999TIP3   OH226939   0.939   2.890   5.217
 8999TIP3    H126940   0.957   2.983   5.230
 8999TIP3    H226941   0.919   2.882   5.124
 9000TIP3   OH226942   4.003   4.194   3.932
 9000TIP3    H126943   3.919   4.174   3.975
 9000TIP3    H226944   4.004   4.138   3.854
 9001TIP3   OH226945   5.395   1.527   4.226
 9001TIP3    H126946   5.362   1.548   4.139
 9001TIP3    H226947   5.377   1.606   4.278
 9002TIP3   OH226948   3.679   0.022   1.693
 9002TIP3    H126949   3.656   0.110   1.666
 9002TIP3    H226950   3.595  -0.024   1.701
 9003TIP3   OH226951   0.567   4.824   5.937
 9003TIP3    H126952   0.633   4.892   5.946
 9003TIP3    H226953   0.484   4.871   5.946
 9004TIP3   OH226954   2.901   0.826   2.178
 9004TIP3    H126955   2.907   0.837   2.273
 9004TIP3    H226956   2.946   0.902   2.142
 9005TIP3   OH226957   0.177   0.495   0.921
 9005TIP3    H126958   0.172   0.445   0.840
 9005TIP3    H226959   0.178   0.587   0.893
 9006TIP3   OH226960   5.116   7.774   4.123
 9006TIP3    H126961   5.064   7.843   4.082
 9006TIP3    H226962   5.053   7.705   4.142
 9007TIP3   OH226963   4.395   5.728   0.475
 9007TIP3    H126964   4.453   5.742   0.400
 9007TIP3    H226965   4.323   5.790   0.461
 9008TIP3   OH226966   7.780   3.418   4.842
 9008TIP3    H126967   7.696   3.462   4.853
 9008TIP3    H226968   7.841   3.468   4.896
 9009TIP3   OH226969   3.922   4.182   2.829
 9009TIP3    H126970   3.895   4.133   2.752
 9009TIP3    H226971   3.962   4.262   2.795
 9010TIP3   OH226972   6.705   0.880   2.265
 9010TIP3    H126973   6.676   0.911   2.351
 9010TIP3    H226974   6.800   0.879   2.271
 9011TIP3   OH226975   5.982   5.570   5.180
 9011TIP3    H126976   5.950   5.540   5.095
 9011TIP3    H226977   5.903   5.600   5.226
 9012TIP3   OH226978   4.714   5.489   4.665
 9012TIP3    H126979   4.795   5.467   4.712
 9012TIP3    H226980   4.725   5.448   4.579
 9013TIP3   OH226981   1.390   0.323   2.326
 9013TIP3    H126982   1.342   0.304   2.407
 9013TIP3    H226983   1.461   0.259   2.325
 9014TIP3   OH226984   6.636   0.136   4.475
 9014TIP3    H126985   6.581   0.084   4.532
 9014TIP3    H226986   6.577   0.203   4.440
 9015TIP3   OH226987   0.417   6.060   0.291
 9015TIP3    H126988   0.354   6.033   0.359
 9015TIP3    H226989   0.410   6.155   0.288
 9016TIP3   OH226990   3.470   4.116   1.803
 9016TIP3    H126991   3.468   4.045   1.739
 9016TIP3    H226992   3.563   4.132   1.819
 9017TIP3   OH226993   5.550   4.852   3.039
 9017TIP3    H126994   5.508   4.936   3.056
 9017TIP3    H226995   5.514   4.793   3.105
 9018TIP3   OH226996   6.867   6.471   0.461
 9018TIP3    H126997   6.934   6.403   0.450
 9018TIP3    H226998   6.789   6.423   0.488
 9019TIP3   OH226999   3.163   2.996   0.401
 9019TIP3    H127000   3.137   3.014   0.491
 9019TIP3    H227001   3.164   2.901   0.394
 9020TIP3   OH227002   4.384   2.235   0.218
 9020TIP3    H127003   4.420   2.267   0.135
 9020TIP3    H227004   4.340   2.153   0.195
 9021TIP3   OH227005   7.998   5.208   3.524
 9021TIP3    H127006   8.022   5.195   3.616
 9021TIP3    H227007   7.950   5.291   3.523
 9022TIP3   OH227008   4.431   3.215   6.851
 9022TIP3    H127009   4.381   3.208   6.770
 9022TIP3    H227010   4.411   3.303   6.883
 9023TIP3   OH227011   6.468   0.457   0.212
 9023TIP3    H127012   6.492   0.516   0.141
 9023TIP3    H227013   6.534   0.473   0.280
 9024TIP3   OH227014   4.327   1.708   4.193
 9024TIP3    H127015   4.328   1.616   4.166
 9024TIP3    H227016   4.349   1.756   4.114
 9025TIP3   OH227017   5.172   5.972   0.658
 9025TIP3    H127018   5.167   5.947   0.566
 9025TIP3    H227019   5.224   5.903   0.699
 9026TIP3   OH227020   7.916   2.028   3.367
 9026TIP3    H127021   7.913   1.950   3.421
 9026TIP3    H227022   7.907   2.101   3.428
 9027TIP3   OH227023   1.379   0.618   0.236
 9027TIP3    H127024   1.334   0.618   0.151
 9027TIP3    H227025   1.375   0.527   0.265
 9028TIP3   OH227026   6.447   3.410   5.348
 9028TIP3    H127027   6.385   3.442   5.282
 9028TIP3    H227028   6.415   3.446   5.430
 9029TIP3   OH227029   1.994   4.078   1.213
 9029TIP3    H127030   2.065   4.034   1.165
 9029TIP3    H227031   1.921   4.077   1.151
 9030TIP3   OH227032   7.869   5.054   4.269
 9030TIP3    H127033   7.792   5.083   4.317
 9030TIP3    H227034   7.868   4.958   4.279
 9031TIP3   OH227035   1.629  -0.042   1.274
 9031TIP3    H127036   1.673   0.005   1.346
 9031TIP3    H227037   1.623   0.023   1.204
 9032TIP3   OH227038   4.597   4.771   5.928
 9032TIP3    H127039   4.640   4.720   5.859
 9032TIP3    H227040   4.631   4.860   5.917
 9033TIP3   OH227041   4.374   1.978   0.082
 9033TIP3    H127042   4.466   1.997   0.063
 9033TIP3    H227043   4.360   1.890   0.046
 9034TIP3   OH227044   6.022   0.512   4.217
 9034TIP3    H127045   6.034   0.514   4.122
 9034TIP3    H227046   5.952   0.574   4.233
 9035TIP3   OH227047   1.173   0.758   5.103
 9035TIP3    H127048   1.253   0.765   5.051
 9035TIP3    H227049   1.137   0.847   5.104
 9036TIP3   OH227050   3.784   1.076   5.263
 9036TIP3    H127051   3.736   1.131   5.200
 9036TIP3    H227052   3.801   0.995   5.215
 9037TIP3   OH227053   0.867   0.508   6.505
 9037TIP3    H127054   0.866   0.423   6.549
 9037TIP3    H227055   0.818   0.566   6.564
 9038TIP3   OH227056   3.059   1.315   6.447
 9038TIP3    H127057   3.048   1.371   6.524
 9038TIP3    H227058   3.154   1.309   6.434
 9039TIP3   OH227059   3.811   2.220   3.242
 9039TIP3    H127060   3.847   2.299   3.203
 9039TIP3    H227061   3.742   2.251   3.301
 9040TIP3   OH227062   4.016   5.917   5.736
 9040TIP3    H127063   3.955   5.965   5.792
 9040TIP3    H227064   4.072   5.985   5.698
 9041TIP3   OH227065   3.110   0.630   3.895
 9041TIP3    H127066   3.150   0.662   3.976
 9041TIP3    H227067   3.138   0.694   3.828
 9042TIP3   OH227068   5.084   1.860   2.941
 9042TIP3    H127069   5.120   1.782   2.900
 9042TIP3    H227070   5.000   1.874   2.898
 9043TIP3   OH227071   5.215   4.422   3.198
 9043TIP3    H127072   5.201   4.492   3.262
 9043TIP3    H227073   5.136   4.368   3.204
 9044TIP3   OH227074   7.087   0.813   5.952
 9044TIP3    H127075   7.096   0.738   5.893
 9044TIP3    H227076   7.041   0.879   5.900
 9045TIP3   OH227077   7.959   6.539   3.580
 9045TIP3    H127078   8.006   6.455   3.573
 9045TIP3    H227079   7.961   6.560   3.673
 9046TIP3   OH227080   4.178   7.832   6.432
 9046TIP3    H127081   4.120   7.796   6.365
 9046TIP3    H227082   4.266   7.812   6.400
 9047TIP3   OH227083   1.222   3.143   1.963
 9047TIP3    H127084   1.187   3.073   2.017
 9047TIP3    H227085   1.152   3.208   1.960
 9048TIP3   OH227086   7.842   5.648   0.818
 9048TIP3    H127087   7.927   5.638   0.774
 9048TIP3    H227088   7.798   5.564   0.803
 9049TIP3   OH227089   4.361   0.305   0.741
 9049TIP3    H127090   4.319   0.328   0.658
 9049TIP3    H227091   4.348   0.210   0.749
 9050TIP3   OH227092   0.275   4.342   6.338
 9050TIP3    H127093   0.357   4.387   6.318
 9050TIP3    H227094   0.275   4.265   6.281
 9051TIP3   OH227095   1.016   5.904   4.541
 9051TIP3    H127096   1.043   5.948   4.622
 9051TIP3    H227097   1.052   5.959   4.471
 9052TIP3   OH227098   5.162   6.793   6.433
 9052TIP3    H127099   5.076   6.834   6.430
 9052TIP3    H227100   5.213   6.839   6.366
 9053TIP3   OH227101   4.073   5.626   0.254
 9053TIP3    H127102   4.137   5.579   0.307
 9053TIP3    H227103   4.110   5.713   0.244
 9054TIP3   OH227104   4.743   6.250   5.744
 9054TIP3    H127105   4.660   6.286   5.775
 9054TIP3    H227106   4.736   6.252   5.649
 9055TIP3   OH227107   6.888   1.256   2.051
 9055TIP3    H127108   6.824   1.294   1.992
 9055TIP3    H227109   6.839   1.235   2.130
 9056TIP3   OH227110   5.811   3.717   4.722
 9056TIP3    H127111   5.789   3.633   4.682
 9056TIP3    H227112   5.727   3.756   4.745
 9057TIP3   OH227113   3.977   2.404   0.981
 9057TIP3    H127114   3.904   2.357   1.021
 9057TIP3    H227115   4.036   2.334   0.950
 9058TIP3   OH227116   0.198   0.832   5.419
 9058TIP3    H127117   0.217   0.866   5.332
 9058TIP3    H227118   0.205   0.908   5.477
 9059TIP3   OH227119   3.986   5.836   6.100
 9059TIP3    H127120   4.038   5.878   6.032
 9059TIP3    H227121   4.037   5.847   6.180
 9060TIP3   OH227122   5.280   4.284   4.518
 9060TIP3    H127123   5.268   4.244   4.432
 9060TIP3    H227124   5.208   4.347   4.525
 9061TIP3   OH227125   0.368   1.136   5.986
 9061TIP3    H127126   0.449   1.085   5.986
 9061TIP3    H227127   0.387   1.210   5.928
 9062TIP3   OH227128   4.783   3.887   1.649
 9062TIP3    H127129   4.842   3.839   1.707
 9062TIP3    H227130   4.718   3.823   1.621
 9063TIP3   OH227131   4.739   1.379   3.842
 9063TIP3    H127132   4.684   1.310   3.879
 9063TIP3    H227133   4.780   1.338   3.766
 9064TIP3   OH227134   5.158   2.409   3.885
 9064TIP3    H127135   5.155   2.368   3.971
 9064TIP3    H227136   5.233   2.368   3.842
 9065TIP3   OH227137   2.297   7.122   2.866
 9065TIP3    H127138   2.333   7.145   2.951
 9065TIP3    H227139   2.362   7.155   2.803
 9066TIP3   OH227140   0.980   7.409   5.144
 9066TIP3    H127141   0.977   7.379   5.054
 9066TIP3    H227142   1.053   7.361   5.183
 9067TIP3   OH227143   3.468   5.990   3.396
 9067TIP3    H127144   3.428   5.917   3.443
 9067TIP3    H227145   3.394   6.039   3.361
 9068TIP3   OH227146   3.491   6.554   4.904
 9068TIP3    H127147   3.516   6.552   4.996
 9068TIP3    H227148   3.453   6.468   4.887
 9069TIP3   OH227149   6.417   4.219   5.419
 9069TIP3    H127150   6.376   4.305   5.410
 9069TIP3    H227151   6.426   4.206   5.514
 9070TIP3   OH227152   1.300   6.317   2.496
 9070TIP3    H127153   1.217   6.365   2.502
 9070TIP3    H227154   1.279   6.230   2.530
 9071TIP3   OH227155   4.827   2.421   4.153
 9071TIP3    H127156   4.765   2.424   4.226
 9071TIP3    H227157   4.774   2.441   4.076
 9072TIP3   OH227158   2.823   5.155   2.955
 9072TIP3    H127159   2.785   5.094   3.019
 9072TIP3    H227160   2.861   5.225   3.008
 9073TIP3   OH227161   6.401   1.712   1.613
 9073TIP3    H127162   6.338   1.647   1.642
 9073TIP3    H227163   6.476   1.661   1.582
 9074TIP3   OH227164   1.332   4.259   0.936
 9074TIP3    H127165   1.238   4.271   0.929
 9074TIP3    H227166   1.370   4.341   0.905
 9075TIP3   OH227167   5.897   6.871   3.802
 9075TIP3    H127168   5.886   6.933   3.730
 9075TIP3    H227169   5.852   6.913   3.876
 9076TIP3   OH227170   2.522   1.870   0.332
 9076TIP3    H127171   2.483   1.934   0.391
 9076TIP3    H227172   2.613   1.864   0.361
 9077TIP3   OH227173   6.455   0.254   4.805
 9077TIP3    H127174   6.539   0.225   4.772
 9077TIP3    H227175   6.404   0.276   4.727
 9078TIP3   OH227176   0.529   4.973   3.902
 9078TIP3    H127177   0.477   5.016   3.834
 9078TIP3    H227178   0.619   4.980   3.871
 9079TIP3   OH227179   1.604   1.384   3.463
 9079TIP3    H127180   1.610   1.300   3.417
 9079TIP3    H227181   1.576   1.361   3.552
 9080TIP3   OH227182   5.155   4.131   6.691
 9080TIP3    H127183   5.143   4.091   6.605
 9080TIP3    H227184   5.238   4.178   6.685
 9081TIP3   OH227185   6.556   7.508   4.633
 9081TIP3    H127186   6.570   7.450   4.558
 9081TIP3    H227187   6.634   7.562   4.637
 9082TIP3   OH227188   1.314   6.445   3.981
 9082TIP3    H127189   1.387   6.502   3.957
 9082TIP3    H227190   1.353   6.378   4.036
 9083TIP3   OH227191   0.096   7.260   2.389
 9083TIP3    H127192   0.105   7.313   2.468
 9083TIP3    H227193   0.006   7.228   2.392
 9084TIP3   OH227194   6.726   2.813   6.327
 9084TIP3    H127195   6.695   2.807   6.417
 9084TIP3    H227196   6.647   2.804   6.274
 9085TIP3   OH227197   3.381   1.260   3.706
 9085TIP3    H127198   3.449   1.196   3.686
 9085TIP3    H227199   3.373   1.258   3.801
 9086TIP3   OH227200   1.198   4.298   1.774
 9086TIP3    H127201   1.111   4.266   1.749
 9086TIP3    H227202   1.250   4.292   1.694
 9087TIP3   OH227203   0.529   6.752   4.730
 9087TIP3    H127204   0.618   6.730   4.700
 9087TIP3    H227205   0.481   6.670   4.725
 9088TIP3   OH227206   7.688   0.921   3.091
 9088TIP3    H127207   7.720   0.832   3.110
 9088TIP3    H227208   7.739   0.978   3.149
 9089TIP3   OH227209   0.985   1.642   0.485
 9089TIP3    H127210   0.966   1.732   0.456
 9089TIP3    H227211   0.960   1.642   0.577
 9090TIP3   OH227212   8.238   0.316   5.611
 9090TIP3    H127213   8.230   0.361   5.695
 9090TIP3    H227214   8.253   0.386   5.548
 9091TIP3   OH227215   1.211   7.149   1.806
 9091TIP3    H127216   1.223   7.214   1.876
 9091TIP3    H227217   1.279   7.171   1.742
 9092TIP3   OH227218   3.449   3.124   0.485
 9092TIP3    H127219   3.498   3.149   0.563
 9092TIP3    H227220   3.360   3.110   0.516
 9093TIP3   OH227221   8.232   3.538   5.642
 9093TIP3    H127222   8.280   3.609   5.600
 9093TIP3    H227223   8.170   3.508   5.576
 9094TIP3   OH227224   0.384   0.580   5.722
 9094TIP3    H127225   0.386   0.651   5.786
 9094TIP3    H227226   0.302   0.533   5.740
 9095TIP3   OH227227   5.001   7.355   2.325
 9095TIP3    H127228   5.079   7.352   2.270
 9095TIP3    H227229   4.965   7.443   2.311
 9096TIP3   OH227230   3.289   2.521   6.761
 9096TIP3    H127231   3.307   2.440   6.713
 9096TIP3    H227232   3.349   2.586   6.722
 9097TIP3   OH227233   6.399   0.940   1.603
 9097TIP3    H127234   6.458   0.934   1.677
 9097TIP3    H227235   6.349   1.020   1.619
 9098TIP3   OH227236   1.498   2.518   3.284
 9098TIP3    H127237   1.438   2.448   3.312
 9098TIP3    H227238   1.476   2.592   3.341
 9099TIP3   OH227239   5.782   4.327   2.440
 9099TIP3    H127240   5.841   4.384   2.490
 9099TIP3    H227241   5.829   4.244   2.434
 9100TIP3   OH227242   4.916   6.050   2.363
 9100TIP3    H127243   4.897   5.965   2.402
 9100TIP3    H227244   4.886   6.114   2.428
 9101TIP3   OH227245   1.395   1.958   1.192
 9101TIP3    H127246   1.309   1.971   1.150
 9101TIP3    H227247   1.374   1.909   1.272
 9102TIP3   OH227248   2.453   0.395   0.285
 9102TIP3    H127249   2.433   0.488   0.298
 9102TIP3    H227250   2.380   0.362   0.232
 9103TIP3   OH227251   5.117   1.762   6.351
 9103TIP3    H127252   5.120   1.684   6.295
 9103TIP3    H227253   5.103   1.835   6.290
 9104TIP3   OH227254   7.034   5.184   3.710
 9104TIP3    H127255   6.989   5.267   3.720
 9104TIP3    H227256   7.104   5.202   3.647
 9105TIP3   OH227257   5.893   6.529   6.228
 9105TIP3    H127258   5.830   6.593   6.260
 9105TIP3    H227259   5.886   6.534   6.133
 9106TIP3   OH227260   0.286   3.720   5.146
 9106TIP3    H127261   0.375   3.721   5.183
 9106TIP3    H227262   0.272   3.810   5.115
 9107TIP3   OH227263   2.660   3.531   0.193
 9107TIP3    H127264   2.641   3.624   0.179
 9107TIP3    H227265   2.755   3.527   0.204
 9108TIP3   OH227266   7.480   5.112   4.098
 9108TIP3    H127267   7.400   5.073   4.133
 9108TIP3    H227268   7.536   5.037   4.079
 9109TIP3   OH227269   6.721   6.773   2.683
 9109TIP3    H127270   6.630   6.766   2.713
 9109TIP3    H227271   6.772   6.732   2.753
 9110TIP3   OH227272   8.171   6.279   2.111
 9110TIP3    H127273   8.136   6.368   2.124
 9110TIP3    H227274   8.093   6.224   2.104
 9111TIP3   OH227275   0.043   5.774   5.916
 9111TIP3    H127276   0.028   5.692   5.869
 9111TIP3    H227277   0.048   5.840   5.848
 9112TIP3   OH227278   1.819   2.650   5.045
 9112TIP3    H127279   1.855   2.738   5.040
 9112TIP3    H227280   1.725   2.662   5.036
 9113TIP3   OH227281   4.817   0.758   0.968
 9113TIP3    H127282   4.733   0.781   0.927
 9113TIP3    H227283   4.797   0.682   1.022
 9114TIP3   OH227284   3.719   6.629   0.741
 9114TIP3    H127285   3.784   6.667   0.682
 9114TIP3    H227286   3.642   6.616   0.687
 9115TIP3   OH227287   5.993   0.907   4.207
 9115TIP3    H127288   5.961   0.988   4.246
 9115TIP3    H227289   5.921   0.844   4.217
 9116TIP3   OH227290   0.919   0.063   3.476
 9116TIP3    H127291   0.926  -0.003   3.545
 9116TIP3    H227292   0.827   0.063   3.451
 9117TIP3   OH227293   6.301   1.680   2.154
 9117TIP3    H127294   6.215   1.658   2.190
 9117TIP3    H227295   6.332   1.599   2.113
 9118TIP3   OH227296   1.239   4.646   1.270
 9118TIP3    H127297   1.241   4.551   1.285
 9118TIP3    H227298   1.147   4.669   1.281
 9119TIP3   OH227299   4.179   5.648   1.342
 9119TIP3    H127300   4.219   5.727   1.378
 9119TIP3    H227301   4.111   5.624   1.404
 9120TIP3   OH227302   4.842   2.315   2.044
 9120TIP3    H127303   4.850   2.224   2.072
 9120TIP3    H227304   4.932   2.347   2.042
 9121TIP3   OH227305   6.330   4.121   6.308
 9121TIP3    H127306   6.423   4.106   6.289
 9121TIP3    H227307   6.314   4.211   6.279
 9122TIP3   OH227308   4.925   3.873   4.814
 9122TIP3    H127309   4.898   3.869   4.906
 9122TIP3    H227310   5.020   3.858   4.817
 9123TIP3   OH227311   7.516   3.304   0.660
 9123TIP3    H127312   7.494   3.238   0.726
 9123TIP3    H227313   7.590   3.351   0.698
 9124TIP3   OH227314   2.177   1.266   5.002
 9124TIP3    H127315   2.153   1.347   5.047
 9124TIP3    H227316   2.104   1.207   5.019
 9125TIP3   OH227317   0.300   4.321   4.651
 9125TIP3    H127318   0.246   4.332   4.573
 9125TIP3    H227319   0.390   4.330   4.619
 9126TIP3   OH227320   5.773   5.637   4.706
 9126TIP3    H127321   5.816   5.619   4.622
 9126TIP3    H227322   5.742   5.727   4.699
 9127TIP3   OH227323   4.517   3.923   4.487
 9127TIP3    H127324   4.581   3.958   4.548
 9127TIP3    H227325   4.525   3.978   4.409
 9128TIP3   OH227326   1.547   1.315   0.336
 9128TIP3    H127327   1.620   1.294   0.395
 9128TIP3    H227328   1.573   1.280   0.251
 9129TIP3   OH227329   8.064   3.298   3.549
 9129TIP3    H127330   8.046   3.237   3.478
 9129TIP3    H227331   7.983   3.301   3.600
 9130TIP3   OH227332   5.164   3.914   2.581
 9130TIP3    H127333   5.250   3.955   2.568
 9130TIP3    H227334   5.164   3.839   2.521
 9131TIP3   OH227335   5.971   7.057   6.512
 9131TIP3    H127336   6.038   7.061   6.579
 9131TIP3    H227337   5.943   7.148   6.499
 9132TIP3   OH227338   2.618   1.261   5.938
 9132TIP3    H127339   2.610   1.285   5.845
 9132TIP3    H227340   2.591   1.170   5.941
 9133TIP3   OH227341   3.342   1.406   6.544
 9133TIP3    H127342   3.292   1.486   6.557
 9133TIP3    H227343   3.433   1.432   6.558
 9134TIP3   OH227344   7.801   6.368   5.514
 9134TIP3    H127345   7.750   6.432   5.464
 9134TIP3    H227346   7.885   6.411   5.531
 9135TIP3   OH227347   3.763   6.833   5.493
 9135TIP3    H127348   3.670   6.838   5.514
 9135TIP3    H227349   3.766   6.807   5.401
 9136TIP3   OH227350   0.687   5.305   4.013
 9136TIP3    H127351   0.679   5.388   4.059
 9136TIP3    H227352   0.625   5.246   4.057
 9137TIP3   OH227353   5.542   5.427   0.266
 9137TIP3    H127354   5.556   5.453   0.176
 9137TIP3    H227355   5.538   5.331   0.263
 9138TIP3   OH227356   2.813   2.195   4.917
 9138TIP3    H127357   2.741   2.145   4.879
 9138TIP3    H227358   2.796   2.194   5.011
 9139TIP3   OH227359   2.946   5.951   5.412
 9139TIP3    H127360   3.018   6.006   5.381
 9139TIP3    H227361   2.954   5.870   5.361
 9140TIP3   OH227362   1.199   5.492   3.617
 9140TIP3    H127363   1.213   5.417   3.675
 9140TIP3    H227364   1.146   5.457   3.545
 9141TIP3   OH227365   0.859   5.453   1.112
 9141TIP3    H127366   0.858   5.363   1.146
 9141TIP3    H227367   0.874   5.442   1.018
 9142TIP3   OH227368   7.980   5.969   6.454
 9142TIP3    H127369   7.996   6.042   6.395
 9142TIP3    H227370   7.934   5.904   6.400
 9143TIP3   OH227371   2.016   4.033   2.902
 9143TIP3    H127372   2.034   4.089   2.826
 9143TIP3    H227373   1.995   4.094   2.972
 9144TIP3   OH227374   3.172   1.035   2.772
 9144TIP3    H127375   3.250   1.063   2.724
 9144TIP3    H227376   3.158   1.104   2.837
 9145TIP3   OH227377   2.983   4.845   0.775
 9145TIP3    H127378   2.922   4.772   0.762
 9145TIP3    H227379   3.070   4.804   0.773
 9146TIP3   OH227380   2.686   4.007   4.379
 9146TIP3    H127381   2.602   3.963   4.376
 9146TIP3    H227382   2.668   4.097   4.350
 9147TIP3   OH227383   3.518   1.104   5.017
 9147TIP3    H127384   3.592   1.161   5.040
 9147TIP3    H227385   3.512   1.042   5.089
 9148TIP3   OH227386   6.485   2.401   5.241
 9148TIP3    H127387   6.490   2.493   5.267
 9148TIP3    H227388   6.571   2.365   5.263
 9149TIP3   OH227389   4.592   1.976   3.846
 9149TIP3    H127390   4.529   1.927   3.899
 9149TIP3    H227391   4.671   1.979   3.899
 9150TIP3   OH227392   7.768   5.409   5.107
 9150TIP3    H127393   7.683   5.381   5.142
 9150TIP3    H227394   7.824   5.331   5.115
 9151TIP3   OH227395   6.159   3.277   0.613
 9151TIP3    H127396   6.169   3.372   0.606
 9151TIP3    H227397   6.241   3.247   0.653
 9152TIP3   OH227398   6.949   4.625   6.459
 9152TIP3    H127399   6.950   4.536   6.496
 9152TIP3    H227400   6.972   4.681   6.533
 9153TIP3   OH227401   2.367   2.090   2.478
 9153TIP3    H127402   2.324   2.176   2.474
 9153TIP3    H227403   2.295   2.027   2.467
 9154TIP3   OH227404   3.780   3.574   3.093
 9154TIP3    H127405   3.770   3.652   3.148
 9154TIP3    H227406   3.741   3.504   3.145
 9155TIP3   OH227407   1.212   2.149   2.364
 9155TIP3    H127408   1.215   2.214   2.294
 9155TIP3    H227409   1.120   2.124   2.371
 9156TIP3   OH227410   6.081   6.828   2.804
 9156TIP3    H127411   6.134   6.835   2.883
 9156TIP3    H227412   6.139   6.786   2.740
 9157TIP3   OH227413   1.391   2.881   0.994
 9157TIP3    H127414   1.328   2.822   1.034
 9157TIP3    H227415   1.368   2.968   1.026
 9158TIP3   OH227416   5.808   0.915   6.423
 9158TIP3    H127417   5.790   0.998   6.469
 9158TIP3    H227418   5.779   0.847   6.484
 9159TIP3   OH227419   3.496   6.348   5.907
 9159TIP3    H127420   3.449   6.429   5.886
 9159TIP3    H227421   3.492   6.342   6.002
 9160TIP3   OH227422   1.093   3.034   3.658
 9160TIP3    H127423   1.027   3.098   3.686
 9160TIP3    H227424   1.170   3.055   3.711
 9161TIP3   OH227425   4.879   5.796   3.283
 9161TIP3    H127426   4.925   5.858   3.226
 9161TIP3    H227427   4.898   5.827   3.371
 9162TIP3   OH227428   7.840   5.666   4.401
 9162TIP3    H127429   7.860   5.576   4.429
 9162TIP3    H227430   7.777   5.654   4.330
 9163TIP3   OH227431   5.729   5.669   5.921
 9163TIP3    H127432   5.717   5.667   6.016
 9163TIP3    H227433   5.816   5.707   5.909
 9164TIP3   OH227434   7.648   0.454   2.474
 9164TIP3    H127435   7.638   0.540   2.434
 9164TIP3    H227436   7.569   0.443   2.528
 9165TIP3   OH227437   5.531   7.245   2.953
 9165TIP3    H127438   5.591   7.170   2.963
 9165TIP3    H227439   5.479   7.223   2.875
 9166TIP3   OH227440   7.663   4.116   0.161
 9166TIP3    H127441   7.681   4.176   0.233
 9166TIP3    H227442   7.589   4.155   0.115
 9167TIP3   OH227443   5.197   2.703   4.102
 9167TIP3    H127444   5.154   2.736   4.023
 9167TIP3    H227445   5.272   2.761   4.114
 9168TIP3   OH227446   5.384   1.720   0.791
 9168TIP3    H127447   5.420   1.798   0.748
 9168TIP3    H227448   5.448   1.701   0.860
 9169TIP3   OH227449   6.544   0.639   1.114
 9169TIP3    H127450   6.560   0.637   1.208
 9169TIP3    H227451   6.473   0.577   1.100
 9170TIP3   OH227452   3.537   0.550   5.972
 9170TIP3    H127453   3.595   0.607   5.923
 9170TIP3    H227454   3.529   0.471   5.919
 9171TIP3   OH227455   2.576   2.751   1.297
 9171TIP3    H127456   2.648   2.757   1.360
 9171TIP3    H227457   2.497   2.754   1.351
 9172TIP3   OH227458   6.791   0.996   6.083
 9172TIP3    H127459   6.778   0.906   6.112
 9172TIP3    H227460   6.760   0.996   5.992
 9173TIP3   OH227461   6.821   1.234   3.753
 9173TIP3    H127462   6.799   1.158   3.699
 9173TIP3    H227463   6.875   1.289   3.697
 9174TIP3   OH227464   6.827   3.376   3.266
 9174TIP3    H127465   6.789   3.426   3.194
 9174TIP3    H227466   6.755   3.326   3.303
 9175TIP3   OH227467   2.588   2.810   4.653
 9175TIP3    H127468   2.610   2.721   4.680
 9175TIP3    H227469   2.645   2.866   4.707
 9176TIP3   OH227470   2.441   2.379   0.743
 9176TIP3    H127471   2.450   2.361   0.650
 9176TIP3    H227472   2.361   2.431   0.750
 9177TIP3   OH227473   3.306   1.198   4.875
 9177TIP3    H127474   3.365   1.174   4.947
 9177TIP3    H227475   3.316   1.127   4.811
 9178TIP3   OH227476   7.073   4.091   6.471
 9178TIP3    H127477   7.010   4.020   6.481
 9178TIP3    H227478   7.154   4.058   6.511
 9179TIP3   OH227479   0.378   4.614   2.358
 9179TIP3    H127480   0.447   4.618   2.424
 9179TIP3    H227481   0.394   4.689   2.301
 9180TIP3   OH227482   1.237   0.776   1.231
 9180TIP3    H127483   1.223   0.848   1.169
 9180TIP3    H227484   1.180   0.796   1.305
 9181TIP3   OH227485   5.613   1.074   4.147
 9181TIP3    H127486   5.596   1.147   4.088
 9181TIP3    H227487   5.605   1.112   4.235
 9182TIP3   OH227488   5.799   1.987   3.153
 9182TIP3    H127489   5.893   1.972   3.159
 9182TIP3    H227490   5.760   1.910   3.192
 9183TIP3   OH227491   6.446   5.596   1.056
 9183TIP3    H127492   6.470   5.504   1.072
 9183TIP3    H227493   6.353   5.592   1.033
 9184TIP3   OH227494   1.976   0.822   4.400
 9184TIP3    H127495   1.949   0.798   4.312
 9184TIP3    H227496   1.982   0.739   4.447
 9185TIP3   OH227497   4.790   1.032   6.496
 9185TIP3    H127498   4.729   1.017   6.423
 9185TIP3    H227499   4.853   0.960   6.490
 9186TIP3   OH227500   4.029   0.316   3.094
 9186TIP3    H127501   4.028   0.360   3.179
 9186TIP3    H227502   4.036   0.387   3.030
 9187TIP3   OH227503   2.797   6.664   4.157
 9187TIP3    H127504   2.706   6.651   4.184
 9187TIP3    H227505   2.799   6.751   4.119
 9188TIP3   OH227506   3.797   4.226   0.453
 9188TIP3    H127507   3.883   4.241   0.414
 9188TIP3    H227508   3.803   4.265   0.540
 9189TIP3   OH227509   2.608   0.058   0.685
 9189TIP3    H127510   2.587   0.108   0.606
 9189TIP3    H227511   2.674  -0.006   0.656
 9190TIP3   OH227512   1.496   1.030   1.066
 9190TIP3    H127513   1.507   1.125   1.071
 9190TIP3    H227514   1.511   1.009   0.974
 9191TIP3   OH227515   4.401   7.237   1.009
 9191TIP3    H127516   4.324   7.291   0.990
 9191TIP3    H227517   4.366   7.161   1.055
 9192TIP3   OH227518   4.247   2.869   2.668
 9192TIP3    H127519   4.271   2.892   2.758
 9192TIP3    H227520   4.295   2.788   2.650
 9193TIP3   OH227521   3.718   3.128   3.095
 9193TIP3    H127522   3.671   3.066   3.150
 9193TIP3    H227523   3.649   3.182   3.057
 9194TIP3   OH227524   4.772   1.783   0.352
 9194TIP3    H127525   4.820   1.703   0.330
 9194TIP3    H227526   4.749   1.772   0.445
 9195TIP3   OH227527   1.901   0.960   6.445
 9195TIP3    H127528   1.960   0.884   6.447
 9195TIP3    H227529   1.843   0.946   6.520
 9196TIP3   OH227530   0.090   0.913   3.456
 9196TIP3    H127531   0.061   0.842   3.513
 9196TIP3    H227532   0.147   0.966   3.512
 9197TIP3   OH227533   2.765   5.890   0.816
 9197TIP3    H127534   2.759   5.983   0.837
 9197TIP3    H227535   2.808   5.851   0.892
 9198TIP3   OH227536   2.292   4.372   3.583
 9198TIP3    H127537   2.351   4.430   3.534
 9198TIP3    H227538   2.342   4.347   3.660
 9199TIP3   OH227539   1.682   6.917   3.480
 9199TIP3    H127540   1.721   6.969   3.550
 9199TIP3    H227541   1.657   6.835   3.522
 9200TIP3   OH227542   1.839   0.312   4.378
 9200TIP3    H127543   1.776   0.262   4.429
 9200TIP3    H227544   1.786   0.380   4.336
 9201TIP3   OH227545   3.012   5.480   1.508
 9201TIP3    H127546   2.992   5.404   1.562
 9201TIP3    H227547   3.098   5.461   1.470
 9202TIP3   OH227548   0.010   5.054   2.512
 9202TIP3    H127549  -0.012   5.131   2.564
 9202TIP3    H227550   0.035   4.988   2.577
 9203TIP3   OH227551   1.451   1.004   5.022
 9203TIP3    H127552   1.419   1.039   4.939
 9203TIP3    H227553   1.431   0.910   5.018
 9204TIP3   OH227554   0.849   6.968   0.536
 9204TIP3    H127555   0.898   7.039   0.494
 9204TIP3    H227556   0.797   6.930   0.465
 9205TIP3   OH227557   0.377   1.817   6.265
 9205TIP3    H127558   0.459   1.818   6.216
 9205TIP3    H227559   0.327   1.745   6.226
 9206TIP3   OH227560   3.460   2.722   6.179
 9206TIP3    H127561   3.404   2.705   6.254
 9206TIP3    H227562   3.408   2.695   6.103
 9207TIP3   OH227563   2.125   2.289   3.047
 9207TIP3    H127564   2.129   2.311   2.954
 9207TIP3    H227565   2.217   2.283   3.075
 9208TIP3   OH227566   2.287   4.272   3.070
 9208TIP3    H127567   2.234   4.291   3.148
 9208TIP3    H227568   2.289   4.176   3.065
 9209TIP3   OH227569   3.471   6.824   5.531
 9209TIP3    H127570   3.440   6.740   5.566
 9209TIP3    H227571   3.434   6.828   5.443
 9210TIP3   OH227572   6.708   2.832   2.604
 9210TIP3    H127573   6.669   2.802   2.521
 9210TIP3    H227574   6.787   2.879   2.577
 9211TIP3   OH227575   0.279   0.377   1.928
 9211TIP3    H127576   0.254   0.425   1.849
 9211TIP3    H227577   0.215   0.306   1.933
 9212TIP3   OH227578   4.051   1.438   2.779
 9212TIP3    H127579   3.977   1.459   2.723
 9212TIP3    H227580   4.016   1.439   2.868
 9213TIP3   OH227581   5.699   2.679   0.148
 9213TIP3    H127582   5.682   2.585   0.159
 9213TIP3    H227583   5.734   2.706   0.233
 9214TIP3   OH227584   4.560   7.357   5.172
 9214TIP3    H127585   4.566   7.415   5.097
 9214TIP3    H227586   4.497   7.399   5.231
 9215TIP3   OH227587   0.931   2.970   1.744
 9215TIP3    H127588   0.976   3.039   1.794
 9215TIP3    H227589   0.838   2.991   1.754
 9216TIP3   OH227590   5.782   6.282   2.606
 9216TIP3    H127591   5.689   6.259   2.613
 9216TIP3    H227592   5.819   6.263   2.692
 9217TIP3   OH227593   5.196   6.137   5.634
 9217TIP3    H127594   5.114   6.092   5.655
 9217TIP3    H227595   5.263   6.088   5.681
 9218TIP3   OH227596   6.890   3.019   2.556
 9218TIP3    H127597   6.964   2.991   2.501
 9218TIP3    H227598   6.822   3.045   2.493
 9219TIP3   OH227599   2.074   4.826   3.672
 9219TIP3    H127600   1.981   4.829   3.647
 9219TIP3    H227601   2.073   4.795   3.762
 9220TIP3   OH227602   6.720   7.102   5.645
 9220TIP3    H127603   6.780   7.075   5.714
 9220TIP3    H227604   6.766   7.171   5.598
 9221TIP3   OH227605   1.396   2.323   2.522
 9221TIP3    H127606   1.337   2.270   2.469
 9221TIP3    H227607   1.435   2.260   2.584
 9222TIP3   OH227608   2.550   5.244   0.446
 9222TIP3    H127609   2.460   5.274   0.455
 9222TIP3    H227610   2.556   5.168   0.504
 9223TIP3   OH227611   5.568   4.004   6.073
 9223TIP3    H127612   5.486   4.043   6.041
 9223TIP3    H227613   5.615   4.077   6.114
 9224TIP3   OH227614   6.813   2.984   1.556
 9224TIP3    H127615   6.806   3.070   1.516
 9224TIP3    H227616   6.904   2.959   1.544
 9225TIP3   OH227617   3.807   1.209   6.149
 9225TIP3    H127618   3.893   1.240   6.176
 9225TIP3    H227619   3.806   1.220   6.054
 9226TIP3   OH227620   4.512   4.967   0.313
 9226TIP3    H127621   4.592   4.924   0.282
 9226TIP3    H227622   4.531   4.988   0.405
 9227TIP3   OH227623   8.059   2.837   3.983
 9227TIP3    H127624   7.994   2.844   3.913
 9227TIP3    H227625   8.055   2.922   4.028
 9228TIP3   OH227626   4.730   6.413   4.196
 9228TIP3    H127627   4.723   6.398   4.102
 9228TIP3    H227628   4.666   6.353   4.235
 9229TIP3   OH227629   7.002   4.114   1.116
 9229TIP3    H127630   7.021   4.108   1.023
 9229TIP3    H227631   6.972   4.026   1.140
 9230TIP3   OH227632   3.686   6.158   0.324
 9230TIP3    H127633   3.615   6.199   0.373
 9230TIP3    H227634   3.721   6.092   0.382
 9231TIP3   OH227635   5.113   2.821   0.945
 9231TIP3    H127636   5.166   2.890   0.987
 9231TIP3    H227637   5.098   2.757   1.014
 9232TIP3   OH227638   1.954   7.042   4.876
 9232TIP3    H127639   1.969   7.101   4.949
 9232TIP3    H227640   2.007   6.965   4.896
 9233TIP3   OH227641   6.128   0.316   0.567
 9233TIP3    H127642   6.097   0.348   0.482
 9233TIP3    H227643   6.222   0.334   0.567
 9234TIP3   OH227644   4.583   0.083   1.702
 9234TIP3    H127645   4.653   0.033   1.744
 9234TIP3    H227646   4.614   0.098   1.613
 9235TIP3   OH227647   6.598   4.068   6.263
 9235TIP3    H127648   6.661   4.001   6.286
 9235TIP3    H227649   6.631   4.105   6.181
 9236TIP3   OH227650   7.238   7.511   3.003
 9236TIP3    H127651   7.263   7.490   2.913
 9236TIP3    H227652   7.253   7.429   3.051
 9237TIP3   OH227653   2.539   1.552   6.701
 9237TIP3    H127654   2.519   1.541   6.608
 9237TIP3    H227655   2.459   1.585   6.740
 9238TIP3   OH227656   6.621   6.868   3.420
 9238TIP3    H127657   6.604   6.822   3.502
 9238TIP3    H227658   6.689   6.932   3.442
 9239TIP3   OH227659   2.044   6.036   0.296
 9239TIP3    H127660   2.087   5.951   0.311
 9239TIP3    H227661   2.117   6.097   0.285
 9240TIP3   OH227662   6.739   2.961   5.792
 9240TIP3    H127663   6.803   3.008   5.846
 9240TIP3    H227664   6.655   2.980   5.832
 9241TIP3   OH227665   2.466   2.435   2.496
 9241TIP3    H127666   2.400   2.505   2.502
 9241TIP3    H227667   2.547   2.477   2.524
 9242TIP3   OH227668   5.592   4.816   6.701
 9242TIP3    H127669   5.626   4.729   6.723
 9242TIP3    H227670   5.525   4.833   6.767
 9243TIP3   OH227671   3.865   0.811   1.973
 9243TIP3    H127672   3.774   0.821   2.000
 9243TIP3    H227673   3.885   0.891   1.926
 9244TIP3   OH227674   4.066   6.410   1.888
 9244TIP3    H127675   4.015   6.450   1.959
 9244TIP3    H227676   4.154   6.447   1.898
 9245TIP3   OH227677   6.730   5.746   5.457
 9245TIP3    H127678   6.822   5.773   5.456
 9245TIP3    H227679   6.717   5.703   5.373
 9246TIP3   OH227680   4.206   4.381   1.704
 9246TIP3    H127681   4.242   4.439   1.771
 9246TIP3    H227682   4.187   4.300   1.752
 9247TIP3   OH227683   7.463   2.499   0.202
 9247TIP3    H127684   7.528   2.546   0.254
 9247TIP3    H227685   7.495   2.409   0.198
 9248TIP3   OH227686   0.044   0.157   5.291
 9248TIP3    H127687  -0.032   0.158   5.348
 9248TIP3    H227688   0.014   0.114   5.211
 9249TIP3   OH227689   7.033   1.790   3.339
 9249TIP3    H127690   7.104   1.850   3.363
 9249TIP3    H227691   7.054   1.709   3.384
 9250TIP3   OH227692   3.353   7.336   2.420
 9250TIP3    H127693   3.413   7.363   2.350
 9250TIP3    H227694   3.273   7.311   2.375
 9251TIP3   OH227695   5.207   5.350   5.402
 9251TIP3    H127696   5.284   5.394   5.436
 9251TIP3    H227697   5.144   5.421   5.387
 9252TIP3   OH227698   0.841   4.038   4.046
 9252TIP3    H127699   0.755   4.080   4.046
 9252TIP3    H227700   0.823   3.946   4.029
 9253TIP3   OH227701   6.715   3.984   4.184
 9253TIP3    H127702   6.658   3.982   4.108
 9253TIP3    H227703   6.797   4.021   4.153
 9254TIP3   OH227704   4.794   7.201   2.593
 9254TIP3    H127705   4.866   7.241   2.642
 9254TIP3    H227706   4.787   7.113   2.628
 9255TIP3   OH227707   7.424   3.383   4.143
 9255TIP3    H127708   7.402   3.376   4.235
 9255TIP3    H227709   7.416   3.294   4.109
 9256TIP3   OH227710   5.195   3.211   1.741
 9256TIP3    H127711   5.254   3.183   1.810
 9256TIP3    H227712   5.108   3.203   1.779
 9257TIP3   OH227713   1.723   5.309   2.120
 9257TIP3    H127714   1.725   5.404   2.131
 9257TIP3    H227715   1.639   5.292   2.077
 9258TIP3   OH227716   1.459   0.733   0.868
 9258TIP3    H127717   1.413   0.816   0.881
 9258TIP3    H227718   1.415   0.692   0.794
 9259TIP3   OH227719  -0.044   2.203   2.303
 9259TIP3    H127720   0.045   2.235   2.287
 9259TIP3    H227721  -0.041   2.111   2.275
 9260TIP3   OH227722   3.318   3.773   4.896
 9260TIP3    H127723   3.401   3.728   4.915
 9260TIP3    H227724   3.312   3.842   4.962
 9261TIP3   OH227725   0.555   5.874   4.213
 9261TIP3    H127726   0.502   5.795   4.219
 9261TIP3    H227727   0.636   5.852   4.258
 9262TIP3   OH227728   5.592   5.893   6.174
 9262TIP3    H127729   5.618   5.802   6.190
 9262TIP3    H227730   5.656   5.945   6.222
 9263TIP3   OH227731   2.962   3.590   4.121
 9263TIP3    H127732   3.012   3.589   4.202
 9263TIP3    H227733   3.008   3.529   4.063
 9264TIP3   OH227734   7.757   1.674   2.476
 9264TIP3    H127735   7.734   1.753   2.526
 9264TIP3    H227736   7.676   1.622   2.476
 9265TIP3   OH227737   2.137   6.928   3.995
 9265TIP3    H127738   2.050   6.903   4.024
 9265TIP3    H227739   2.126   7.017   3.961
 9266TIP3   OH227740   3.424   1.114   0.393
 9266TIP3    H127741   3.502   1.140   0.344
 9266TIP3    H227742   3.451   1.036   0.442
 9267TIP3   OH227743   3.039   2.971   4.416
 9267TIP3    H127744   3.133   2.955   4.426
 9267TIP3    H227745   3.008   2.990   4.504
 9268TIP3   OH227746   2.813   5.733   4.317
 9268TIP3    H127747   2.816   5.672   4.391
 9268TIP3    H227748   2.812   5.677   4.239
 9269TIP3   OH227749   2.404   5.607   0.385
 9269TIP3    H127750   2.487   5.601   0.433
 9269TIP3    H227751   2.365   5.519   0.393
 9270TIP3   OH227752   3.519   4.671   1.688
 9270TIP3    H127753   3.511   4.582   1.724
 9270TIP3    H227754   3.608   4.675   1.653
 9271TIP3   OH227755   0.656   6.993   3.241
 9271TIP3    H127756   0.573   6.972   3.284
 9271TIP3    H227757   0.722   6.955   3.299
 9272TIP3   OH227758   4.211   1.715   4.473
 9272TIP3    H127759   4.250   1.742   4.389
 9272TIP3    H227760   4.243   1.780   4.536
 9273TIP3   OH227761   6.266   4.231   3.281
 9273TIP3    H127762   6.174   4.253   3.270
 9273TIP3    H227763   6.270   4.137   3.262
 9274TIP3   OH227764   7.463   5.352   2.979
 9274TIP3    H127765   7.490   5.364   3.070
 9274TIP3    H227766   7.506   5.422   2.931
 9275TIP3   OH227767   0.117   2.443   6.637
 9275TIP3    H127768   0.027   2.474   6.624
 9275TIP3    H227769   0.166   2.481   6.565
 9276TIP3   OH227770   3.570   1.864   2.198
 9276TIP3    H127771   3.536   1.783   2.238
 9276TIP3    H227772   3.519   1.873   2.117
 9277TIP3   OH227773   7.903   3.627   4.046
 9277TIP3    H127774   7.961   3.700   4.066
 9277TIP3    H227775   7.940   3.588   3.966
 9278TIP3   OH227776   6.089   5.901   6.349
 9278TIP3    H127777   6.154   5.837   6.379
 9278TIP3    H227778   6.035   5.919   6.426
 9279TIP3   OH227779   0.133   1.154   5.434
 9279TIP3    H127780   0.084   1.130   5.356
 9279TIP3    H227781   0.075   1.129   5.507
 9280TIP3   OH227782   1.118   0.359   2.503
 9280TIP3    H127783   1.034   0.363   2.549
 9280TIP3    H227784   1.182   0.391   2.567
 9281TIP3   OH227785   2.315   5.813   3.088
 9281TIP3    H127786   2.351   5.735   3.046
 9281TIP3    H227787   2.305   5.789   3.179
 9282TIP3   OH227788   8.072   1.062   5.977
 9282TIP3    H127789   8.056   1.093   6.066
 9282TIP3    H227790   8.152   1.010   5.984
 9283TIP3   OH227791   6.712   2.301   5.433
 9283TIP3    H127792   6.744   2.265   5.516
 9283TIP3    H227793   6.776   2.271   5.368
 9284TIP3   OH227794   3.767   6.023   2.531
 9284TIP3    H127795   3.752   6.058   2.444
 9284TIP3    H227796   3.702   5.953   2.540
 9285TIP3   OH227797   2.757   6.013   1.461
 9285TIP3    H127798   2.678   5.998   1.513
 9285TIP3    H227799   2.828   6.021   1.525
 9286TIP3   OH227800   7.656   6.090   1.183
 9286TIP3    H127801   7.684   6.165   1.234
 9286TIP3    H227802   7.733   6.063   1.134
 9287TIP3   OH227803   2.789   7.727   6.192
 9287TIP3    H127804   2.773   7.672   6.269
 9287TIP3    H227805   2.869   7.691   6.153
 9288TIP3   OH227806   7.568   6.318   5.987
 9288TIP3    H127807   7.526   6.284   6.066
 9288TIP3    H227808   7.613   6.397   6.016
 9289TIP3   OH227809   0.839   6.864   1.826
 9289TIP3    H127810   0.812   6.941   1.875
 9289TIP3    H227811   0.799   6.790   1.872
 9290TIP3   OH227812   4.651   1.125   6.024
 9290TIP3    H127813   4.634   1.057   5.959
 9290TIP3    H227814   4.700   1.080   6.094
 9291TIP3   OH227815   6.502   1.751   0.560
 9291TIP3    H127816   6.452   1.678   0.596
 9291TIP3    H227817   6.526   1.804   0.636
 9292TIP3   OH227818   7.335   1.284   4.824
 9292TIP3    H127819   7.349   1.262   4.732
 9292TIP3    H227820   7.381   1.368   4.836
 9293TIP3   OH227821   5.006   0.278   0.613
 9293TIP3    H127822   4.933   0.260   0.553
 9293TIP3    H227823   4.970   0.341   0.675
 9294TIP3   OH227824   4.442   2.409   4.391
 9294TIP3    H127825   4.533   2.412   4.420
 9294TIP3    H227826   4.414   2.320   4.411
 9295TIP3   OH227827   6.909   7.644   0.441
 9295TIP3    H127828   6.816   7.658   0.422
 9295TIP3    H227829   6.912   7.633   0.536
 9296TIP3   OH227830   6.303   5.610   1.590
 9296TIP3    H127831   6.221   5.573   1.622
 9296TIP3    H227832   6.285   5.704   1.580
 9297TIP3   OH227833   0.362   1.001   5.586
 9297TIP3    H127834   0.390   0.957   5.666
 9297TIP3    H227835   0.393   0.944   5.516
 9298TIP3   OH227836   3.600   2.361   1.451
 9298TIP3    H127837   3.637   2.395   1.369
 9298TIP3    H227838   3.667   2.302   1.485
 9299TIP3   OH227839   1.388   6.909   4.592
 9299TIP3    H127840   1.452   6.917   4.522
 9299TIP3    H227841   1.408   6.981   4.651
 9300TIP3   OH227842   4.185   5.719   5.815
 9300TIP3    H127843   4.171   5.803   5.771
 9300TIP3    H227844   4.279   5.716   5.831
 9301TIP3   OH227845   6.924   2.783   6.092
 9301TIP3    H127846   6.832   2.767   6.111
 9301TIP3    H227847   6.969   2.703   6.117
 9302TIP3   OH227848   1.148   6.448   1.791
 9302TIP3    H127849   1.193   6.403   1.721
 9302TIP3    H227850   1.211   6.513   1.823
 9303TIP3   OH227851   7.843   0.409   6.595
 9303TIP3    H127852   7.835   0.385   6.688
 9303TIP3    H227853   7.924   0.461   6.591
 9304TIP3   OH227854   2.282   7.044   5.650
 9304TIP3    H127855   2.321   7.119   5.606
 9304TIP3    H227856   2.269   7.073   5.740
 9305TIP3   OH227857   3.389   7.088   0.686
 9305TIP3    H127858   3.464   7.030   0.703
 9305TIP3    H227859   3.378   7.137   0.768
 9306TIP3   OH227860   2.874   6.380   0.981
 9306TIP3    H127861   2.934   6.348   0.914
 9306TIP3    H227862   2.821   6.446   0.935
 9307TIP3   OH227863   3.877   6.011   6.316
 9307TIP3    H127864   3.897   6.086   6.259
 9307TIP3    H227865   3.962   5.969   6.329
 9308TIP3   OH227866   6.297   0.209   2.987
 9308TIP3    H127867   6.215   0.161   2.999
 9308TIP3    H227868   6.357   0.144   2.949
 9309TIP3   OH227869   4.472   3.460   4.805
 9309TIP3    H127870   4.558   3.449   4.845
 9309TIP3    H227871   4.423   3.513   4.867
 9310TIP3   OH227872   0.621   4.879   3.482
 9310TIP3    H127873   0.696   4.898   3.426
 9310TIP3    H227874   0.655   4.887   3.571
 9311TIP3   OH227875   2.794   2.709   1.907
 9311TIP3    H127876   2.753   2.694   1.822
 9311TIP3    H227877   2.867   2.767   1.888
 9312TIP3   OH227878   1.249   0.356   4.044
 9312TIP3    H127879   1.327   0.302   4.053
 9312TIP3    H227880   1.184   0.300   4.001
 9313TIP3   OH227881   7.283   2.824   0.976
 9313TIP3    H127882   7.342   2.887   1.017
 9313TIP3    H227883   7.269   2.859   0.888
 9314TIP3   OH227884   5.743   0.524   0.045
 9314TIP3    H127885   5.745   0.466   0.121
 9314TIP3    H227886   5.734   0.465  -0.030
 9315TIP3   OH227887   0.144   2.942   0.045
 9315TIP3    H127888   0.122   2.981   0.130
 9315TIP3    H227889   0.224   2.893   0.061
 9316TIP3   OH227890   3.604   5.669   0.318
 9316TIP3    H127891   3.661   5.624   0.381
 9316TIP3    H227892   3.572   5.746   0.366
 9317TIP3   OH227893   5.136   5.598   4.684
 9317TIP3    H127894   5.213   5.650   4.707
 9317TIP3    H227895   5.113   5.553   4.765
 9318TIP3   OH227896   0.161   3.611   2.320
 9318TIP3    H127897   0.076   3.655   2.331
 9318TIP3    H227898   0.162   3.544   2.388
 9319TIP3   OH227899   1.054   2.677   6.474
 9319TIP3    H127900   1.105   2.716   6.403
 9319TIP3    H227901   1.058   2.583   6.457
 9320TIP3   OH227902   0.113   1.370   2.020
 9320TIP3    H127903   0.138   1.372   2.112
 9320TIP3    H227904   0.069   1.285   2.010
 9321TIP3   OH227905   3.218   2.700   5.068
 9321TIP3    H127906   3.202   2.620   5.019
 9321TIP3    H227907   3.307   2.726   5.045
 9322TIP3   OH227908   3.928   4.477   2.794
 9322TIP3    H127909   3.930   4.544   2.861
 9322TIP3    H227910   3.840   4.484   2.756
 9323TIP3   OH227911   4.811   0.476   3.202
 9323TIP3    H127912   4.871   0.402   3.196
 9323TIP3    H227913   4.865   0.550   3.229
 9324TIP3   OH227914  -0.012   2.157   4.559
 9324TIP3    H127915  -0.039   2.125   4.473
 9324TIP3    H227916   0.080   2.181   4.548
 9325TIP3   OH227917   7.031   3.324   2.971
 9325TIP3    H127918   7.047   3.263   2.899
 9325TIP3    H227919   6.941   3.352   2.958
 9326TIP3   OH227920   3.687   3.473   4.437
 9326TIP3    H127921   3.715   3.486   4.347
 9326TIP3    H227922   3.619   3.538   4.452
 9327TIP3   OH227923   4.018   1.569   0.643
 9327TIP3    H127924   3.940   1.522   0.615
 9327TIP3    H227925   3.990   1.618   0.721
 9328TIP3   OH227926   2.361   7.395   2.490
 9328TIP3    H127927   2.282   7.437   2.456
 9328TIP3    H227928   2.374   7.319   2.434
 9329TIP3   OH227929   5.348   1.599   6.655
 9329TIP3    H127930   5.404   1.583   6.579
 9329TIP3    H227931   5.259   1.586   6.622
 9330TIP3   OH227932   3.595  -0.020   0.263
 9330TIP3    H127933   3.671   0.009   0.312
 9330TIP3    H227934   3.592   0.038   0.187
 9331TIP3   OH227935   5.264   1.212   6.082
 9331TIP3    H127936   5.276   1.119   6.060
 9331TIP3    H227937   5.205   1.245   6.014
 9332TIP3   OH227938   0.074   5.708   2.755
 9332TIP3    H127939   0.030   5.627   2.730
 9332TIP3    H227940   0.043   5.726   2.844
 9333TIP3   OH227941   1.775   0.490   5.285
 9333TIP3    H127942   1.734   0.557   5.340
 9333TIP3    H227943   1.866   0.488   5.314
 9334TIP3   OH227944   6.839   4.131   5.896
 9334TIP3    H127945   6.831   4.046   5.940
 9334TIP3    H227946   6.814   4.195   5.962
 9335TIP3   OH227947   3.050   7.800   5.320
 9335TIP3    H127948   3.140   7.780   5.346
 9335TIP3    H227949   3.057   7.870   5.256
 9336TIP3   OH227950   0.262   1.797   0.243
 9336TIP3    H127951   0.278   1.744   0.165
 9336TIP3    H227952   0.340   1.784   0.297
 9337TIP3   OH227953   5.652   4.557   3.222
 9337TIP3    H127954   5.576   4.518   3.266
 9337TIP3    H227955   5.657   4.645   3.258
 9338TIP3   OH227956   0.436   4.723   5.352
 9338TIP3    H127957   0.372   4.672   5.302
 9338TIP3    H227958   0.400   4.728   5.440
 9339TIP3   OH227959   6.253   3.118   5.966
 9339TIP3    H127960   6.210   3.183   5.910
 9339TIP3    H227961   6.202   3.038   5.955
 9340TIP3   OH227962   0.916   3.525   1.733
 9340TIP3    H127963   0.899   3.617   1.753
 9340TIP3    H227964   1.010   3.521   1.716
 9341TIP3   OH227965   6.913   0.116   4.602
 9341TIP3    H127966   6.874   0.030   4.585
 9341TIP3    H227967   6.882   0.139   4.689
 9342TIP3   OH227968   7.718   2.525   2.926
 9342TIP3    H127969   7.770   2.530   3.006
 9342TIP3    H227970   7.634   2.488   2.954
 9343TIP3   OH227971   7.432   0.990   5.940
 9343TIP3    H127972   7.377   0.987   6.018
 9343TIP3    H227973   7.420   0.904   5.899
 9344TIP3   OH227974   0.229   4.729   0.334
 9344TIP3    H127975   0.298   4.696   0.275
 9344TIP3    H227976   0.234   4.671   0.410
 9345TIP3   OH227977   5.560   1.947   0.771
 9345TIP3    H127978   5.494   1.981   0.832
 9345TIP3    H227979   5.565   2.014   0.703
 9346TIP3   OH227980   2.449   3.643   4.980
 9346TIP3    H127981   2.539   3.669   4.961
 9346TIP3    H227982   2.457   3.575   5.046
 9347TIP3   OH227983   0.829   1.419   3.819
 9347TIP3    H127984   0.892   1.491   3.827
 9347TIP3    H227985   0.798   1.424   3.728
 9348TIP3   OH227986   2.711   5.824   3.473
 9348TIP3    H127987   2.672   5.736   3.476
 9348TIP3    H227988   2.706   5.855   3.563
 9349TIP3   OH227989   0.896   2.633   0.402
 9349TIP3    H127990   0.981   2.597   0.428
 9349TIP3    H227991   0.905   2.652   0.309
 9350TIP3   OH227992   1.410   0.828   2.296
 9350TIP3    H127993   1.365   0.756   2.340
 9350TIP3    H227994   1.402   0.902   2.356
 9351TIP3   OH227995   5.378   0.850   3.676
 9351TIP3    H127996   5.285   0.871   3.677
 9351TIP3    H227997   5.422   0.934   3.695
 9352TIP3   OH227998   7.421   0.460   0.435
 9352TIP3    H127999   7.442   0.367   0.423
 9352TIP3    H228000   7.342   0.461   0.489
 9353TIP3   OH228001   1.077   3.924   3.578
 9353TIP3    H128002   1.169   3.922   3.551
 9353TIP3    H228003   1.045   4.008   3.545
 9354TIP3   OH228004   7.246   3.202   6.447
 9354TIP3    H128005   7.284   3.280   6.407
 9354TIP3    H228006   7.153   3.222   6.457
 9355TIP3   OH228007   0.116   0.779   4.726
 9355TIP3    H128008   0.104   0.869   4.756
 9355TIP3    H228009   0.206   0.757   4.748
 9356TIP3   OH228010   2.601   0.758   3.398
 9356TIP3    H128011   2.547   0.830   3.431
 9356TIP3    H228012   2.690   0.781   3.424
 9357TIP3   OH228013   2.068   3.287   3.731
 9357TIP3    H128014   2.057   3.254   3.820
 9357TIP3    H228015   2.110   3.215   3.684
 9358TIP3   OH228016   0.102   7.566   2.570
 9358TIP3    H128017   0.190   7.576   2.534
 9358TIP3    H228018   0.056   7.645   2.542
 9359TIP3   OH228019   7.476   5.282   5.307
 9359TIP3    H128020   7.462   5.375   5.327
 9359TIP3    H228021   7.558   5.261   5.351
 9360TIP3   OH228022   5.739   0.280   2.720
 9360TIP3    H128023   5.771   0.259   2.808
 9360TIP3    H228024   5.738   0.195   2.675
 9361TIP3   OH228025   3.994   7.479  -0.010
 9361TIP3    H128026   4.072   7.498   0.043
 9361TIP3    H228027   4.028   7.462  -0.097
 9362TIP3   OH228028   3.686   2.783   0.356
 9362TIP3    H128029   3.752   2.794   0.425
 9362TIP3    H228030   3.670   2.872   0.324
 9363TIP3   OH228031   7.682   3.545   0.646
 9363TIP3    H128032   7.693   3.580   0.734
 9363TIP3    H228033   7.612   3.599   0.608
 9364TIP3   OH228034   2.145   2.406   4.491
 9364TIP3    H128035   2.104   2.489   4.515
 9364TIP3    H228036   2.202   2.386   4.565
 9365TIP3   OH228037   6.477   2.673   4.390
 9365TIP3    H128038   6.561   2.628   4.388
 9365TIP3    H228039   6.495   2.755   4.435
 9366TIP3   OH228040   5.127   6.603   2.061
 9366TIP3    H128041   5.149   6.665   2.131
 9366TIP3    H228042   5.031   6.601   2.060
 9367TIP3   OH228043   5.828   4.089   0.389
 9367TIP3    H128044   5.913   4.061   0.357
 9367TIP3    H228045   5.795   4.149   0.322
 9368TIP3   OH228046   7.023   5.116   5.302
 9368TIP3    H128047   7.036   5.171   5.225
 9368TIP3    H228048   6.995   5.031   5.267
 9369TIP3   OH228049   2.979   2.537   5.882
 9369TIP3    H128050   2.939   2.511   5.965
 9369TIP3    H228051   3.034   2.463   5.857
 9370TIP3   OH228052   0.588   4.992   5.611
 9370TIP3    H128053   0.528   5.036   5.551
 9370TIP3    H228054   0.627   4.922   5.558
 9371TIP3   OH228055   5.798   4.694   3.962
 9371TIP3    H128056   5.789   4.693   3.867
 9371TIP3    H228057   5.890   4.715   3.978
 9372TIP3   OH228058   0.821   3.355   6.718
 9372TIP3    H128059   0.893   3.365   6.780
 9372TIP3    H228060   0.839   3.273   6.673
 9373TIP3   OH228061   1.188   6.343   6.166
 9373TIP3    H128062   1.215   6.255   6.191
 9373TIP3    H228063   1.173   6.388   6.249
 9374TIP3   OH228064   6.898   0.686   2.037
 9374TIP3    H128065   6.824   0.646   1.991
 9374TIP3    H228066   6.896   0.778   2.009
 9375TIP3   OH228067   6.661   4.202   4.347
 9375TIP3    H128068   6.674   4.137   4.277
 9375TIP3    H228069   6.690   4.285   4.308
 9376TIP3   OH228070   6.265   2.940   0.641
 9376TIP3    H128071   6.190   2.924   0.584
 9376TIP3    H228072   6.325   2.992   0.587
 9377TIP3   OH228073   1.529   0.761   6.334
 9377TIP3    H128074   1.459   0.807   6.286
 9377TIP3    H228075   1.610   0.801   6.302
 9378TIP3   OH228076   1.761   3.982   2.670
 9378TIP3    H128077   1.759   4.072   2.637
 9378TIP3    H228078   1.811   3.988   2.751
 9379TIP3   OH228079   7.090   5.718   1.881
 9379TIP3    H128080   7.160   5.772   1.844
 9379TIP3    H228081   7.093   5.637   1.831
 9380TIP3   OH228082   4.430   4.331   2.442
 9380TIP3    H128083   4.466   4.417   2.422
 9380TIP3    H228084   4.502   4.284   2.484
 9381TIP3   OH228085   7.654   6.037   5.893
 9381TIP3    H128086   7.672   6.127   5.920
 9381TIP3    H228087   7.561   6.036   5.871
 9382TIP3   OH228088   4.403   1.402   5.009
 9382TIP3    H128089   4.409   1.309   4.985
 9382TIP3    H228090   4.486   1.421   5.051
 9383TIP3   OH228091   6.402   2.053   5.087
 9383TIP3    H128092   6.411   2.124   5.024
 9383TIP3    H228093   6.371   2.096   5.167
 9384TIP3   OH228094   4.474   3.728   3.606
 9384TIP3    H128095   4.379   3.722   3.608
 9384TIP3    H228096   4.501   3.722   3.698
 9385TIP3   OH228097   6.143   0.082   3.818
 9385TIP3    H128098   6.225   0.126   3.843
 9385TIP3    H228099   6.172   0.001   3.776
 9386TIP3   OH228100   5.431   2.793   4.384
 9386TIP3    H128101   5.489   2.866   4.363
 9386TIP3    H228102   5.343   2.829   4.374
 9387TIP3   OH228103   7.986   3.198   2.467
 9387TIP3    H128104   7.969   3.228   2.556
 9387TIP3    H228105   7.976   3.277   2.413
 9388TIP3   OH228106   4.283   0.503   0.025
 9388TIP3    H128107   4.198   0.523   0.064
 9388TIP3    H228108   4.347   0.540   0.086
 9389TIP3   OH228109   1.886   1.787   1.267
 9389TIP3    H128110   1.975   1.815   1.291
 9389TIP3    H228111   1.847   1.864   1.228
 9390TIP3   OH228112   4.045   0.538   2.921
 9390TIP3    H128113   3.954   0.538   2.891
 9390TIP3    H228114   4.066   0.631   2.934
 9391TIP3   OH228115   2.083   2.230   6.541
 9391TIP3    H128116   2.111   2.288   6.612
 9391TIP3    H228117   2.063   2.147   6.584
 9392TIP3   OH228118   7.454   1.721   2.430
 9392TIP3    H128119   7.366   1.753   2.450
 9392TIP3    H228120   7.497   1.713   2.515
 9393TIP3   OH228121   2.627   7.244   4.930
 9393TIP3    H128122   2.638   7.277   4.841
 9393TIP3    H228123   2.550   7.188   4.925
 9394TIP3   OH228124   1.753   1.224   3.044
 9394TIP3    H128125   1.700   1.188   3.116
 9394TIP3    H228126   1.750   1.319   3.057
 9395TIP3   OH228127   7.292   5.015   4.314
 9395TIP3    H128128   7.356   4.956   4.353
 9395TIP3    H228129   7.298   5.095   4.367
 9396TIP3   OH228130   6.988   2.172   3.687
 9396TIP3    H128131   7.070   2.221   3.681
 9396TIP3    H228132   6.920   2.238   3.674
 9397TIP3   OH228133   6.115   7.893   4.169
 9397TIP3    H128134   6.172   7.835   4.219
 9397TIP3    H228135   6.029   7.852   4.173
 9398TIP3   OH228136   7.791   0.977   4.288
 9398TIP3    H128137   7.744   1.038   4.231
 9398TIP3    H228138   7.876   0.966   4.245
 9399TIP3   OH228139   2.713   0.086   0.033
 9399TIP3    H128140   2.682   0.172   0.005
 9399TIP3    H228141   2.656   0.064   0.107
 9400TIP3   OH228142   4.918   2.150   2.631
 9400TIP3    H128143   4.919   2.102   2.713
 9400TIP3    H228144   4.842   2.208   2.637
 9401TIP3   OH228145   3.558   5.952   0.786
 9401TIP3    H128146   3.518   5.883   0.839
 9401TIP3    H228147   3.649   5.954   0.815
 9402TIP3   OH228148   6.747   5.747   3.557
 9402TIP3    H128149   6.799   5.827   3.547
 9402TIP3    H228150   6.794   5.697   3.623
 9403TIP3   OH228151   3.430   6.493   3.245
 9403TIP3    H128152   3.494   6.540   3.298
 9403TIP3    H228153   3.407   6.554   3.175
 9404TIP3   OH228154   7.457   4.805   0.666
 9404TIP3    H128155   7.455   4.767   0.754
 9404TIP3    H228156   7.542   4.778   0.630
 9405TIP3   OH228157   6.589   3.731   2.087
 9405TIP3    H128158   6.501   3.706   2.114
 9405TIP3    H228159   6.609   3.810   2.139
 9406TIP3   OH228160   0.090   4.366   0.171
 9406TIP3    H128161   0.049   4.450   0.190
 9406TIP3    H228162   0.060   4.345   0.082
 9407TIP3   OH228163   1.635   2.802   2.639
 9407TIP3    H128164   1.635   2.706   2.630
 9407TIP3    H228165   1.682   2.833   2.562
 9408TIP3   OH228166   0.630   2.221   2.590
 9408TIP3    H128167   0.611   2.283   2.519
 9408TIP3    H228168   0.572   2.146   2.572
 9409TIP3   OH228169   6.661   4.679   3.356
 9409TIP3    H128170   6.714   4.694   3.278
 9409TIP3    H228171   6.715   4.622   3.411
 9410TIP3   OH228172   3.074   4.606   5.721
 9410TIP3    H128173   3.136   4.535   5.730
 9410TIP3    H228174   3.070   4.647   5.807
 9411TIP3   OH228175   4.243   2.581   5.768
 9411TIP3    H128176   4.251   2.633   5.688
 9411TIP3    H228177   4.169   2.523   5.752
 9412TIP3   OH228178   7.081   1.058   5.785
 9412TIP3    H128179   7.023   1.125   5.822
 9412TIP3    H228180   7.169   1.089   5.804
 9413TIP3   OH228181   0.716   3.542   2.639
 9413TIP3    H128182   0.766   3.621   2.661
 9413TIP3    H228183   0.768   3.470   2.674
 9414TIP3   OH228184   3.854   6.727   2.674
 9414TIP3    H128185   3.861   6.805   2.618
 9414TIP3    H228186   3.772   6.686   2.647
 9415TIP3   OH228187   6.737   5.041   1.456
 9415TIP3    H128188   6.750   4.948   1.475
 9415TIP3    H228189   6.646   5.058   1.480
 9416TIP3   OH228190   1.229   4.681   5.242
 9416TIP3    H128191   1.188   4.764   5.217
 9416TIP3    H228192   1.276   4.653   5.163
 9417TIP3   OH228193   0.638   5.268   3.294
 9417TIP3    H128194   0.705   5.324   3.255
 9417TIP3    H228195   0.674   5.245   3.380
 9418TIP3   OH228196   5.168   0.056   1.979
 9418TIP3    H128197   5.112   0.002   2.033
 9418TIP3    H228198   5.167   0.013   1.893
 9419TIP3   OH228199   0.575   3.666   2.396
 9419TIP3    H128200   0.649   3.649   2.454
 9419TIP3    H228201   0.613   3.665   2.308
 9420TIP3   OH228202   6.890   5.801   0.282
 9420TIP3    H128203   6.794   5.796   0.287
 9420TIP3    H228204   6.908   5.822   0.190
 9421TIP3   OH228205   0.998   0.497   1.968
 9421TIP3    H128206   0.958   0.544   2.041
 9421TIP3    H228207   1.079   0.544   1.951
 9422TIP3   OH228208   2.316   0.929   4.798
 9422TIP3    H128209   2.289   0.855   4.852
 9422TIP3    H228210   2.265   0.920   4.718
 9423TIP3   OH228211   2.887   3.252   4.003
 9423TIP3    H128212   2.928   3.217   4.082
 9423TIP3    H228213   2.793   3.253   4.023
 9424TIP3   OH228214   1.583   3.877   1.646
 9424TIP3    H128215   1.668   3.907   1.678
 9424TIP3    H228216   1.545   3.953   1.602
 9425TIP3   OH228217   2.804   3.915   6.827
 9425TIP3    H128218   2.872   3.854   6.856
 9425TIP3    H228219   2.813   3.917   6.731
 9426TIP3   OH228220   7.544   2.004   0.035
 9426TIP3    H128221   7.528   1.909   0.042
 9426TIP3    H228222   7.611   2.022   0.100
 9427TIP3   OH228223   0.545   2.976   1.519
 9427TIP3    H128224   0.487   3.025   1.578
 9427TIP3    H228225   0.589   2.913   1.576
 9428TIP3   OH228226   2.725   1.574   4.235
 9428TIP3    H128227   2.798   1.637   4.238
 9428TIP3    H228228   2.767   1.491   4.211
 9429TIP3   OH228229   3.255   3.485   6.104
 9429TIP3    H128230   3.244   3.545   6.030
 9429TIP3    H228231   3.347   3.458   6.099
 9430TIP3   OH228232   1.762   6.365   1.637
 9430TIP3    H128233   1.844   6.399   1.672
 9430TIP3    H228234   1.699   6.436   1.650
 9431TIP3   OH228235   1.089   0.244   1.797
 9431TIP3    H128236   1.008   0.194   1.794
 9431TIP3    H228237   1.085   0.291   1.881
 9432TIP3   OH228238   6.390   5.621   0.020
 9432TIP3    H128239   6.310   5.659   0.057
 9432TIP3    H228240   6.369   5.528   0.009
 9433TIP3   OH228241   0.278   6.831   5.785
 9433TIP3    H128242   0.334   6.906   5.802
 9433TIP3    H228243   0.217   6.829   5.859
 9434TIP3   OH228244   3.283   1.508   4.278
 9434TIP3    H128245   3.213   1.442   4.272
 9434TIP3    H228246   3.329   1.502   4.194
 9435TIP3   OH228247   1.864   0.219   2.642
 9435TIP3    H128248   1.843   0.131   2.610
 9435TIP3    H228249   1.787   0.272   2.620
 9436TIP3   OH228250   7.163   4.772   6.316
 9436TIP3    H128251   7.202   4.685   6.323
 9436TIP3    H228252   7.070   4.757   6.332
 9437TIP3   OH228253   2.427   2.865   6.522
 9437TIP3    H128254   2.368   2.924   6.475
 9437TIP3    H228255   2.455   2.801   6.457
 9438TIP3   OH228256   5.398   3.553   2.903
 9438TIP3    H128257   5.355   3.468   2.892
 9438TIP3    H228258   5.344   3.613   2.852
 9439TIP3   OH228259   3.535   4.425   3.201
 9439TIP3    H128260   3.524   4.331   3.187
 9439TIP3    H228261   3.629   4.437   3.217
 9440TIP3   OH228262   7.860   0.070   5.789
 9440TIP3    H128263   7.842   0.006   5.857
 9440TIP3    H228264   7.805   0.043   5.715
 9441TIP3   OH228265   4.630   6.555   1.954
 9441TIP3    H128266   4.646   6.460   1.960
 9441TIP3    H228267   4.656   6.578   1.865
 9442TIP3   OH228268   7.657   2.291   4.404
 9442TIP3    H128269   7.746   2.302   4.437
 9442TIP3    H228270   7.644   2.196   4.401
 9443TIP3   OH228271   4.867   2.104   4.423
 9443TIP3    H128272   4.826   2.111   4.336
 9443TIP3    H228273   4.961   2.108   4.405
 9444TIP3   OH228274   6.017   0.848   5.327
 9444TIP3    H128275   5.925   0.844   5.302
 9444TIP3    H228276   6.023   0.923   5.386
 9445TIP3   OH228277   5.749   6.402   6.646
 9445TIP3    H128278   5.675   6.426   6.591
 9445TIP3    H228279   5.789   6.485   6.671
 9446TIP3   OH228280   6.836   0.170   5.216
 9446TIP3    H128281   6.800   0.110   5.151
 9446TIP3    H228282   6.760   0.219   5.248
 9447TIP3   OH228283   0.273   4.330   4.373
 9447TIP3    H128284   0.198   4.289   4.330
 9447TIP3    H228285   0.265   4.423   4.355
 9448TIP3   OH228286   7.594   2.230   4.690
 9448TIP3    H128287   7.677   2.257   4.728
 9448TIP3    H228288   7.601   2.255   4.598
 9449TIP3   OH228289   7.312   3.860   1.029
 9449TIP3    H128290   7.321   3.784   0.971
 9449TIP3    H228291   7.293   3.822   1.115
 9450TIP3   OH228292   8.273   4.249   3.969
 9450TIP3    H128293   8.183   4.220   3.954
 9450TIP3    H228294   8.327   4.177   3.935
 9451TIP3   OH228295   2.275   4.008   1.064
 9451TIP3    H128296   2.300   3.943   1.130
 9451TIP3    H228297   2.242   3.956   0.991
 9452TIP3   OH228298   1.229   4.419   1.412
 9452TIP3    H128299   1.267   4.344   1.456
 9452TIP3    H228300   1.175   4.381   1.342
 9453TIP3   OH228301   2.811   3.843   1.695
 9453TIP3    H128302   2.729   3.893   1.699
 9453TIP3    H228303   2.787   3.755   1.723
 9454TIP3   OH228304   3.563   7.415   4.103
 9454TIP3    H128305   3.510   7.458   4.036
 9454TIP3    H228306   3.500   7.373   4.161
 9455TIP3   OH228307   3.186   2.043   1.167
 9455TIP3    H128308   3.229   2.123   1.138
 9455TIP3    H228309   3.189   2.048   1.263
 9456TIP3   OH228310   5.910   3.362   6.057
 9456TIP3    H128311   5.993   3.364   6.010
 9456TIP3    H228312   5.888   3.269   6.063
 9457TIP3   OH228313   2.956   4.041   1.018
 9457TIP3    H128314   2.862   4.054   1.010
 9457TIP3    H228315   2.994   4.098   0.951
 9458TIP3   OH228316   3.859   7.310   3.325
 9458TIP3    H128317   3.908   7.228   3.328
 9458TIP3    H228318   3.802   7.306   3.402
 9459TIP3   OH228319   7.193   1.536   5.570
 9459TIP3    H128320   7.197   1.474   5.643
 9459TIP3    H228321   7.146   1.489   5.501
 9460TIP3   OH228322   4.080   4.864   2.338
 9460TIP3    H128323   4.109   4.946   2.300
 9460TIP3    H228324   4.095   4.799   2.270
 9461TIP3   OH228325   0.400   4.340   0.842
 9461TIP3    H128326   0.479   4.394   0.844
 9461TIP3    H228327   0.395   4.300   0.928
 9462TIP3   OH228328   0.661   1.692   3.258
 9462TIP3    H128329   0.677   1.735   3.174
 9462TIP3    H228330   0.614   1.612   3.235
 9463TIP3   OH228331   6.067   2.764   5.729
 9463TIP3    H128332   5.971   2.763   5.722
 9463TIP3    H228333   6.096   2.814   5.653
 9464TIP3   OH228334   7.637   4.932   1.389
 9464TIP3    H128335   7.689   4.992   1.442
 9464TIP3    H228336   7.575   4.987   1.343
 9465TIP3   OH228337   3.860   5.935   1.382
 9465TIP3    H128338   3.841   6.014   1.432
 9465TIP3    H228339   3.807   5.867   1.425
 9466TIP3   OH228340   1.679   0.761   6.045
 9466TIP3    H128341   1.754   0.763   5.986
 9466TIP3    H228342   1.684   0.844   6.093
 9467TIP3   OH228343   7.582   7.461   1.645
 9467TIP3    H128344   7.557   7.440   1.555
 9467TIP3    H228345   7.644   7.534   1.636
 9468TIP3   OH228346   3.362   0.838   6.255
 9468TIP3    H128347   3.286   0.782   6.238
 9468TIP3    H228348   3.436   0.778   6.253
 9469TIP3   OH228349   0.749   1.978   4.584
 9469TIP3    H128350   0.787   1.907   4.532
 9469TIP3    H228351   0.810   1.988   4.658
 9470TIP3   OH228352   2.127   0.885   5.573
 9470TIP3    H128353   2.123   0.961   5.516
 9470TIP3    H228354   2.198   0.904   5.635
 9471TIP3   OH228355   0.333   3.369   5.918
 9471TIP3    H128356   0.256   3.360   5.861
 9471TIP3    H228357   0.378   3.284   5.912
 9472TIP3   OH228358   1.038   5.433   3.393
 9472TIP3    H128359   0.971   5.496   3.367
 9472TIP3    H228360   1.072   5.399   3.310
 9473TIP3   OH228361   3.857   1.071   6.419
 9473TIP3    H128362   3.835   1.110   6.334
 9473TIP3    H228363   3.952   1.062   6.417
 9474TIP3   OH228364   2.459   4.003   5.831
 9474TIP3    H128365   2.363   4.000   5.825
 9474TIP3    H228366   2.476   4.060   5.906
 9475TIP3   OH228367   7.627   4.088   1.508
 9475TIP3    H128368   7.589   4.173   1.530
 9475TIP3    H228369   7.552   4.035   1.479
 9476TIP3   OH228370   8.175   5.992   6.645
 9476TIP3    H128371   8.123   6.012   6.723
 9476TIP3    H228372   8.110   5.975   6.577
 9477TIP3   OH228373   8.210   1.787   5.460
 9477TIP3    H128374   8.115   1.780   5.453
 9477TIP3    H228375   8.243   1.699   5.439
 9478TIP3   OH228376   7.790   5.832   4.634
 9478TIP3    H128377   7.857   5.772   4.666
 9478TIP3    H228378   7.771   5.800   4.545
 9479TIP3   OH228379   6.403   1.578   0.768
 9479TIP3    H128380   6.309   1.589   0.759
 9479TIP3    H228381   6.433   1.659   0.811
 9480TIP3   OH228382   0.188   4.940   1.941
 9480TIP3    H128383   0.125   4.881   1.984
 9480TIP3    H228384   0.186   4.914   1.849
 9481TIP3   OH228385   5.647   5.134   2.349
 9481TIP3    H128386   5.604   5.158   2.267
 9481TIP3    H228387   5.576   5.132   2.413
 9482TIP3   OH228388   5.459   2.229   3.467
 9482TIP3    H128389   5.533   2.229   3.405
 9482TIP3    H228390   5.477   2.155   3.525
 9483TIP3   OH228391   5.219   5.633   6.686
 9483TIP3    H128392   5.199   5.547   6.724
 9483TIP3    H228393   5.296   5.663   6.735
 9484TIP3   OH228394   1.420   5.477   0.081
 9484TIP3    H128395   1.448   5.435   0.162
 9484TIP3    H228396   1.384   5.561   0.108
 9485TIP3   OH228397   8.153   6.889   4.002
 9485TIP3    H128398   8.203   6.908   3.923
 9485TIP3    H228399   8.169   6.796   4.018
 9486TIP3   OH228400   6.769   2.068   1.690
 9486TIP3    H128401   6.812   2.032   1.767
 9486TIP3    H228402   6.794   2.009   1.619
 9487TIP3   OH228403   3.608   2.431   2.209
 9487TIP3    H128404   3.519   2.464   2.194
 9487TIP3    H228405   3.616   2.428   2.304
 9488TIP3   OH228406   2.788   3.826   4.647
 9488TIP3    H128407   2.818   3.736   4.636
 9488TIP3    H228408   2.851   3.864   4.708
 9489TIP3   OH228409   5.101   7.542   5.822
 9489TIP3    H128410   5.035   7.611   5.829
 9489TIP3    H228411   5.113   7.511   5.911
 9490TIP3   OH228412   1.853   6.348   4.321
 9490TIP3    H128413   1.804   6.297   4.256
 9490TIP3    H228414   1.835   6.439   4.298
 9491TIP3   OH228415   3.302   5.386   3.657
 9491TIP3    H128416   3.382   5.338   3.636
 9491TIP3    H228417   3.320   5.428   3.741
 9492TIP3   OH228418   7.604   7.789   0.999
 9492TIP3    H128419   7.663   7.836   1.058
 9492TIP3    H228420   7.661   7.728   0.952
 9493TIP3   OH228421   0.259   1.694   0.579
 9493TIP3    H128422   0.193   1.762   0.585
 9493TIP3    H228423   0.331   1.734   0.530
 9494TIP3   OH228424   5.485   6.670   5.384
 9494TIP3    H128425   5.429   6.628   5.449
 9494TIP3    H228426   5.566   6.619   5.384
 9495TIP3   OH228427   2.027   0.508   4.265
 9495TIP3    H128428   2.004   0.438   4.326
 9495TIP3    H228429   2.098   0.556   4.308
 9496TIP3   OH228430   7.745   2.334   5.916
 9496TIP3    H128431   7.803   2.299   5.849
 9496TIP3    H228432   7.669   2.366   5.868
 9497TIP3   OH228433   3.766   4.803   2.256
 9497TIP3    H128434   3.757   4.865   2.183
 9497TIP3    H228435   3.833   4.843   2.312
 9498TIP3   OH228436   0.752   4.316   3.864
 9498TIP3    H128437   0.734   4.263   3.941
 9498TIP3    H228438   0.686   4.289   3.800
 9499TIP3   OH228439   0.083   4.731   2.944
 9499TIP3    H128440   0.050   4.794   2.880
 9499TIP3    H228441   0.005   4.688   2.978
 9500TIP3   OH228442   7.607   2.565   4.631
 9500TIP3    H128443   7.678   2.501   4.644
 9500TIP3    H228444   7.645   2.648   4.658
 9501TIP3   OH228445   3.680   7.113   4.276
 9501TIP3    H128446   3.598   7.105   4.228
 9501TIP3    H228447   3.682   7.035   4.333
 9502TIP3   OH228448   2.889   7.530   2.501
 9502TIP3    H128449   2.820   7.595   2.491
 9502TIP3    H228450   2.842   7.447   2.508
 9503TIP3   OH228451   3.820   4.158   5.952
 9503TIP3    H128452   3.791   4.164   6.043
 9503TIP3    H228453   3.739   4.149   5.901
 9504TIP3   OH228454   0.772   2.430   6.229
 9504TIP3    H128455   0.746   2.483   6.305
 9504TIP3    H228456   0.843   2.375   6.261
 9505TIP3   OH228457   2.260   3.522   1.601
 9505TIP3    H128458   2.299   3.608   1.614
 9505TIP3    H228459   2.294   3.468   1.672
 9506TIP3   OH228460   5.119   1.442   5.360
 9506TIP3    H128461   5.040   1.496   5.371
 9506TIP3    H228462   5.189   1.506   5.343
 9507TIP3   OH228463   5.336   6.005   6.202
 9507TIP3    H128464   5.432   6.006   6.204
 9507TIP3    H228465   5.312   5.984   6.293
 9508TIP3   OH228466   3.876   4.951   6.522
 9508TIP3    H128467   3.876   4.862   6.557
 9508TIP3    H228468   3.818   4.947   6.446
 9509TIP3   OH228469   7.396   0.120   4.205
 9509TIP3    H128470   7.312   0.076   4.197
 9509TIP3    H228471   7.411   0.129   4.299
 9510TIP3   OH228472   2.880   5.673   0.673
 9510TIP3    H128473   2.973   5.687   0.657
 9510TIP3    H228474   2.852   5.749   0.724
 9511TIP3   OH228475   2.610   1.036   2.084
 9511TIP3    H128476   2.671   1.091   2.035
 9511TIP3    H228477   2.640   1.040   2.174
 9512TIP3   OH228478   1.273   6.028   6.047
 9512TIP3    H128479   1.283   6.000   5.956
 9512TIP3    H228480   1.186   5.999   6.071
 9513TIP3   OH228481   1.326   6.184   6.417
 9513TIP3    H128482   1.374   6.123   6.473
 9513TIP3    H228483   1.238   6.147   6.412
 9514TIP3   OH228484   4.743   2.784   0.184
 9514TIP3    H128485   4.700   2.859   0.142
 9514TIP3    H228486   4.766   2.815   0.272
 9515TIP3   OH228487   1.141   0.340   0.452
 9515TIP3    H128488   1.115   0.255   0.417
 9515TIP3    H228489   1.209   0.371   0.392
 9516TIP3   OH228490   7.820   5.670   3.918
 9516TIP3    H128491   7.902   5.680   3.870
 9516TIP3    H228492   7.817   5.744   3.978
 9517TIP3   OH228493   0.525   3.277   0.354
 9517TIP3    H128494   0.470   3.202   0.333
 9517TIP3    H228495   0.465   3.351   0.355
 9518TIP3   OH228496   8.144   3.459   1.602
 9518TIP3    H128497   8.117   3.483   1.691
 9518TIP3    H228498   8.069   3.411   1.567
 9519TIP3   OH228499   3.829   6.069   5.906
 9519TIP3    H128500   3.805   6.152   5.866
 9519TIP3    H228501   3.746   6.025   5.923
 9520TIP3   OH228502   2.403   6.377   0.648
 9520TIP3    H128503   2.482   6.407   0.692
 9520TIP3    H228504   2.429   6.366   0.556
 9521TIP3   OH228505   0.603   3.409   3.669
 9521TIP3    H128506   0.511   3.390   3.651
 9521TIP3    H228507   0.632   3.336   3.724
 9522TIP3   OH228508   8.025   5.167   4.825
 9522TIP3    H128509   8.054   5.113   4.898
 9522TIP3    H228510   7.930   5.156   4.824
 9523TIP3   OH228511   3.778   3.099   0.123
 9523TIP3    H128512   3.748   3.103   0.032
 9523TIP3    H228513   3.699   3.075   0.172
 9524TIP3   OH228514   0.899   3.306   2.084
 9524TIP3    H128515   0.935   3.263   2.007
 9524TIP3    H228516   0.858   3.236   2.135
 9525TIP3   OH228517   6.223   5.589   3.779
 9525TIP3    H128518   6.167   5.520   3.741
 9525TIP3    H228519   6.311   5.550   3.779
 9526TIP3   OH228520   4.362   4.405   3.394
 9526TIP3    H128521   4.291   4.392   3.331
 9526TIP3    H228522   4.331   4.365   3.475
 9527TIP3   OH228523   2.487   4.364   6.551
 9527TIP3    H128524   2.431   4.393   6.622
 9527TIP3    H228525   2.542   4.440   6.531
 9528TIP3   OH228526   1.452   1.867   6.393
 9528TIP3    H128527   1.526   1.853   6.334
 9528TIP3    H228528   1.489   1.915   6.467
 9529TIP3   OH228529   5.113   5.879   0.416
 9529TIP3    H128530   5.138   5.913   0.330
 9529TIP3    H228531   5.025   5.844   0.404
 9530TIP3   OH228532   1.522   0.598   5.901
 9530TIP3    H128533   1.564   0.663   5.958
 9530TIP3    H228534   1.510   0.522   5.958
 9531TIP3   OH228535   1.341   5.148   6.165
 9531TIP3    H128536   1.339   5.150   6.261
 9531TIP3    H228537   1.286   5.221   6.138
 9532TIP3   OH228538   4.391   7.329   4.882
 9532TIP3    H128539   4.427   7.417   4.882
 9532TIP3    H228540   4.313   7.334   4.826
 9533TIP3   OH228541   4.935   4.273   1.412
 9533TIP3    H128542   4.865   4.277   1.347
 9533TIP3    H228543   4.987   4.352   1.395
 9534TIP3   OH228544   2.067   2.226   2.074
 9534TIP3    H128545   2.161   2.223   2.090
 9534TIP3    H228546   2.031   2.155   2.128
 9535TIP3   OH228547   4.203   3.316   5.730
 9535TIP3    H128548   4.209   3.223   5.707
 9535TIP3    H228549   4.274   3.330   5.791
 9536TIP3   OH228550   0.935   3.780   3.041
 9536TIP3    H128551   0.896   3.799   3.127
 9536TIP3    H228552   0.875   3.821   2.978
 9537TIP3   OH228553   0.708   1.391   0.639
 9537TIP3    H128554   0.664   1.415   0.557
 9537TIP3    H228555   0.685   1.462   0.700
 9538TIP3   OH228556   2.481   2.930   5.691
 9538TIP3    H128557   2.498   2.906   5.600
 9538TIP3    H228558   2.519   3.018   5.699
 9539TIP3   OH228559   5.421   2.864   1.356
 9539TIP3    H128560   5.348   2.805   1.373
 9539TIP3    H228561   5.383   2.952   1.357
 9540TIP3   OH228562   8.229   5.764   1.781
 9540TIP3    H128563   8.292   5.833   1.761
 9540TIP3    H228564   8.181   5.751   1.699
 9541TIP3   OH228565   6.168   3.092   4.832
 9541TIP3    H128566   6.163   3.098   4.736
 9541TIP3    H228567   6.229   3.163   4.856
 9542TIP3   OH228568   6.469   7.649   2.209
 9542TIP3    H128569   6.534   7.598   2.258
 9542TIP3    H228570   6.517   7.728   2.182
 9543TIP3   OH228571   0.659   1.961   4.094
 9543TIP3    H128572   0.594   1.962   4.164
 9543TIP3    H228573   0.608   1.950   4.014
 9544TIP3   OH228574   3.464   6.642   0.660
 9544TIP3    H128575   3.432   6.711   0.719
 9544TIP3    H228576   3.386   6.609   0.617
 9545TIP3   OH228577   4.792   0.917   1.936
 9545TIP3    H128578   4.763   0.980   2.001
 9545TIP3    H228579   4.801   0.835   1.984
 9546TIP3   OH228580   2.417   0.228   6.231
 9546TIP3    H128581   2.408   0.204   6.323
 9546TIP3    H228582   2.510   0.214   6.212
 9547TIP3   OH228583   0.875   7.246   2.959
 9547TIP3    H128584   0.855   7.332   2.996
 9547TIP3    H228585   0.792   7.198   2.962
 9548TIP3   OH228586   0.273   5.679   3.733
 9548TIP3    H128587   0.217   5.712   3.804
 9548TIP3    H228588   0.306   5.595   3.767
 9549TIP3   OH228589   0.330   2.621   4.362
 9549TIP3    H128590   0.291   2.638   4.276
 9549TIP3    H228591   0.362   2.531   4.357
 9550TIP3   OH228592   1.320   3.793   4.852
 9550TIP3    H128593   1.249   3.847   4.817
 9550TIP3    H228594   1.275   3.721   4.897
 9551TIP3   OH228595   6.132   5.911   6.085
 9551TIP3    H128596   6.222   5.942   6.077
 9551TIP3    H228597   6.112   5.921   6.178
 9552TIP3   OH228598   0.046   6.190   6.498
 9552TIP3    H128599   0.031   6.122   6.563
 9552TIP3    H228600  -0.003   6.162   6.421
 9553TIP3   OH228601   5.050   1.712   5.909
 9553TIP3    H128602   5.078   1.653   5.978
 9553TIP3    H228603   4.983   1.663   5.861
 9554TIP3   OH228604   3.630   2.710   5.065
 9554TIP3    H128605   3.546   2.708   5.111
 9554TIP3    H228606   3.637   2.800   5.032
 9555TIP3   OH228607   0.442   0.861   2.236
 9555TIP3    H128608   0.396   0.827   2.313
 9555TIP3    H228609   0.395   0.940   2.213
 9556TIP3   OH228610   2.357   5.106   1.054
 9556TIP3    H128611   2.438   5.056   1.060
 9556TIP3    H228612   2.321   5.083   0.968
 9557TIP3   OH228613   4.882   6.113   2.967
 9557TIP3    H128614   4.798   6.077   2.941
 9557TIP3    H228615   4.945   6.076   2.906
 9558TIP3   OH228616   3.228   4.214   0.115
 9558TIP3    H128617   3.294   4.150   0.086
 9558TIP3    H228618   3.190   4.175   0.194
 9559TIP3   OH228619   5.135   4.733   0.627
 9559TIP3    H128620   5.088   4.769   0.552
 9559TIP3    H228621   5.072   4.676   0.671
 9560TIP3   OH228622   7.472   7.381   2.761
 9560TIP3    H128623   7.452   7.422   2.676
 9560TIP3    H228624   7.432   7.295   2.756
 9561TIP3   OH228625   5.801   6.755   1.775
 9561TIP3    H128626   5.736   6.816   1.742
 9561TIP3    H228627   5.866   6.748   1.705
 9562TIP3   OH228628   5.003   7.118   5.930
 9562TIP3    H128629   5.006   7.036   5.881
 9562TIP3    H228630   4.936   7.104   5.997
 9563TIP3   OH228631   4.310   1.493   5.477
 9563TIP3    H128632   4.215   1.498   5.464
 9563TIP3    H228633   4.320   1.470   5.569
 9564TIP3   OH228634   0.512   7.514   5.222
 9564TIP3    H128635   0.581   7.480   5.165
 9564TIP3    H228636   0.506   7.450   5.293
 9565TIP3   OH228637   8.237   3.026   2.650
 9565TIP3    H128638   8.214   2.947   2.601
 9565TIP3    H228639   8.279   3.083   2.585
 9566TIP3   OH228640   5.888   5.056   2.563
 9566TIP3    H128641   5.796   5.050   2.536
 9566TIP3    H228642   5.936   5.015   2.491
 9567TIP3   OH228643   3.582   3.708   0.782
 9567TIP3    H128644   3.665   3.724   0.826
 9567TIP3    H228645   3.554   3.622   0.814
 9568TIP3   OH228646   0.766   6.808   5.719
 9568TIP3    H128647   0.711   6.828   5.643
 9568TIP3    H228648   0.803   6.722   5.699
 9569TIP3   OH228649   5.791   0.403   1.486
 9569TIP3    H128650   5.816   0.348   1.411
 9569TIP3    H228651   5.858   0.386   1.552
 9570TIP3   OH228652   0.993   0.734   5.439
 9570TIP3    H128653   0.977   0.664   5.502
 9570TIP3    H228654   1.029   0.690   5.363
 9571TIP3   OH228655   0.824   6.799   1.221
 9571TIP3    H128656   0.797   6.729   1.160
 9571TIP3    H228657   0.766   6.872   1.200
 9572TIP3   OH228658   3.230   3.121   4.940
 9572TIP3    H128659   3.237   3.124   4.844
 9572TIP3    H228660   3.268   3.204   4.969
 9573TIP3   OH228661   6.318   2.716   1.651
 9573TIP3    H128662   6.303   2.633   1.697
 9573TIP3    H228663   6.302   2.696   1.559
 9574TIP3   OH228664   2.834   4.410   6.608
 9574TIP3    H128665   2.744   4.441   6.616
 9574TIP3    H228666   2.859   4.432   6.518
 9575TIP3   OH228667   0.771   7.531   1.007
 9575TIP3    H128668   0.865   7.546   1.015
 9575TIP3    H228669   0.763   7.467   0.935
 9576TIP3   OH228670   6.579   0.154   2.701
 9576TIP3    H128671   6.521   0.106   2.642
 9576TIP3    H228672   6.599   0.091   2.771
 9577TIP3   OH228673   6.361   0.703   1.396
 9577TIP3    H128674   6.451   0.674   1.410
 9577TIP3    H228675   6.342   0.760   1.470
 9578TIP3   OH228676   7.167   1.043   1.323
 9578TIP3    H128677   7.105   1.079   1.259
 9578TIP3    H228678   7.195   1.119   1.374
 9579TIP3   OH228679   5.898   0.735   0.743
 9579TIP3    H128680   5.870   0.645   0.725
 9579TIP3    H228681   5.870   0.785   0.667
 9580TIP3   OH228682   5.275   3.892   3.076
 9580TIP3    H128683   5.218   3.815   3.079
 9580TIP3    H228684   5.321   3.885   2.993
 9581TIP3   OH228685   5.674   5.556   0.509
 9581TIP3    H128686   5.647   5.556   0.601
 9581TIP3    H228687   5.592   5.556   0.460
 9582TIP3   OH228688   3.829   5.154   2.215
 9582TIP3    H128689   3.907   5.182   2.166
 9582TIP3    H228690   3.785   5.093   2.157
 9583TIP3   OH228691   6.797   2.585   1.470
 9583TIP3    H128692   6.743   2.633   1.532
 9583TIP3    H228693   6.847   2.524   1.524
 9584TIP3   OH228694   3.787   2.663   6.510
 9584TIP3    H128695   3.803   2.572   6.486
 9584TIP3    H228696   3.839   2.677   6.589
 9585TIP3   OH228697   5.429   7.010   3.616
 9585TIP3    H128698   5.347   7.056   3.599
 9585TIP3    H228699   5.404   6.934   3.669
 9586TIP3   OH228700   2.334   0.881   0.760
 9586TIP3    H128701   2.396   0.927   0.817
 9586TIP3    H228702   2.248   0.902   0.797
 9587TIP3   OH228703   7.627   6.498   4.605
 9587TIP3    H128704   7.629   6.461   4.517
 9587TIP3    H228705   7.708   6.550   4.611
 9588TIP3   OH228706   0.952   5.778   4.874
 9588TIP3    H128707   0.982   5.702   4.824
 9588TIP3    H228708   1.013   5.848   4.851
 9589TIP3   OH228709   3.470   3.626   4.474
 9589TIP3    H128710   3.436   3.698   4.526
 9589TIP3    H228711   3.397   3.600   4.418
 9590TIP3   OH228712   8.198   2.340   6.358
 9590TIP3    H128713   8.166   2.363   6.445
 9590TIP3    H228714   8.168   2.411   6.301
 9591TIP3   OH228715   7.422   4.331   2.977
 9591TIP3    H128716   7.354   4.294   3.034
 9591TIP3    H228717   7.479   4.257   2.958
 9592TIP3   OH228718   5.128   4.200   5.471
 9592TIP3    H128719   5.125   4.106   5.485
 9592TIP3    H228720   5.164   4.235   5.553
 9593TIP3   OH228721   2.913   6.638   5.279
 9593TIP3    H128722   2.885   6.680   5.360
 9593TIP3    H228723   2.924   6.546   5.302
 9594TIP3   OH228724   4.035   1.213   5.475
 9594TIP3    H128725   4.107   1.233   5.415
 9594TIP3    H228726   4.065   1.137   5.525
 9595TIP3   OH228727   6.161   6.235   2.250
 9595TIP3    H128728   6.116   6.209   2.330
 9595TIP3    H228729   6.230   6.295   2.278
 9596TIP3   OH228730   6.163   6.141   1.433
 9596TIP3    H128731   6.198   6.211   1.489
 9596TIP3    H228732   6.239   6.088   1.410
 9597TIP3   OH228733   8.229   1.102   5.617
 9597TIP3    H128734   8.268   1.146   5.693
 9597TIP3    H228735   8.181   1.028   5.653
 9598TIP3   OH228736   1.007   6.892   4.535
 9598TIP3    H128737   1.089   6.843   4.542
 9598TIP3    H228738   1.033   6.977   4.500
 9599TIP3   OH228739   2.810   4.037   2.238
 9599TIP3    H128740   2.739   4.099   2.258
 9599TIP3    H228741   2.885   4.093   2.218
 9600TIP3   OH228742   8.133   0.829   3.988
 9600TIP3    H128743   8.129   0.892   4.060
 9600TIP3    H228744   8.206   0.771   4.012
 9601TIP3   OH228745   3.073   2.399   4.050
 9601TIP3    H128746   3.129   2.469   4.084
 9601TIP3    H228747   3.059   2.423   3.958
 9602TIP3   OH228748   1.051   2.857   0.882
 9602TIP3    H128749   1.060   2.772   0.926
 9602TIP3    H228750   1.044   2.835   0.789
 9603TIP3   OH228751   6.721   7.681   2.365
 9603TIP3    H128752   6.733   7.776   2.371
 9603TIP3    H228753   6.787   7.653   2.301
 9604TIP3   OH228754   2.532   4.577   0.644
 9604TIP3    H128755   2.453   4.533   0.674
 9604TIP3    H228756   2.543   4.651   0.705
 9605TIP3   OH228757   6.128   4.520   5.075
 9605TIP3    H128758   6.095   4.586   5.136
 9605TIP3    H228759   6.052   4.496   5.023
 9606TIP3   OH228760   2.839   6.501   6.141
 9606TIP3    H128761   2.750   6.518   6.110
 9606TIP3    H228762   2.851   6.563   6.213
 9607TIP3   OH228763   3.207   3.716   3.025
 9607TIP3    H128764   3.243   3.628   3.010
 9607TIP3    H228765   3.143   3.728   2.955
 9608TIP3   OH228766   7.803   0.972   2.653
 9608TIP3    H128767   7.795   1.067   2.649
 9608TIP3    H228768   7.879   0.956   2.710
 9609TIP3   OH228769   4.293   2.014   3.670
 9609TIP3    H128770   4.292   1.930   3.622
 9609TIP3    H228771   4.282   2.080   3.601
 9610TIP3   OH228772   6.456   1.836   3.653
 9610TIP3    H128773   6.501   1.901   3.598
 9610TIP3    H228774   6.492   1.752   3.625
 9611TIP3   OH228775   0.470   1.311   0.322
 9611TIP3    H128776   0.542   1.297   0.260
 9611TIP3    H228777   0.429   1.225   0.330
 9612TIP3   OH228778   2.566   6.826   2.729
 9612TIP3    H128779   2.529   6.739   2.716
 9612TIP3    H228780   2.509   6.885   2.680
 9613TIP3   OH228781   0.046   1.168   0.801
 9613TIP3    H128782   0.114   1.181   0.736
 9613TIP3    H228783  -0.008   1.097   0.766
 9614TIP3   OH228784   5.006   4.640   3.913
 9614TIP3    H128785   4.981   4.699   3.983
 9614TIP3    H228786   5.097   4.617   3.931
 9615TIP3   OH228787   7.550   6.712   2.635
 9615TIP3    H128788   7.499   6.784   2.672
 9615TIP3    H228789   7.617   6.694   2.701
 9616TIP3   OH228790  -0.015   7.037   6.759
 9616TIP3    H128791   0.060   6.982   6.781
 9616TIP3    H228792  -0.091   6.980   6.774
 9617TIP3   OH228793   6.015   0.501   3.466
 9617TIP3    H128794   6.046   0.582   3.505
 9617TIP3    H228795   5.964   0.459   3.535
 9618TIP3   OH228796   6.886   4.009   2.399
 9618TIP3    H128797   6.963   3.989   2.453
 9618TIP3    H228798   6.914   4.081   2.343
 9619TIP3   OH228799   4.295   7.197   0.286
 9619TIP3    H128800   4.273   7.286   0.314
 9619TIP3    H228801   4.313   7.150   0.368
 9620TIP3   OH228802   6.080   2.676   2.982
 9620TIP3    H128803   6.030   2.619   2.923
 9620TIP3    H228804   6.029   2.757   2.985
 9621TIP3   OH228805   4.771   1.771   2.421
 9621TIP3    H128806   4.789   1.860   2.391
 9621TIP3    H228807   4.768   1.718   2.342
 9622TIP3   OH228808   6.172   5.724   2.486
 9622TIP3    H128809   6.229   5.794   2.517
 9622TIP3    H228810   6.206   5.702   2.399
 9623TIP3   OH228811   1.506   4.285   2.739
 9623TIP3    H128812   1.600   4.292   2.755
 9623TIP3    H228813   1.486   4.192   2.751
 9624TIP3   OH228814   3.137   3.185   4.204
 9624TIP3    H128815   3.155   3.124   4.132
 9624TIP3    H228816   3.082   3.135   4.265
 9625TIP3   OH228817   2.792   4.857   6.671
 9625TIP3    H128818   2.850   4.799   6.622
 9625TIP3    H228819   2.850   4.925   6.705
 9626TIP3   OH228820   6.317   2.548   2.812
 9626TIP3    H128821   6.252   2.617   2.797
 9626TIP3    H228822   6.377   2.586   2.875
 9627TIP3   OH228823   6.257   1.919   2.935
 9627TIP3    H128824   6.201   1.941   2.861
 9627TIP3    H228825   6.287   1.830   2.917
 9628TIP3   OH228826   2.039   5.061   5.455
 9628TIP3    H128827   2.118   5.095   5.413
 9628TIP3    H228828   2.005   5.136   5.505
 9629TIP3   OH228829   1.673   0.458   0.743
 9629TIP3    H128830   1.733   0.529   0.720
 9629TIP3    H228831   1.730   0.383   0.761
 9630TIP3   OH228832   1.004   6.711   1.596
 9630TIP3    H128833   0.955   6.771   1.539
 9630TIP3    H228834   1.052   6.767   1.656
 9631TIP3   OH228835   0.448   6.046   1.124
 9631TIP3    H128836   0.525   6.034   1.179
 9631TIP3    H228837   0.479   6.029   1.035
 9632TIP3   OH228838   3.655   7.350   1.794
 9632TIP3    H128839   3.737   7.347   1.842
 9632TIP3    H228840   3.616   7.263   1.808
 9633TIP3   OH228841   1.548   4.701   1.557
 9633TIP3    H128842   1.548   4.619   1.508
 9633TIP3    H228843   1.462   4.739   1.538
 9634TIP3   OH228844   3.084   3.722   5.576
 9634TIP3    H128845   3.054   3.776   5.649
 9634TIP3    H228846   3.039   3.638   5.589
 9635TIP3   OH228847   2.924   0.009   5.775
 9635TIP3    H128848   2.857   0.077   5.785
 9635TIP3    H228849   2.994   0.036   5.835
 9636TIP3   OH228850   2.754   4.110   3.144
 9636TIP3    H128851   2.748   4.067   3.229
 9636TIP3    H228852   2.692   4.062   3.089
 9637TIP3   OH228853   4.433   2.120   2.018
 9637TIP3    H128854   4.361   2.158   2.069
 9637TIP3    H228855   4.474   2.057   2.078
 9638TIP3   OH228856   4.517   0.289   1.413
 9638TIP3    H128857   4.561   0.348   1.352
 9638TIP3    H228858   4.585   0.228   1.441
 9639TIP3   OH228859   4.169   5.061   4.827
 9639TIP3    H128860   4.090   5.012   4.847
 9639TIP3    H228861   4.201   5.090   4.912
 9640TIP3   OH228862   6.296   5.379   0.084
 9640TIP3    H128863   6.220   5.354   0.137
 9640TIP3    H228864   6.340   5.296   0.066
 9641TIP3   OH228865   2.843   7.241   6.048
 9641TIP3    H128866   2.881   7.211   6.131
 9641TIP3    H228867   2.768   7.294   6.075
 9642TIP3   OH228868   3.760   2.402   5.840
 9642TIP3    H128869   3.712   2.392   5.922
 9642TIP3    H228870   3.848   2.371   5.861
 9643TIP3   OH228871   5.826   3.192   3.318
 9643TIP3    H128872   5.880   3.201   3.397
 9643TIP3    H228873   5.743   3.157   3.350
 9644TIP3   OH228874   1.467   6.572   1.148
 9644TIP3    H128875   1.372   6.563   1.142
 9644TIP3    H228876   1.483   6.589   1.241
 9645TIP3   OH228877   1.708   3.747   1.448
 9645TIP3    H128878   1.643   3.788   1.504
 9645TIP3    H228879   1.677   3.763   1.359
 9646TIP3   OH228880   4.905   0.682   4.707
 9646TIP3    H128881   4.951   0.679   4.790
 9646TIP3    H228882   4.973   0.701   4.642
 9647TIP3   OH228883   8.121   5.087   0.730
 9647TIP3    H128884   8.143   5.101   0.639
 9647TIP3    H228885   8.188   5.028   0.764
 9648TIP3   OH228886   4.738   1.210   4.387
 9648TIP3    H128887   4.696   1.124   4.378
 9648TIP3    H228888   4.724   1.252   4.303
 9649TIP3   OH228889   0.152   2.864   3.887
 9649TIP3    H128890   0.063   2.897   3.883
 9649TIP3    H228891   0.198   2.909   3.815
 9650TIP3   OH228892   2.525   1.945   1.126
 9650TIP3    H128893   2.546   2.033   1.094
 9650TIP3    H228894   2.446   1.920   1.078
 9651TIP3   OH228895   7.399   0.364   6.416
 9651TIP3    H128896   7.354   0.436   6.460
 9651TIP3    H228897   7.475   0.346   6.471
 9652TIP3   OH228898   0.951   3.123   5.079
 9652TIP3    H128899   0.875   3.145   5.025
 9652TIP3    H228900   1.026   3.153   5.027
 9653TIP3   OH228901   4.945   5.485   5.333
 9653TIP3    H128902   4.887   5.413   5.311
 9653TIP3    H228903   4.933   5.549   5.263
 9654TIP3   OH228904   8.081   3.078   5.167
 9654TIP3    H128905   8.159   3.133   5.170
 9654TIP3    H228906   8.018   3.129   5.115
 9655TIP3   OH228907   2.103   6.914   3.685
 9655TIP3    H128908   2.080   6.956   3.602
 9655TIP3    H228909   2.119   6.987   3.745
 9656TIP3   OH228910   3.084   2.265   4.961
 9656TIP3    H128911   3.109   2.248   4.870
 9656TIP3    H228912   3.004   2.213   4.973
 9657TIP3   OH228913   4.322   2.212   0.946
 9657TIP3    H128914   4.303   2.305   0.960
 9657TIP3    H228915   4.364   2.208   0.860
 9658TIP3   OH228916   0.406   2.416   3.186
 9658TIP3    H128917   0.361   2.454   3.110
 9658TIP3    H228918   0.482   2.472   3.200
 9659TIP3   OH228919   2.612   7.254   5.642
 9659TIP3    H128920   2.669   7.243   5.566
 9659TIP3    H228921   2.525   7.271   5.605
 9660TIP3   OH228922   2.089   0.822   1.466
 9660TIP3    H128923   2.020   0.865   1.517
 9660TIP3    H228924   2.053   0.735   1.447
 9661TIP3   OH228925   1.942   1.634   0.561
 9661TIP3    H128926   1.929   1.688   0.639
 9661TIP3    H228927   2.012   1.573   0.585
 9662TIP3   OH228928   2.109   1.499   3.268
 9662TIP3    H128929   2.039   1.536   3.215
 9662TIP3    H228930   2.096   1.404   3.262
 9663TIP3   OH228931   4.590   3.374   6.302
 9663TIP3    H128932   4.614   3.327   6.381
 9663TIP3    H228933   4.673   3.394   6.259
 9664TIP3   OH228934   2.291   1.979   2.101
 9664TIP3    H128935   2.320   2.064   2.133
 9664TIP3    H228936   2.219   1.954   2.159
 9665TIP3   OH228937   0.892   0.543   4.407
 9665TIP3    H128938   0.964   0.551   4.344
 9665TIP3    H228939   0.856   0.632   4.413
 9666TIP3   OH228940   7.889   2.724   4.655
 9666TIP3    H128941   7.845   2.805   4.678
 9666TIP3    H228942   7.940   2.745   4.576
 9667TIP3   OH228943   5.234   2.668   1.363
 9667TIP3    H128944   5.190   2.603   1.308
 9667TIP3    H228945   5.304   2.620   1.406
 9668TIP3   OH228946   8.241   0.736   5.348
 9668TIP3    H128947   8.315   0.794   5.366
 9668TIP3    H228948   8.236   0.731   5.253
 9669TIP3   OH228949   0.877  -0.039   6.757
 9669TIP3    H128950   0.801  -0.007   6.806
 9669TIP3    H228951   0.857  -0.018   6.666
 9670TIP3   OH228952   7.771   3.964   3.035
 9670TIP3    H128953   7.828   3.989   2.962
 9670TIP3    H228954   7.822   3.983   3.113
 9671TIP3   OH228955   3.718   4.478   2.385
 9671TIP3    H128956   3.754   4.389   2.381
 9671TIP3    H228957   3.793   4.532   2.409
 9672TIP3   OH228958   2.254   3.353   1.825
 9672TIP3    H128959   2.300   3.295   1.884
 9672TIP3    H228960   2.161   3.336   1.842
 9673TIP3   OH228961   6.146   1.946   2.415
 9673TIP3    H128962   6.213   1.972   2.352
 9673TIP3    H228963   6.081   2.016   2.412
 9674TIP3   OH228964   2.619   7.413   0.865
 9674TIP3    H128965   2.574   7.361   0.931
 9674TIP3    H228966   2.553   7.475   0.834
 9675TIP3   OH228967   3.160   0.567   5.398
 9675TIP3    H128968   3.232   0.612   5.354
 9675TIP3    H228969   3.203   0.509   5.461
 9676TIP3   OH228970   0.636   2.239   2.955
 9676TIP3    H128971   0.631   2.144   2.966
 9676TIP3    H228972   0.573   2.258   2.886
 9677TIP3   OH228973   0.184   7.694   1.980
 9677TIP3    H128974   0.165   7.636   1.906
 9677TIP3    H228975   0.098   7.718   2.014
 9678TIP3   OH228976   6.129   5.110   4.722
 9678TIP3    H128977   6.093   5.076   4.640
 9678TIP3    H228978   6.160   5.198   4.700
 9679TIP3   OH228979   2.129   0.953   4.577
 9679TIP3    H128980   2.097   1.043   4.566
 9679TIP3    H228981   2.099   0.908   4.498
 9680TIP3   OH228982   8.062   6.542   2.164
 9680TIP3    H128983   8.012   6.589   2.098
 9680TIP3    H228984   8.083   6.608   2.230
 9681TIP3   OH228985   2.941   0.983   4.874
 9681TIP3    H128986   2.871   1.041   4.904
 9681TIP3    H228987   2.984   0.952   4.954
 9682TIP3   OH228988   6.532   2.402   2.688
 9682TIP3    H128989   6.445   2.442   2.692
 9682TIP3    H228990   6.556   2.388   2.779
 9683TIP3   OH228991   7.427   4.737   0.952
 9683TIP3    H128992   7.418   4.760   1.045
 9683TIP3    H228993   7.521   4.744   0.935
 9684TIP3   OH228994   8.113   2.597   4.900
 9684TIP3    H128995   8.094   2.690   4.893
 9684TIP3    H228996   8.176   2.590   4.972
 9685TIP3   OH228997   3.446   1.434   5.480
 9685TIP3    H128998   3.462   1.391   5.396
 9685TIP3    H228999   3.515   1.400   5.537
 9686TIP3   OH229000   5.241   2.989   3.240
 9686TIP3    H129001   5.326   2.950   3.258
 9686TIP3    H229002   5.261   3.081   3.222
 9687TIP3   OH229003   1.865   7.414   3.236
 9687TIP3    H129004   1.928   7.392   3.168
 9687TIP3    H229005   1.875   7.509   3.248
 9688TIP3   OH229006   1.572   0.178   1.544
 9688TIP3    H129007   1.643   0.236   1.517
 9688TIP3    H229008   1.517   0.232   1.601
 9689TIP3   OH229009   1.323   5.181   2.787
 9689TIP3    H129010   1.300   5.147   2.701
 9689TIP3    H229011   1.315   5.276   2.779
 9690TIP3   OH229012   8.153   4.626   5.823
 9690TIP3    H129013   8.114   4.688   5.761
 9690TIP3    H229014   8.238   4.604   5.785
 9691TIP3   OH229015   4.150   1.450   4.109
 9691TIP3    H129016   4.149   1.386   4.180
 9691TIP3    H229017   4.171   1.398   4.031
 9692TIP3   OH229018   5.889   6.282   5.487
 9692TIP3    H129019   5.900   6.210   5.424
 9692TIP3    H229020   5.830   6.246   5.554
 9693TIP3   OH229021   3.963   4.296   5.744
 9693TIP3    H129022   3.934   4.254   5.825
 9693TIP3    H229023   3.925   4.383   5.747
 9694TIP3   OH229024   6.056   3.146   2.979
 9694TIP3    H129025   6.132   3.143   3.037
 9694TIP3    H229026   6.091   3.126   2.892
 9695TIP3   OH229027   0.104   0.884   2.693
 9695TIP3    H129028   0.120   0.888   2.787
 9695TIP3    H229029   0.040   0.952   2.676
 9696TIP3   OH229030   2.424   6.461   5.585
 9696TIP3    H129031   2.511   6.458   5.546
 9696TIP3    H229032   2.367   6.490   5.514
 9697TIP3   OH229033   0.267   2.377   3.445
 9697TIP3    H129034   0.316   2.379   3.362
 9697TIP3    H229035   0.326   2.334   3.507
 9698TIP3   OH229036   4.036   3.694   4.916
 9698TIP3    H129037   4.020   3.786   4.934
 9698TIP3    H229038   4.043   3.654   5.003
 9699TIP3   OH229039   4.283   6.879   3.493
 9699TIP3    H129040   4.248   6.802   3.538
 9699TIP3    H229041   4.234   6.952   3.531
 9700TIP3   OH229042   2.507   5.392   6.758
 9700TIP3    H129043   2.460   5.474   6.743
 9700TIP3    H229044   2.439   5.325   6.751
 9701TIP3   OH229045   5.463   0.079   1.219
 9701TIP3    H129046   5.447   0.155   1.275
 9701TIP3    H229047   5.558   0.081   1.203
 9702TIP3   OH229048   4.352   5.449   5.617
 9702TIP3    H129049   4.347   5.541   5.593
 9702TIP3    H229050   4.280   5.407   5.569
 9703TIP3   OH229051   2.003   4.907   0.350
 9703TIP3    H129052   1.923   4.858   0.367
 9703TIP3    H229053   1.978   4.999   0.361
 9704TIP3   OH229054   2.279   1.750   4.057
 9704TIP3    H129055   2.279   1.806   3.979
 9704TIP3    H229056   2.205   1.691   4.044
 9705TIP3   OH229057   4.702   4.407   2.934
 9705TIP3    H129058   4.718   4.371   3.022
 9705TIP3    H229059   4.767   4.364   2.879
 9706TIP3   OH229060   3.673   6.724   5.882
 9706TIP3    H129061   3.719   6.655   5.834
 9706TIP3    H229062   3.580   6.709   5.862
 9707TIP3   OH229063   5.614   2.394   0.105
 9707TIP3    H129064   5.688   2.333   0.106
 9707TIP3    H229065   5.545   2.349   0.154
 9708TIP3   OH229066   3.429   5.860   0.515
 9708TIP3    H129067   3.336   5.877   0.534
 9708TIP3    H229068   3.475   5.892   0.593
 9709TIP3   OH229069   7.655   1.519   3.116
 9709TIP3    H129070   7.571   1.565   3.117
 9709TIP3    H229071   7.694   1.536   3.202
 9710TIP3   OH229072   3.138   1.833   3.546
 9710TIP3    H129073   3.181   1.751   3.568
 9710TIP3    H229074   3.134   1.881   3.628
 9711TIP3   OH229075   2.779   6.537   3.057
 9711TIP3    H129076   2.722   6.461   3.072
 9711TIP3    H229077   2.723   6.613   3.070
 9712TIP3   OH229078   7.918   0.428   0.663
 9712TIP3    H129079   7.921   0.390   0.575
 9712TIP3    H229080   7.896   0.520   0.648
 9713TIP3   OH229081   6.435   4.009   5.888
 9713TIP3    H129082   6.401   3.945   5.951
 9713TIP3    H229083   6.488   4.069   5.941
 9714TIP3   OH229084   0.733   3.836   3.621
 9714TIP3    H129085   0.774   3.880   3.696
 9714TIP3    H229086   0.743   3.897   3.548
 9715TIP3   OH229087   5.380   3.716   1.002
 9715TIP3    H129088   5.426   3.662   1.067
 9715TIP3    H229089   5.393   3.806   1.032
 9716TIP3   OH229090   4.062   6.126   0.415
 9716TIP3    H129091   4.112   6.181   0.475
 9716TIP3    H229092   4.052   6.043   0.462
 9717TIP3   OH229093   6.906   3.891   1.222
 9717TIP3    H129094   6.842   3.821   1.234
 9717TIP3    H229095   6.979   3.867   1.280
 9718TIP3   OH229096   6.919   6.319   2.980
 9718TIP3    H129097   6.995   6.303   3.036
 9718TIP3    H229098   6.947   6.388   2.920
 9719TIP3   OH229099   7.598   5.378   2.211
 9719TIP3    H129100   7.527   5.404   2.152
 9719TIP3    H229101   7.665   5.446   2.199
 9720TIP3   OH229102   7.530   3.025   5.481
 9720TIP3    H129103   7.519   3.117   5.504
 9720TIP3    H229104   7.536   2.980   5.565
 9721TIP3   OH229105   2.498   7.183   0.420
 9721TIP3    H129106   2.441   7.148   0.351
 9721TIP3    H229107   2.520   7.271   0.391
 9722TIP3   OH229108   7.818   2.403   5.172
 9722TIP3    H129109   7.796   2.495   5.184
 9722TIP3    H229110   7.854   2.375   5.256
 9723TIP3   OH229111   6.141   1.099   5.821
 9723TIP3    H129112   6.225   1.085   5.778
 9723TIP3    H229113   6.156   1.075   5.913
 9724TIP3   OH229114   3.551   4.711   2.409
 9724TIP3    H129115   3.577   4.788   2.359
 9724TIP3    H229116   3.620   4.647   2.391
 9725TIP3   OH229117   3.140   1.038   0.766
 9725TIP3    H129118   3.131   1.034   0.671
 9725TIP3    H229119   3.221   0.990   0.784
 9726TIP3   OH229120   3.269   5.824   1.978
 9726TIP3    H129121   3.274   5.751   1.916
 9726TIP3    H229122   3.179   5.855   1.972
 9727TIP3   OH229123   0.288   1.982   2.834
 9727TIP3    H129124   0.215   1.922   2.825
 9727TIP3    H229125   0.345   1.941   2.899
 9728TIP3   OH229126   6.079   6.903   4.663
 9728TIP3    H129127   6.081   6.969   4.732
 9728TIP3    H229128   6.154   6.924   4.607
 9729TIP3   OH229129   3.123   3.873   4.493
 9729TIP3    H129130   3.099   3.927   4.569
 9729TIP3    H229131   3.080   3.916   4.419
 9730TIP3   OH229132   3.508   7.437   5.848
 9730TIP3    H129133   3.493   7.496   5.922
 9730TIP3    H229134   3.456   7.359   5.868
 9731TIP3   OH229135   7.806   2.929   4.928
 9731TIP3    H129136   7.765   2.972   5.003
 9731TIP3    H229137   7.898   2.923   4.951
 9732TIP3   OH229138   5.951   5.661   1.467
 9732TIP3    H129139   6.009   5.603   1.418
 9732TIP3    H229140   5.897   5.603   1.520
 9733TIP3   OH229141   2.214   3.407   0.838
 9733TIP3    H129142   2.290   3.356   0.866
 9733TIP3    H229143   2.252   3.478   0.785
 9734TIP3   OH229144   1.022   2.584   1.036
 9734TIP3    H129145   0.939   2.630   1.051
 9734TIP3    H229146   1.006   2.495   1.069
 9735TIP3   OH229147   5.953   1.502   0.037
 9735TIP3    H129148   5.927   1.583   0.081
 9735TIP3    H229149   6.048   1.497   0.048
 9736TIP3   OH229150   1.425   4.398   3.847
 9736TIP3    H129151   1.386   4.462   3.786
 9736TIP3    H229152   1.406   4.434   3.933
 9737TIP3   OH229153   2.635   7.320   6.253
 9737TIP3    H129154   2.651   7.256   6.322
 9737TIP3    H229155   2.673   7.401   6.286
 9738TIP3   OH229156   7.522   0.727   5.475
 9738TIP3    H129157   7.532   0.821   5.460
 9738TIP3    H229158   7.597   0.687   5.432
 9739TIP3   OH229159   4.416   0.395   6.363
 9739TIP3    H129160   4.463   0.453   6.423
 9739TIP3    H229161   4.418   0.309   6.405
 9740TIP3   OH229162   8.039   2.860   3.452
 9740TIP3    H129163   8.124   2.887   3.487
 9740TIP3    H229164   8.056   2.778   3.407
 9741TIP3   OH229165   0.505   6.416   3.747
 9741TIP3    H129166   0.586   6.467   3.752
 9741TIP3    H229167   0.515   6.348   3.814
 9742TIP3   OH229168   4.683   0.176   4.416
 9742TIP3    H129169   4.678   0.081   4.419
 9742TIP3    H229170   4.598   0.206   4.450
 9743TIP3   OH229171   0.635   0.735   4.884
 9743TIP3    H129172   0.632   0.678   4.961
 9743TIP3    H229173   0.587   0.687   4.816
 9744TIP3   OH229174   2.393   0.197   3.883
 9744TIP3    H129175   2.449   0.167   3.811
 9744TIP3    H229176   2.410   0.135   3.954
 9745TIP3   OH229177   7.895   0.729   3.940
 9745TIP3    H129178   7.979   0.772   3.952
 9745TIP3    H229179   7.849   0.782   3.875
 9746TIP3   OH229180   7.333   1.026   6.441
 9746TIP3    H129181   7.254   1.077   6.424
 9746TIP3    H229182   7.326   1.001   6.533
 9747TIP3   OH229183   1.807   4.299   6.680
 9747TIP3    H129184   1.893   4.329   6.650
 9747TIP3    H229185   1.797   4.341   6.766
 9748TIP3   OH229186   3.817   4.061   4.683
 9748TIP3    H129187   3.767   3.980   4.692
 9748TIP3    H229188   3.771   4.111   4.616
 9749TIP3   OH229189   3.416   7.033   4.186
 9749TIP3    H129190   3.368   7.107   4.223
 9749TIP3    H229191   3.351   6.963   4.181
 9750TIP3   OH229192   0.538   3.095   2.554
 9750TIP3    H129193   0.571   3.169   2.504
 9750TIP3    H229194   0.532   3.024   2.490
 9751TIP3   OH229195   0.210   5.739   3.988
 9751TIP3    H129196   0.140   5.704   4.044
 9751TIP3    H229197   0.202   5.834   3.996
 9752TIP3   OH229198   7.978   5.198   5.150
 9752TIP3    H129199   8.044   5.128   5.147
 9752TIP3    H229200   7.921   5.174   5.223
 9753TIP3   OH229201   3.937   7.761   6.316
 9753TIP3    H129202   3.909   7.829   6.254
 9753TIP3    H229203   3.930   7.680   6.267
 9754TIP3   OH229204   7.827   4.513   6.542
 9754TIP3    H129205   7.788   4.518   6.455
 9754TIP3    H229206   7.895   4.580   6.541
 9755TIP3   OH229207   0.239   0.334   2.677
 9755TIP3    H129208   0.313   0.291   2.633
 9755TIP3    H229209   0.251   0.427   2.658
 9756TIP3   OH229210   2.434   3.563   1.935
 9756TIP3    H129211   2.413   3.582   2.027
 9756TIP3    H229212   2.362   3.507   1.905
 9757TIP3   OH229213   5.826   5.045   4.783
 9757TIP3    H129214   5.910   5.087   4.764
 9757TIP3    H229215   5.786   5.100   4.850
 9758TIP3   OH229216   5.893   2.597   3.858
 9758TIP3    H129217   5.931   2.552   3.933
 9758TIP3    H229218   5.847   2.529   3.810
 9759TIP3   OH229219   2.294   4.759   4.636
 9759TIP3    H129220   2.370   4.734   4.689
 9759TIP3    H229221   2.221   4.711   4.675
 9760TIP3   OH229222   7.540   1.089   3.472
 9760TIP3    H129223   7.528   1.029   3.546
 9760TIP3    H229224   7.500   1.171   3.500
 9761TIP3   OH229225   1.749   1.413   0.520
 9761TIP3    H129226   1.835   1.455   0.524
 9761TIP3    H229227   1.699   1.454   0.590
 9762TIP3   OH229228   6.514   7.563   3.300
 9762TIP3    H129229   6.543   7.472   3.309
 9762TIP3    H229230   6.439   7.558   3.240
 9763TIP3   OH229231   3.309   5.995   1.292
 9763TIP3    H129232   3.225   6.031   1.263
 9763TIP3    H229233   3.327   6.039   1.375
 9764TIP3   OH229234   4.441   4.158   4.241
 9764TIP3    H129235   4.517   4.199   4.199
 9764TIP3    H229236   4.423   4.212   4.318
 9765TIP3   OH229237   0.003   6.558   5.498
 9765TIP3    H129238   0.062   6.500   5.546
 9765TIP3    H229239   0.046   6.571   5.414
 9766TIP3   OH229240   5.451   3.882   2.780
 9766TIP3    H129241   5.387   3.811   2.770
 9766TIP3    H229242   5.533   3.837   2.803
 9767TIP3   OH229243   6.555   5.415   2.754
 9767TIP3    H129244   6.465   5.418   2.723
 9767TIP3    H229245   6.605   5.461   2.687
 9768TIP3   OH229246   2.108   3.872   2.600
 9768TIP3    H129247   2.043   3.849   2.667
 9768TIP3    H229248   2.155   3.791   2.584
 9769TIP3   OH229249   4.576   0.459   0.791
 9769TIP3    H129250   4.635   0.409   0.848
 9769TIP3    H229251   4.507   0.397   0.769
 9770TIP3   OH229252   6.791   3.642   6.127
 9770TIP3    H129253   6.855   3.620   6.195
 9770TIP3    H229254   6.706   3.632   6.171
 9771TIP3   OH229255   0.469   5.575   5.259
 9771TIP3    H129256   0.485   5.535   5.344
 9771TIP3    H229257   0.409   5.515   5.215
 9772TIP3   OH229258   2.028   3.919   6.091
 9772TIP3    H129259   2.110   3.891   6.131
 9772TIP3    H229260   2.035   3.891   6.000
 9773TIP3   OH229261   3.229   0.750   5.954
 9773TIP3    H129262   3.312   0.795   5.965
 9773TIP3    H229263   3.164   0.820   5.950
 9774TIP3   OH229264   3.264   0.454   6.026
 9774TIP3    H129265   3.284   0.406   5.946
 9774TIP3    H229266   3.335   0.517   6.035
 9775TIP3   OH229267   1.381   5.936  -0.005
 9775TIP3    H129268   1.340   5.855   0.024
 9775TIP3    H229269   1.383   5.992   0.072
 9776TIP3   OH229270   1.620   0.261   2.558
 9776TIP3    H129271   1.626   0.165   2.555
 9776TIP3    H229272   1.526   0.279   2.558
 9777TIP3   OH229273   5.728   0.426   2.294
 9777TIP3    H129274   5.677   0.345   2.295
 9777TIP3    H229275   5.736   0.450   2.386
 9778TIP3   OH229276   3.373   4.390   0.503
 9778TIP3    H129277   3.439   4.324   0.523
 9778TIP3    H229278   3.305   4.377   0.568
 9779TIP3   OH229279   5.525   0.508   2.616
 9779TIP3    H129280   5.528   0.414   2.596
 9779TIP3    H229281   5.556   0.513   2.707
 9780TIP3   OH229282   2.208   5.258   1.572
 9780TIP3    H129283   2.164   5.241   1.655
 9780TIP3    H229284   2.162   5.201   1.509
 9781TIP3   OH229285   7.890   4.365   5.542
 9781TIP3    H129286   7.902   4.413   5.624
 9781TIP3    H229287   7.898   4.433   5.474
 9782TIP3   OH229288   6.298   2.663   0.715
 9782TIP3    H129289   6.331   2.749   0.689
 9782TIP3    H229290   6.289   2.669   0.810
 9783TIP3   OH229291   5.062   2.454   0.801
 9783TIP3    H129292   5.061   2.431   0.708
 9783TIP3    H229293   5.129   2.397   0.839
 9784TIP3   OH229294   1.128   5.823   1.734
 9784TIP3    H129295   1.153   5.753   1.794
 9784TIP3    H229296   1.052   5.865   1.775
 9785TIP3   OH229297   4.816   2.305   3.392
 9785TIP3    H129298   4.841   2.287   3.301
 9785TIP3    H229299   4.735   2.256   3.405
 9786TIP3   OH229300   4.779   0.586   6.219
 9786TIP3    H129301   4.709   0.580   6.285
 9786TIP3    H229302   4.733   0.605   6.137
 9787TIP3   OH229303   2.292   2.312   0.964
 9787TIP3    H129304   2.371   2.303   0.911
 9787TIP3    H229305   2.252   2.394   0.936
 9788TIP3   OH229306   2.147   2.600   1.195
 9788TIP3    H129307   2.062   2.558   1.178
 9788TIP3    H229308   2.159   2.658   1.120
 9789TIP3   OH229309   0.877   2.292   3.448
 9789TIP3    H129310   0.851   2.383   3.467
 9789TIP3    H229311   0.824   2.268   3.372
 9790TIP3   OH229312   2.514   0.072   5.888
 9790TIP3    H129313   2.523   0.159   5.927
 9790TIP3    H229314   2.554   0.081   5.801
 9791TIP3   OH229315   8.203   2.131   6.590
 9791TIP3    H129316   8.159   2.212   6.615
 9791TIP3    H229317   8.238   2.097   6.673
 9792TIP3   OH229318   1.628   2.290   4.964
 9792TIP3    H129319   1.543   2.335   4.966
 9792TIP3    H229320   1.678   2.330   5.035
 9793TIP3   OH229321   5.724   6.706   6.324
 9793TIP3    H129322   5.633   6.691   6.299
 9793TIP3    H229323   5.718   6.750   6.409
 9794TIP3   OH229324   4.156   4.299   4.258
 9794TIP3    H129325   4.104   4.232   4.300
 9794TIP3    H229326   4.226   4.318   4.320
 9795TIP3   OH229327   2.416   4.087   3.323
 9795TIP3    H129328   2.460   4.170   3.304
 9795TIP3    H229329   2.348   4.109   3.386
 9796TIP3   OH229330   3.222   7.707   1.199
 9796TIP3    H129331   3.297   7.754   1.235
 9796TIP3    H229332   3.257   7.655   1.127
 9797TIP3   OH229333   0.935   5.277   2.840
 9797TIP3    H129334   0.930   5.372   2.836
 9797TIP3    H229335   1.006   5.253   2.780
 9798TIP3   OH229336   6.428   5.643   1.986
 9798TIP3    H129337   6.494   5.579   1.956
 9798TIP3    H229338   6.479   5.721   2.008
 9799TIP3   OH229339   7.597   0.074   1.694
 9799TIP3    H129340   7.538   0.040   1.627
 9799TIP3    H229341   7.684   0.055   1.662
 9800TIP3   OH229342   0.076   3.971   3.877
 9800TIP3    H129343   0.100   3.892   3.829
 9800TIP3    H229344   0.038   3.939   3.959
 9801TIP3   OH229345   1.064   7.553   2.366
 9801TIP3    H129346   1.033   7.626   2.312
 9801TIP3    H229347   1.128   7.594   2.426
 9802TIP3   OH229348   7.515   0.288   1.343
 9802TIP3    H129349   7.432   0.300   1.390
 9802TIP3    H229350   7.509   0.200   1.305
 9803TIP3   OH229351   0.169   0.711   6.267
 9803TIP3    H129352   0.149   0.754   6.350
 9803TIP3    H229353   0.210   0.628   6.293
 9804TIP3   OH229354   7.501   4.889   5.762
 9804TIP3    H129355   7.549   4.970   5.745
 9804TIP3    H229356   7.568   4.828   5.794
 9805TIP3   OH229357   0.506   2.396   4.327
 9805TIP3    H129358   0.571   2.462   4.305
 9805TIP3    H229359   0.544   2.351   4.403
 9806TIP3   OH229360   7.365   7.348   1.089
 9806TIP3    H129361   7.342   7.371   0.999
 9806TIP3    H229362   7.334   7.421   1.142
 9807TIP3   OH229363   5.018   1.066   4.478
 9807TIP3    H129364   4.949   1.046   4.540
 9807TIP3    H229365   5.097   1.076   4.532
 9808TIP3   OH229366   1.074   7.529   3.259
 9808TIP3    H129367   1.164   7.495   3.255
 9808TIP3    H229368   1.046   7.533   3.168
 9809TIP3   OH229369   4.324   3.687   1.659
 9809TIP3    H129370   4.416   3.667   1.642
 9809TIP3    H229371   4.276   3.615   1.618
 9810TIP3   OH229372   1.621   2.195   2.610
 9810TIP3    H129373   1.656   2.203   2.699
 9810TIP3    H229374   1.654   2.111   2.578
 9811TIP3   OH229375   1.833   5.886   2.299
 9811TIP3    H129376   1.914   5.927   2.330
 9811TIP3    H229377   1.841   5.794   2.325
 9812TIP3   OH229378   4.886   6.279   4.971
 9812TIP3    H129379   4.961   6.283   5.030
 9812TIP3    H229380   4.907   6.343   4.903
 9813TIP3   OH229381   7.106   7.627   6.309
 9813TIP3    H129382   7.116   7.550   6.364
 9813TIP3    H229383   7.024   7.613   6.262
 9814TIP3   OH229384   7.154   7.350   1.426
 9814TIP3    H129385   7.225   7.353   1.490
 9814TIP3    H229386   7.184   7.405   1.354
 9815TIP3   OH229387   0.195   5.011   4.961
 9815TIP3    H129388   0.267   5.073   4.963
 9815TIP3    H229389   0.209   4.959   4.882
 9816TIP3   OH229390   4.856   5.766   0.386
 9816TIP3    H129391   4.884   5.800   0.472
 9816TIP3    H229392   4.853   5.671   0.398
 9817TIP3   OH229393   6.218   6.579   2.365
 9817TIP3    H129394   6.268   6.499   2.349
 9817TIP3    H229395   6.141   6.549   2.414
 9818TIP3   OH229396   4.825   4.387   4.445
 9818TIP3    H129397   4.883   4.456   4.476
 9818TIP3    H229398   4.861   4.307   4.482
 9819TIP3   OH229399   3.315   4.679   0.077
 9819TIP3    H129400   3.384   4.614   0.094
 9819TIP3    H229401   3.261   4.641   0.008
 9820TIP3   OH229402   0.090   0.065   4.711
 9820TIP3    H129403   0.159  -0.001   4.716
 9820TIP3    H229404   0.120   0.135   4.769
 9821TIP3   OH229405   5.113   1.532   3.227
 9821TIP3    H129406   5.147   1.592   3.161
 9821TIP3    H229407   5.146   1.565   3.310
 9822TIP3   OH229408   0.485   6.228   5.564
 9822TIP3    H129409   0.494   6.256   5.655
 9822TIP3    H229410   0.515   6.137   5.564
 9823TIP3   OH229411   2.288   4.865   6.010
 9823TIP3    H129412   2.242   4.829   5.934
 9823TIP3    H229413   2.225   4.856   6.082
 9824TIP3   OH229414   5.169   2.525   4.333
 9824TIP3    H129415   5.236   2.531   4.402
 9824TIP3    H229416   5.194   2.594   4.271
 9825TIP3   OH229417   6.450   1.106   2.714
 9825TIP3    H129418   6.486   1.054   2.642
 9825TIP3    H229419   6.358   1.120   2.690
 9826TIP3   OH229420   1.925   6.305   5.668
 9826TIP3    H129421   2.002   6.297   5.612
 9826TIP3    H229422   1.947   6.374   5.730
 9827TIP3   OH229423   3.412   7.250   5.193
 9827TIP3    H129424   3.379   7.287   5.275
 9827TIP3    H229425   3.457   7.323   5.150
 9828TIP3   OH229426   1.235   4.137   6.366
 9828TIP3    H129427   1.330   4.125   6.357
 9828TIP3    H229428   1.221   4.144   6.460
 9829TIP3   OH229429   2.617   7.077   6.441
 9829TIP3    H129430   2.580   7.001   6.487
 9829TIP3    H229431   2.711   7.057   6.434
 9830TIP3   OH229432   2.882   6.143   6.564
 9830TIP3    H129433   2.828   6.212   6.523
 9830TIP3    H229434   2.826   6.065   6.562
 9831TIP3   OH229435   5.943   6.049   1.313
 9831TIP3    H129436   6.023   6.060   1.364
 9831TIP3    H229437   5.890   6.126   1.333
 9832TIP3   OH229438   1.150   5.618   2.458
 9832TIP3    H129439   1.181   5.700   2.496
 9832TIP3    H229440   1.123   5.565   2.533
 9833TIP3   OH229441   7.981   6.169   0.437
 9833TIP3    H129442   8.070   6.170   0.400
 9833TIP3    H229443   7.994   6.189   0.530
 9834TIP3   OH229444   2.455   6.618   5.147
 9834TIP3    H129445   2.508   6.647   5.221
 9834TIP3    H229446   2.464   6.687   5.082
 9835TIP3   OH229447   6.315   3.882   4.077
 9835TIP3    H129448   6.394   3.920   4.039
 9835TIP3    H229449   6.244   3.941   4.050
 9836TIP3   OH229450   0.390   2.345   1.706
 9836TIP3    H129451   0.406   2.421   1.762
 9836TIP3    H229452   0.460   2.348   1.640
 9837TIP3   OH229453   1.239   2.162   5.512
 9837TIP3    H129454   1.233   2.256   5.493
 9837TIP3    H229455   1.189   2.120   5.443
 9838TIP3   OH229456   3.059   6.989   3.511
 9838TIP3    H129457   3.017   7.022   3.432
 9838TIP3    H229458   3.087   7.068   3.558
 9839TIP3   OH229459   6.079   3.449   2.888
 9839TIP3    H129460   5.991   3.438   2.851
 9839TIP3    H229461   6.122   3.365   2.875
 9840TIP3   OH229462   3.371   6.569   2.274
 9840TIP3    H129463   3.377   6.497   2.336
 9840TIP3    H229464   3.337   6.643   2.324
 9841TIP3   OH229465   1.476   3.228   3.224
 9841TIP3    H129466   1.552   3.220   3.167
 9841TIP3    H229467   1.401   3.201   3.170
 9842TIP3   OH229468   1.769   3.736   0.434
 9842TIP3    H129469   1.760   3.665   0.370
 9842TIP3    H229470   1.692   3.727   0.490
 9843TIP3   OH229471   0.821   3.947   5.976
 9843TIP3    H129472   0.741   3.985   6.011
 9843TIP3    H229473   0.890   4.011   5.997
 9844TIP3   OH229474   0.547   0.078   0.612
 9844TIP3    H129475   0.565   0.034   0.695
 9844TIP3    H229476   0.492   0.153   0.635
 9845TIP3   OH229477   0.642   7.599   0.152
 9845TIP3    H129478   0.668   7.594   0.060
 9845TIP3    H229479   0.707   7.656   0.192
 9846TIP3   OH229480   4.129   3.878   1.689
 9846TIP3    H129481   4.176   3.796   1.676
 9846TIP3    H229482   4.197   3.945   1.688
 9847TIP3   OH229483   1.019   2.955   0.133
 9847TIP3    H129484   1.081   2.950   0.206
 9847TIP3    H229485   1.038   2.879   0.079
 9848TIP3   OH229486   1.194   7.736   5.958
 9848TIP3    H129487   1.140   7.779   5.891
 9848TIP3    H229488   1.136   7.725   6.033
 9849TIP3   OH229489   2.919   1.802   6.395
 9849TIP3    H129490   2.855   1.850   6.343
 9849TIP3    H229491   2.999   1.803   6.342
 9850TIP3   OH229492   1.605   3.054   0.109
 9850TIP3    H129493   1.677   3.000   0.142
 9850TIP3    H229494   1.533   3.038   0.170
 9851TIP3   OH229495   6.751   7.560   0.030
 9851TIP3    H129496   6.731   7.466   0.023
 9851TIP3    H229497   6.694   7.590   0.101
 9852TIP3   OH229498   0.486   6.822   4.032
 9852TIP3    H129499   0.520   6.733   4.041
 9852TIP3    H229500   0.509   6.848   3.943
 9853TIP3   OH229501   0.667   5.482   0.245
 9853TIP3    H129502   0.730   5.415   0.218
 9853TIP3    H229503   0.706   5.521   0.323
 9854TIP3   OH229504   7.875   7.785   0.663
 9854TIP3    H129505   7.956   7.808   0.710
 9854TIP3    H229506   7.893   7.699   0.625
 9855TIP3   OH229507   0.504   5.543   3.188
 9855TIP3    H129508   0.542   5.549   3.276
 9855TIP3    H229509   0.579   5.529   3.130
 9856TIP3   OH229510   6.742   3.368   1.790
 9856TIP3    H129511   6.801   3.298   1.760
 9856TIP3    H229512   6.717   3.341   1.879
 9857TIP3   OH229513   5.850   2.344   2.538
 9857TIP3    H129514   5.816   2.318   2.624
 9857TIP3    H229515   5.889   2.264   2.503
 9858TIP3   OH229516   4.494   3.418   0.587
 9858TIP3    H129517   4.554   3.492   0.594
 9858TIP3    H229518   4.407   3.456   0.599
 9859TIP3   OH229519   6.330   6.192   0.473
 9859TIP3    H129520   6.382   6.233   0.543
 9859TIP3    H229521   6.243   6.181   0.511
 9860TIP3   OH229522   2.634   4.332   2.938
 9860TIP3    H129523   2.569   4.311   3.005
 9860TIP3    H229524   2.645   4.427   2.945
 9861TIP3   OH229525   5.148   3.287   4.561
 9861TIP3    H129526   5.114   3.335   4.486
 9861TIP3    H229527   5.072   3.276   4.619
 9862TIP3   OH229528   7.955   5.418   5.472
 9862TIP3    H129529   7.888   5.358   5.439
 9862TIP3    H229530   8.007   5.442   5.395
 9863TIP3   OH229531   0.090   2.996   5.508
 9863TIP3    H129532   0.093   3.045   5.426
 9863TIP3    H229533   0.108   2.905   5.484
 9864TIP3   OH229534   2.256   3.331   6.752
 9864TIP3    H129535   2.342   3.372   6.744
 9864TIP3    H229536   2.274   3.238   6.762
 9865TIP3   OH229537   0.803   2.020   1.877
 9865TIP3    H129538   0.863   2.041   1.805
 9865TIP3    H229539   0.725   2.072   1.859
 9866TIP3   OH229540   6.991   6.200   0.404
 9866TIP3    H129541   6.914   6.179   0.458
 9866TIP3    H229542   7.065   6.169   0.455
 9867TIP3   OH229543   5.939   2.809   1.255
 9867TIP3    H129544   5.957   2.860   1.334
 9867TIP3    H229545   5.844   2.815   1.244
 9868TIP3   OH229546   1.551   4.508   2.320
 9868TIP3    H129547   1.555   4.603   2.324
 9868TIP3    H229548   1.547   4.488   2.226
 9869TIP3   OH229549   4.487   6.074   0.741
 9869TIP3    H129550   4.567   6.079   0.691
 9869TIP3    H229551   4.424   6.128   0.692
 9870TIP3   OH229552   3.509   6.560   1.657
 9870TIP3    H129553   3.595   6.541   1.694
 9870TIP3    H229554   3.512   6.653   1.637
 9871TIP3   OH229555   1.170   1.788   2.014
 9871TIP3    H129556   1.189   1.869   1.966
 9871TIP3    H229557   1.148   1.724   1.947
 9872TIP3   OH229558   5.197   3.684   3.583
 9872TIP3    H129559   5.276   3.635   3.560
 9872TIP3    H229560   5.216   3.774   3.557
 9873TIP3   OH229561   6.374   0.681   3.598
 9873TIP3    H129562   6.415   0.666   3.513
 9873TIP3    H229563   6.432   0.744   3.642
 9874TIP3   OH229564   6.918   0.700   5.473
 9874TIP3    H129565   6.951   0.774   5.423
 9874TIP3    H229566   6.912   0.629   5.409
 9875TIP3   OH229567   5.635   1.839   6.147
 9875TIP3    H129568   5.578   1.808   6.217
 9875TIP3    H229569   5.696   1.899   6.191
 9876TIP3   OH229570   3.077   2.740   3.912
 9876TIP3    H129571   3.037   2.783   3.836
 9876TIP3    H229572   3.007   2.684   3.947
 9877TIP3   OH229573   5.055   5.154   1.756
 9877TIP3    H129574   5.035   5.068   1.794
 9877TIP3    H229575   5.131   5.185   1.805
 9878TIP3   OH229576   7.325   1.581   2.979
 9878TIP3    H129577   7.244   1.632   2.987
 9878TIP3    H229578   7.309   1.521   2.906
 9879TIP3   OH229579   2.333   1.465   1.996
 9879TIP3    H129580   2.262   1.402   2.005
 9879TIP3    H229581   2.304   1.525   1.927
 9880TIP3   OH229582   6.429   3.531   6.697
 9880TIP3    H129583   6.351   3.582   6.676
 9880TIP3    H229584   6.399   3.440   6.697
 9881TIP3   OH229585   7.448   3.655   2.076
 9881TIP3    H129586   7.496   3.573   2.065
 9881TIP3    H229587   7.421   3.679   1.987
 9882TIP3   OH229588   6.132   5.612   1.080
 9882TIP3    H129589   6.135   5.521   1.050
 9882TIP3    H229590   6.041   5.639   1.065
 9883TIP3   OH229591   6.449   0.248   2.417
 9883TIP3    H129592   6.401   0.278   2.340
 9883TIP3    H229593   6.385   0.248   2.488
 9884TIP3   OH229594   3.920   0.054   5.116
 9884TIP3    H129595   3.848   0.079   5.173
 9884TIP3    H229596   3.929   0.128   5.055
 9885TIP3   OH229597   2.318   5.855   6.223
 9885TIP3    H129598   2.320   5.950   6.216
 9885TIP3    H229599   2.295   5.839   6.315
 9886TIP3   OH229600   7.455   6.008   1.351
 9886TIP3    H129601   7.390   6.074   1.328
 9886TIP3    H229602   7.529   6.026   1.292
 9887TIP3   OH229603   2.772   7.641   1.547
 9887TIP3    H129604   2.852   7.660   1.498
 9887TIP3    H229605   2.702   7.653   1.483
 9888TIP3   OH229606   2.643   4.271   2.229
 9888TIP3    H129607   2.599   4.320   2.298
 9888TIP3    H229608   2.627   4.322   2.150
 9889TIP3   OH229609   2.759   4.964   0.482
 9889TIP3    H129610   2.810   4.984   0.404
 9889TIP3    H229611   2.780   5.033   0.544
 9890TIP3   OH229612   2.349   2.844   5.327
 9890TIP3    H129613   2.370   2.753   5.343
 9890TIP3    H229614   2.394   2.892   5.396
 9891TIP3   OH229615   7.793   3.015   2.597
 9891TIP3    H129616   7.842   2.992   2.676
 9891TIP3    H229617   7.853   3.070   2.547
 9892TIP3   OH229618   5.301   7.235   1.945
 9892TIP3    H129619   5.305   7.240   1.850
 9892TIP3    H229620   5.383   7.192   1.971
 9893TIP3   OH229621   3.071   5.399   3.509
 9893TIP3    H129622   3.157   5.403   3.552
 9893TIP3    H229623   3.038   5.489   3.513
 9894TIP3   OH229624   7.632   4.757   6.351
 9894TIP3    H129625   7.679   4.786   6.429
 9894TIP3    H229626   7.665   4.813   6.280
 9895TIP3   OH229627   6.841   1.238   4.405
 9895TIP3    H129628   6.884   1.162   4.366
 9895TIP3    H229629   6.747   1.224   4.389
 9896TIP3   OH229630   4.182   1.633   6.442
 9896TIP3    H129631   4.122   1.558   6.438
 9896TIP3    H229632   4.232   1.620   6.523
 9897TIP3   OH229633   4.937   0.723   3.209
 9897TIP3    H129634   4.903   0.789   3.147
 9897TIP3    H229635   5.031   0.738   3.211
 9898TIP3   OH229636   7.441   0.454   2.651
 9898TIP3    H129637   7.371   0.389   2.650
 9898TIP3    H229638   7.481   0.444   2.738
 9899TIP3   OH229639   1.718   0.375   1.993
 9899TIP3    H129640   1.769   0.309   1.946
 9899TIP3    H229641   1.641   0.328   2.024
 9900TIP3   OH229642   4.619   2.512   0.937
 9900TIP3    H129643   4.682   2.585   0.944
 9900TIP3    H229644   4.620   2.473   1.024
 9901TIP3   OH229645   6.126   4.817   6.551
 9901TIP3    H129646   6.213   4.777   6.545
 9901TIP3    H229647   6.066   4.743   6.545
 9902TIP3   OH229648   6.681   4.341   4.886
 9902TIP3    H129649   6.625   4.368   4.959
 9902TIP3    H229650   6.623   4.296   4.826
 9903TIP3   OH229651   2.466   3.324   4.751
 9903TIP3    H129652   2.386   3.333   4.700
 9903TIP3    H229653   2.537   3.327   4.687
 9904TIP3   OH229654   3.820   2.505   4.693
 9904TIP3    H129655   3.822   2.592   4.654
 9904TIP3    H229656   3.826   2.445   4.618
 9905TIP3   OH229657   6.061   6.929   1.945
 9905TIP3    H129658   6.141   6.955   1.900
 9905TIP3    H229659   6.091   6.887   2.026
 9906TIP3   OH229660   0.046   1.146   3.927
 9906TIP3    H129661   0.090   1.226   3.896
 9906TIP3    H229662   0.004   1.110   3.849
 9907TIP3   OH229663   5.060   2.910   1.766
 9907TIP3    H129664   5.063   2.824   1.725
 9907TIP3    H229665   5.151   2.932   1.784
 9908TIP3   OH229666   7.696   2.987   1.602
 9908TIP3    H129667   7.790   2.976   1.612
 9908TIP3    H229668   7.658   2.909   1.641
 9909TIP3   OH229669   3.648   7.691   0.956
 9909TIP3    H129670   3.561   7.715   0.923
 9909TIP3    H229671   3.660   7.745   1.034
 9910TIP3   OH229672   0.238   0.447   0.398
 9910TIP3    H129673   0.329   0.462   0.373
 9910TIP3    H229674   0.212   0.369   0.348
 9911TIP3   OH229675   1.978   5.973   3.584
 9911TIP3    H129676   1.980   6.044   3.520
 9911TIP3    H229677   2.061   5.927   3.571
 9912TIP3   OH229678   5.950   6.333   4.029
 9912TIP3    H129679   5.902   6.412   4.052
 9912TIP3    H229680   6.001   6.358   3.952
 9913TIP3   OH229681   6.623   5.819   0.250
 9913TIP3    H129682   6.601   5.839   0.342
 9913TIP3    H229683   6.542   5.783   0.214
 9914TIP3   OH229684   5.289   4.633   4.190
 9914TIP3    H129685   5.295   4.714   4.241
 9914TIP3    H229686   5.376   4.620   4.153
 9915TIP3   OH229687   3.117   6.667   0.138
 9915TIP3    H129688   3.161   6.583   0.151
 9915TIP3    H229689   3.113   6.706   0.225
 9916TIP3   OH229690   3.137   1.162   6.138
 9916TIP3    H129691   3.047   1.186   6.158
 9916TIP3    H229692   3.190   1.222   6.190
 9917TIP3   OH229693   6.618   1.810   4.174
 9917TIP3    H129694   6.596   1.865   4.249
 9917TIP3    H229695   6.557   1.838   4.106
 9918TIP3   OH229696   6.716   3.400   4.769
 9918TIP3    H129697   6.664   3.342   4.824
 9918TIP3    H229698   6.806   3.369   4.779
 9919TIP3   OH229699   7.372   1.005   6.735
 9919TIP3    H129700   7.357   0.964   6.820
 9919TIP3    H229701   7.359   1.098   6.750
 9920TIP3   OH229702   2.689   2.206   5.176
 9920TIP3    H129703   2.649   2.253   5.249
 9920TIP3    H229704   2.658   2.116   5.185
 9921TIP3   OH229705   0.794   2.087   0.857
 9921TIP3    H129706   0.809   2.035   0.935
 9921TIP3    H229707   0.738   2.032   0.801
 9922TIP3   OH229708   6.969   6.052   6.154
 9922TIP3    H129709   7.040   5.994   6.181
 9922TIP3    H229710   6.998   6.086   6.069
 9923TIP3   OH229711   2.874   7.208   2.742
 9923TIP3    H129712   2.855   7.203   2.649
 9923TIP3    H229713   2.816   7.144   2.782
 9924TIP3   OH229714   0.401   0.714   1.234
 9924TIP3    H129715   0.450   0.796   1.239
 9924TIP3    H229716   0.445   0.655   1.295
 9925TIP3   OH229717   1.967   5.076   3.928
 9925TIP3    H129718   1.956   4.983   3.910
 9925TIP3    H229719   1.889   5.117   3.892
 9926TIP3   OH229720   7.105   6.967   1.076
 9926TIP3    H129721   7.044   6.986   1.004
 9926TIP3    H229722   7.120   6.873   1.070
 9927TIP3   OH229723   0.061   2.388   3.180
 9927TIP3    H129724   0.120   2.313   3.173
 9927TIP3    H229725   0.020   2.379   3.266
 9928TIP3   OH229726   4.645   2.759   1.521
 9928TIP3    H129727   4.579   2.767   1.589
 9928TIP3    H229728   4.686   2.674   1.536
 9929TIP3   OH229729   3.106   6.977   4.019
 9929TIP3    H129730   3.026   6.960   3.970
 9929TIP3    H229731   3.112   6.904   4.081
 9930TIP3   OH229732   1.729   5.087   5.839
 9930TIP3    H129733   1.732   5.182   5.830
 9930TIP3    H229734   1.821   5.061   5.841
 9931TIP3   OH229735   1.844   1.721   5.095
 9931TIP3    H129736   1.839   1.802   5.146
 9931TIP3    H229737   1.874   1.655   5.157
 9932TIP3   OH229738   0.523   4.058   5.475
 9932TIP3    H129739   0.594   4.019   5.424
 9932TIP3    H229740   0.565   4.125   5.529
 9933TIP3   OH229741   0.806   0.015   0.524
 9933TIP3    H129742   0.851   0.043   0.604
 9933TIP3    H229743   0.725   0.066   0.524
 9934TIP3   OH229744   6.174   7.459   2.469
 9934TIP3    H129745   6.246   7.408   2.432
 9934TIP3    H229746   6.123   7.395   2.520
 9935TIP3   OH229747   0.329   6.803   2.555
 9935TIP3    H129748   0.297   6.890   2.530
 9935TIP3    H229749   0.408   6.789   2.503
 9936TIP3   OH229750   5.094   0.901   3.649
 9936TIP3    H129751   5.053   0.894   3.735
 9936TIP3    H229752   5.079   0.816   3.608
 9937TIP3   OH229753   5.730   3.767   1.032
 9937TIP3    H129754   5.667   3.698   1.051
 9937TIP3    H229755   5.728   3.823   1.110
 9938TIP3   OH229756   3.949   7.667   0.908
 9938TIP3    H129757   3.938   7.612   0.831
 9938TIP3    H229758   3.875   7.644   0.965
 9939TIP3   OH229759   1.674   3.183   3.058
 9939TIP3    H129760   1.750   3.239   3.074
 9939TIP3    H229761   1.711   3.099   3.031
 9940TIP3   OH229762   2.994   6.527   5.664
 9940TIP3    H129763   3.023   6.438   5.646
 9940TIP3    H229764   2.992   6.533   5.760
 9941TIP3   OH229765   0.923   6.239   4.761
 9941TIP3    H129766   0.961   6.308   4.815
 9941TIP3    H229767   0.992   6.217   4.698
 9942TIP3   OH229768   1.301   7.562   2.529
 9942TIP3    H129769   1.342   7.526   2.450
 9942TIP3    H229770   1.369   7.618   2.567
 9943TIP3   OH229771   2.220   0.222   3.407
 9943TIP3    H129772   2.239   0.209   3.314
 9943TIP3    H229773   2.196   0.314   3.415
 9944TIP3   OH229774   8.253   7.461   5.209
 9944TIP3    H129775   8.273   7.442   5.300
 9944TIP3    H229776   8.171   7.511   5.212
 9945TIP3   OH229777   5.044   1.585   0.654
 9945TIP3    H129778   5.058   1.680   0.651
 9945TIP3    H229779   5.014   1.568   0.743
 9946TIP3   OH229780   1.079   3.650   3.561
 9946TIP3    H129781   1.068   3.736   3.520
 9946TIP3    H229782   0.992   3.629   3.594
 9947TIP3   OH229783   1.095   5.758   3.220
 9947TIP3    H129784   1.127   5.848   3.215
 9947TIP3    H229785   1.167   5.709   3.260
 9948TIP3   OH229786   2.159   4.527   5.075
 9948TIP3    H129787   2.201   4.487   5.000
 9948TIP3    H229788   2.066   4.523   5.056
 9949TIP3   OH229789   1.569   0.913   3.574
 9949TIP3    H129790   1.510   0.981   3.541
 9949TIP3    H229791   1.571   0.847   3.505
 9950TIP3   OH229792   3.013   5.249   1.621
 9950TIP3    H129793   3.107   5.249   1.601
 9950TIP3    H229794   2.985   5.159   1.604
 9951TIP3   OH229795   6.143   5.245   6.439
 9951TIP3    H129796   6.095   5.197   6.371
 9951TIP3    H229797   6.231   5.258   6.403
 9952TIP3   OH229798   5.453   3.367   0.644
 9952TIP3    H129799   5.429   3.285   0.603
 9952TIP3    H229800   5.500   3.416   0.576
 9953TIP3   OH229801   4.379   2.967   1.680
 9953TIP3    H129802   4.427   2.889   1.709
 9953TIP3    H229803   4.444   3.017   1.631
 9954TIP3   OH229804   1.343   7.104   2.919
 9954TIP3    H129805   1.266   7.113   2.976
 9954TIP3    H229806   1.316   7.039   2.853
 9955TIP3   OH229807   2.786   1.465   6.024
 9955TIP3    H129808   2.840   1.428   6.093
 9955TIP3    H229809   2.717   1.400   6.010
 9956TIP3   OH229810   0.704   0.946   2.630
 9956TIP3    H129811   0.648   0.889   2.683
 9956TIP3    H229812   0.722   0.896   2.551
 9957TIP3   OH229813   2.203   3.487   6.434
 9957TIP3    H129814   2.235   3.453   6.518
 9957TIP3    H229815   2.108   3.479   6.440
 9958TIP3   OH229816   3.466   1.027   3.308
 9958TIP3    H129817   3.492   1.057   3.396
 9958TIP3    H229818   3.376   0.996   3.318
 9959TIP3   OH229819   3.829   7.719  -0.007
 9959TIP3    H129820   3.859   7.782   0.058
 9959TIP3    H229821   3.880   7.640   0.010
 9960TIP3   OH229822   2.032   7.328   5.883
 9960TIP3    H129823   2.109   7.287   5.844
 9960TIP3    H229824   1.959   7.273   5.856
 9961TIP3   OH229825   2.501   2.403   4.588
 9961TIP3    H129826   2.416   2.404   4.633
 9961TIP3    H229827   2.550   2.333   4.631
 9962TIP3   OH229828   2.178   5.327   0.929
 9962TIP3    H129829   2.259   5.336   0.880
 9962TIP3    H229830   2.203   5.284   1.011
 9963TIP3   OH229831   4.795   1.575   3.032
 9963TIP3    H129832   4.758   1.510   3.092
 9963TIP3    H229833   4.736   1.573   2.956
 9964TIP3   OH229834   6.031   1.372   4.548
 9964TIP3    H129835   5.942   1.353   4.579
 9964TIP3    H229836   6.044   1.465   4.567
 9965TIP3   OH229837   0.665   0.921   4.422
 9965TIP3    H129838   0.604   0.943   4.352
 9965TIP3    H229839   0.744   0.889   4.377
 9966TIP3   OH229840   3.534   3.774   1.126
 9966TIP3    H129841   3.565   3.728   1.204
 9966TIP3    H229842   3.612   3.784   1.072
 9967TIP3   OH229843   0.669   4.789   2.756
 9967TIP3    H129844   0.684   4.876   2.719
 9967TIP3    H229845   0.578   4.790   2.786
 9968TIP3   OH229846   4.771   6.544   1.715
 9968TIP3    H129847   4.755   6.574   1.625
 9968TIP3    H229848   4.865   6.533   1.721
 9969TIP3   OH229849   5.601   0.290   1.727
 9969TIP3    H129850   5.622   0.309   1.818
 9969TIP3    H229851   5.686   0.273   1.686
 9970TIP3   OH229852   1.961   4.764   6.642
 9970TIP3    H129853   1.988   4.731   6.556
 9970TIP3    H229854   2.023   4.834   6.662
 9971TIP3   OH229855   2.667   6.676   1.769
 9971TIP3    H129856   2.688   6.766   1.794
 9971TIP3    H229857   2.587   6.684   1.717
 9972TIP3   OH229858   2.378   4.790   6.710
 9972TIP3    H129859   2.450   4.847   6.736
 9972TIP3    H229860   2.391   4.775   6.617
 9973TIP3   OH229861   6.731   2.397   3.201
 9973TIP3    H129862   6.756   2.429   3.115
 9973TIP3    H229863   6.758   2.466   3.261
 9974TIP3   OH229864   7.121   3.198   4.020
 9974TIP3    H129865   7.169   3.158   3.948
 9974TIP3    H229866   7.032   3.208   3.987
 9975TIP3   OH229867   8.246   1.559   4.973
 9975TIP3    H129868   8.234   1.563   5.068
 9975TIP3    H229869   8.167   1.600   4.938
 9976TIP3   OH229870   5.284   1.476   2.813
 9976TIP3    H129871   5.198   1.511   2.837
 9976TIP3    H229872   5.268   1.426   2.734
 9977TIP3   OH229873   1.553   2.499   2.654
 9977TIP3    H129874   1.520   2.481   2.742
 9977TIP3    H229875   1.504   2.438   2.597
 9978TIP3   OH229876   3.131   1.133   0.300
 9978TIP3    H129877   3.224   1.116   0.315
 9978TIP3    H229878   3.087   1.094   0.375
 9979TIP3   OH229879   7.774   6.307   6.251
 9979TIP3    H129880   7.691   6.263   6.235
 9979TIP3    H229881   7.752   6.401   6.251
 9980TIP3   OH229882   8.236   3.652   3.427
 9980TIP3    H129883   8.303   3.704   3.471
 9980TIP3    H229884   8.163   3.713   3.415
 9981TIP3   OH229885   0.482   2.678   2.909
 9981TIP3    H129886   0.454   2.647   2.823
 9981TIP3    H229887   0.577   2.667   2.909
 9982TIP3   OH229888   7.788   4.431   3.289
 9982TIP3    H129889   7.807   4.512   3.336
 9982TIP3    H229890   7.760   4.459   3.202
 9983TIP3   OH229891   5.569   2.228   2.243
 9983TIP3    H129892   5.626   2.304   2.228
 9983TIP3    H229893   5.621   2.153   2.217
 9984TIP3   OH229894   3.010   0.091   0.648
 9984TIP3    H129895   3.020   0.122   0.738
 9984TIP3    H229896   2.977   0.167   0.600
 9985TIP3   OH229897   5.495   4.641   5.693
 9985TIP3    H129898   5.460   4.725   5.663
 9985TIP3    H229899   5.443   4.575   5.649
 9986TIP3   OH229900   8.282   2.840   3.551
 9986TIP3    H129901   8.331   2.914   3.587
 9986TIP3    H229902   8.333   2.812   3.475
 9987TIP3   OH229903   6.938   4.236   5.092
 9987TIP3    H129904   6.898   4.214   5.176
 9987TIP3    H229905   6.889   4.311   5.060
 9988TIP3   OH229906   2.493   1.833   6.612
 9988TIP3    H129907   2.428   1.899   6.588
 9988TIP3    H229908   2.445   1.768   6.664
 9989TIP3   OH229909   2.651   5.433   6.016
 9989TIP3    H129910   2.662   5.351   6.064
 9989TIP3    H229911   2.567   5.467   6.044
 9990TIP3   OH229912   7.773   6.387   3.800
 9990TIP3    H129913   7.802   6.305   3.840
 9990TIP3    H229914   7.751   6.364   3.710
 9991TIP3   OH229915   8.054   4.141   5.380
 9991TIP3    H129916   8.108   4.178   5.450
 9991TIP3    H229917   7.964   4.160   5.406
 9992TIP3   OH229918   3.732   1.012   4.105
 9992TIP3    H129919   3.663   0.977   4.048
 9992TIP3    H229920   3.811   0.966   4.078
 9993TIP3   OH229921   1.259   0.025   0.821
 9993TIP3    H129922   1.338   0.068   0.854
 9993TIP3    H229923   1.201   0.019   0.897
 9994TIP3   OH229924   0.359   4.555   1.298
 9994TIP3    H129925   0.413   4.485   1.334
 9994TIP3    H229926   0.274   4.543   1.338
 9995TIP3   OH229927   2.992   3.369   4.923
 9995TIP3    H129928   3.074   3.397   4.963
 9995TIP3    H229929   3.004   3.384   4.830
 9996TIP3   OH229930   0.870   7.230   3.285
 9996TIP3    H129931   0.964   7.215   3.276
 9996TIP3    H229932   0.832   7.196   3.204
 9997TIP3   OH229933   5.374   2.081   6.142
 9997TIP3    H129934   5.377   2.035   6.226
 9997TIP3    H229935   5.282   2.074   6.114
 9998TIP3   OH229936   6.962   2.638   1.230
 9998TIP3    H129937   6.897   2.635   1.300
 9998TIP3    H229938   7.006   2.723   1.242
 9999TIP3   OH229939   0.810   2.373   3.916
 9999TIP3    H129940   0.852   2.362   3.831
 9999TIP3    H229941   0.819   2.288   3.958
10000TIP3   OH229942   0.415   3.344   4.041
10000TIP3    H129943   0.398   3.431   4.005
10000TIP3    H229944   0.346   3.330   4.106
10001TIP3   OH229945   5.528   2.766   5.805
10001TIP3    H129946   5.585   2.730   5.738
10001TIP3    H229947   5.465   2.696   5.824
10002TIP3   OH229948   8.091   5.891   1.540
10002TIP3    H129949   8.015   5.939   1.507
10002TIP3    H229950   8.122   5.841   1.464
10003TIP3   OH229951   4.554   3.957   6.007
10003TIP3    H129952   4.511   3.874   5.985
10003TIP3    H229953   4.633   3.958   5.952
10004TIP3   OH229954   5.679   5.210   4.918
10004TIP3    H129955   5.622   5.266   4.866
10004TIP3    H229956   5.622   5.174   4.986
10005TIP3   OH229957   8.227   5.706   3.331
10005TIP3    H129958   8.265   5.618   3.327
10005TIP3    H229959   8.268   5.754   3.260
10006TIP3   OH229960   5.029   3.221   4.023
10006TIP3    H129961   5.043   3.200   4.115
10006TIP3    H229962   5.030   3.137   3.979
10007TIP3   OH229963   4.126   0.870   3.642
10007TIP3    H129964   4.155   0.871   3.733
10007TIP3    H229965   4.039   0.910   3.644
10008TIP3   OH229966   7.498   6.151   6.740
10008TIP3    H129967   7.487   6.056   6.750
10008TIP3    H229968   7.502   6.184   6.830
10009TIP3   OH229969   7.728   7.043   2.807
10009TIP3    H129970   7.800   6.981   2.822
10009TIP3    H229971   7.665   7.024   2.877
10010TIP3   OH229972   0.975   4.402   6.629
10010TIP3    H129973   0.916   4.356   6.569
10010TIP3    H229974   1.058   4.407   6.583
10011TIP3   OH229975   7.532   2.965   3.044
10011TIP3    H129976   7.601   2.902   3.022
10011TIP3    H229977   7.518   2.954   3.138
10012TIP3   OH229978   0.424   0.751   3.868
10012TIP3    H129979   0.509   0.793   3.880
10012TIP3    H229980   0.366   0.798   3.927
10013TIP3   OH229981   6.148   1.045   1.864
10013TIP3    H129982   6.185   1.066   1.949
10013TIP3    H229983   6.194   1.103   1.803
10014TIP3   OH229984   6.891   2.587   3.355
10014TIP3    H129985   6.984   2.574   3.339
10014TIP3    H229986   6.882   2.589   3.450
10015TIP3   OH229987   0.370   0.212   3.923
10015TIP3    H129988   0.389   0.305   3.906
10015TIP3    H229989   0.366   0.206   4.018
10016TIP3   OH229990   0.032   5.449   3.305
10016TIP3    H129991  -0.037   5.384   3.321
10016TIP3    H229992   0.098   5.401   3.256
10017TIP3   OH229993   7.662   7.106   4.059
10017TIP3    H129994   7.751   7.080   4.080
10017TIP3    H229995   7.665   7.202   4.054
10018TIP3   OH229996   7.254   4.437   2.015
10018TIP3    H129997   7.310   4.449   1.938
10018TIP3    H229998   7.295   4.491   2.083
10019TIP3   OH229999   6.596   5.232   1.764
10019TIP3    H130000   6.532   5.199   1.827
10019TIP3    H230001   6.673   5.176   1.776
10020TIP3   OH230002   6.706   6.397   6.581
10020TIP3    H130003   6.784   6.363   6.626
10020TIP3    H230004   6.632   6.363   6.632
10021TIP3   OH230005   3.503   3.813   3.078
10021TIP3    H130006   3.460   3.772   3.003
10021TIP3    H230007   3.432   3.847   3.131
10022TIP3   OH230008   0.938   3.138   6.043
10022TIP3    H130009   0.957   3.153   6.136
10022TIP3    H230010   0.844   3.152   6.035
10023TIP3   OH230011   4.260   7.162   2.093
10023TIP3    H130012   4.344   7.139   2.054
10023TIP3    H230013   4.239   7.089   2.150
10024TIP3   OH230014   0.470   1.116   6.643
10024TIP3    H130015   0.423   1.080   6.718
10024TIP3    H230016   0.429   1.077   6.567
10025TIP3   OH230017   4.387   3.920   4.912
10025TIP3    H130018   4.342   3.971   4.979
10025TIP3    H230019   4.474   3.959   4.907
10026TIP3   OH230020   1.743   7.751   4.089
10026TIP3    H130021   1.834   7.765   4.060
10026TIP3    H230022   1.694   7.822   4.047
10027TIP3   OH230023   8.230   5.856   1.008
10027TIP3    H130024   8.180   5.864   0.927
10027TIP3    H230025   8.197   5.926   1.064
10028TIP3   OH230026   5.804   4.089   4.359
10028TIP3    H130027   5.763   4.165   4.317
10028TIP3    H230028   5.864   4.127   4.423
10029TIP3   OH230029   0.276   5.236   0.878
10029TIP3    H130030   0.261   5.255   0.786
10029TIP3    H230031   0.296   5.142   0.880
10030TIP3   OH230032   0.568   1.084   4.673
10030TIP3    H130033   0.615   1.049   4.597
10030TIP3    H230034   0.513   1.153   4.637
10031TIP3   OH230035   7.832   2.127   0.441
10031TIP3    H130036   7.809   2.047   0.489
10031TIP3    H230037   7.906   2.164   0.490
10032TIP3   OH230038   7.438   1.184   4.559
10032TIP3    H130039   7.361   1.134   4.533
10032TIP3    H230040   7.495   1.121   4.603
10033TIP3   OH230041   2.984   6.275   5.026
10033TIP3    H130042   2.929   6.203   4.995
10033TIP3    H230043   3.033   6.302   4.948
10034TIP3   OH230044   7.886   3.278   1.845
10034TIP3    H130045   7.802   3.238   1.864
10034TIP3    H230046   7.868   3.372   1.843
10035TIP3   OH230047   5.165   7.138   2.488
10035TIP3    H130048   5.220   7.195   2.434
10035TIP3    H230049   5.217   7.059   2.501
10036TIP3   OH230050   7.937   6.115   2.066
10036TIP3    H130051   7.961   6.024   2.047
10036TIP3    H230052   7.854   6.128   2.020
10037TIP3   OH230053   5.598   6.918   1.693
10037TIP3    H130054   5.602   7.002   1.740
10037TIP3    H230055   5.534   6.866   1.742
10038TIP3   OH230056   6.605   5.314   5.947
10038TIP3    H130057   6.661   5.275   6.014
10038TIP3    H230058   6.650   5.395   5.922
10039TIP3   OH230059   2.169   4.721   5.792
10039TIP3    H130060   2.237   4.653   5.791
10039TIP3    H230061   2.152   4.740   5.700
10040TIP3   OH230062   7.175   4.750   5.568
10040TIP3    H130063   7.225   4.770   5.489
10040TIP3    H230064   7.090   4.719   5.536
10041TIP3   OH230065   0.541   4.614   4.537
10041TIP3    H130066   0.498   4.609   4.451
10041TIP3    H230067   0.571   4.524   4.554
10042TIP3   OH230068   4.889   1.638   3.808
10042TIP3    H130069   4.830   1.564   3.816
10042TIP3    H230070   4.970   1.601   3.772
10043TIP3   OH230071   2.011   0.513   5.671
10043TIP3    H130072   2.075   0.516   5.742
10043TIP3    H230073   2.039   0.582   5.611
10044TIP3   OH230074   0.035   6.258   3.644
10044TIP3    H130075  -0.054   6.290   3.631
10044TIP3    H230076   0.082   6.332   3.683
10045TIP3   OH230077   1.353   4.571   3.089
10045TIP3    H130078   1.350   4.487   3.044
10045TIP3    H230079   1.440   4.574   3.129
10046TIP3   OH230080   6.406   5.612   5.810
10046TIP3    H130081   6.477   5.658   5.765
10046TIP3    H230082   6.392   5.533   5.759
10047TIP3   OH230083   1.715   6.183   4.141
10047TIP3    H130084   1.721   6.100   4.187
10047TIP3    H230085   1.775   6.174   4.067
10048TIP3   OH230086   6.261   2.637   2.331
10048TIP3    H130087   6.221   2.700   2.390
10048TIP3    H230088   6.191   2.575   2.310
10049TIP3   OH230089   6.186   3.240   3.748
10049TIP3    H130090   6.278   3.233   3.725
10049TIP3    H230091   6.186   3.275   3.837
10050TIP3   OH230092   0.603   6.797   1.666
10050TIP3    H130093   0.675   6.834   1.616
10050TIP3    H230094   0.558   6.872   1.704
10051TIP3   OH230095   7.517   4.110   3.926
10051TIP3    H130096   7.480   4.160   3.854
10051TIP3    H230097   7.467   4.138   4.003
10052TIP3   OH230098   4.052   2.597   0.716
10052TIP3    H130099   4.044   2.680   0.762
10052TIP3    H230100   4.100   2.618   0.636
10053TIP3   OH230101   4.769   4.547   1.818
10053TIP3    H130102   4.701   4.615   1.814
10053TIP3    H230103   4.721   4.465   1.812
10054TIP3   OH230104   4.694   6.246   1.394
10054TIP3    H130105   4.734   6.332   1.408
10054TIP3    H230106   4.652   6.225   1.478
10055TIP3   OH230107   1.469   3.678   4.253
10055TIP3    H130108   1.463   3.768   4.283
10055TIP3    H230109   1.422   3.628   4.320
10056TIP3   OH230110   4.593   2.890   5.258
10056TIP3    H130111   4.628   2.890   5.347
10056TIP3    H230112   4.518   2.830   5.262
10057TIP3   OH230113   8.265   2.179   0.682
10057TIP3    H130114   8.347   2.188   0.633
10057TIP3    H230115   8.197   2.204   0.620
10058TIP3   OH230116   6.454  -0.033   4.075
10058TIP3    H130117   6.381   0.027   4.091
10058TIP3    H230118   6.470  -0.074   4.160
10059TIP3   OH230119   3.054   5.061   2.805
10059TIP3    H130120   2.985   5.112   2.848
10059TIP3    H230121   3.010   4.981   2.775
10060TIP3   OH230122   1.989   4.111   0.087
10060TIP3    H130123   1.938   4.189   0.110
10060TIP3    H230124   2.021   4.128  -0.002
10061TIP3   OH230125   5.107   3.373   6.059
10061TIP3    H130126   5.056   3.292   6.052
10061TIP3    H230127   5.172   3.366   5.989
10062TIP3   OH230128   2.043   7.301   0.405
10062TIP3    H130129   2.001   7.215   0.412
10062TIP3    H230130   2.106   7.302   0.477
10063TIP3   OH230131   4.713   3.352   1.317
10063TIP3    H130132   4.720   3.360   1.222
10063TIP3    H230133   4.732   3.260   1.335
10064TIP3   OH230134   4.000   4.353   2.259
10064TIP3    H130135   3.983   4.380   2.169
10064TIP3    H230136   4.049   4.271   2.252
10065TIP3   OH230137   3.969   7.839   6.817
10065TIP3    H130138   3.986   7.819   6.725
10065TIP3    H230139   3.901   7.777   6.843
10066TIP3   OH230140   4.999   7.351   4.473
10066TIP3    H130141   5.026   7.441   4.493
10066TIP3    H230142   5.006   7.305   4.557
10067TIP3   OH230143   3.465   7.182   1.334
10067TIP3    H130144   3.410   7.195   1.412
10067TIP3    H230145   3.555   7.188   1.367
10068TIP3   OH230146   6.027   5.061   3.619
10068TIP3    H130147   6.047   4.971   3.593
10068TIP3    H230148   6.085   5.115   3.566
10069TIP3   OH230149   2.302   5.520   1.554
10069TIP3    H130150   2.252   5.578   1.611
10069TIP3    H230151   2.263   5.433   1.570
10070TIP3   OH230152   6.266   3.762   1.299
10070TIP3    H130153   6.314   3.695   1.250
10070TIP3    H230154   6.288   3.745   1.390
10071TIP3   OH230155   1.319   7.540   1.738
10071TIP3    H130156   1.348   7.592   1.662
10071TIP3    H230157   1.224   7.546   1.736
10072TIP3   OH230158   4.238   7.498   1.890
10072TIP3    H130159   4.310   7.438   1.911
10072TIP3    H230160   4.278   7.585   1.896
10073TIP3   OH230161   2.132   5.001   6.721
10073TIP3    H130162   2.115   5.089   6.754
10073TIP3    H230163   2.215   5.008   6.674
10074TIP3   OH230164   4.750   6.207   0.345
10074TIP3    H130165   4.663   6.237   0.370
10074TIP3    H230166   4.805   6.231   0.420
10075TIP3   OH230167   6.799   7.662   5.316
10075TIP3    H130168   6.800   7.736   5.377
10075TIP3    H230169   6.799   7.703   5.229
10076TIP3   OH230170   4.805   5.412   2.999
10076TIP3    H130171   4.730   5.447   3.047
10076TIP3    H230172   4.766   5.353   2.934
10077TIP3   OH230173   5.066   6.815   2.260
10077TIP3    H130174   4.971   6.806   2.265
10077TIP3    H230175   5.080   6.897   2.213
10078TIP3   OH230176   3.695   6.570   4.162
10078TIP3    H130177   3.651   6.504   4.108
10078TIP3    H230178   3.771   6.596   4.111
10079TIP3   OH230179   7.220   2.561   1.345
10079TIP3    H130180   7.155   2.577   1.277
10079TIP3    H230181   7.175   2.507   1.410
10080TIP3   OH230182   7.977   7.305   4.154
10080TIP3    H130183   7.986   7.253   4.074
10080TIP3    H230184   7.967   7.395   4.123
10081TIP3   OH230185   4.525   2.747   5.947
10081TIP3    H130186   4.458   2.738   5.879
10081TIP3    H230187   4.484   2.711   6.025
10082TIP3   OH230188   4.899   4.850   2.532
10082TIP3    H130189   4.928   4.803   2.610
10082TIP3    H230190   4.941   4.804   2.459
10083TIP3   OH230191   2.270   7.504   5.763
10083TIP3    H130192   2.214   7.438   5.722
10083TIP3    H230193   2.259   7.490   5.857
10084TIP3   OH230194   3.479   5.318   3.454
10084TIP3    H130195   3.411   5.383   3.436
10084TIP3    H230196   3.517   5.298   3.369
10085TIP3   OH230197   2.482   6.314   5.853
10085TIP3    H130198   2.520   6.278   5.773
10085TIP3    H230199   2.514   6.404   5.857
10086TIP3   OH230200   1.437   3.165   0.904
10086TIP3    H130201   1.506   3.223   0.935
10086TIP3    H230202   1.379   3.221   0.853
10087TIP3   OH230203   5.350   5.187   6.378
10087TIP3    H130204   5.386   5.268   6.414
10087TIP3    H230205   5.266   5.213   6.341
10088TIP3   OH230206   3.867   5.331   6.083
10088TIP3    H130207   3.946   5.372   6.117
10088TIP3    H230208   3.842   5.385   6.008
10089TIP3   OH230209   4.052   2.484   1.563
10089TIP3    H130210   4.136   2.529   1.570
10089TIP3    H230211   4.074   2.391   1.570
10090TIP3   OH230212   4.715   6.929   4.994
10090TIP3    H130213   4.679   7.014   5.018
10090TIP3    H230214   4.737   6.937   4.901
10091TIP3   OH230215   6.642   6.730   5.973
10091TIP3    H130216   6.635   6.648   6.023
10091TIP3    H230217   6.730   6.727   5.935
10092TIP3   OH230218   6.682   7.702   6.435
10092TIP3    H130219   6.612   7.707   6.370
10092TIP3    H230220   6.752   7.652   6.392
10093TIP3   OH230221   1.930   3.688   0.700
10093TIP3    H130222   1.873   3.680   0.624
10093TIP3    H230223   2.010   3.728   0.666
10094TIP3   OH230224   4.239   6.529   2.432
10094TIP3    H130225   4.267   6.500   2.519
10094TIP3    H230226   4.155   6.485   2.419
10095TIP3   OH230227   1.022   2.624   1.352
10095TIP3    H130228   0.936   2.588   1.372
10095TIP3    H230229   1.080   2.547   1.352
10096TIP3   OH230230   3.863   4.867   4.841
10096TIP3    H130231   3.823   4.865   4.755
10096TIP3    H230232   3.897   4.779   4.855
10097TIP3   OH230233   3.865   0.121   1.874
10097TIP3    H130234   3.899   0.143   1.787
10097TIP3    H230235   3.790   0.064   1.857
10098TIP3   OH230236   1.232   0.769   0.441
10098TIP3    H130237   1.146   0.803   0.416
10098TIP3    H230238   1.265   0.727   0.361
10099TIP3   OH230239   2.730   4.360   6.077
10099TIP3    H130240   2.767   4.364   5.989
10099TIP3    H230241   2.641   4.392   6.067
10100TIP3   OH230242   4.200   2.261   4.435
10100TIP3    H130243   4.220   2.168   4.423
10100TIP3    H230244   4.138   2.281   4.365
10101TIP3   OH230245   3.460   7.091   6.570
10101TIP3    H130246   3.531   7.040   6.608
10101TIP3    H230247   3.411   7.029   6.516
10102TIP3   OH230248   3.146   6.081   4.343
10102TIP3    H130249   3.090   6.012   4.378
10102TIP3    H230250   3.235   6.045   4.349
10103TIP3   OH230251   3.283   4.511   5.212
10103TIP3    H130252   3.214   4.448   5.234
10103TIP3    H230253   3.251   4.595   5.246
10104TIP3   OH230254   2.299   6.594   4.315
10104TIP3    H130255   2.236   6.580   4.244
10104TIP3    H230256   2.283   6.684   4.344
10105TIP3   OH230257   6.082   0.326   4.797
10105TIP3    H130258   6.149   0.365   4.741
10105TIP3    H230259   6.007   0.385   4.788
10106TIP3   OH230260   7.831   6.917   1.170
10106TIP3    H130261   7.801   7.007   1.168
10106TIP3    H230262   7.834   6.891   1.078
10107TIP3   OH230263   3.653   2.160   2.652
10107TIP3    H130264   3.683   2.192   2.736
10107TIP3    H230265   3.558   2.151   2.662
10108TIP3   OH230266   2.186   0.724   5.212
10108TIP3    H130267   2.187   0.668   5.291
10108TIP3    H230268   2.119   0.789   5.230
10109TIP3   OH230269   6.419   3.089   4.424
10109TIP3    H130270   6.427   3.155   4.492
10109TIP3    H230271   6.325   3.085   4.406
10110TIP3   OH230272   6.621   5.033   4.845
10110TIP3    H130273   6.673   5.109   4.874
10110TIP3    H230274   6.607   5.048   4.752
10111TIP3   OH230275   1.204   1.417   5.229
10111TIP3    H130276   1.108   1.418   5.229
10111TIP3    H230277   1.228   1.445   5.318
10112TIP3   OH230278   2.331   2.434   3.844
10112TIP3    H130279   2.406   2.376   3.861
10112TIP3    H230280   2.263   2.403   3.904
10113TIP3   OH230281   4.642   0.544   0.536
10113TIP3    H130282   4.564   0.596   0.514
10113TIP3    H230283   4.639   0.533   0.631
10114TIP3   OH230284   2.960   1.771   0.136
10114TIP3    H130285   3.027   1.707   0.161
10114TIP3    H230286   2.999   1.856   0.159
10115TIP3   OH230287   1.663  -0.001   4.343
10115TIP3    H130288   1.636   0.088   4.368
10115TIP3    H230289   1.750  -0.011   4.380
10116TIP3   OH230290   8.093   3.686   5.816
10116TIP3    H130291   8.135   3.772   5.815
10116TIP3    H230292   8.152   3.630   5.766
10117TIP3   OH230293   5.507   0.583   2.084
10117TIP3    H130294   5.488   0.674   2.105
10117TIP3    H230295   5.539   0.585   1.994
10118TIP3   OH230296   4.198   0.230   6.230
10118TIP3    H130297   4.258   0.159   6.252
10118TIP3    H230298   4.250   0.309   6.239
10119TIP3   OH230299   5.734   6.778   5.257
10119TIP3    H130300   5.641   6.760   5.272
10119TIP3    H230301   5.743   6.785   5.162
10120TIP3   OH230302   6.389   6.447   1.614
10120TIP3    H130303   6.443   6.398   1.677
10120TIP3    H230304   6.452   6.484   1.553
10121TIP3   OH230305   1.789   4.890   2.265
10121TIP3    H130306   1.837   4.921   2.188
10121TIP3    H230307   1.707   4.857   2.229
10122TIP3   OH230308   4.759   3.339   3.613
10122TIP3    H130309   4.776   3.376   3.700
10122TIP3    H230310   4.789   3.248   3.620
10123TIP3   OH230311   4.854   2.846   5.084
10123TIP3    H130312   4.869   2.769   5.029
10123TIP3    H230313   4.777   2.823   5.137
10124TIP3   OH230314   6.307   3.164   1.542
10124TIP3    H130315   6.377   3.229   1.530
10124TIP3    H230316   6.296   3.125   1.455
10125TIP3   OH230317   0.848   7.558   1.942
10125TIP3    H130318   0.904   7.626   1.980
10125TIP3    H230319   0.861   7.482   1.999
10126TIP3   OH230320   2.633   7.810   0.231
10126TIP3    H130321   2.574   7.860   0.175
10126TIP3    H230322   2.702   7.779   0.172
10127TIP3   OH230323   6.825   5.009   2.759
10127TIP3    H130324   6.766   5.081   2.776
10127TIP3    H230325   6.770   4.931   2.762
10128TIP3   OH230326   1.551   3.273   5.755
10128TIP3    H130327   1.527   3.320   5.676
10128TIP3    H230328   1.641   3.245   5.740
10129TIP3   OH230329   1.500   1.704   0.075
10129TIP3    H130330   1.563   1.644   0.035
10129TIP3    H230331   1.448   1.650   0.134
10130TIP3   OH230332   4.170   7.045   5.803
10130TIP3    H130333   4.136   7.033   5.891
10130TIP3    H230334   4.261   7.015   5.807
10131TIP3   OH230335   3.115   7.114   6.548
10131TIP3    H130336   3.072   7.170   6.613
10131TIP3    H230337   3.172   7.173   6.499
10132TIP3   OH230338   0.142   6.541   0.925
10132TIP3    H130339   0.127   6.574   1.014
10132TIP3    H230340   0.231   6.506   0.927
10133TIP3   OH230341   4.775   4.411   3.872
10133TIP3    H130342   4.790   4.469   3.947
10133TIP3    H230343   4.697   4.446   3.829
10134TIP3   OH230344   5.417   1.816   2.060
10134TIP3    H130345   5.330   1.834   2.026
10134TIP3    H230346   5.430   1.722   2.043
10135TIP3   OH230347   7.869   3.556   2.115
10135TIP3    H130348   7.870   3.625   2.049
10135TIP3    H230349   7.778   3.527   2.119
10136TIP3   OH230350   4.277   2.200   3.457
10136TIP3    H130351   4.277   2.292   3.483
10136TIP3    H230352   4.251   2.201   3.364
10137TIP3   OH230353   3.492   3.157   5.528
10137TIP3    H130354   3.423   3.108   5.485
10137TIP3    H230355   3.567   3.150   5.469
10138TIP3   OH230356   3.141   5.507   0.099
10138TIP3    H130357   3.117   5.543   0.014
10138TIP3    H230358   3.231   5.477   0.088
10139TIP3   OH230359   8.081   6.709   0.927
10139TIP3    H130360   8.030   6.772   0.875
10139TIP3    H230361   8.172   6.724   0.901
10140TIP3   OH230362   3.125   0.435   4.345
10140TIP3    H130363   3.042   0.457   4.388
10140TIP3    H230364   3.111   0.347   4.311
10141TIP3   OH230365   7.125   0.351   5.086
10141TIP3    H130366   7.132   0.316   5.175
10141TIP3    H230367   7.031   0.352   5.068
10142TIP3   OH230368   5.998   6.894   0.458
10142TIP3    H130369   5.991   6.941   0.540
10142TIP3    H230370   6.044   6.813   0.480
10143TIP3   OH230371   1.806   5.968   4.995
10143TIP3    H130372   1.735   5.921   5.039
10143TIP3    H230373   1.775   5.981   4.905
10144TIP3   OH230374   0.377   2.980   4.139
10144TIP3    H130375   0.329   2.984   4.221
10144TIP3    H230376   0.317   3.019   4.075
10145TIP3   OH230377   7.495   7.413   2.443
10145TIP3    H130378   7.494   7.339   2.503
10145TIP3    H230379   7.494   7.373   2.356
10146TIP3   OH230380   1.673   0.455   6.306
10146TIP3    H130381   1.629   0.502   6.235
10146TIP3    H230382   1.602   0.426   6.363
10147TIP3   OH230383   5.401   2.330   4.247
10147TIP3    H130384   5.343   2.271   4.198
10147TIP3    H230385   5.420   2.401   4.186
10148TIP3   OH230386   7.396   0.539   6.665
10148TIP3    H130387   7.354   0.595   6.600
10148TIP3    H230388   7.324   0.501   6.715
10149TIP3   OH230389   7.476   0.304   1.766
10149TIP3    H130390   7.488   0.210   1.760
10149TIP3    H230391   7.530   0.331   1.840
10150TIP3   OH230392   4.251   4.100   4.022
10150TIP3    H130393   4.294   4.109   4.106
10150TIP3    H230394   4.162   4.132   4.037
10151TIP3   OH230395   5.312   4.554   2.969
10151TIP3    H130396   5.360   4.479   2.934
10151TIP3    H230397   5.263   4.518   3.043
10152TIP3   OH230398   3.834   5.946   0.870
10152TIP3    H130399   3.886   5.866   0.870
10152TIP3    H230400   3.819   5.965   0.963
10153TIP3   OH230401   7.118   2.857   5.521
10153TIP3    H130402   7.114   2.845   5.616
10153TIP3    H230403   7.078   2.943   5.507
10154TIP3   OH230404   2.289   4.214   0.695
10154TIP3    H130405   2.242   4.132   0.678
10154TIP3    H230406   2.220   4.278   0.711
10155TIP3   OH230407   2.066   1.976   0.868
10155TIP3    H130408   2.095   2.010   0.783
10155TIP3    H230409   2.017   2.048   0.907
10156TIP3   OH230410   3.428   0.216   4.897
10156TIP3    H130411   3.447   0.177   4.983
10156TIP3    H230412   3.378   0.295   4.917
10157TIP3   OH230413   2.030   1.966   1.579
10157TIP3    H130414   2.101   1.984   1.518
10157TIP3    H230415   1.950   1.986   1.529
10158TIP3   OH230416   4.530   4.701   0.132
10158TIP3    H130417   4.546   4.608   0.118
10158TIP3    H230418   4.610   4.733   0.175
10159TIP3   OH230419   4.941   4.528   5.423
10159TIP3    H130420   5.024   4.502   5.383
10159TIP3    H230421   4.963   4.604   5.477
10160TIP3   OH230422   6.142   7.359   4.036
10160TIP3    H130423   6.055   7.370   4.075
10160TIP3    H230424   6.169   7.271   4.062
10161TIP3   OH230425   7.721   0.815   3.504
10161TIP3    H130426   7.701   0.730   3.543
10161TIP3    H230427   7.642   0.868   3.520
10162TIP3   OH230428   1.429   7.280   1.724
10162TIP3    H130429   1.392   7.367   1.709
10162TIP3    H230430   1.470   7.257   1.640
10163TIP3   OH230431   3.212   4.424   1.160
10163TIP3    H130432   3.284   4.477   1.193
10163TIP3    H230433   3.226   4.338   1.200
10164TIP3   OH230434   5.867   5.675   1.022
10164TIP3    H130435   5.837   5.689   1.111
10164TIP3    H230436   5.800   5.716   0.967
10165TIP3   OH230437   0.570   5.057   2.376
10165TIP3    H130438   0.584   4.964   2.360
10165TIP3    H230439   0.483   5.075   2.340
10166TIP3   OH230440   3.972   3.599   3.703
10166TIP3    H130441   3.929   3.520   3.736
10166TIP3    H230442   3.905   3.667   3.709
10167TIP3   OH230443   2.767   1.941   4.217
10167TIP3    H130444   2.853   1.929   4.259
10167TIP3    H230445   2.763   2.035   4.199
10168TIP3   OH230446   6.912   2.848   0.778
10168TIP3    H130447   6.907   2.824   0.685
10168TIP3    H230448   6.901   2.765   0.824
10169TIP3   OH230449   7.719   4.216   4.942
10169TIP3    H130450   7.739   4.214   5.036
10169TIP3    H230451   7.790   4.266   4.903
10170TIP3   OH230452   8.104   2.631   3.254
10170TIP3    H130453   8.063   2.702   3.205
10170TIP3    H230454   8.192   2.664   3.275
10171TIP3   OH230455   2.916   4.340   3.062
10171TIP3    H130456   2.873   4.255   3.073
10171TIP3    H230457   2.899   4.363   2.970
10172TIP3   OH230458   7.529   1.557   0.794
10172TIP3    H130459   7.507   1.560   0.887
10172TIP3    H230460   7.478   1.628   0.755
10173TIP3   OH230461   5.208   3.834   0.323
10173TIP3    H130462   5.147   3.772   0.364
10173TIP3    H230463   5.285   3.834   0.380
10174TIP3   OH230464   5.616   7.692   0.557
10174TIP3    H130465   5.561   7.660   0.629
10174TIP3    H230466   5.702   7.703   0.597
10175TIP3   OH230467   4.232   1.778   2.190
10175TIP3    H130468   4.144   1.753   2.161
10175TIP3    H230469   4.218   1.822   2.274
10176TIP3   OH230470   0.453   3.361   3.311
10176TIP3    H130471   0.453   3.265   3.311
10176TIP3    H230472   0.542   3.385   3.336
10177TIP3   OH230473   5.922   2.330   3.924
10177TIP3    H130474   5.922   2.257   3.862
10177TIP3    H230475   5.874   2.297   4.000
10178TIP3   OH230476   4.444   3.683   3.242
10178TIP3    H130477   4.505   3.752   3.268
10178TIP3    H230478   4.415   3.644   3.324
10179TIP3   OH230479   0.676   1.165   3.250
10179TIP3    H130480   0.690   1.110   3.327
10179TIP3    H230481   0.731   1.242   3.266
10180TIP3   OH230482   7.099   4.292   3.686
10180TIP3    H130483   7.087   4.311   3.592
10180TIP3    H230484   7.071   4.372   3.730
10181TIP3   OH230485   3.557   0.904   5.243
10181TIP3    H130486   3.637   0.882   5.196
10181TIP3    H230487   3.513   0.820   5.256
10182TIP3   OH230488   0.129   2.219   3.905
10182TIP3    H130489   0.036   2.212   3.925
10182TIP3    H230490   0.160   2.292   3.960
10183TIP3   OH230491   5.877   1.853   5.352
10183TIP3    H130492   5.948   1.871   5.291
10183TIP3    H230493   5.818   1.794   5.304
10184TIP3   OH230494   0.691   0.810   1.513
10184TIP3    H130495   0.676   0.874   1.583
10184TIP3    H230496   0.725   0.733   1.558
10185TIP3   OH230497   3.544   1.490   1.649
10185TIP3    H130498   3.623   1.451   1.685
10185TIP3    H230499   3.546   1.581   1.679
10186TIP3   OH230500   6.689   5.453   3.302
10186TIP3    H130501   6.665   5.394   3.231
10186TIP3    H230502   6.784   5.446   3.308
10187TIP3   OH230503   0.644   7.688   2.446
10187TIP3    H130504   0.736   7.684   2.471
10187TIP3    H230505   0.640   7.756   2.378
10188TIP3   OH230506   3.538   3.809   3.512
10188TIP3    H130507   3.444   3.802   3.493
10188TIP3    H230508   3.564   3.892   3.471
10189TIP3   OH230509   1.646   1.271   0.079
10189TIP3    H130510   1.723   1.220   0.054
10189TIP3    H230511   1.593   1.274   0.000
10190TIP3   OH230512   2.358   3.144   3.727
10190TIP3    H130513   2.367   3.141   3.822
10190TIP3    H230514   2.438   3.103   3.694
10191TIP3   OH230515   0.425   6.603   5.831
10191TIP3    H130516   0.386   6.680   5.790
10191TIP3    H230517   0.362   6.576   5.897
10192TIP3   OH230518   2.090   5.975   5.756
10192TIP3    H130519   2.168   5.922   5.741
10192TIP3    H230520   2.120   6.065   5.750
10193TIP3   OH230521   8.050   3.816   6.165
10193TIP3    H130522   7.965   3.856   6.179
10193TIP3    H230523   8.038   3.724   6.189
10194TIP3   OH230524   5.774   4.356   3.393
10194TIP3    H130525   5.711   4.291   3.424
10194TIP3    H230526   5.840   4.305   3.346
10195TIP3   OH230527   1.279   6.600   6.037
10195TIP3    H130528   1.276   6.670   5.972
10195TIP3    H230529   1.192   6.560   6.034
10196TIP3   OH230530   6.099   2.072   0.369
10196TIP3    H130531   6.194   2.057   0.361
10196TIP3    H230532   6.077   2.033   0.454
10197TIP3   OH230533   0.150   7.261   5.165
10197TIP3    H130534   0.158   7.238   5.073
10197TIP3    H230535   0.079   7.325   5.168
10198TIP3   OH230536   5.317   0.203   3.713
10198TIP3    H130537   5.307   0.298   3.706
10198TIP3    H230538   5.343   0.176   3.625
10199TIP3   OH230539   0.760   3.033   3.234
10199TIP3    H130540   0.666   3.050   3.241
10199TIP3    H230541   0.801   3.114   3.266
10200TIP3   OH230542   6.144   5.237   1.740
10200TIP3    H130543   6.112   5.174   1.675
10200TIP3    H230544   6.146   5.187   1.822
10201TIP3   OH230545   7.482   7.780   6.374
10201TIP3    H130546   7.411   7.838   6.402
10201TIP3    H230547   7.467   7.698   6.420
10202TIP3   OH230548   1.437   2.180   4.196
10202TIP3    H130549   1.528   2.155   4.178
10202TIP3    H230550   1.404   2.211   4.111
10203TIP3   OH230551   7.631   4.732   1.759
10203TIP3    H130552   7.653   4.696   1.674
10203TIP3    H230553   7.626   4.827   1.745
10204TIP3   OH230554   0.600   2.170   5.507
10204TIP3    H130555   0.569   2.129   5.426
10204TIP3    H230556   0.639   2.252   5.479
10205TIP3   OH230557   1.120   3.799   6.265
10205TIP3    H130558   1.186   3.848   6.215
10205TIP3    H230559   1.150   3.803   6.355
10206TIP3   OH230560   1.263   0.548   6.263
10206TIP3    H130561   1.193   0.563   6.326
10206TIP3    H230562   1.344   0.565   6.312
10207TIP3   OH230563   6.588   7.076   2.931
10207TIP3    H130564   6.630   7.146   2.980
10207TIP3    H230565   6.611   6.996   2.978
10208TIP3   OH230566   3.061   6.349   2.518
10208TIP3    H130567   3.095   6.431   2.553
10208TIP3    H230568   2.970   6.368   2.496
10209TIP3   OH230569   4.420   2.818   0.343
10209TIP3    H130570   4.409   2.777   0.257
10209TIP3    H230571   4.393   2.909   0.330
10210TIP3   OH230572   2.358   5.028   4.225
10210TIP3    H130573   2.333   5.065   4.309
10210TIP3    H230574   2.314   4.943   4.222
10211TIP3   OH230575   1.140   2.221   3.821
10211TIP3    H130576   1.120   2.149   3.880
10211TIP3    H230577   1.216   2.264   3.861
10212TIP3   OH230578   4.404   4.952   0.572
10212TIP3    H130579   4.387   4.870   0.526
10212TIP3    H230580   4.319   4.996   0.575
10213TIP3   OH230581   0.883   1.467   1.719
10213TIP3    H130582   0.832   1.386   1.715
10213TIP3    H230583   0.819   1.533   1.745
10214TIP3   OH230584   5.528   1.173   1.468
10214TIP3    H130585   5.485   1.089   1.482
10214TIP3    H230586   5.619   1.151   1.448
10215TIP3   OH230587   2.242   3.770   6.101
10215TIP3    H130588   2.317   3.759   6.043
10215TIP3    H230589   2.235   3.687   6.148
10216TIP3   OH230590   1.255   5.723   1.172
10216TIP3    H130591   1.164   5.707   1.145
10216TIP3    H230592   1.288   5.785   1.107
10217TIP3   OH230593   4.049   1.166   4.953
10217TIP3    H130594   4.118   1.166   4.886
10217TIP3    H230595   4.029   1.258   4.966
10218TIP3   OH230596   3.334   2.275   1.157
10218TIP3    H130597   3.332   2.280   1.061
10218TIP3    H230598   3.390   2.348   1.184
10219TIP3   OH230599   7.538   1.667   2.180
10219TIP3    H130600   7.504   1.684   2.268
10219TIP3    H230601   7.512   1.577   2.161
10220TIP3   OH230602   0.263   6.296   1.660
10220TIP3    H130603   0.345   6.253   1.638
10220TIP3    H230604   0.266   6.379   1.613
10221TIP3   OH230605   3.305   3.430   5.617
10221TIP3    H130606   3.245   3.356   5.626
10221TIP3    H230607   3.384   3.404   5.665
10222TIP3   OH230608   1.919   0.544   2.719
10222TIP3    H130609   1.946   0.636   2.715
10222TIP3    H230610   1.829   0.544   2.686
10223TIP3   OH230611   7.351   4.031   6.558
10223TIP3    H130612   7.410   4.106   6.565
10223TIP3    H230613   7.373   3.991   6.474
10224TIP3   OH230614   4.891   2.455   5.967
10224TIP3    H130615   4.839   2.515   5.913
10224TIP3    H230616   4.861   2.473   6.057
10225TIP3   OH230617   8.197   0.836   4.477
10225TIP3    H130618   8.275   0.783   4.494
10225TIP3    H230619   8.188   0.891   4.555
10226TIP3   OH230620   3.496   0.204   1.300
10226TIP3    H130621   3.479   0.116   1.334
10226TIP3    H230622   3.466   0.201   1.209
10227TIP3   OH230623   0.754   6.410   4.626
10227TIP3    H130624   0.775   6.496   4.661
10227TIP3    H230625   0.812   6.350   4.673
10228TIP3   OH230626   3.970   3.712   0.631
10228TIP3    H130627   3.928   3.631   0.659
10228TIP3    H230628   3.942   3.778   0.694
10229TIP3   OH230629   4.304   5.489   5.288
10229TIP3    H130630   4.267   5.577   5.290
10229TIP3    H230631   4.247   5.438   5.346
10230TIP3   OH230632   6.001   6.819   4.981
10230TIP3    H130633   6.019   6.879   4.909
10230TIP3    H230634   6.062   6.844   5.049
10231TIP3   OH230635   2.722   4.870   4.860
10231TIP3    H130636   2.818   4.870   4.868
10231TIP3    H230637   2.706   4.890   4.768
10232TIP3   OH230638   7.197   7.543   0.488
10232TIP3    H130639   7.111   7.575   0.516
10232TIP3    H230640   7.258   7.609   0.520
10233TIP3   OH230641   4.909   6.190   3.943
10233TIP3    H130642   4.998   6.219   3.966
10233TIP3    H230643   4.906   6.098   3.971
10234TIP3   OH230644   3.885   3.147   5.989
10234TIP3    H130645   3.868   3.070   5.933
10234TIP3    H230646   3.811   3.150   6.049
10235TIP3   OH230647   1.414   5.390   2.572
10235TIP3    H130648   1.454   5.456   2.516
10235TIP3    H230649   1.419   5.309   2.521
10236TIP3   OH230650   0.837   5.148   1.185
10236TIP3    H130651   0.911   5.148   1.125
10236TIP3    H230652   0.867   5.098   1.261
10237TIP3   OH230653   4.755   3.906   0.126
10237TIP3    H130654   4.766   3.816   0.157
10237TIP3    H230655   4.829   3.954   0.165
10238TIP3   OH230656   3.092   0.096   1.768
10238TIP3    H130657   3.062   0.169   1.823
10238TIP3    H230658   3.025   0.089   1.700
10239TIP3   OH230659   1.929   3.095   6.505
10239TIP3    H130660   1.864   3.027   6.486
10239TIP3    H230661   1.906   3.168   6.448
10240TIP3   OH230662   7.392   4.601   5.700
10240TIP3    H130663   7.362   4.510   5.691
10240TIP3    H230664   7.326   4.652   5.653
10241TIP3   OH230665   5.802   0.480   5.067
10241TIP3    H130666   5.711   0.509   5.060
10241TIP3    H230667   5.834   0.478   4.977
10242TIP3   OH230668   1.528   0.647   2.748
10242TIP3    H130669   1.601   0.656   2.687
10242TIP3    H230670   1.547   0.710   2.817
10243TIP3   OH230671   3.707   2.422   3.088
10243TIP3    H130672   3.636   2.357   3.096
10243TIP3    H230673   3.680   2.478   3.015
10244TIP3   OH230674   7.995   1.091   5.054
10244TIP3    H130675   7.958   1.063   5.138
10244TIP3    H230676   7.923   1.080   4.992
10245TIP3   OH230677   0.403   3.953   5.019
10245TIP3    H130678   0.489   3.910   5.018
10245TIP3    H230679   0.409   4.017   4.948
10246TIP3   OH230680   3.373   3.780   0.260
10246TIP3    H130681   3.322   3.699   0.254
10246TIP3    H230682   3.454   3.754   0.303
10247TIP3   OH230683   0.260   0.850   1.936
10247TIP3    H130684   0.168   0.846   1.959
10247TIP3    H230685   0.260   0.867   1.841
10248TIP3   OH230686   4.288   3.894   4.654
10248TIP3    H130687   4.313   3.941   4.734
10248TIP3    H230688   4.365   3.900   4.597
10249TIP3   OH230689   8.198   7.696   6.032
10249TIP3    H130690   8.179   7.781   5.991
10249TIP3    H230691   8.201   7.715   6.125
10250TIP3   OH230692   7.161   5.875   3.762
10250TIP3    H130693   7.184   5.904   3.850
10250TIP3    H230694   7.243   5.844   3.724
10251TIP3   OH230695   4.219   0.757   1.553
10251TIP3    H130696   4.289   0.694   1.571
10251TIP3    H230697   4.149   0.733   1.614
10252TIP3   OH230698   1.238   4.688   4.004
10252TIP3    H130699   1.235   4.751   4.075
10252TIP3    H230700   1.182   4.726   3.936
10253TIP3   OH230701   2.764   1.006   1.682
10253TIP3    H130702   2.841   1.063   1.682
10253TIP3    H230703   2.692   1.062   1.708
10254TIP3   OH230704   3.024   0.334   1.617
10254TIP3    H130705   3.081   0.282   1.561
10254TIP3    H230706   2.953   0.362   1.559
10255TIP3   OH230707   1.766   6.030   1.254
10255TIP3    H130708   1.795   5.974   1.326
10255TIP3    H230709   1.677   6.000   1.235
10256TIP3   OH230710   1.111   2.221   4.910
10256TIP3    H130711   1.173   2.287   4.940
10256TIP3    H230712   1.066   2.261   4.836
10257TIP3   OH230713   1.538   5.631   3.891
10257TIP3    H130714   1.619   5.678   3.872
10257TIP3    H230715   1.478   5.659   3.821
10258TIP3   OH230716   0.363   0.846   5.833
10258TIP3    H130717   0.388   0.838   5.925
10258TIP3    H230718   0.270   0.868   5.836
10259TIP3   OH230719   2.440   7.783   1.735
10259TIP3    H130720   2.382   7.777   1.659
10259TIP3    H230721   2.527   7.798   1.698
10260TIP3   OH230722   7.082   6.795   4.358
10260TIP3    H130723   7.151   6.858   4.337
10260TIP3    H230724   7.003   6.849   4.367
10261TIP3   OH230725   1.529   6.687   5.144
10261TIP3    H130726   1.598   6.685   5.211
10261TIP3    H230727   1.447   6.690   5.194
10262TIP3   OH230728   3.474   7.646   2.002
10262TIP3    H130729   3.553   7.611   2.044
10262TIP3    H230730   3.402   7.598   2.044
10263TIP3   OH230731   7.593   6.955   3.048
10263TIP3    H130732   7.668   6.921   3.095
10263TIP3    H230733   7.523   6.893   3.066
10264TIP3   OH230734   1.646   2.486   4.242
10264TIP3    H130735   1.730   2.526   4.265
10264TIP3    H230736   1.632   2.418   4.308
10265TIP3   OH230737   0.213   0.153   2.896
10265TIP3    H130738   0.122   0.162   2.867
10265TIP3    H230739   0.263   0.147   2.815
10266TIP3   OH230740   5.227   7.834   1.766
10266TIP3    H130741   5.295   7.817   1.831
10266TIP3    H230742   5.163   7.888   1.811
10267TIP3   OH230743   0.492   5.672   0.059
10267TIP3    H130744   0.543   5.592   0.071
10267TIP3    H230745   0.528   5.733   0.123
10268TIP3   OH230746   8.254   1.463   5.631
10268TIP3    H130747   8.288   1.505   5.710
10268TIP3    H230748   8.329   1.417   5.594
10269TIP3   OH230749   7.055   1.451   3.937
10269TIP3    H130750   7.133   1.401   3.916
10269TIP3    H230751   7.076   1.541   3.910
10270TIP3   OH230752   3.425   3.765   2.183
10270TIP3    H130753   3.469   3.683   2.160
10270TIP3    H230754   3.353   3.738   2.241
10271TIP3   OH230755   5.842   2.009   6.534
10271TIP3    H130756   5.776   2.060   6.488
10271TIP3    H230757   5.918   2.066   6.541
10272TIP3   OH230758   2.719   3.959   5.272
10272TIP3    H130759   2.629   3.930   5.257
10272TIP3    H230760   2.740   4.015   5.197
10273TIP3   OH230761   7.002   1.430   3.018
10273TIP3    H130762   7.082   1.381   2.999
10273TIP3    H230763   6.946   1.415   2.941
10274TIP3   OH230764   5.450   7.587   3.334
10274TIP3    H130765   5.388   7.522   3.366
10274TIP3    H230766   5.536   7.549   3.351
10275TIP3   OH230767   0.310   6.040   4.926
10275TIP3    H130768   0.320   6.129   4.891
10275TIP3    H230769   0.287   5.987   4.850
10276TIP3   OH230770   5.978   4.814   5.593
10276TIP3    H130771   5.900   4.870   5.597
10276TIP3    H230772   5.981   4.782   5.503
10277TIP3   OH230773   6.259   7.193   0.831
10277TIP3    H130774   6.219   7.261   0.776
10277TIP3    H230775   6.353   7.213   0.830
10278TIP3   OH230776   1.292   3.503   5.099
10278TIP3    H130777   1.381   3.532   5.116
10278TIP3    H230778   1.272   3.444   5.172
10279TIP3   OH230779   7.081   7.156   5.867
10279TIP3    H130780   7.084   7.209   5.787
10279TIP3    H230781   7.033   7.078   5.843
10280TIP3   OH230782   6.002   4.984   6.302
10280TIP3    H130783   5.909   5.002   6.318
10280TIP3    H230784   6.014   4.893   6.330
10281TIP3   OH230785   6.505   1.582   3.975
10281TIP3    H130786   6.539   1.668   3.949
10281TIP3    H230787   6.550   1.520   3.917
10282TIP3   OH230788   4.470   4.018   0.336
10282TIP3    H130789   4.464   3.938   0.389
10282TIP3    H230790   4.379   4.045   0.322
10283TIP3   OH230791   5.268   4.095   6.290
10283TIP3    H130792   5.310   4.012   6.266
10283TIP3    H230793   5.178   4.070   6.312
10284TIP3   OH230794   5.545   1.555   0.256
10284TIP3    H130795   5.587   1.637   0.283
10284TIP3    H230796   5.524   1.510   0.338
10285TIP3   OH230797   1.086   5.615   0.489
10285TIP3    H130798   1.020   5.546   0.500
10285TIP3    H230799   1.101   5.618   0.394
10286TIP3   OH230800   6.868   4.424   4.676
10286TIP3    H130801   6.784   4.392   4.707
10286TIP3    H230802   6.917   4.345   4.652
10287TIP3   OH230803   5.168   2.408   6.158
10287TIP3    H130804   5.144   2.375   6.072
10287TIP3    H230805   5.212   2.491   6.141
10288TIP3   OH230806   0.169   1.692   1.233
10288TIP3    H130807   0.083   1.649   1.234
10288TIP3    H230808   0.150   1.784   1.215
10289TIP3   OH230809   5.519   5.598   6.388
10289TIP3    H130810   5.538   5.684   6.425
10289TIP3    H230811   5.506   5.542   6.465
10290TIP3   OH230812   0.572   6.073   2.614
10290TIP3    H130813   0.491   6.073   2.562
10290TIP3    H230814   0.630   6.135   2.569
10291TIP3   OH230815   2.804   1.140   2.812
10291TIP3    H130816   2.835   1.193   2.738
10291TIP3    H230817   2.739   1.082   2.774
10292TIP3   OH230818   6.016   0.688   1.713
10292TIP3    H130819   5.922   0.704   1.700
10292TIP3    H230820   6.039   0.741   1.789
10293TIP3   OH230821   2.897   2.545   3.041
10293TIP3    H130822   2.801   2.551   3.045
10293TIP3    H230823   2.913   2.464   2.993
10294TIP3   OH230824   0.981   2.853   3.400
10294TIP3    H130825   0.962   2.861   3.494
10294TIP3    H230826   1.023   2.936   3.378
10295TIP3   OH230827   7.537   6.611   1.408
10295TIP3    H130828   7.608   6.618   1.471
10295TIP3    H230829   7.459   6.596   1.462
10296TIP3   OH230830   3.143   2.873   5.643
10296TIP3    H130831   3.152   2.783   5.611
10296TIP3    H230832   3.110   2.922   5.568
10297TIP3   OH230833   4.427   3.723   1.917
10297TIP3    H130834   4.496   3.658   1.905
10297TIP3    H230835   4.395   3.740   1.828
10298TIP3   OH230836   0.518   3.552   6.361
10298TIP3    H130837   0.513   3.477   6.420
10298TIP3    H230838   0.435   3.550   6.313
10299TIP3   OH230839   5.672   7.528   2.029
10299TIP3    H130840   5.692   7.458   2.091
10299TIP3    H230841   5.723   7.507   1.951
10300TIP3   OH230842   2.516   1.735   3.168
10300TIP3    H130843   2.563   1.662   3.127
10300TIP3    H230844   2.442   1.751   3.109
10301TIP3   OH230845   4.047   6.522   6.411
10301TIP3    H130846   4.045   6.496   6.319
10301TIP3    H230847   4.140   6.521   6.434
10302TIP3   OH230848   5.187   3.615   2.205
10302TIP3    H130849   5.157   3.694   2.160
10302TIP3    H230850   5.269   3.642   2.248
10303TIP3   OH230851   5.255   4.615   0.196
10303TIP3    H130852   5.297   4.685   0.246
10303TIP3    H230853   5.223   4.555   0.263
10304TIP3   OH230854   0.345   3.615   2.560
10304TIP3    H130855   0.313   3.698   2.595
10304TIP3    H230856   0.400   3.640   2.486
10305TIP3   OH230857   2.590   7.543   2.973
10305TIP3    H130858   2.631   7.563   2.889
10305TIP3    H230859   2.498   7.566   2.962
10306TIP3   OH230860   1.451   7.506   0.488
10306TIP3    H130861   1.435   7.450   0.565
10306TIP3    H230862   1.400   7.467   0.418
10307TIP3   OH230863   2.059   5.474   0.224
10307TIP3    H130864   2.107   5.459   0.306
10307TIP3    H230865   2.073   5.567   0.205
10308TIP3   OH230866   7.745   7.711   4.058
10308TIP3    H130867   7.710   7.707   3.968
10308TIP3    H230868   7.672   7.682   4.113
10309TIP3   OH230869   7.931   4.899   2.828
10309TIP3    H130870   7.938   4.984   2.785
10309TIP3    H230871   7.905   4.919   2.918
10310TIP3   OH230872   3.279   5.517   3.248
10310TIP3    H130873   3.294   5.486   3.158
10310TIP3    H230874   3.184   5.515   3.258
10311TIP3   OH230875   3.697   4.341   4.604
10311TIP3    H130876   3.759   4.346   4.531
10311TIP3    H230877   3.668   4.432   4.616
10312TIP3   OH230878   2.971   4.325   3.395
10312TIP3    H130879   2.923   4.386   3.451
10312TIP3    H230880   2.969   4.242   3.443
10313TIP3   OH230881   4.294   0.247   4.753
10313TIP3    H130882   4.300   0.200   4.836
10313TIP3    H230883   4.285   0.339   4.778
10314TIP3   OH230884   3.284   4.963   3.755
10314TIP3    H130885   3.302   4.981   3.848
10314TIP3    H230886   3.241   5.042   3.723
10315TIP3   OH230887   1.894   7.455   2.486
10315TIP3    H130888   1.815   7.505   2.466
10315TIP3    H230889   1.919   7.416   2.402
10316TIP3   OH230890   0.374   4.443   1.700
10316TIP3    H130891   0.438   4.493   1.650
10316TIP3    H230892   0.291   4.488   1.685
10317TIP3   OH230893   6.323   0.794   2.022
10317TIP3    H130894   6.288   0.713   2.059
10317TIP3    H230895   6.247   0.838   1.984
10318TIP3   OH230896   2.795   3.861   5.913
10318TIP3    H130897   2.858   3.907   5.858
10318TIP3    H230898   2.768   3.926   5.978
10319TIP3   OH230899   3.279   0.435   5.023
10319TIP3    H130900   3.345   0.465   5.086
10319TIP3    H230901   3.217   0.508   5.016
10320TIP3   OH230902   4.765   0.157   5.061
10320TIP3    H130903   4.679   0.194   5.079
10320TIP3    H230904   4.827   0.227   5.084
10321TIP3   OH230905   1.099   1.427   5.659
10321TIP3    H130906   1.091   1.343   5.704
10321TIP3    H230907   1.091   1.492   5.730
10322TIP3   OH230908   5.082   3.380   2.256
10322TIP3    H130909   5.007   3.415   2.304
10322TIP3    H230910   5.121   3.457   2.214
10323TIP3   OH230911   2.368   6.186   1.616
10323TIP3    H130912   2.334   6.184   1.706
10323TIP3    H230913   2.432   6.116   1.612
10324TIP3   OH230914   6.201   4.916   4.009
10324TIP3    H130915   6.260   4.935   3.936
10324TIP3    H230916   6.120   4.962   3.988
10325TIP3   OH230917   2.052   3.337   1.514
10325TIP3    H130918   1.981   3.401   1.525
10325TIP3    H230919   2.111   3.354   1.587
10326TIP3   OH230920   8.272   2.417   6.053
10326TIP3    H130921   8.182   2.430   6.024
10326TIP3    H230922   8.284   2.482   6.122
10327TIP3   OH230923   7.860   3.299   6.302
10327TIP3    H130924   7.795   3.229   6.294
10327TIP3    H230925   7.823   3.358   6.368
10328TIP3   OH230926   0.622   4.133   2.687
10328TIP3    H130927   0.669   4.185   2.752
10328TIP3    H230928   0.673   4.144   2.607
10329TIP3   OH230929   1.160   2.883   5.651
10329TIP3    H130930   1.145   2.955   5.712
10329TIP3    H230931   1.072   2.855   5.626
10330TIP3   OH230932   1.291   4.166   0.145
10330TIP3    H130933   1.249   4.142   0.228
10330TIP3    H230934   1.287   4.086   0.093
10331TIP3   OH230935   4.598   4.319   1.780
10331TIP3    H130936   4.577   4.296   1.689
10331TIP3    H230937   4.610   4.234   1.823
10332TIP3   OH230938   5.444   0.298   3.967
10332TIP3    H130939   5.419   0.354   3.893
10332TIP3    H230940   5.430   0.209   3.936
10333TIP3   OH230941   7.349   6.534   2.109
10333TIP3    H130942   7.272   6.550   2.163
10333TIP3    H230943   7.350   6.439   2.097
10334TIP3   OH230944   7.364   3.224   3.402
10334TIP3    H130945   7.396   3.241   3.313
10334TIP3    H230946   7.328   3.135   3.398
10335TIP3   OH230947   6.613   0.847   5.801
10335TIP3    H130948   6.604   0.816   5.891
10335TIP3    H230949   6.606   0.942   5.807
10336TIP3   OH230950   2.745   1.633   3.025
10336TIP3    H130951   2.812   1.639   2.956
10336TIP3    H230952   2.792   1.655   3.105
10337TIP3   OH230953   4.165   7.140   3.019
10337TIP3    H130954   4.151   7.082   3.093
10337TIP3    H230955   4.168   7.083   2.942
10338TIP3   OH230956   3.781   6.842   1.577
10338TIP3    H130957   3.837   6.907   1.620
10338TIP3    H230958   3.817   6.758   1.605
10339TIP3   OH230959   7.861   5.734   6.305
10339TIP3    H130960   7.884   5.654   6.259
10339TIP3    H230961   7.767   5.726   6.324
10340TIP3   OH230962   0.406   2.093   1.386
10340TIP3    H130963   0.322   2.097   1.342
10340TIP3    H230964   0.467   2.059   1.321
10341TIP3   OH230965   7.779   5.718   2.047
10341TIP3    H130966   7.798   5.752   1.960
10341TIP3    H230967   7.713   5.778   2.083
10342TIP3   OH230968   1.551   7.811   2.265
10342TIP3    H130969   1.495   7.808   2.187
10342TIP3    H230970   1.640   7.800   2.232
10343TIP3   OH230971   1.911   2.746   5.824
10343TIP3    H130972   1.913   2.782   5.913
10343TIP3    H230973   1.875   2.816   5.770
10344TIP3   OH230974   4.762   0.712   4.370
10344TIP3    H130975   4.753   0.667   4.285
10344TIP3    H230976   4.767   0.804   4.347
10345TIP3   OH230977   1.649   3.461   4.506
10345TIP3    H130978   1.652   3.407   4.427
10345TIP3    H230979   1.557   3.460   4.532
10346TIP3   OH230980   3.992   6.389   2.927
10346TIP3    H130981   3.993   6.404   3.022
10346TIP3    H230982   3.916   6.332   2.912
10347TIP3   OH230983   3.192   3.460   3.556
10347TIP3    H130984   3.097   3.456   3.555
10347TIP3    H230985   3.216   3.436   3.646
10348TIP3   OH230986   1.541   5.977   0.318
10348TIP3    H130987   1.615   5.928   0.280
10348TIP3    H230988   1.581   6.053   0.359
10349TIP3   OH230989   2.650   3.559   4.497
10349TIP3    H130990   2.697   3.541   4.579
10349TIP3    H230991   2.693   3.504   4.432
10350TIP3   OH230992   2.559   6.705   3.910
10350TIP3    H130993   2.470   6.670   3.918
10350TIP3    H230994   2.576   6.708   3.816
10351TIP3   OH230995   2.173   1.084   2.776
10351TIP3    H130996   2.193   1.175   2.753
10351TIP3    H230997   2.092   1.090   2.826
10352TIP3   OH230998   3.567   3.537   0.074
10352TIP3    H130999   3.635   3.477   0.104
10352TIP3    H231000   3.557   3.600   0.145
10353TIP3   OH231001   7.730   1.331   0.474
10353TIP3    H131002   7.813   1.378   0.464
10353TIP3    H231003   7.753   1.239   0.464
10354TIP3   OH231004   0.649   4.390   4.660
10354TIP3    H131005   0.681   4.396   4.750
10354TIP3    H231006   0.669   4.299   4.635
10355TIP3   OH231007   1.545   5.051   0.046
10355TIP3    H131008   1.571   5.138   0.017
10355TIP3    H231009   1.542   4.999  -0.034
10356TIP3   OH231010   7.864   3.790   0.734
10356TIP3    H131011   7.923   3.773   0.807
10356TIP3    H231012   7.777   3.771   0.769
10357TIP3   OH231013   5.830   7.281   5.239
10357TIP3    H131014   5.905   7.233   5.203
10357TIP3    H231015   5.766   7.213   5.260
10358TIP3   OH231016   4.765   1.467   2.348
10358TIP3    H131017   4.859   1.448   2.346
10358TIP3    H231018   4.750   1.525   2.273
10359TIP3   OH231019   7.606   1.359   5.206
10359TIP3    H131020   7.652   1.444   5.202
10359TIP3    H231021   7.622   1.328   5.295
10360TIP3   OH231022   6.319   0.862   2.875
10360TIP3    H131023   6.404   0.845   2.834
10360TIP3    H231024   6.275   0.923   2.815
10361TIP3   OH231025   1.374   5.938   2.554
10361TIP3    H131026   1.404   5.853   2.586
10361TIP3    H231027   1.287   5.949   2.591
10362TIP3   OH231028   7.640   6.020   2.595
10362TIP3    H131029   7.655   6.113   2.608
10362TIP3    H231030   7.595   5.991   2.674
10363TIP3   OH231031   5.272   3.333   4.223
10363TIP3    H131032   5.201   3.269   4.238
10363TIP3    H231033   5.344   3.300   4.276
10364TIP3   OH231034   7.431   6.027   3.948
10364TIP3    H131035   7.442   5.945   3.900
10364TIP3    H231036   7.496   6.022   4.019
10365TIP3   OH231037   1.568   6.753   0.230
10365TIP3    H131038   1.660   6.754   0.256
10365TIP3    H231039   1.524   6.710   0.303
10366TIP3   OH231040   7.289   5.183   4.787
10366TIP3    H131041   7.270   5.235   4.864
10366TIP3    H231042   7.330   5.243   4.726
10367TIP3   OH231043   5.643   7.781   3.931
10367TIP3    H131044   5.626   7.871   3.960
10367TIP3    H231045   5.561   7.754   3.889
10368TIP3   OH231046   6.686   6.340   1.022
10368TIP3    H131047   6.599   6.324   0.987
10368TIP3    H231048   6.743   6.336   0.945
10369TIP3   OH231049   3.457   7.437   1.198
10369TIP3    H131050   3.444   7.346   1.223
10369TIP3    H231051   3.530   7.468   1.251
10370TIP3   OH231052   1.374   3.796   2.122
10370TIP3    H131053   1.392   3.890   2.125
10370TIP3    H231054   1.454   3.755   2.155
10371TIP3   OH231055   6.637   6.617   6.427
10371TIP3    H131056   6.614   6.682   6.494
10371TIP3    H231057   6.674   6.544   6.477
10372TIP3   OH231058   2.967   3.456   5.613
10372TIP3    H131059   2.974   3.489   5.702
10372TIP3    H231060   3.030   3.384   5.609
10373TIP3   OH231061   2.826   7.004   0.450
10373TIP3    H131062   2.776   7.051   0.383
10373TIP3    H231063   2.904   7.059   0.465
10374TIP3   OH231064   0.376   4.876   2.891
10374TIP3    H131065   0.423   4.957   2.915
10374TIP3    H231066   0.288   4.888   2.926
10375TIP3   OH231067   7.852   4.410   3.712
10375TIP3    H131068   7.918   4.363   3.662
10375TIP3    H231069   7.768   4.377   3.678
10376TIP3   OH231070   6.786   2.335   3.755
10376TIP3    H131071   6.747   2.389   3.824
10376TIP3    H231072   6.712   2.311   3.700
10377TIP3   OH231073   2.796   6.957   3.105
10377TIP3    H131074   2.849   7.033   3.080
10377TIP3    H231075   2.844   6.919   3.179
10378TIP3   OH231076   5.506   1.192   2.951
10378TIP3    H131077   5.410   1.193   2.955
10378TIP3    H231078   5.528   1.101   2.929
10379TIP3   OH231079   4.207   7.314   1.248
10379TIP3    H131080   4.190   7.368   1.171
10379TIP3    H231081   4.219   7.226   1.212
10380TIP3   OH231082   7.407   0.743   0.503
10380TIP3    H131083   7.478   0.795   0.467
10380TIP3    H231084   7.406   0.663   0.450
10381TIP3   OH231085   4.665   3.686   4.327
10381TIP3    H131086   4.619   3.668   4.409
10381TIP3    H231087   4.607   3.746   4.279
10382TIP3   OH231088   4.968   5.808   5.575
10382TIP3    H131089   5.055   5.839   5.551
10382TIP3    H231090   4.983   5.722   5.614
10383TIP3   OH231091   6.522   3.315   3.745
10383TIP3    H131092   6.611   3.332   3.713
10383TIP3    H231093   6.492   3.241   3.693
10384TIP3   OH231094   6.403   5.850   2.499
10384TIP3    H131095   6.481   5.799   2.477
10384TIP3    H231096   6.423   5.939   2.472
10385TIP3   OH231097   5.202   7.220   2.981
10385TIP3    H131098   5.108   7.238   2.985
10385TIP3    H231099   5.243   7.293   3.026
10386TIP3   OH231100   3.648   1.944   1.345
10386TIP3    H131101   3.628   2.004   1.273
10386TIP3    H231102   3.701   1.997   1.406
10387TIP3   OH231103   2.110   7.590   1.186
10387TIP3    H131104   2.132   7.497   1.188
10387TIP3    H231105   2.157   7.624   1.110
10388TIP3   OH231106   4.260   1.933   1.885
10388TIP3    H131107   4.183   1.984   1.912
10388TIP3    H231108   4.331   1.967   1.939
10389TIP3   OH231109   3.400   4.987   2.055
10389TIP3    H131110   3.349   5.022   2.128
10389TIP3    H231111   3.389   4.892   2.061
10390TIP3   OH231112   6.917   0.763   4.268
10390TIP3    H131113   7.005   0.737   4.239
10390TIP3    H231114   6.861   0.688   4.248
10391TIP3   OH231115   1.613   6.667   6.463
10391TIP3    H131116   1.691   6.682   6.516
10391TIP3    H231117   1.588   6.576   6.481
10392TIP3   OH231118   0.854   2.659   2.022
10392TIP3    H131119   0.772   2.708   2.013
10392TIP3    H231120   0.888   2.687   2.107
10393TIP3   OH231121   4.907   6.949   3.553
10393TIP3    H131122   4.969   6.879   3.530
10393TIP3    H231123   4.835   6.938   3.491
10394TIP3   OH231124   2.959   6.840   5.869
10394TIP3    H131125   2.964   6.745   5.863
10394TIP3    H231126   2.873   6.858   5.905
10395TIP3   OH231127   8.181   1.084   3.702
10395TIP3    H131128   8.162   1.044   3.617
10395TIP3    H231129   8.101   1.070   3.753
10396TIP3   OH231130   5.813   3.095   2.419
10396TIP3    H131131   5.806   3.008   2.380
10396TIP3    H231132   5.822   3.080   2.513
10397TIP3   OH231133   1.889   0.627   0.735
10397TIP3    H131134   1.890   0.662   0.646
10397TIP3    H231135   1.958   0.561   0.736
10398TIP3   OH231136   2.459   6.378   0.373
10398TIP3    H131137   2.442   6.284   0.378
10398TIP3    H231138   2.462   6.397   0.280
10399TIP3   OH231139   7.154   2.274   1.006
10399TIP3    H131140   7.190   2.213   1.070
10399TIP3    H231141   7.208   2.353   1.015
10400TIP3   OH231142   5.348   4.714   1.992
10400TIP3    H131143   5.402   4.740   1.918
10400TIP3    H231144   5.410   4.692   2.061
10401TIP3   OH231145   0.906   6.830   0.929
10401TIP3    H131146   0.943   6.798   0.846
10401TIP3    H231147   0.982   6.862   0.978
10402TIP3   OH231148   4.405   5.329   2.000
10402TIP3    H131149   4.492   5.345   1.964
10402TIP3    H231150   4.377   5.247   1.957
10403TIP3   OH231151   7.191   7.318   6.047
10403TIP3    H131152   7.164   7.254   5.981
10403TIP3    H231153   7.109   7.352   6.083
10404TIP3   OH231154   6.977   5.064   6.573
10404TIP3    H131155   7.001   5.155   6.590
10404TIP3    H231156   7.041   5.034   6.509
10405TIP3   OH231157   3.404   5.020   1.758
10405TIP3    H131158   3.341   4.949   1.749
10405TIP3    H231159   3.440   5.008   1.846
10406TIP3   OH231160   4.804   5.239   0.217
10406TIP3    H131161   4.868   5.264   0.150
10406TIP3    H231162   4.767   5.321   0.247
10407TIP3   OH231163   2.432   7.096   2.586
10407TIP3    H131164   2.450   7.061   2.499
10407TIP3    H231165   2.338   7.116   2.585
10408TIP3   OH231166   5.649   7.170   3.496
10408TIP3    H131167   5.607   7.159   3.411
10408TIP3    H231168   5.595   7.120   3.557
10409TIP3   OH231169   7.057   0.661   0.982
10409TIP3    H131170   6.964   0.673   1.003
10409TIP3    H231171   7.101   0.734   1.026
10410TIP3   OH231172   1.803   0.442   2.265
10410TIP3    H131173   1.760   0.358   2.249
10410TIP3    H231174   1.743   0.507   2.227
10411TIP3   OH231175   0.747   6.542   0.563
10411TIP3    H131176   0.830   6.570   0.523
10411TIP3    H231177   0.696   6.506   0.491
10412TIP3   OH231178   1.116   7.826   6.687
10412TIP3    H131179   1.154   7.763   6.748
10412TIP3    H231180   1.024   7.831   6.712
10413TIP3   OH231181   6.975   7.074   6.207
10413TIP3    H131182   6.933   7.004   6.258
10413TIP3    H231183   7.040   7.029   6.154
10414TIP3   OH231184   5.529   1.450   1.704
10414TIP3    H131185   5.451   1.434   1.652
10414TIP3    H231186   5.547   1.367   1.748
10415TIP3   OH231187   3.928   4.737   5.206
10415TIP3    H131188   3.885   4.815   5.171
10415TIP3    H231189   3.900   4.733   5.298
10416TIP3   OH231190   7.310   7.560   5.441
10416TIP3    H131191   7.320   7.632   5.378
10416TIP3    H231192   7.242   7.504   5.402
10417TIP3   OH231193   1.920   7.085   1.445
10417TIP3    H131194   2.004   7.077   1.400
10417TIP3    H231195   1.941   7.076   1.538
10418TIP3   OH231196   2.701   1.001   2.349
10418TIP3    H131197   2.645   1.031   2.421
10418TIP3    H231198   2.769   0.949   2.391
10419TIP3   OH231199   7.468   6.281   2.148
10419TIP3    H131200   7.494   6.206   2.094
10419TIP3    H231201   7.542   6.293   2.208
10420TIP3   OH231202   3.813   2.274   5.556
10420TIP3    H131203   3.742   2.332   5.583
10420TIP3    H231204   3.826   2.294   5.464
10421TIP3   OH231205   8.093   2.879   0.244
10421TIP3    H131206   8.112   2.929   0.165
10421TIP3    H231207   8.096   2.943   0.315
10422TIP3   OH231208   8.056   6.269   3.550
10422TIP3    H131209   8.045   6.185   3.594
10422TIP3    H231210   7.989   6.268   3.481
10423TIP3   OH231211   5.022   4.801   6.751
10423TIP3    H131212   4.982   4.814   6.665
10423TIP3    H231213   5.018   4.706   6.765
10424TIP3   OH231214   4.164   0.521   3.964
10424TIP3    H131215   4.085   0.473   3.987
10424TIP3    H231216   4.233   0.481   4.017
10425TIP3   OH231217   7.750   7.710   4.993
10425TIP3    H131218   7.758   7.714   5.088
10425TIP3    H231219   7.686   7.641   4.977
10426TIP3   OH231220   3.932   0.356   0.004
10426TIP3    H131221   4.003   0.412   0.037
10426TIP3    H231222   3.861   0.417  -0.016
10427TIP3   OH231223   2.399   1.776   1.548
10427TIP3    H131224   2.385   1.851   1.490
10427TIP3    H231225   2.464   1.723   1.502
10428TIP3   OH231226   5.090   1.846   0.637
10428TIP3    H131227   5.049   1.932   0.626
10428TIP3    H231228   5.182   1.866   0.656
10429TIP3   OH231229   3.495   2.982   3.149
10429TIP3    H131230   3.425   2.956   3.208
10429TIP3    H231231   3.472   2.943   3.065
10430TIP3   OH231232   4.434   4.326   0.819
10430TIP3    H131233   4.428   4.264   0.746
10430TIP3    H231234   4.421   4.272   0.897
10431TIP3   OH231235   3.940   6.849   4.773
10431TIP3    H131236   3.984   6.819   4.693
10431TIP3    H231237   3.908   6.768   4.814
10432TIP3   OH231238   7.749   4.163   3.300
10432TIP3    H131239   7.758   4.258   3.312
10432TIP3    H231240   7.669   4.153   3.249
10433TIP3   OH231241   4.891   0.031   1.295
10433TIP3    H131242   4.919   0.088   1.224
10433TIP3    H231243   4.899  -0.058   1.261
10434TIP3   OH231244   2.796   4.615   1.799
10434TIP3    H131245   2.848   4.547   1.840
10434TIP3    H231246   2.792   4.685   1.864
10435TIP3   OH231247   5.641   6.820   4.457
10435TIP3    H131248   5.619   6.829   4.549
10435TIP3    H231249   5.585   6.749   4.426
10436TIP3   OH231250   1.578   4.154   5.756
10436TIP3    H131251   1.637   4.211   5.707
10436TIP3    H231252   1.492   4.195   5.748
10437TIP3   OH231253   7.376   3.653   4.728
10437TIP3    H131254   7.306   3.623   4.670
10437TIP3    H231255   7.451   3.667   4.671
10438TIP3   OH231256   3.478   1.185   5.384
10438TIP3    H131257   3.511   1.098   5.362
10438TIP3    H231258   3.450   1.177   5.475
10439TIP3   OH231259   1.866   5.364   2.799
10439TIP3    H131260   1.889   5.295   2.737
10439TIP3    H231261   1.779   5.340   2.830
10440TIP3   OH231262   5.278   5.236   2.780
10440TIP3    H131263   5.233   5.219   2.697
10440TIP3    H231264   5.335   5.311   2.761
10441TIP3   OH231265   1.232   4.104   0.425
10441TIP3    H131266   1.251   4.105   0.519
10441TIP3    H231267   1.231   4.011   0.402
10442TIP3   OH231268   7.532   5.194   6.380
10442TIP3    H131269   7.500   5.244   6.455
10442TIP3    H231270   7.465   5.127   6.366
10443TIP3   OH231271   2.715   2.227   2.715
10443TIP3    H131272   2.691   2.134   2.719
10443TIP3    H231273   2.712   2.249   2.622
10444TIP3   OH231274   6.921   1.994   5.779
10444TIP3    H131275   6.987   2.060   5.800
10444TIP3    H231276   6.966   1.934   5.719
10445TIP3   OH231277   6.884   1.715   4.046
10445TIP3    H131278   6.863   1.623   4.065
10445TIP3    H231279   6.809   1.747   3.997
10446TIP3   OH231280   7.248   2.523   5.906
10446TIP3    H131281   7.166   2.557   5.871
10446TIP3    H231282   7.275   2.587   5.972
10447TIP3   OH231283   4.412   7.757   4.185
10447TIP3    H131284   4.383   7.771   4.275
10447TIP3    H231285   4.397   7.663   4.170
10448TIP3   OH231286   7.327   6.211   1.210
10448TIP3    H131287   7.390   6.278   1.185
10448TIP3    H231288   7.262   6.211   1.139
10449TIP3   OH231289   1.238   5.064   0.430
10449TIP3    H131290   1.270   5.154   0.431
10449TIP3    H231291   1.317   5.011   0.416
10450TIP3   OH231292   6.898   0.123   4.012
10450TIP3    H131293   6.842   0.137   4.089
10450TIP3    H231294   6.987   0.130   4.046
10451TIP3   OH231295   6.718   4.377   2.456
10451TIP3    H131296   6.685   4.438   2.521
10451TIP3    H231297   6.640   4.347   2.409
10452TIP3   OH231298   3.573   3.551   2.867
10452TIP3    H131299   3.516   3.627   2.859
10452TIP3    H231300   3.642   3.580   2.927
10453TIP3   OH231301   4.687   3.980   4.687
10453TIP3    H131302   4.658   4.030   4.762
10453TIP3    H231303   4.769   3.939   4.715
10454TIP3   OH231304   8.342   3.376   6.493
10454TIP3    H131305   8.360   3.285   6.469
10454TIP3    H231306   8.250   3.377   6.516
10455TIP3   OH231307   6.973   5.186   0.353
10455TIP3    H131308   6.935   5.197   0.440
10455TIP3    H231309   6.944   5.099   0.325
10456TIP3   OH231310   6.137   1.101   2.964
10456TIP3    H131311   6.121   1.154   3.042
10456TIP3    H231312   6.102   1.014   2.987
10457TIP3   OH231313   7.281   1.930   3.421
10457TIP3    H131314   7.346   1.956   3.486
10457TIP3    H231315   7.331   1.898   3.347
10458TIP3   OH231316   4.159   5.301   5.445
10458TIP3    H131317   4.074   5.315   5.405
10458TIP3    H231318   4.165   5.207   5.459
10459TIP3   OH231319   2.076   6.742   0.156
10459TIP3    H131320   2.014   6.721   0.086
10459TIP3    H231321   2.047   6.828   0.188
10460TIP3   OH231322   2.102   0.565   1.618
10460TIP3    H131323   2.098   0.614   1.701
10460TIP3    H231324   2.084   0.474   1.643
10461TIP3   OH231325   4.013   0.059   1.655
10461TIP3    H131326   4.073  -0.010   1.681
10461TIP3    H231327   4.065   0.140   1.661
10462TIP3   OH231328   3.530   0.125   4.096
10462TIP3    H131329   3.584   0.052   4.125
10462TIP3    H231330   3.592   0.198   4.087
10463TIP3   OH231331   0.416   4.072   4.778
10463TIP3    H131332   0.358   4.148   4.766
10463TIP3    H231333   0.403   4.019   4.699
10464TIP3   OH231334   6.101   1.935   2.697
10464TIP3    H131335   6.016   1.905   2.667
10464TIP3    H231336   6.144   1.969   2.619
10465TIP3   OH231337   6.471   7.575   4.904
10465TIP3    H131338   6.480   7.486   4.938
10465TIP3    H231339   6.501   7.569   4.813
10466TIP3   OH231340   7.642   5.728   5.998
10466TIP3    H131341   7.701   5.787   5.951
10466TIP3    H231342   7.617   5.778   6.076
10467TIP3   OH231343   1.258   4.557   3.688
10467TIP3    H131344   1.321   4.557   3.616
10467TIP3    H231345   1.259   4.648   3.720
10468TIP3   OH231346   2.431   0.103   3.605
10468TIP3    H131347   2.364   0.154   3.560
10468TIP3    H231348   2.503   0.096   3.542
10469TIP3   OH231349   1.505   4.237   3.456
10469TIP3    H131350   1.487   4.153   3.413
10469TIP3    H231351   1.459   4.232   3.539
10470TIP3   OH231352   5.132   5.222   0.946
10470TIP3    H131353   5.052   5.234   0.894
10470TIP3    H231354   5.202   5.215   0.881
10471TIP3   OH231355   0.942   1.450   5.213
10471TIP3    H131356   0.862   1.420   5.255
10471TIP3    H231357   0.929   1.431   5.120
10472TIP3   OH231358   6.874   0.714   1.418
10472TIP3    H131359   6.858   0.801   1.380
10472TIP3    H231360   6.789   0.672   1.418
10473TIP3   OH231361   0.228   4.921   1.362
10473TIP3    H131362   0.273   4.955   1.284
10473TIP3    H231363   0.139   4.902   1.332
10474TIP3   OH231364   7.982   4.638   4.889
10474TIP3    H131365   8.058   4.678   4.846
10474TIP3    H231366   7.915   4.707   4.887
10475TIP3   OH231367   5.369   2.094   2.528
10475TIP3    H131368   5.368   2.166   2.465
10475TIP3    H231369   5.284   2.052   2.519
10476TIP3   OH231370   6.467   1.458   3.444
10476TIP3    H131371   6.508   1.519   3.505
10476TIP3    H231372   6.437   1.386   3.499
10477TIP3   OH231373   6.506   4.767   2.500
10477TIP3    H131374   6.458   4.736   2.423
10477TIP3    H231375   6.546   4.849   2.472
10478TIP3   OH231376   7.399   5.154   3.700
10478TIP3    H131377   7.335   5.139   3.769
10478TIP3    H231378   7.347   5.177   3.623
10479TIP3   OH231379   2.383   5.050   5.728
10479TIP3    H131380   2.377   5.030   5.634
10479TIP3    H231381   2.293   5.044   5.759
10480TIP3   OH231382   1.963   4.522   0.447
10480TIP3    H131383   2.027   4.587   0.418
10480TIP3    H231384   1.895   4.523   0.380
10481TIP3   OH231385   4.862   2.446   5.618
10481TIP3    H131386   4.928   2.489   5.564
10481TIP3    H231387   4.801   2.515   5.641
10482TIP3   OH231388   5.212   4.868   0.885
10482TIP3    H131389   5.190   4.788   0.933
10482TIP3    H231390   5.195   4.847   0.794
10483TIP3   OH231391   6.039   1.921   0.155
10483TIP3    H131392   6.119   1.869   0.152
10483TIP3    H231393   6.049   1.977   0.232
10484TIP3   OH231394   7.388   1.062   2.756
10484TIP3    H131395   7.423   1.025   2.675
10484TIP3    H231396   7.293   1.053   2.747
10485TIP3   OH231397   7.382   0.242   5.849
10485TIP3    H131398   7.397   0.147   5.848
10485TIP3    H231399   7.286   0.250   5.845
10486TIP3   OH231400   2.662   1.719   1.180
10486TIP3    H131401   2.634   1.809   1.159
10486TIP3    H231402   2.634   1.706   1.270
10487TIP3   OH231403   5.566   5.705   5.497
10487TIP3    H131404   5.655   5.699   5.463
10487TIP3    H231405   5.560   5.792   5.536
10488TIP3   OH231406   7.025   0.029   5.364
10488TIP3    H131407   6.977   0.084   5.302
10488TIP3    H231408   6.975  -0.052   5.367
10489TIP3   OH231409   1.166   7.813   6.421
10489TIP3    H131410   1.261   7.797   6.423
10489TIP3    H231411   1.138   7.799   6.512
10490TIP3   OH231412   6.679   1.074   3.579
10490TIP3    H131413   6.659   1.131   3.505
10490TIP3    H231414   6.700   0.989   3.539
10491TIP3   OH231415   7.973   5.071   1.865
10491TIP3    H131416   7.964   4.977   1.882
10491TIP3    H231417   7.918   5.087   1.788
10492TIP3   OH231418   2.736   0.740   1.774
10492TIP3    H131419   2.650   0.725   1.733
10492TIP3    H231420   2.753   0.833   1.761
10493TIP3   OH231421   2.755   6.345   4.580
10493TIP3    H131422   2.709   6.418   4.537
10493TIP3    H231423   2.812   6.309   4.512
10494TIP3   OH231424   2.821   5.774   5.585
10494TIP3    H131425   2.755   5.782   5.516
10494TIP3    H231426   2.901   5.807   5.545
10495TIP3   OH231427   6.812   3.903   6.354
10495TIP3    H131428   6.788   3.942   6.438
10495TIP3    H231429   6.823   3.810   6.372
10496TIP3   OH231430   3.262   4.387   3.053
10496TIP3    H131431   3.257   4.415   2.961
10496TIP3    H231432   3.352   4.408   3.079
10497TIP3   OH231433   3.658   6.707   1.026
10497TIP3    H131434   3.690   6.797   1.035
10497TIP3    H231435   3.649   6.694   0.932
10498TIP3   OH231436   0.466   2.577   6.251
10498TIP3    H131437   0.483   2.510   6.184
10498TIP3    H231438   0.533   2.563   6.317
10499TIP3   OH231439   2.968   1.795   1.602
10499TIP3    H131440   2.981   1.736   1.677
10499TIP3    H231441   2.874   1.806   1.595
10500TIP3   OH231442   7.025   0.754   1.636
10500TIP3    H131443   6.983   0.757   1.550
10500TIP3    H231444   7.003   0.668   1.671
10501TIP3   OH231445   4.491   1.635   5.910
10501TIP3    H131446   4.450   1.718   5.933
10501TIP3    H231447   4.556   1.658   5.843
10502TIP3   OH231448   4.909   5.424   0.465
10502TIP3    H131449   4.992   5.447   0.506
10502TIP3    H231450   4.847   5.421   0.538
10503TIP3   OH231451   7.632   3.138   6.360
10503TIP3    H131452   7.583   3.140   6.277
10503TIP3    H231453   7.566   3.148   6.428
10504TIP3   OH231454   3.519   3.206   1.463
10504TIP3    H131455   3.435   3.183   1.423
10504TIP3    H231456   3.558   3.123   1.489
10505TIP3   OH231457   7.375   2.672   2.886
10505TIP3    H131458   7.463   2.694   2.856
10505TIP3    H231459   7.319   2.737   2.845
10506TIP3   OH231460   0.474   4.653   0.186
10506TIP3    H131461   0.566   4.663   0.211
10506TIP3    H231462   0.455   4.731   0.134
10507TIP3   OH231463   5.413   3.694   2.325
10507TIP3    H131464   5.476   3.707   2.396
10507TIP3    H231465   5.463   3.651   2.256
10508TIP3   OH231466   6.927   4.722   5.736
10508TIP3    H131467   6.876   4.802   5.724
10508TIP3    H231468   6.888   4.660   5.675
10509TIP3   OH231469   0.053   3.342   3.157
10509TIP3    H131470   0.111   3.409   3.192
10509TIP3    H231471   0.110   3.287   3.103
10510TIP3   OH231472   3.234   5.642   5.913
10510TIP3    H131473   3.321   5.605   5.933
10510TIP3    H231474   3.251   5.732   5.886
10511TIP3   OH231475   4.863   5.841   5.302
10511TIP3    H131476   4.884   5.802   5.387
10511TIP3    H231477   4.829   5.769   5.250
10512TIP3   OH231478   2.488   6.674   4.797
10512TIP3    H131479   2.477   6.586   4.761
10512TIP3    H231480   2.444   6.732   4.734
10513TIP3   OH231481   5.074   2.838   5.653
10513TIP3    H131482   5.165   2.858   5.676
10513TIP3    H231483   5.080   2.762   5.595
10514TIP3   OH231484   2.070   3.019   1.160
10514TIP3    H131485   2.024   2.996   1.241
10514TIP3    H231486   2.146   3.069   1.188
10515TIP3   OH231487   7.048   4.582   1.769
10515TIP3    H131488   7.069   4.642   1.841
10515TIP3    H231489   6.953   4.574   1.772
10516TIP3   OH231490   6.502   0.922   3.771
10516TIP3    H131491   6.563   0.985   3.733
10516TIP3    H231492   6.551   0.881   3.842
10517TIP3   OH231493   1.566   0.657   0.531
10517TIP3    H131494   1.611   0.580   0.565
10517TIP3    H231495   1.474   0.643   0.552
10518TIP3   OH231496   8.205   2.976   1.603
10518TIP3    H131497   8.279   3.022   1.562
10518TIP3    H231498   8.198   3.016   1.690
10519TIP3   OH231499   5.644   2.985   0.272
10519TIP3    H131500   5.692   3.016   0.194
10519TIP3    H231501   5.688   2.904   0.297
10520TIP3   OH231502   3.810   3.498   1.111
10520TIP3    H131503   3.794   3.429   1.176
10520TIP3    H231504   3.741   3.487   1.046
10521TIP3   OH231505   2.813   3.123   0.385
10521TIP3    H131506   2.757   3.058   0.342
10521TIP3    H231507   2.893   3.125   0.332
10522TIP3   OH231508   2.018   0.416   5.054
10522TIP3    H131509   2.095   0.419   4.998
10522TIP3    H231510   1.958   0.480   5.016
10523TIP3   OH231511   5.865   3.286   0.398
10523TIP3    H131512   5.924   3.351   0.435
10523TIP3    H231513   5.910   3.253   0.321
10524TIP3   OH231514   7.950   1.937   4.941
10524TIP3    H131515   8.019   1.974   4.886
10524TIP3    H231516   7.951   1.991   5.020
10525TIP3   OH231517   1.737   0.149   1.060
10525TIP3    H131518   1.814   0.183   1.016
10525TIP3    H231519   1.707   0.221   1.115
10526TIP3   OH231520   1.930   3.447   0.280
10526TIP3    H131521   2.009   3.450   0.334
10526TIP3    H231522   1.915   3.354   0.264
10527TIP3   OH231523   6.991   1.804   5.324
10527TIP3    H131524   6.946   1.723   5.343
10527TIP3    H231525   6.979   1.817   5.230
10528TIP3   OH231526   6.007   3.387   3.173
10528TIP3    H131527   6.001   3.378   3.078
10528TIP3    H231528   5.951   3.318   3.207
10529TIP3   OH231529   6.901   2.099   6.139
10529TIP3    H131530   6.834   2.065   6.080
10529TIP3    H231531   6.948   2.022   6.169
10530TIP3   OH231532   4.913   0.243   5.374
10530TIP3    H131533   4.988   0.213   5.424
10530TIP3    H231534   4.926   0.338   5.365
10531TIP3   OH231535   1.193   3.025   4.123
10531TIP3    H131536   1.254   3.031   4.050
10531TIP3    H231537   1.225   2.951   4.175
10532TIP3   OH231538   1.484   7.225   0.215
10532TIP3    H131539   1.406   7.282   0.209
10532TIP3    H231540   1.450   7.137   0.202
10533TIP3   OH231541   1.315   2.123   5.777
10533TIP3    H131542   1.404   2.148   5.753
10533TIP3    H231543   1.270   2.114   5.693
10534TIP3   OH231544   2.898   1.788   3.424
10534TIP3    H131545   2.823   1.809   3.480
10534TIP3    H231546   2.974   1.808   3.478
10535TIP3   OH231547   2.595   7.271   6.712
10535TIP3    H131548   2.647   7.233   6.641
10535TIP3    H231549   2.534   7.202   6.738
10536TIP3   OH231550   0.687   2.738   1.410
10536TIP3    H131551   0.711   2.741   1.503
10536TIP3    H231552   0.609   2.682   1.407
10537TIP3   OH231553   6.112   5.765   4.725
10537TIP3    H131554   6.147   5.736   4.641
10537TIP3    H231555   6.188   5.765   4.784
10538TIP3   OH231556   3.924   3.824   6.130
10538TIP3    H131557   4.018   3.804   6.128
10538TIP3    H231558   3.885   3.764   6.066
10539TIP3   OH231559   5.906   7.303   1.340
10539TIP3    H131560   5.958   7.346   1.272
10539TIP3    H231561   5.924   7.210   1.328
10540TIP3   OH231562   7.288   7.608   3.552
10540TIP3    H131563   7.286   7.655   3.469
10540TIP3    H231564   7.335   7.527   3.532
10541TIP3   OH231565   5.595   3.060   4.318
10541TIP3    H131566   5.596   3.145   4.362
10541TIP3    H231567   5.610   3.081   4.226
10542TIP3   OH231568   7.635   4.330   1.327
10542TIP3    H131569   7.552   4.357   1.367
10542TIP3    H231570   7.610   4.264   1.262
10543TIP3   OH231571   4.662   5.739   1.640
10543TIP3    H131572   4.604   5.735   1.716
10543TIP3    H231573   4.604   5.723   1.565
10544TIP3   OH231574   2.454   0.381   2.854
10544TIP3    H131575   2.392   0.315   2.823
10544TIP3    H231576   2.417   0.413   2.936
10545TIP3   OH231577   5.764   6.951   5.491
10545TIP3    H131578   5.703   7.025   5.487
10545TIP3    H231579   5.763   6.915   5.402
10546TIP3   OH231580   4.918   7.019   2.418
10546TIP3    H131581   5.001   7.055   2.449
10546TIP3    H231582   4.859   7.094   2.416
10547TIP3   OH231583   5.461   7.621   1.450
10547TIP3    H131584   5.451   7.571   1.531
10547TIP3    H231585   5.554   7.645   1.448
10548TIP3   OH231586   7.798   0.655   5.609
10548TIP3    H131587   7.889   0.624   5.609
10548TIP3    H231588   7.774   0.657   5.516
10549TIP3   OH231589   0.204   5.962   6.162
10549TIP3    H131590   0.263   5.961   6.087
10549TIP3    H231591   0.212   5.875   6.200
10550TIP3   OH231592   0.737   1.114   3.760
10550TIP3    H131593   0.713   1.205   3.743
10550TIP3    H231594   0.832   1.116   3.771
10551TIP3   OH231595   5.123   1.907   6.585
10551TIP3    H131596   5.034   1.938   6.569
10551TIP3    H231597   5.129   1.825   6.536
10552TIP3   OH231598   5.622   6.613   0.633
10552TIP3    H131599   5.685   6.568   0.577
10552TIP3    H231600   5.547   6.554   0.637
10553TIP3   OH231601   5.936   7.450   0.513
10553TIP3    H131602   5.942   7.537   0.474
10553TIP3    H231603   5.842   7.437   0.528
10554TIP3   OH231604   5.596   6.866   3.324
10554TIP3    H131605   5.569   6.855   3.233
10554TIP3    H231606   5.536   6.933   3.359
10555TIP3   OH231607   0.222   1.938   4.406
10555TIP3    H131608   0.284   1.927   4.478
10555TIP3    H231609   0.218   2.032   4.391
10556TIP3   OH231610   8.096   3.245   2.021
10556TIP3    H131611   8.061   3.259   2.109
10556TIP3    H231612   8.022   3.265   1.963
10557TIP3   OH231613   2.684   4.071   1.006
10557TIP3    H131614   2.641   3.985   1.010
10557TIP3    H231615   2.623   4.126   0.957
10558TIP3   OH231616   8.021   7.012   6.522
10558TIP3    H131617   7.945   6.959   6.544
10558TIP3    H231618   8.017   7.086   6.582
10559TIP3   OH231619   0.641   1.119   2.984
10559TIP3    H131620   0.636   1.136   3.078
10559TIP3    H231621   0.557   1.079   2.961
10560TIP3   OH231622   1.041   3.973   5.391
10560TIP3    H131623   1.007   3.992   5.478
10560TIP3    H231624   0.990   3.898   5.360
10561TIP3   OH231625   6.693   1.815   3.900
10561TIP3    H131626   6.639   1.895   3.899
10561TIP3    H231627   6.735   1.814   3.814
10562TIP3   OH231628   4.288   4.379   6.130
10562TIP3    H131629   4.316   4.299   6.087
10562TIP3    H231630   4.244   4.430   6.062
10563TIP3   OH231631   4.215   7.159   1.816
10563TIP3    H131632   4.200   7.194   1.904
10563TIP3    H231633   4.307   7.134   1.816
10564TIP3   OH231634   6.929   7.091   5.335
10564TIP3    H131635   7.023   7.100   5.315
10564TIP3    H231636   6.897   7.181   5.340
10565TIP3   OH231637   7.902   7.009   0.529
10565TIP3    H131638   7.871   7.012   0.438
10565TIP3    H231639   7.871   7.091   0.567
10566TIP3   OH231640   6.741   7.549   1.159
10566TIP3    H131641   6.795   7.575   1.234
10566TIP3    H231642   6.722   7.631   1.114
10567TIP3   OH231643   0.952   4.050   0.719
10567TIP3    H131644   1.044   4.050   0.694
10567TIP3    H231645   0.904   4.045   0.637
10568TIP3   OH231646   0.653   4.774   0.466
10568TIP3    H131647   0.654   4.821   0.550
10568TIP3    H231648   0.624   4.686   0.488
10569TIP3   OH231649   5.525   1.353   6.149
10569TIP3    H131650   5.452   1.307   6.108
10569TIP3    H231651   5.571   1.396   6.077
10570TIP3   OH231652   8.008   6.592   1.494
10570TIP3    H131653   7.915   6.611   1.482
10570TIP3    H231654   8.052   6.642   1.425
10571TIP3   OH231655   0.393   4.298   3.117
10571TIP3    H131656   0.428   4.384   3.092
10571TIP3    H231657   0.302   4.300   3.090
10572TIP3   OH231658   7.921   5.278   2.421
10572TIP3    H131659   7.894   5.191   2.451
10572TIP3    H231660   7.971   5.313   2.494
10573TIP3   OH231661   2.092   0.356   0.376
10573TIP3    H131662   2.125   0.324   0.292
10573TIP3    H231663   2.092   0.278   0.432
10574TIP3   OH231664   2.396   4.673   6.452
10574TIP3    H131665   2.309   4.634   6.458
10574TIP3    H231666   2.416   4.673   6.359
10575TIP3   OH231667   4.782   3.894   1.356
10575TIP3    H131668   4.797   3.954   1.429
10575TIP3    H231669   4.854   3.832   1.361
10576TIP3   OH231670   7.229   4.304   3.940
10576TIP3    H131671   7.196   4.228   3.892
10576TIP3    H231672   7.173   4.377   3.912
10577TIP3   OH231673   3.427   5.772   3.808
10577TIP3    H131674   3.458   5.688   3.842
10577TIP3    H231675   3.380   5.812   3.881
10578TIP3   OH231676   6.726   6.376   0.176
10578TIP3    H131677   6.718   6.293   0.128
10578TIP3    H231678   6.700   6.355   0.265
10579TIP3   OH231679   5.858   1.172   5.599
10579TIP3    H131680   5.827   1.082   5.610
10579TIP3    H231681   5.781   1.221   5.571
10580TIP3   OH231682   7.697   1.661   4.364
10580TIP3    H131683   7.693   1.687   4.456
10580TIP3    H231684   7.633   1.717   4.320
10581TIP3   OH231685   6.974   5.429   1.374
10581TIP3    H131686   6.885   5.425   1.410
10581TIP3    H231687   6.992   5.522   1.364
10582TIP3   OH231688   7.162   6.345   3.971
10582TIP3    H131689   7.077   6.362   3.930
10582TIP3    H231690   7.163   6.251   3.986
10583TIP3   OH231691   1.796   1.598   3.556
10583TIP3    H131692   1.733   1.529   3.536
10583TIP3    H231693   1.805   1.647   3.475
10584TIP3   OH231694   8.065   0.829   3.130
10584TIP3    H131695   8.032   0.811   3.218
10584TIP3    H231696   8.155   0.796   3.130
10585TIP3   OH231697   6.626   5.081   4.588
10585TIP3    H131698   6.679   5.121   4.520
10585TIP3    H231699   6.608   4.993   4.556
10586TIP3   OH231700   1.371   7.561   2.007
10586TIP3    H131701   1.345   7.548   1.916
10586TIP3    H231702   1.360   7.655   2.021
10587TIP3   OH231703   4.804   4.832   5.321
10587TIP3    H131704   4.750   4.808   5.396
10587TIP3    H231705   4.883   4.778   5.331
10588TIP3   OH231706   4.880   5.280   6.759
10588TIP3    H131707   4.836   5.256   6.677
10588TIP3    H231708   4.852   5.214   6.822
10589TIP3   OH231709   7.328   7.791   2.922
10589TIP3    H131710   7.305   7.703   2.953
10589TIP3    H231711   7.387   7.775   2.849
10590TIP3   OH231712   5.974   7.133   0.708
10590TIP3    H131713   6.014   7.191   0.643
10590TIP3    H231714   5.880   7.150   0.702
10591TIP3   OH231715   4.316   0.214   0.170
10591TIP3    H131716   4.262   0.293   0.170
10591TIP3    H231717   4.263   0.148   0.215
10592TIP3   OH231718   8.137   2.300   1.687
10592TIP3    H131719   8.063   2.242   1.668
10592TIP3    H231720   8.207   2.241   1.715
10593TIP3   OH231721   2.904   1.684   5.664
10593TIP3    H131722   2.913   1.776   5.640
10593TIP3    H231723   2.951   1.637   5.595
10594TIP3   OH231724   0.186   0.671   5.050
10594TIP3    H131725   0.243   0.746   5.067
10594TIP3    H231726   0.246   0.596   5.046
10595TIP3   OH231727   6.073   7.112   2.812
10595TIP3    H131728   6.056   7.020   2.792
10595TIP3    H231729   6.140   7.109   2.881
10596TIP3   OH231730   6.333   0.957   0.705
10596TIP3    H131731   6.259   0.904   0.733
10596TIP3    H231732   6.319   0.971   0.611
10597TIP3   OH231733   1.540   0.054   0.189
10597TIP3    H131734   1.509   0.052   0.099
10597TIP3    H231735   1.470   0.013   0.240
10598TIP3   OH231736   0.651   0.606   3.324
10598TIP3    H131737   0.713   0.548   3.368
10598TIP3    H231738   0.610   0.551   3.257
10599TIP3   OH231739   3.968   5.871   5.020
10599TIP3    H131740   3.893   5.930   5.020
10599TIP3    H231741   3.979   5.845   4.929
10600TIP3   OH231742   5.779   3.127   4.551
10600TIP3    H131743   5.742   3.068   4.485
10600TIP3    H231744   5.738   3.211   4.534
10601TIP3   OH231745   4.699   3.302   4.942
10601TIP3    H131746   4.647   3.366   4.991
10601TIP3    H231747   4.644   3.224   4.939
10602TIP3   OH231748   8.095   7.677   5.496
10602TIP3    H131749   8.046   7.637   5.424
10602TIP3    H231750   8.073   7.624   5.573
10603TIP3   OH231751   4.555   1.471   0.277
10603TIP3    H131752   4.647   1.448   0.265
10603TIP3    H231753   4.538   1.538   0.211
10604TIP3   OH231754   2.088   1.608   5.522
10604TIP3    H131755   2.110   1.541   5.457
10604TIP3    H231756   2.125   1.575   5.604
10605TIP3   OH231757   7.081   5.627   6.675
10605TIP3    H131758   7.045   5.677   6.602
10605TIP3    H231759   7.149   5.573   6.635
10606TIP3   OH231760   1.114  -0.048   1.045
10606TIP3    H131761   1.123  -0.014   1.133
10606TIP3    H231762   1.021  -0.038   1.024
10607TIP3   OH231763   3.030   5.077   6.203
10607TIP3    H131764   3.019   5.156   6.151
10607TIP3    H231765   2.972   5.013   6.161
10608TIP3   OH231766   6.049   0.840   6.580
10608TIP3    H131767   6.025   0.931   6.563
10608TIP3    H231768   6.140   0.833   6.552
10609TIP3   OH231769   3.352   0.932   0.897
10609TIP3    H131770   3.291   0.931   0.970
10609TIP3    H231771   3.418   0.997   0.921
10610TIP3   OH231772   0.312   1.666   4.198
10610TIP3    H131773   0.401   1.631   4.192
10610TIP3    H231774   0.323   1.761   4.198
10611TIP3   OH231775   2.608   2.763   4.259
10611TIP3    H131776   2.693   2.761   4.302
10611TIP3    H231777   2.567   2.680   4.282
10612TIP3   OH231778   1.707   5.958   1.746
10612TIP3    H131779   1.743   6.032   1.697
10612TIP3    H231780   1.784   5.911   1.778
10613TIP3   OH231781   4.168   4.201   1.931
10613TIP3    H131782   4.236   4.136   1.916
10613TIP3    H231783   4.108   4.160   1.993
10614TIP3   OH231784   5.104   7.022   2.065
10614TIP3    H131785   5.099   7.095   2.003
10614TIP3    H231786   5.183   7.040   2.116
10615TIP3   OH231787   3.091   1.508   2.985
10615TIP3    H131788   3.072   1.517   3.079
10615TIP3    H231789   3.078   1.596   2.949
10616TIP3   OH231790   3.397   0.428   1.445
10616TIP3    H131791   3.420   0.361   1.509
10616TIP3    H231792   3.394   0.382   1.361
10617TIP3   OH231793   0.130   7.423   3.622
10617TIP3    H131794   0.140   7.517   3.605
10617TIP3    H231795   0.149   7.414   3.715
10618TIP3   OH231796   2.226   0.169   4.897
10618TIP3    H131797   2.174   0.165   4.817
10618TIP3    H231798   2.194   0.096   4.951
10619TIP3   OH231799   5.232   7.523   3.746
10619TIP3    H131800   5.216   7.444   3.798
10619TIP3    H231801   5.153   7.533   3.693
10620TIP3   OH231802   1.689   5.877   0.969
10620TIP3    H131803   1.726   5.814   0.907
10620TIP3    H231804   1.764   5.904   1.023
10621TIP3   OH231805   1.672   2.221   3.641
10621TIP3    H131806   1.616   2.197   3.567
10621TIP3    H231807   1.760   2.225   3.603
10622TIP3   OH231808   2.495   6.813   2.356
10622TIP3    H131809   2.483   6.886   2.296
10622TIP3    H231810   2.582   6.778   2.335
10623TIP3   OH231811   5.284   2.206   1.962
10623TIP3    H131812   5.317   2.292   1.988
10623TIP3    H231813   5.363   2.154   1.945
10624TIP3   OH231814   0.072   7.621   5.006
10624TIP3    H131815  -0.009   7.598   4.960
10624TIP3    H231816   0.066   7.575   5.089
10625TIP3   OH231817   1.908   4.049   6.818
10625TIP3    H131818   1.856   4.118   6.777
10625TIP3    H231819   1.997   4.064   6.786
10626TIP3   OH231820   7.322   2.065   3.663
10626TIP3    H131821   7.338   2.081   3.756
10626TIP3    H231822   7.375   2.131   3.618
10627TIP3   OH231823   8.101   7.115   5.428
10627TIP3    H131824   8.040   7.058   5.476
10627TIP3    H231825   8.180   7.063   5.419
10628TIP3   OH231826   4.492   7.038   5.965
10628TIP3    H131827   4.494   7.035   6.060
10628TIP3    H231828   4.486   7.131   5.944
10629TIP3   OH231829   6.100   0.431   0.281
10629TIP3    H131830   6.009   0.408   0.264
10629TIP3    H231831   6.151   0.370   0.228
10630TIP3   OH231832   0.882   0.377   6.217
10630TIP3    H131833   0.868   0.382   6.311
10630TIP3    H231834   0.974   0.355   6.207
10631TIP3   OH231835   2.421   6.347   3.278
10631TIP3    H131836   2.367   6.321   3.203
10631TIP3    H231837   2.385   6.297   3.351
10632TIP3   OH231838   4.105   5.083   3.704
10632TIP3    H131839   4.118   5.102   3.611
10632TIP3    H231840   4.157   5.005   3.721
10633TIP3   OH231841   1.790   3.820   3.381
10633TIP3    H131842   1.803   3.800   3.474
10633TIP3    H231843   1.863   3.877   3.358
10634TIP3   OH231844   6.962   6.287   5.210
10634TIP3    H131845   6.941   6.269   5.302
10634TIP3    H231846   7.054   6.314   5.211
10635TIP3   OH231847   0.833   7.327   5.412
10635TIP3    H131848   0.852   7.347   5.320
10635TIP3    H231849   0.738   7.324   5.417
10636TIP3   OH231850   7.210   5.237   3.517
10636TIP3    H131851   7.222   5.157   3.466
10636TIP3    H231852   7.195   5.305   3.452
10637TIP3   OH231853   5.758   4.544   5.586
10637TIP3    H131854   5.678   4.592   5.609
10637TIP3    H231855   5.819   4.564   5.657
10638TIP3   OH231856   7.273   5.027   6.035
10638TIP3    H131857   7.263   5.001   5.944
10638TIP3    H231858   7.307   4.949   6.079
10639TIP3   OH231859   0.576   5.091   5.871
10639TIP3    H131860   0.484   5.117   5.878
10639TIP3    H231861   0.587   5.066   5.779
10640TIP3   OH231862   6.962   0.132   2.741
10640TIP3    H131863   6.945   0.207   2.798
10640TIP3    H231864   6.943   0.055   2.796
10641TIP3   OH231865   2.952   4.361   1.686
10641TIP3    H131866   2.976   4.275   1.652
10641TIP3    H231867   2.860   4.351   1.713
10642TIP3   OH231868   7.842   6.146   4.012
10642TIP3    H131869   7.756   6.183   4.035
10642TIP3    H231870   7.899   6.171   4.084
10643TIP3   OH231871   6.573   7.166   6.173
10643TIP3    H131872   6.561   7.189   6.265
10643TIP3    H231873   6.487   7.138   6.144
10644TIP3   OH231874   7.697   3.049   1.322
10644TIP3    H131875   7.702   3.043   1.417
10644TIP3    H231876   7.653   2.968   1.295
10645TIP3   OH231877   3.366   1.272   0.680
10645TIP3    H131878   3.375   1.283   0.775
10645TIP3    H231879   3.408   1.188   0.661
10646TIP3   OH231880   8.053   0.621   5.499
10646TIP3    H131881   8.074   0.529   5.482
10646TIP3    H231882   8.118   0.670   5.448
10647TIP3   OH231883   1.902   2.960   4.606
10647TIP3    H131884   1.868   3.032   4.554
10647TIP3    H231885   1.899   2.992   4.696
10648TIP3   OH231886   3.205   4.277   0.679
10648TIP3    H131887   3.109   4.280   0.673
10648TIP3    H231888   3.223   4.229   0.759
10649TIP3   OH231889   4.604   7.726   3.430
10649TIP3    H131890   4.528   7.764   3.387
10649TIP3    H231891   4.669   7.717   3.359
10650TIP3   OH231892   6.580   3.985   1.890
10650TIP3    H131893   6.651   4.047   1.874
10650TIP3    H231894   6.610   3.933   1.964
10651TIP3   OH231895   0.832   1.989   2.684
10651TIP3    H131896   0.762   2.042   2.646
10651TIP3    H231897   0.912   2.025   2.648
10652TIP3   OH231898   5.309   6.741   2.735
10652TIP3    H131899   5.252   6.808   2.773
10652TIP3    H231900   5.386   6.789   2.706
10653TIP3   OH231901   2.965   1.208   1.676
10653TIP3    H131902   3.003   1.204   1.588
10653TIP3    H231903   2.984   1.297   1.706
10654TIP3   OH231904   6.827   4.300   0.892
10654TIP3    H131905   6.830   4.374   0.831
10654TIP3    H231906   6.784   4.335   0.970
10655TIP3   OH231907   1.389   3.951   4.335
10655TIP3    H131908   1.316   3.948   4.273
10655TIP3    H231909   1.348   3.967   4.420
10656TIP3   OH231910   1.832   1.248   6.274
10656TIP3    H131911   1.884   1.288   6.204
10656TIP3    H231912   1.835   1.313   6.345
10657TIP3   OH231913   6.010   4.308   4.552
10657TIP3    H131914   5.999   4.347   4.465
10657TIP3    H231915   6.105   4.302   4.564
10658TIP3   OH231916   4.479   7.683   5.542
10658TIP3    H131917   4.559   7.699   5.593
10658TIP3    H231918   4.408   7.700   5.604
10659TIP3   OH231919   3.062   6.236   5.626
10659TIP3    H131920   3.110   6.235   5.709
10659TIP3    H231921   3.000   6.163   5.633
10660TIP3   OH231922   0.183   7.324   4.394
10660TIP3    H131923   0.180   7.236   4.356
10660TIP3    H231924   0.268   7.358   4.369
10661TIP3   OH231925   7.778   2.232   2.866
10661TIP3    H131926   7.697   2.191   2.836
10661TIP3    H231927   7.756   2.268   2.952
10662TIP3   OH231928   6.371   5.103   3.183
10662TIP3    H131929   6.435   5.175   3.186
10662TIP3    H231930   6.414   5.030   3.227
10663TIP3   OH231931   7.118   3.073   5.785
10663TIP3    H131932   7.060   3.051   5.858
10663TIP3    H231933   7.070   3.140   5.736
10664TIP3   OH231934   5.440   2.590   1.534
10664TIP3    H131935   5.409   2.557   1.618
10664TIP3    H231936   5.484   2.672   1.554
10665TIP3   OH231937   0.696   1.002   0.256
10665TIP3    H131938   0.700   0.986   0.350
10665TIP3    H231939   0.671   0.917   0.218
10666TIP3   OH231940   8.272   1.560   3.961
10666TIP3    H131941   8.296   1.607   4.041
10666TIP3    H231942   8.343   1.497   3.949
10667TIP3   OH231943   3.151   5.959   3.805
10667TIP3    H131944   3.231   6.011   3.808
10667TIP3    H231945   3.179   5.870   3.827
10668TIP3   OH231946   6.860   2.011   3.299
10668TIP3    H131947   6.900   1.926   3.281
10668TIP3    H231948   6.924   2.057   3.353
10669TIP3   OH231949   6.054   6.728   1.626
10669TIP3    H131950   6.134   6.759   1.583
10669TIP3    H231951   6.081   6.649   1.673
10670TIP3   OH231952   1.518   0.219   4.450
10670TIP3    H131953   1.471   0.159   4.391
10670TIP3    H231954   1.466   0.220   4.530
10671TIP3   OH231955   6.506   6.822   3.891
10671TIP3    H131956   6.419   6.859   3.880
10671TIP3    H231957   6.551   6.881   3.951
10672TIP3   OH231958   0.161   2.764   4.532
10672TIP3    H131959   0.137   2.683   4.578
10672TIP3    H231960   0.200   2.733   4.450
10673TIP3   OH231961   4.716   7.250   1.288
10673TIP3    H131962   4.637   7.235   1.339
10673TIP3    H231963   4.710   7.342   1.261
10674TIP3   OH231964   6.696   4.632   4.661
10674TIP3    H131965   6.727   4.696   4.725
10674TIP3    H231966   6.776   4.590   4.628
10675TIP3   OH231967   6.099   1.869   1.480
10675TIP3    H131968   6.193   1.885   1.472
10675TIP3    H231969   6.064   1.884   1.393
10676TIP3   OH231970   3.529   0.528   0.726
10676TIP3    H131971   3.529   0.542   0.631
10676TIP3    H231972   3.610   0.480   0.743
10677TIP3   OH231973   0.316   3.597   0.942
10677TIP3    H131974   0.243   3.546   0.907
10677TIP3    H231975   0.304   3.684   0.904
10678TIP3   OH231976   7.212   6.997   4.034
10678TIP3    H131977   7.277   7.058   4.001
10678TIP3    H231978   7.248   6.965   4.116
10679TIP3   OH231979   3.182   6.727   4.174
10679TIP3    H131980   3.176   6.769   4.260
10679TIP3    H231981   3.258   6.669   4.181
10680TIP3   OH231982   7.372   4.377   3.435
10680TIP3    H131983   7.429   4.439   3.480
10680TIP3    H231984   7.368   4.409   3.345
10681TIP3   OH231985   7.462   3.318   0.047
10681TIP3    H131986   7.525   3.265   0.095
10681TIP3    H231987   7.474   3.406   0.082
10682TIP3   OH231988   0.598   5.557   3.461
10682TIP3    H131989   0.588   5.635   3.515
10682TIP3    H231990   0.688   5.561   3.429
10683TIP3   OH231991   5.035   1.657   0.072
10683TIP3    H131992   5.122   1.619   0.084
10683TIP3    H231993   5.050   1.741   0.029
10684TIP3   OH231994   1.743   5.179   0.689
10684TIP3    H131995   1.669   5.238   0.699
10684TIP3    H231996   1.776   5.166   0.778
10685TIP3   OH231997   3.016   6.561   5.934
10685TIP3    H131998   2.987   6.526   6.018
10685TIP3    H231999   3.111   6.566   5.940
10686TIP3   OH232000   4.352   5.886   1.356
10686TIP3    H132001   4.325   5.914   1.268
10686TIP3    H232002   4.434   5.932   1.371
10687TIP3   OH232003   2.053   3.478   2.094
10687TIP3    H132004   2.105   3.414   2.142
10687TIP3    H232005   2.026   3.432   2.014
10688TIP3   OH232006   5.344   2.962   2.738
10688TIP3    H132007   5.395   3.041   2.718
10688TIP3    H232008   5.408   2.891   2.735
10689TIP3   OH232009   2.201   0.796   2.165
10689TIP3    H132010   2.282   0.762   2.204
10689TIP3    H232011   2.136   0.727   2.182
10690TIP3   OH232012   5.619   7.493   5.009
10690TIP3    H132013   5.621   7.557   5.080
10690TIP3    H232014   5.694   7.515   4.954
10691TIP3   OH232015   6.351   7.481   5.869
10691TIP3    H132016   6.394   7.468   5.954
10691TIP3    H232017   6.419   7.463   5.804
10692TIP3   OH232018   6.305   4.358   6.142
10692TIP3    H132019   6.305   4.453   6.142
10692TIP3    H232020   6.255   4.334   6.064
10693TIP3   OH232021   4.596   4.027   3.819
10693TIP3    H132022   4.657   4.068   3.880
10693TIP3    H232023   4.638   4.037   3.733
10694TIP3   OH232024   2.248   0.077   4.565
10694TIP3    H132025   2.301   0.103   4.490
10694TIP3    H232026   2.293   0.000   4.600
10695TIP3   OH232027   6.641   7.493   5.977
10695TIP3    H132028   6.661   7.581   5.946
10695TIP3    H232029   6.597   7.508   6.062
10696TIP3   OH232030   4.512   2.323   2.754
10696TIP3    H132031   4.450   2.352   2.687
10696TIP3    H232032   4.466   2.252   2.800
10697TIP3   OH232033   3.145   2.900   6.448
10697TIP3    H132034   3.099   2.946   6.378
10697TIP3    H232035   3.104   2.931   6.529
10698TIP3   OH232036   3.065   4.467   0.289
10698TIP3    H132037   3.118   4.528   0.340
10698TIP3    H232038   3.080   4.491   0.198
10699TIP3   OH232039   0.824   4.702   0.932
10699TIP3    H132040   0.901   4.748   0.966
10699TIP3    H232041   0.778   4.670   1.010
10700TIP3   OH232042   3.985   1.765   6.573
10700TIP3    H132043   4.051   1.721   6.520
10700TIP3    H232044   3.905   1.761   6.520
10701TIP3   OH232045   0.093   4.355   3.675
10701TIP3    H132046   0.049   4.439   3.688
10701TIP3    H232047   0.182   4.378   3.650
10702TIP3   OH232048   7.970   3.428   5.764
10702TIP3    H132049   8.048   3.378   5.790
10702TIP3    H232050   7.953   3.486   5.838
10703TIP3   OH232051   6.924   6.644   0.220
10703TIP3    H132052   6.869   6.582   0.268
10703TIP3    H232053   6.924   6.723   0.275
10704TIP3   OH232054   7.089   1.541   0.953
10704TIP3    H132055   7.080   1.637   0.956
10704TIP3    H232056   6.999   1.509   0.962
10705TIP3   OH232057   3.900   7.309   1.935
10705TIP3    H132058   3.896   7.219   1.966
10705TIP3    H232059   3.950   7.355   2.002
10706TIP3   OH232060   5.185   2.258   1.402
10706TIP3    H132061   5.182   2.216   1.488
10706TIP3    H232062   5.103   2.308   1.397
10707TIP3   OH232063   3.515   5.599   2.096
10707TIP3    H132064   3.562   5.574   2.175
10707TIP3    H232065   3.423   5.582   2.115
10708TIP3   OH232066   3.124   6.104   2.731
10708TIP3    H132067   3.128   6.182   2.675
10708TIP3    H232068   3.211   6.066   2.726
10709TIP3   OH232069   2.663   0.987   5.165
10709TIP3    H132070   2.716   0.929   5.220
10709TIP3    H232071   2.586   0.935   5.143
10710TIP3   OH232072   0.504   2.392   0.082
10710TIP3    H132073   0.525   2.447   0.157
10710TIP3    H232074   0.486   2.453   0.011
10711TIP3   OH232075   7.923   7.484   4.462
10711TIP3    H132076   7.851   7.430   4.428
10711TIP3    H232077   8.000   7.427   4.457
10712TIP3   OH232078   3.168  -0.007   1.322
10712TIP3    H132079   3.226  -0.077   1.294
10712TIP3    H232080   3.190   0.066   1.264
10713TIP3   OH232081   4.715   5.734   4.479
10713TIP3    H132082   4.667   5.676   4.539
10713TIP3    H232083   4.791   5.764   4.531
10714TIP3   OH232084   2.878   3.261   3.650
10714TIP3    H132085   2.858   3.173   3.619
10714TIP3    H232086   2.793   3.301   3.667
10715TIP3   OH232087   4.838   7.893   6.470
10715TIP3    H132088   4.801   7.981   6.461
10715TIP3    H232089   4.922   7.906   6.514
10716TIP3   OH232090   6.446   1.758   1.049
10716TIP3    H132091   6.512   1.757   1.119
10716TIP3    H232092   6.371   1.711   1.086
10717TIP3   OH232093   6.287   5.951   3.612
10717TIP3    H132094   6.205   5.969   3.657
10717TIP3    H232095   6.356   5.975   3.675
10718TIP3   OH232096   2.610   2.042   1.789
10718TIP3    H132097   2.601   2.107   1.859
10718TIP3    H232098   2.531   1.988   1.795
10719TIP3   OH232099   4.447   4.593   5.440
10719TIP3    H132100   4.510   4.527   5.413
10719TIP3    H232101   4.362   4.549   5.433
10720TIP3   OH232102   3.793   0.531   2.819
10720TIP3    H132103   3.728   0.572   2.876
10720TIP3    H232104   3.809   0.595   2.750
10721TIP3   OH232105   6.153   1.376   2.041
10721TIP3    H132106   6.139   1.433   2.117
10721TIP3    H232107   6.065   1.354   2.010
10722TIP3   OH232108   2.474   0.870   3.749
10722TIP3    H132109   2.442   0.945   3.798
10722TIP3    H232110   2.452   0.889   3.658
10723TIP3   OH232111   0.243   2.181   3.165
10723TIP3    H132112   0.319   2.238   3.162
10723TIP3    H232113   0.262   2.118   3.235
10724TIP3   OH232114   3.968   2.176   2.713
10724TIP3    H132115   3.915   2.252   2.738
10724TIP3    H232116   3.931   2.147   2.629
10725TIP3   OH232117   4.204   0.658   4.243
10725TIP3    H132118   4.282   0.626   4.198
10725TIP3    H232119   4.194   0.600   4.318
10726TIP3   OH232120   5.269   0.709   6.686
10726TIP3    H132121   5.286   0.642   6.752
10726TIP3    H232122   5.265   0.661   6.603
10727TIP3   OH232123   4.100   3.694   2.819
10727TIP3    H132124   4.194   3.695   2.803
10727TIP3    H232125   4.087   3.619   2.878
10728TIP3   OH232126   0.289   3.570   4.344
10728TIP3    H132127   0.286   3.640   4.279
10728TIP3    H232128   0.381   3.567   4.372
10729TIP3   OH232129   5.864   7.717   4.111
10729TIP3    H132130   5.791   7.775   4.088
10729TIP3    H232131   5.824   7.631   4.120
10730TIP3   OH232132   2.353   1.387   4.814
10730TIP3    H132133   2.295   1.352   4.881
10730TIP3    H232134   2.330   1.339   4.734
10731TIP3   OH232135   0.619   4.237   6.692
10731TIP3    H132136   0.536   4.194   6.671
10731TIP3    H232137   0.643   4.203   6.778
10732TIP3   OH232138   5.854   1.831   1.338
10732TIP3    H132139   5.841   1.742   1.371
10732TIP3    H232140   5.802   1.886   1.397
10733TIP3   OH232141   0.816   7.555   3.379
10733TIP3    H132142   0.756   7.592   3.314
10733TIP3    H232143   0.902   7.560   3.338
10734TIP3   OH232144   1.021   5.907   6.040
10734TIP3    H132145   1.016   5.856   6.121
10734TIP3    H232146   1.051   5.844   5.974
10735TIP3   OH232147   0.597   5.597   2.040
10735TIP3    H132148   0.557   5.539   2.104
10735TIP3    H232149   0.658   5.651   2.091
10736TIP3   OH232150   3.442   6.256   0.434
10736TIP3    H132151   3.348   6.240   0.443
10736TIP3    H232152   3.473   6.269   0.523
10737TIP3   OH232153   2.505   6.312   4.742
10737TIP3    H132154   2.597   6.334   4.728
10737TIP3    H232155   2.495   6.313   4.838
10738TIP3   OH232156   0.240   2.218   2.318
10738TIP3    H132157   0.298   2.185   2.249
10738TIP3    H232158   0.250   2.157   2.390
10739TIP3   OH232159   7.776   5.392   4.006
10739TIP3    H132160   7.814   5.465   3.955
10739TIP3    H232161   7.815   5.314   3.967
10740TIP3   OH232162   4.560   5.594   1.407
10740TIP3    H132163   4.595   5.633   1.328
10740TIP3    H232164   4.635   5.550   1.448
10741TIP3   OH232165   0.779   0.343   5.692
10741TIP3    H132166   0.774   0.293   5.774
10741TIP3    H232167   0.732   0.424   5.710
10742TIP3   OH232168   1.005   6.287   0.424
10742TIP3    H132169   1.058   6.294   0.503
10742TIP3    H232170   1.001   6.192   0.407
10743TIP3   OH232171   2.012   1.488   0.793
10743TIP3    H132172   1.945   1.420   0.796
10743TIP3    H232173   2.009   1.528   0.880
10744TIP3   OH232174   8.010   7.542   2.485
10744TIP3    H132175   8.031   7.558   2.577
10744TIP3    H232176   7.955   7.463   2.486
10745TIP3   OH232177   2.631   4.442   0.932
10745TIP3    H132178   2.703   4.402   0.981
10745TIP3    H232179   2.571   4.369   0.914
10746TIP3   OH232180   6.203   1.108   2.106
10746TIP3    H132181   6.129   1.142   2.156
10746TIP3    H232182   6.266   1.180   2.103
10747TIP3   OH232183   8.169   0.578   6.374
10747TIP3    H132184   8.125   0.561   6.458
10747TIP3    H232185   8.237   0.642   6.395
10748TIP3   OH232186   7.975   7.671   3.708
10748TIP3    H132187   7.946   7.762   3.705
10748TIP3    H232188   8.043   7.665   3.641
10749TIP3   OH232189   2.542   1.330   6.182
10749TIP3    H132190   2.550   1.332   6.086
10749TIP3    H232191   2.607   1.265   6.210
10750TIP3   OH232192   7.977   2.217   2.194
10750TIP3    H132193   7.946   2.143   2.246
10750TIP3    H232194   8.071   2.218   2.207
10751TIP3   OH232195   2.124   5.355   4.358
10751TIP3    H132196   2.098   5.429   4.414
10751TIP3    H232197   2.201   5.319   4.401
10752TIP3   OH232198   7.183   1.077   4.481
10752TIP3    H132199   7.117   1.088   4.413
10752TIP3    H232200   7.143   1.116   4.559
10753TIP3   OH232201   0.632   4.680   2.454
10753TIP3    H132202   0.688   4.748   2.416
10753TIP3    H232203   0.685   4.643   2.524
10754TIP3   OH232204   7.208   3.780   3.969
10754TIP3    H132205   7.278   3.788   4.033
10754TIP3    H232206   7.180   3.689   3.976
10755TIP3   OH232207   7.722   0.613   5.325
10755TIP3    H132208   7.664   0.550   5.283
10755TIP3    H232209   7.777   0.646   5.255
10756TIP3   OH232210   0.064   0.927   0.586
10756TIP3    H132211   0.095   0.890   0.503
10756TIP3    H232212  -0.022   0.962   0.566
10757TIP3   OH232213   3.937   0.153   1.401
10757TIP3    H132214   3.939   0.102   1.482
10757TIP3    H232215   3.866   0.114   1.350
10758TIP3   OH232216   1.818   2.027   4.543
10758TIP3    H132217   1.817   2.108   4.491
10758TIP3    H232218   1.727   2.012   4.566
10759TIP3   OH232219   1.267   0.642   0.674
10759TIP3    H132220   1.269   0.706   0.603
10759TIP3    H232221   1.180   0.651   0.712
10760TIP3   OH232222   3.382   4.003   2.897
10760TIP3    H132223   3.356   3.945   2.825
10760TIP3    H232224   3.304   4.057   2.913
10761TIP3   OH232225   7.387   1.365   2.587
10761TIP3    H132226   7.396   1.281   2.632
10761TIP3    H232227   7.316   1.409   2.633
10762TIP3   OH232228   3.170   3.592   5.186
10762TIP3    H132229   3.078   3.591   5.215
10762TIP3    H232230   3.188   3.683   5.166
10763TIP3   OH232231   8.245   4.426   6.557
10763TIP3    H132232   8.189   4.416   6.634
10763TIP3    H232233   8.323   4.374   6.576
10764TIP3   OH232234   4.846   3.502   1.071
10764TIP3    H132235   4.926   3.554   1.072
10764TIP3    H232236   4.781   3.556   1.115
10765TIP3   OH232237   4.691   1.832   0.886
10765TIP3    H132238   4.639   1.847   0.965
10765TIP3    H232239   4.676   1.909   0.832
10766TIP3   OH232240   0.482   1.258   2.084
10766TIP3    H132241   0.405   1.206   2.105
10766TIP3    H232242   0.512   1.223   2.000
10767TIP3   OH232243   3.401   5.931   2.797
10767TIP3    H132244   3.325   5.877   2.820
10767TIP3    H232245   3.466   5.868   2.765
10768TIP3   OH232246   3.616   2.172   0.178
10768TIP3    H132247   3.618   2.265   0.202
10768TIP3    H232248   3.663   2.128   0.249
10769TIP3   OH232249   7.198   2.098   4.041
10769TIP3    H132250   7.103   2.084   4.042
10769TIP3    H232251   7.210   2.177   3.990
10770TIP3   OH232252   0.860   1.373   4.613
10770TIP3    H132253   0.785   1.365   4.555
10770TIP3    H232254   0.831   1.434   4.681
10771TIP3   OH232255   5.553   5.419   4.488
10771TIP3    H132256   5.493   5.367   4.435
10771TIP3    H232257   5.634   5.368   4.488
10772TIP3   OH232258   0.735   2.751   0.819
10772TIP3    H132259   0.760   2.836   0.858
10772TIP3    H232260   0.740   2.689   0.892
10773TIP3   OH232261   7.620   5.216   0.616
10773TIP3    H132262   7.613   5.160   0.539
10773TIP3    H232263   7.661   5.296   0.583
10774TIP3   OH232264   5.002   6.411   3.431
10774TIP3    H132265   5.039   6.372   3.352
10774TIP3    H232266   4.964   6.338   3.479
10775TIP3   OH232267   7.436   0.378   5.472
10775TIP3    H132268   7.361   0.319   5.465
10775TIP3    H232269   7.423   0.424   5.555
10776TIP3   OH232270   2.302   2.803   3.463
10776TIP3    H132271   2.280   2.769   3.550
10776TIP3    H232272   2.222   2.791   3.412
10777TIP3   OH232273   3.103   4.114   1.896
10777TIP3    H132274   3.159   4.108   1.974
10777TIP3    H232275   3.018   4.079   1.925
10778TIP3   OH232276   5.993   0.942   2.623
10778TIP3    H132277   5.975   0.860   2.669
10778TIP3    H232278   5.932   0.941   2.549
10779TIP3   OH232279   6.325   5.834   4.918
10779TIP3    H132280   6.390   5.835   4.989
10779TIP3    H232281   6.253   5.888   4.952
10780TIP3   OH232282   3.818   5.168   0.082
10780TIP3    H132283   3.866   5.093   0.117
10780TIP3    H232284   3.822   5.234   0.152
10781TIP3   OH232285   3.745   5.987   3.350
10781TIP3    H132286   3.653   5.962   3.354
10781TIP3    H232287   3.782   5.955   3.432
10782TIP3   OH232288   2.200   0.637   0.099
10782TIP3    H132289   2.113   0.666   0.126
10782TIP3    H232290   2.187   0.551   0.060
10783TIP3   OH232291   5.110   1.249   4.766
10783TIP3    H132292   5.084   1.157   4.766
10783TIP3    H232293   5.204   1.248   4.783
10784TIP3   OH232294   1.740   4.345   6.292
10784TIP3    H132295   1.757   4.310   6.205
10784TIP3    H232296   1.808   4.307   6.348
10785TIP3   OH232297   3.957   5.071   5.302
10785TIP3    H132298   3.959   5.167   5.296
10785TIP3    H232299   3.893   5.045   5.236
10786TIP3   OH232300   5.229   5.002   2.335
10786TIP3    H132301   5.189   4.969   2.254
10786TIP3    H232302   5.249   4.923   2.385
10787TIP3   OH232303   4.397   2.836   0.061
10787TIP3    H132304   4.474   2.892   0.054
10787TIP3    H232305   4.364   2.829  -0.029
10788TIP3   OH232306   1.334   5.820   0.593
10788TIP3    H132307   1.331   5.912   0.619
10788TIP3    H232308   1.246   5.788   0.609
10789TIP3   OH232309   6.548   0.287   5.633
10789TIP3    H132310   6.550   0.341   5.711
10789TIP3    H232311   6.458   0.293   5.601
10790TIP3   OH232312   6.372   7.773   4.333
10790TIP3    H132313   6.444   7.723   4.294
10790TIP3    H232314   6.390   7.864   4.310
10791TIP3   OH232315   0.676   7.352   4.400
10791TIP3    H132316   0.702   7.409   4.472
10791TIP3    H232317   0.750   7.356   4.339
10792TIP3   OH232318   8.120   1.814   2.280
10792TIP3    H132319   8.189   1.875   2.252
10792TIP3    H232320   8.154   1.728   2.256
10793TIP3   OH232321   1.897   5.750   1.809
10793TIP3    H132322   1.926   5.760   1.900
10793TIP3    H232323   1.935   5.668   1.781
10794TIP3   OH232324   0.282   6.411   1.350
10794TIP3    H132325   0.345   6.483   1.348
10794TIP3    H232326   0.305   6.356   1.276
10795TIP3   OH232327   2.777   4.180   1.957
10795TIP3    H132328   2.793   4.094   1.998
10795TIP3    H232329   2.755   4.159   1.866
10796TIP3   OH232330   7.365   4.966   6.668
10796TIP3    H132331   7.330   4.926   6.747
10796TIP3    H232332   7.450   5.001   6.694
10797TIP3   OH232333   4.104   3.780   1.147
10797TIP3    H132334   4.014   3.811   1.135
10797TIP3    H232335   4.094   3.689   1.175
10798TIP3   OH232336   5.335   5.925   6.503
10798TIP3    H132337   5.246   5.936   6.536
10798TIP3    H232338   5.352   5.831   6.515
10799TIP3   OH232339   6.120   7.399   6.432
10799TIP3    H132340   6.025   7.384   6.424
10799TIP3    H232341   6.128   7.467   6.499
10800TIP3   OH232342   0.947   7.410   0.229
10800TIP3    H132343   0.934   7.492   0.180
10800TIP3    H232344   0.892   7.346   0.184
10801TIP3   OH232345   5.498   5.601   3.599
10801TIP3    H132346   5.591   5.578   3.605
10801TIP3    H232347   5.461   5.532   3.543
10802TIP3   OH232348   2.812   6.492   5.040
10802TIP3    H132349   2.865   6.564   5.075
10802TIP3    H232350   2.875   6.425   5.014
10803TIP3   OH232351   3.275   4.448   4.096
10803TIP3    H132352   3.366   4.454   4.065
10803TIP3    H232353   3.273   4.367   4.146
10804TIP3   OH232354   7.073   3.881   6.259
10804TIP3    H132355   6.979   3.881   6.276
10804TIP3    H232356   7.111   3.836   6.334
10805TIP3   OH232357   4.994   3.130   6.008
10805TIP3    H132358   4.961   3.109   5.921
10805TIP3    H232359   5.079   3.087   6.014
10806TIP3   OH232360   5.541   7.138   6.381
10806TIP3    H132361   5.511   7.090   6.304
10806TIP3    H232362   5.586   7.215   6.345
10807TIP3   OH232363   6.373   4.756   0.871
10807TIP3    H132364   6.427   4.698   0.925
10807TIP3    H232365   6.284   4.723   0.883
10808TIP3   OH232366   6.812   3.726   2.401
10808TIP3    H132367   6.884   3.729   2.338
10808TIP3    H232368   6.813   3.812   2.443
10809TIP3   OH232369   3.600   2.322   4.445
10809TIP3    H132370   3.517   2.351   4.407
10809TIP3    H232371   3.576   2.282   4.528
10810TIP3   OH232372   2.924   3.614   3.526
10810TIP3    H132373   2.934   3.621   3.431
10810TIP3    H232374   2.849   3.669   3.547
10811TIP3   OH232375   7.252   3.115   1.855
10811TIP3    H132376   7.271   3.114   1.948
10811TIP3    H232377   7.257   3.023   1.829
10812TIP3   OH232378   1.035   0.466   1.360
10812TIP3    H132379   1.033   0.560   1.377
10812TIP3    H232380   1.116   0.436   1.400
10813TIP3   OH232381   4.083   1.863   5.486
10813TIP3    H132382   4.168   1.831   5.515
10813TIP3    H232383   4.072   1.947   5.531
10814TIP3   OH232384   3.489   6.574   5.201
10814TIP3    H132385   3.412   6.614   5.241
10814TIP3    H232386   3.493   6.486   5.239
10815TIP3   OH232387   0.375   3.281   0.679
10815TIP3    H132388   0.457   3.321   0.649
10815TIP3    H232389   0.386   3.188   0.662
10816TIP3   OH232390   5.753   3.587   5.435
10816TIP3    H132391   5.726   3.673   5.465
10816TIP3    H232392   5.803   3.604   5.355
10817TIP3   OH232393   0.623   7.428   2.559
10817TIP3    H132394   0.587   7.511   2.528
10817TIP3    H232395   0.711   7.449   2.588
10818TIP3   OH232396   5.028   7.022   4.806
10818TIP3    H132397   4.997   6.987   4.890
10818TIP3    H232398   5.007   6.953   4.743
10819TIP3   OH232399   0.076   3.419   5.844
10819TIP3    H132400   0.042   3.341   5.888
10819TIP3    H232401   0.016   3.434   5.772
10820TIP3   OH232402   3.780   0.367   0.727
10820TIP3    H132403   3.813   0.342   0.641
10820TIP3    H232404   3.853   0.350   0.786
10821TIP3   OH232405   4.743   6.067   1.818
10821TIP3    H132406   4.761   6.082   1.911
10821TIP3    H232407   4.828   6.077   1.775
10822TIP3   OH232408   8.085   5.932   0.758
10822TIP3    H132409   8.059   6.019   0.726
10822TIP3    H232410   8.170   5.917   0.717
10823TIP3   OH232411   0.291   0.904   5.138
10823TIP3    H132412   0.299   0.949   5.053
10823TIP3    H232413   0.379   0.873   5.157
10824TIP3   OH232414   6.012   6.933   5.623
10824TIP3    H132415   5.923   6.936   5.589
10824TIP3    H232416   6.034   7.023   5.644
10825TIP3   OH232417   7.927   2.100   1.696
10825TIP3    H132418   7.992   2.041   1.735
10825TIP3    H232419   7.845   2.051   1.698
10826TIP3   OH232420   2.174   5.823   6.564
10826TIP3    H132421   2.084   5.819   6.596
10826TIP3    H232422   2.217   5.885   6.622
10827TIP3   OH232423   4.571   3.528   5.083
10827TIP3    H132424   4.644   3.572   5.125
10827TIP3    H232425   4.495   3.550   5.138
10828TIP3   OH232426   3.365   2.873   2.267
10828TIP3    H132427   3.354   2.879   2.362
10828TIP3    H232428   3.382   2.963   2.239
10829TIP3   OH232429   3.876   3.392   6.379
10829TIP3    H132430   3.837   3.312   6.415
10829TIP3    H232431   3.836   3.401   6.293
10830TIP3   OH232432   3.055   1.865   0.964
10830TIP3    H132433   3.111   1.900   1.033
10830TIP3    H232434   3.003   1.798   1.008
10831TIP3   OH232435   5.491   1.217   1.853
10831TIP3    H132436   5.554   1.148   1.835
10831TIP3    H232437   5.421   1.174   1.902
10832TIP3   OH232438   6.235   6.056   0.755
10832TIP3    H132439   6.181   5.980   0.734
10832TIP3    H232440   6.186   6.131   0.721
10833TIP3   OH232441   1.111   0.187   3.797
10833TIP3    H132442   1.133   0.158   3.708
10833TIP3    H232443   1.036   0.245   3.785
10834TIP3   OH232444   3.226   5.537   2.120
10834TIP3    H132445   3.216   5.468   2.186
10834TIP3    H232446   3.156   5.599   2.140
10835TIP3   OH232447   7.561   4.624   4.652
10835TIP3    H132448   7.534   4.684   4.722
10835TIP3    H232449   7.482   4.611   4.601
10836TIP3   OH232450   1.682   6.402   5.240
10836TIP3    H132451   1.662   6.313   5.267
10836TIP3    H232452   1.613   6.455   5.280
10837TIP3   OH232453   7.964   2.400   3.753
10837TIP3    H132454   8.057   2.388   3.733
10837TIP3    H232455   7.963   2.447   3.836
10838TIP3   OH232456   0.999   2.975   1.437
10838TIP3    H132457   0.989   2.911   1.508
10838TIP3    H232458   0.928   3.038   1.452
10839TIP3   OH232459   6.007   4.303   0.891
10839TIP3    H132460   6.065   4.276   0.962
10839TIP3    H232461   5.926   4.254   0.906
10840TIP3   OH232462   6.592   1.860   6.311
10840TIP3    H132463   6.621   1.797   6.245
10840TIP3    H232464   6.600   1.814   6.394
10841TIP3   OH232465   3.079   4.990   3.086
10841TIP3    H132466   3.076   4.994   2.990
10841TIP3    H232467   3.127   4.910   3.106
10842TIP3   OH232468   6.196   2.811   4.897
10842TIP3    H132469   6.210   2.900   4.864
10842TIP3    H232470   6.224   2.815   4.988
10843TIP3   OH232471   6.577   1.747   2.579
10843TIP3    H132472   6.594   1.841   2.589
10843TIP3    H232473   6.483   1.741   2.563
10844TIP3   OH232474   1.190   7.020   5.314
10844TIP3    H132475   1.220   7.100   5.271
10844TIP3    H232476   1.210   6.950   5.251
10845TIP3   OH232477   5.035   2.013   3.920
10845TIP3    H132478   5.092   2.036   3.847
10845TIP3    H232479   4.983   2.092   3.937
10846TIP3   OH232480   4.261   2.063   1.406
10846TIP3    H132481   4.295   2.062   1.317
10846TIP3    H232482   4.334   2.097   1.459
10847TIP3   OH232483   3.865   0.579   0.482
10847TIP3    H132484   3.797   0.515   0.461
10847TIP3    H232485   3.820   0.643   0.538
10848TIP3   OH232486   5.468   6.995   4.336
10848TIP3    H132487   5.514   6.937   4.396
10848TIP3    H232488   5.389   7.021   4.384
10849TIP3   OH232489   0.097   2.774   0.874
10849TIP3    H132490   0.115   2.681   0.866
10849TIP3    H232491   0.018   2.779   0.928
10850TIP3   OH232492   6.147   2.321   2.955
10850TIP3    H132493   6.157   2.277   3.040
10850TIP3    H232494   6.234   2.317   2.916
10851TIP3   OH232495   7.653   0.352   0.778
10851TIP3    H132496   7.684   0.433   0.818
10851TIP3    H232497   7.695   0.351   0.692
10852TIP3   OH232498   1.740   4.178   3.076
10852TIP3    H132499   1.727   4.259   3.027
10852TIP3    H232500   1.827   4.187   3.115
10853TIP3   OH232501   7.672   7.107   2.038
10853TIP3    H132502   7.634   7.022   2.061
10853TIP3    H232503   7.598   7.158   2.006
10854TIP3   OH232504   4.713   1.736   6.548
10854TIP3    H132505   4.781   1.728   6.481
10854TIP3    H232506   4.658   1.658   6.535
10855TIP3   OH232507   3.270   4.783   1.683
10855TIP3    H132508   3.357   4.752   1.659
10855TIP3    H232509   3.220   4.704   1.701
10856TIP3   OH232510   6.171   5.007   1.979
10856TIP3    H132511   6.119   4.960   1.915
10856TIP3    H232512   6.224   4.940   2.022
10857TIP3   OH232513   4.404   7.478   5.363
10857TIP3    H132514   4.442   7.525   5.437
10857TIP3    H232515   4.342   7.540   5.325
10858TIP3   OH232516   5.129   7.178   5.555
10858TIP3    H132517   5.066   7.200   5.624
10858TIP3    H232518   5.149   7.086   5.571
10859TIP3   OH232519   2.038   3.252   5.094
10859TIP3    H132520   2.098   3.321   5.068
10859TIP3    H232521   1.953   3.296   5.101
10860TIP3   OH232522   3.813   2.135   1.460
10860TIP3    H132523   3.876   2.074   1.422
10860TIP3    H232524   3.804   2.106   1.551
10861TIP3   OH232525   2.111   4.430   0.699
10861TIP3    H132526   2.177   4.494   0.726
10861TIP3    H232527   2.050   4.480   0.645
10862TIP3   OH232528   4.414   4.346   2.919
10862TIP3    H132529   4.376   4.404   2.853
10862TIP3    H232530   4.505   4.374   2.926
10863TIP3   OH232531   7.858   2.088   0.932
10863TIP3    H132532   7.818   2.005   0.959
10863TIP3    H232533   7.948   2.084   0.967
10864TIP3   OH232534   7.365   7.832   3.680
10864TIP3    H132535   7.408   7.861   3.600
10864TIP3    H232536   7.328   7.746   3.658
10865TIP3   OH232537   3.037   0.465   5.167
10865TIP3    H132538   3.111   0.489   5.222
10865TIP3    H232539   2.986   0.404   5.220
10866TIP3   OH232540   5.733   7.311   0.670
10866TIP3    H132541   5.662   7.368   0.699
10866TIP3    H232542   5.691   7.249   0.611
10867TIP3   OH232543   1.780   2.680   3.498
10867TIP3    H132544   1.739   2.614   3.553
10867TIP3    H232545   1.732   2.761   3.518
10868TIP3   OH232546   7.055   6.907   0.238
10868TIP3    H132547   7.044   7.001   0.256
10868TIP3    H232548   7.072   6.868   0.324
10869TIP3   OH232549   7.960   3.427   2.339
10869TIP3    H132550   7.905   3.458   2.412
10869TIP3    H232551   7.917   3.462   2.261
10870TIP3   OH232552   3.873   7.834   5.028
10870TIP3    H132553   3.781   7.863   5.032
10870TIP3    H232554   3.872   7.747   5.069
10871TIP3   OH232555   4.374   7.487   6.425
10871TIP3    H132556   4.411   7.562   6.379
10871TIP3    H232557   4.287   7.515   6.452
10872TIP3   OH232558   3.175   1.406   4.765
10872TIP3    H132559   3.087   1.372   4.783
10872TIP3    H232560   3.234   1.340   4.799
10873TIP3   OH232561   2.553   7.559   4.520
10873TIP3    H132562   2.546   7.562   4.616
10873TIP3    H232563   2.604   7.637   4.498
10874TIP3   OH232564   1.968   5.916   5.336
10874TIP3    H132565   1.952   5.908   5.430
10874TIP3    H232566   1.881   5.920   5.297
10875TIP3   OH232567   2.217   6.590   5.012
10875TIP3    H132568   2.176   6.511   5.049
10875TIP3    H232569   2.303   6.594   5.054
10876TIP3   OH232570   8.025   6.920   5.912
10876TIP3    H132571   8.101   6.865   5.893
10876TIP3    H232572   8.013   6.973   5.834
10877TIP3   OH232573   0.050   7.237   1.758
10877TIP3    H132574  -0.040   7.224   1.728
10877TIP3    H232575   0.076   7.153   1.796
10878TIP3   OH232576   5.961   6.967   5.976
10878TIP3    H132577   6.005   6.891   6.015
10878TIP3    H232578   6.021   6.998   5.909
10879TIP3   OH232579   3.633   1.429   1.984
10879TIP3    H132580   3.636   1.358   2.048
10879TIP3    H232581   3.555   1.479   2.007
10880TIP3   OH232582   5.160   5.198   0.547
10880TIP3    H132583   5.204   5.154   0.620
10880TIP3    H232584   5.218   5.184   0.472
10881TIP3   OH232585   7.688   4.585   0.677
10881TIP3    H132586   7.735   4.534   0.743
10881TIP3    H232587   7.755   4.639   0.636
10882TIP3   OH232588   4.423   7.769   1.825
10882TIP3    H132589   4.406   7.846   1.771
10882TIP3    H232590   4.459   7.804   1.907
10883TIP3   OH232591   5.758   2.979   1.876
10883TIP3    H132592   5.828   3.026   1.920
10883TIP3    H232593   5.798   2.896   1.848
10884TIP3   OH232594   0.353   4.966   3.490
10884TIP3    H132595   0.278   4.909   3.478
10884TIP3    H232596   0.425   4.907   3.510
10885TIP3   OH232597   5.769   7.653   1.046
10885TIP3    H132598   5.858   7.619   1.035
10885TIP3    H232599   5.777   7.720   1.114
10886TIP3   OH232600   3.869   7.560   5.526
10886TIP3    H132601   3.943   7.503   5.503
10886TIP3    H232602   3.812   7.504   5.578
10887TIP3   OH232603   2.331   7.576   4.353
10887TIP3    H132604   2.404   7.560   4.414
10887TIP3    H232605   2.320   7.671   4.353
10888TIP3   OH232606   1.433   2.703   6.634
10888TIP3    H132607   1.422   2.764   6.561
10888TIP3    H232608   1.360   2.722   6.692
10889TIP3   OH232609   2.838   5.834   2.417
10889TIP3    H132610   2.881   5.878   2.490
10889TIP3    H232611   2.897   5.762   2.395
10890TIP3   OH232612   0.775   4.601   0.250
10890TIP3    H132613   0.803   4.612   0.340
10890TIP3    H232614   0.834   4.535   0.214
10891TIP3   OH232615   2.281   0.683   3.737
10891TIP3    H132616   2.318   0.604   3.699
10891TIP3    H232617   2.352   0.747   3.736
10892TIP3   OH232618   8.124   2.546   4.611
10892TIP3    H132619   8.067   2.588   4.676
10892TIP3    H232620   8.209   2.541   4.655
10893TIP3   OH232621   4.322   4.468   2.685
10893TIP3    H132622   4.406   4.471   2.639
10893TIP3    H232623   4.283   4.384   2.659
10894TIP3   OH232624   2.892   3.462   5.332
10894TIP3    H132625   2.905   3.488   5.423
10894TIP3    H232626   2.895   3.367   5.333
10895TIP3   OH232627   6.982   1.734   6.023
10895TIP3    H132628   6.960   1.759   6.113
10895TIP3    H232629   6.898   1.733   5.977
10896TIP3   OH232630   3.435   5.381   0.367
10896TIP3    H132631   3.449   5.404   0.459
10896TIP3    H232632   3.368   5.442   0.337
10897TIP3   OH232633   7.329   3.580   0.394
10897TIP3    H132634   7.272   3.507   0.373
10897TIP3    H232635   7.391   3.584   0.322
10898TIP3   OH232636   5.844   1.187   6.086
10898TIP3    H132637   5.803   1.116   6.136
10898TIP3    H232638   5.779   1.209   6.019
10899TIP3   OH232639   5.546   4.670   2.742
10899TIP3    H132640   5.588   4.722   2.673
10899TIP3    H232641   5.611   4.606   2.768
10900TIP3   OH232642   7.466   6.440   1.161
10900TIP3    H132643   7.461   6.527   1.121
10900TIP3    H232644   7.480   6.458   1.254
10901TIP3   OH232645   1.424   4.105   2.448
10901TIP3    H132646   1.381   4.189   2.461
10901TIP3    H232647   1.447   4.075   2.536
10902TIP3   OH232648   1.742   3.597   0.139
10902TIP3    H132649   1.759   3.581   0.047
10902TIP3    H232650   1.805   3.543   0.186
10903TIP3   OH232651   0.088   0.059   4.218
10903TIP3    H132652  -0.005   0.083   4.217
10903TIP3    H232653   0.097   0.000   4.292
10904TIP3   OH232654   1.142   0.029   1.305
10904TIP3    H132655   1.058   0.000   1.340
10904TIP3    H232656   1.154   0.117   1.340
10905TIP3   OH232657   2.491   6.762   2.012
10905TIP3    H132658   2.425   6.776   2.080
10905TIP3    H232659   2.483   6.669   1.991
10906TIP3   OH232660   0.494   6.495   4.622
10906TIP3    H132661   0.433   6.423   4.610
10906TIP3    H232662   0.580   6.453   4.626
10907TIP3   OH232663   4.578   7.267   3.821
10907TIP3    H132664   4.570   7.237   3.911
10907TIP3    H232665   4.503   7.324   3.807
10908TIP3   OH232666   5.149   0.215   5.142
10908TIP3    H132667   5.221   0.171   5.188
10908TIP3    H232668   5.125   0.288   5.200
10909TIP3   OH232669   6.562   0.793   0.557
10909TIP3    H132670   6.532   0.872   0.512
10909TIP3    H232671   6.606   0.825   0.636
10910TIP3   OH232672   5.967   5.337   2.569
10910TIP3    H132673   6.003   5.366   2.653
10910TIP3    H232674   5.976   5.242   2.570
10911TIP3   OH232675   0.054   5.434   2.499
10911TIP3    H132676   0.149   5.437   2.500
10911TIP3    H232677   0.032   5.372   2.429
10912TIP3   OH232678   4.451   4.480   4.044
10912TIP3    H132679   4.390   4.445   4.109
10912TIP3    H232680   4.504   4.544   4.092
10913TIP3   OH232681   4.110   3.127   4.102
10913TIP3    H132682   4.132   3.069   4.028
10913TIP3    H232683   4.172   3.101   4.171
10914TIP3   OH232684   1.192   0.647   5.700
10914TIP3    H132685   1.126   0.594   5.656
10914TIP3    H232686   1.275   0.604   5.680
10915TIP3   OH232687   2.700   4.452   5.726
10915TIP3    H132688   2.652   4.371   5.707
10915TIP3    H232689   2.718   4.490   5.640
10916TIP3   OH232690   7.384   1.959   4.772
10916TIP3    H132691   7.418   1.968   4.860
10916TIP3    H232692   7.455   1.919   4.722
10917TIP3   OH232693   2.648   3.278   0.540
10917TIP3    H132694   2.689   3.248   0.459
10917TIP3    H232695   2.556   3.287   0.519
10918TIP3   OH232696   4.435   0.997   1.497
10918TIP3    H132697   4.339   0.997   1.503
10918TIP3    H232698   4.456   1.079   1.452
10919TIP3   OH232699   7.672   3.174   4.769
10919TIP3    H132700   7.746   3.127   4.731
10919TIP3    H232701   7.713   3.245   4.820
10920TIP3   OH232702   2.181   2.330   5.407
10920TIP3    H132703   2.251   2.331   5.473
10920TIP3    H232704   2.196   2.410   5.356
10921TIP3   OH232705   6.905   1.735   3.062
10921TIP3    H132706   6.918   1.641   3.049
10921TIP3    H232707   6.984   1.763   3.109
10922TIP3   OH232708   7.808   7.183   5.741
10922TIP3    H132709   7.835   7.152   5.655
10922TIP3    H232710   7.885   7.171   5.797
10923TIP3   OH232711   7.628   0.763   1.852
10923TIP3    H132712   7.568   0.695   1.820
10923TIP3    H232713   7.687   0.717   1.912
10924TIP3   OH232714   0.104   1.754   0.887
10924TIP3    H132715   0.129   1.705   0.808
10924TIP3    H232716   0.096   1.687   0.955
10925TIP3   OH232717   3.651   2.840   4.177
10925TIP3    H132718   3.560   2.815   4.190
10925TIP3    H232719   3.674   2.803   4.092
10926TIP3   OH232720   4.021   6.135   6.099
10926TIP3    H132721   3.937   6.093   6.080
10926TIP3    H232722   4.052   6.167   6.014
10927TIP3   OH232723   3.378   6.026   6.806
10927TIP3    H132724   3.326   6.105   6.825
10927TIP3    H232725   3.397   6.032   6.712
10928TIP3   OH232726   2.180   2.467   0.740
10928TIP3    H132727   2.098   2.451   0.787
10928TIP3    H232728   2.154   2.471   0.648
10929TIP3   OH232729   3.097   2.294   5.820
10929TIP3    H132730   3.162   2.231   5.789
10929TIP3    H232731   3.024   2.240   5.850
10930TIP3   OH232732   3.734   2.710   0.102
10930TIP3    H132733   3.737   2.713   0.197
10930TIP3    H232734   3.658   2.656   0.081
10931TIP3   OH232735   4.917   1.650   5.081
10931TIP3    H132736   4.976   1.584   5.045
10931TIP3    H232737   4.829   1.619   5.059
10932TIP3   OH232738   4.764   4.901   2.805
10932TIP3    H132739   4.708   4.840   2.853
10932TIP3    H232740   4.841   4.849   2.780
10933TIP3   OH232741   4.068   6.340   6.672
10933TIP3    H132742   4.048   6.323   6.580
10933TIP3    H232743   4.123   6.419   6.670
10934TIP3   OH232744   5.589   1.323   6.694
10934TIP3    H132745   5.598   1.245   6.748
10934TIP3    H232746   5.644   1.389   6.738
10935TIP3   OH232747   4.466   6.389   1.277
10935TIP3    H132748   4.562   6.385   1.276
10935TIP3    H232749   4.446   6.475   1.312
10936TIP3   OH232750   6.329   1.641   2.843
10936TIP3    H132751   6.312   1.644   2.749
10936TIP3    H232752   6.399   1.576   2.852
10937TIP3   OH232753   6.916   4.519   2.080
10937TIP3    H132754   6.949   4.604   2.110
10937TIP3    H232755   6.874   4.538   1.996
10938TIP3   OH232756   6.848   4.043   0.208
10938TIP3    H132757   6.825   4.064   0.118
10938TIP3    H232758   6.905   4.115   0.236
10939TIP3   OH232759   1.593   0.078   2.284
10939TIP3    H132760   1.605   0.011   2.217
10939TIP3    H232761   1.634   0.042   2.363
10940TIP3   OH232762   5.139   4.510   4.591
10940TIP3    H132763   5.079   4.532   4.662
10940TIP3    H232764   5.155   4.594   4.547
10941TIP3   OH232765   4.513   4.431   5.946
10941TIP3    H132766   4.434   4.437   5.893
10941TIP3    H232767   4.530   4.521   5.975
10942TIP3   OH232768   2.587   0.919   4.816
10942TIP3    H132769   2.584   0.883   4.904
10942TIP3    H232770   2.496   0.920   4.787
10943TIP3   OH232771   2.707   4.504   3.194
10943TIP3    H132772   2.795   4.467   3.196
10943TIP3    H232773   2.720   4.595   3.165
10944TIP3   OH232774   5.637   7.050   5.096
10944TIP3    H132775   5.669   7.113   5.031
10944TIP3    H232776   5.646   6.965   5.054
10945TIP3   OH232777   3.129   6.072   5.258
10945TIP3    H132778   3.142   6.044   5.167
10945TIP3    H232779   3.218   6.087   5.291
10946TIP3   OH232780   6.251   1.381   4.390
10946TIP3    H132781   6.168   1.392   4.438
10946TIP3    H232782   6.256   1.458   4.334
10947TIP3   OH232783   4.735   4.253   2.148
10947TIP3    H132784   4.775   4.174   2.110
10947TIP3    H232785   4.779   4.326   2.104
10948TIP3   OH232786   6.505   5.228   2.364
10948TIP3    H132787   6.415   5.254   2.385
10948TIP3    H232788   6.555   5.248   2.443
10949TIP3   OH232789   6.302   6.486   6.770
10949TIP3    H132790   6.334   6.402   6.739
10949TIP3    H232791   6.210   6.487   6.745
10950TIP3   OH232792   1.157   3.432   6.190
10950TIP3    H132793   1.136   3.437   6.283
10950TIP3    H232794   1.176   3.339   6.174
10951TIP3   OH232795   1.689   3.237   1.651
10951TIP3    H132796   1.597   3.262   1.643
10951TIP3    H232797   1.727   3.304   1.707
10952TIP3   OH232798   0.368   4.725   4.735
10952TIP3    H132799   0.424   4.691   4.664
10952TIP3    H232800   0.399   4.680   4.813
10953TIP3   OH232801   6.766   4.847   1.855
10953TIP3    H132802   6.754   4.938   1.881
10953TIP3    H232803   6.860   4.831   1.866
10954TIP3   OH232804   1.216   2.461   5.477
10954TIP3    H132805   1.305   2.479   5.447
10954TIP3    H232806   1.160   2.506   5.414
10955TIP3   OH232807   1.740   4.653   5.084
10955TIP3    H132808   1.671   4.660   5.149
10955TIP3    H232809   1.809   4.712   5.115
10956TIP3   OH232810   0.424   0.350   6.366
10956TIP3    H132811   0.487   0.325   6.433
10956TIP3    H232812   0.375   0.270   6.347
10957TIP3   OH232813   4.164   6.048   4.202
10957TIP3    H132814   4.232   5.982   4.212
10957TIP3    H232815   4.199   6.110   4.138
10958TIP3   OH232816   3.375   5.360   3.054
10958TIP3    H132817   3.347   5.274   3.023
10958TIP3    H232818   3.470   5.351   3.066
10959TIP3   OH232819   0.979   4.202   3.555
10959TIP3    H132820   1.026   4.224   3.474
10959TIP3    H232821   0.891   4.236   3.541
10960TIP3   OH232822   2.918   3.888   3.768
10960TIP3    H132823   2.872   3.816   3.725
10960TIP3    H232824   2.945   3.853   3.853
10961TIP3   OH232825   2.234   4.532   2.970
10961TIP3    H132826   2.248   4.503   2.880
10961TIP3    H232827   2.248   4.453   3.023
10962TIP3   OH232828   5.857   3.620   0.383
10962TIP3    H132829   5.924   3.672   0.427
10962TIP3    H232830   5.905   3.568   0.319
10963TIP3   OH232831   6.825   5.285   5.435
10963TIP3    H132832   6.886   5.229   5.387
10963TIP3    H232833   6.836   5.372   5.396
10964TIP3   OH232834   5.817   0.047   3.289
10964TIP3    H132835   5.890  -0.014   3.301
10964TIP3    H232836   5.859   0.133   3.280
10965TIP3   OH232837   1.909   5.061   4.238
10965TIP3    H132838   1.992   5.071   4.192
10965TIP3    H232839   1.930   5.009   4.315
10966TIP3   OH232840   7.352   7.601   1.510
10966TIP3    H132841   7.406   7.530   1.543
10966TIP3    H232842   7.312   7.639   1.588
10967TIP3   OH232843   3.383   4.299   1.969
10967TIP3    H132844   3.387   4.234   1.899
10967TIP3    H232845   3.474   4.321   1.987
10968TIP3   OH232846   4.366   3.024   3.069
10968TIP3    H132847   4.388   2.983   3.152
10968TIP3    H232848   4.415   3.107   3.070
10969TIP3   OH232849   1.031   0.595   1.637
10969TIP3    H132850   1.018   0.503   1.660
10969TIP3    H232851   1.077   0.632   1.712
10970TIP3   OH232852   2.852   4.922   6.027
10970TIP3    H132853   2.848   5.015   6.008
10970TIP3    H232854   2.800   4.911   6.107
10971TIP3   OH232855   6.843   3.066   3.504
10971TIP3    H132856   6.925   3.114   3.499
10971TIP3    H232857   6.777   3.127   3.470
10972TIP3   OH232858   6.102   7.810   4.770
10972TIP3    H132859   6.179   7.866   4.772
10972TIP3    H232860   6.128   7.730   4.817
10973TIP3   OH232861   7.183   7.821   6.113
10973TIP3    H132862   7.218   7.777   6.190
10973TIP3    H232863   7.128   7.756   6.070
10974TIP3   OH232864   4.521   1.684   3.594
10974TIP3    H132865   4.612   1.666   3.619
10974TIP3    H232866   4.505   1.627   3.520
10975TIP3   OH232867   7.008   1.889   2.319
10975TIP3    H132868   6.989   1.821   2.255
10975TIP3    H232869   6.926   1.899   2.368
10976TIP3   OH232870   7.736   0.154   3.998
10976TIP3    H132871   7.757   0.158   3.905
10976TIP3    H232872   7.695   0.239   4.017
10977TIP3   OH232873   4.435   5.665   5.921
10977TIP3    H132874   4.509   5.636   5.867
10977TIP3    H232875   4.473   5.724   5.985
10978TIP3   OH232876   7.712   7.428   0.130
10978TIP3    H132877   7.722   7.341   0.091
10978TIP3    H232878   7.646   7.471   0.076
10979TIP3   OH232879   7.011   6.032   2.436
10979TIP3    H132880   7.102   6.023   2.409
10979TIP3    H232881   7.007   6.117   2.479
10980TIP3   OH232882   1.276   6.835   5.528
10980TIP3    H132883   1.250   6.903   5.466
10980TIP3    H232884   1.318   6.883   5.600
10981TIP3   OH232885   5.417   5.419   3.417
10981TIP3    H132886   5.327   5.401   3.443
10981TIP3    H232887   5.463   5.336   3.429
10982TIP3   OH232888   3.818   3.833   0.416
10982TIP3    H132889   3.875   3.777   0.468
10982TIP3    H232890   3.808   3.913   0.469
10983TIP3   OH232891   7.664   0.407   4.065
10983TIP3    H132892   7.646   0.490   4.108
10983TIP3    H232893   7.583   0.387   4.018
10984TIP3   OH232894   7.815   1.224   1.419
10984TIP3    H132895   7.785   1.162   1.353
10984TIP3    H232896   7.775   1.308   1.395
10985TIP3   OH232897   4.296   3.448   4.060
10985TIP3    H132898   4.337   3.454   3.974
10985TIP3    H232899   4.242   3.369   4.057
10986TIP3   OH232900   0.141   6.868   1.724
10986TIP3    H132901   0.200   6.886   1.650
10986TIP3    H232902   0.187   6.801   1.775
10987TIP3   OH232903   4.779   0.362   3.979
10987TIP3    H132904   4.840   0.387   3.909
10987TIP3    H232905   4.787   0.267   3.986
10988TIP3   OH232906   4.139   5.906   6.303
10988TIP3    H132907   4.203   5.844   6.339
10988TIP3    H232908   4.192   5.982   6.276
10989TIP3   OH232909   2.996   1.777   2.898
10989TIP3    H132910   2.948   1.844   2.849
10989TIP3    H232911   3.079   1.820   2.922
10990TIP3   OH232912   5.945   4.585   6.619
10990TIP3    H132913   5.858   4.594   6.657
10990TIP3    H232914   6.005   4.605   6.690
10991TIP3   OH232915   0.079   3.615   5.318
10991TIP3    H132916   0.155   3.663   5.284
10991TIP3    H232917   0.038   3.677   5.379
10992TIP3   OH232918   8.193   6.279   2.742
10992TIP3    H132919   8.174   6.283   2.835
10992TIP3    H232920   8.225   6.190   2.727
10993TIP3   OH232921   4.956   5.369   4.349
10993TIP3    H132922   4.965   5.464   4.348
10993TIP3    H232923   5.015   5.338   4.280
10994TIP3   OH232924   2.126   7.775   0.519
10994TIP3    H132925   2.162   7.688   0.532
10994TIP3    H232926   2.093   7.774   0.429
10995TIP3   OH232927   0.982   3.171   0.858
10995TIP3    H132928   0.919   3.235   0.891
10995TIP3    H232929   0.937   3.130   0.783
10996TIP3   OH232930   3.214   1.622   4.933
10996TIP3    H132931   3.209   1.539   4.884
10996TIP3    H232932   3.129   1.630   4.976
10997TIP3   OH232933   0.118   3.358   1.711
10997TIP3    H132934   0.195   3.412   1.692
10997TIP3    H232935   0.052   3.388   1.649
10998TIP3   OH232936   5.081   6.175   5.197
10998TIP3    H132937   5.119   6.255   5.160
10998TIP3    H232938   5.079   6.114   5.123
10999TIP3   OH232939   2.272   2.918   1.692
10999TIP3    H132940   2.233   2.833   1.711
10999TIP3    H232941   2.332   2.934   1.765
11000TIP3   OH232942   2.883   1.070   6.525
11000TIP3    H132943   2.973   1.100   6.510
11000TIP3    H232944   2.888   0.975   6.515
11001TIP3   OH232945   3.472   1.773   4.367
11001TIP3    H132946   3.455   1.842   4.432
11001TIP3    H232947   3.385   1.744   4.340
11002TIP3   OH232948   7.168   4.941   2.713
11002TIP3    H132949   7.081   4.951   2.753
11002TIP3    H232950   7.166   4.855   2.672
11003TIP3   OH232951   4.742   0.094   6.601
11003TIP3    H132952   4.733  -0.001   6.600
11003TIP3    H232953   4.832   0.110   6.631
11004TIP3   OH232954   1.814   1.077   0.717
11004TIP3    H132955   1.826   1.040   0.629
11004TIP3    H232956   1.775   1.005   0.767
11005TIP3   OH232957   0.936   6.409   3.705
11005TIP3    H132958   0.866   6.461   3.744
11005TIP3    H232959   0.891   6.347   3.648
11006TIP3   OH232960   3.389   1.370   5.204
11006TIP3    H132961   3.295   1.387   5.211
11006TIP3    H232962   3.402   1.288   5.252
11007TIP3   OH232963   4.030   7.134   4.184
11007TIP3    H132964   3.951   7.187   4.172
11007TIP3    H232965   4.098   7.181   4.135
11008TIP3   OH232966   2.803   2.121   2.258
11008TIP3    H132967   2.861   2.168   2.199
11008TIP3    H232968   2.814   2.029   2.235
11009TIP3   OH232969   5.923   7.065   3.444
11009TIP3    H132970   5.942   7.081   3.352
11009TIP3    H232971   5.847   7.119   3.464
11010TIP3   OH232972   7.064   5.474   3.940
11010TIP3    H132973   7.050   5.545   3.877
11010TIP3    H232974   7.037   5.511   4.024
11011TIP3   OH232975   3.568   1.091   1.870
11011TIP3    H132976   3.599   1.175   1.836
11011TIP3    H232977   3.568   1.033   1.795
11012TIP3   OH232978   2.812   1.632   1.881
11012TIP3    H132979   2.811   1.712   1.933
11012TIP3    H232980   2.721   1.605   1.877
11013TIP3   OH232981   7.133   6.768   4.725
11013TIP3    H132982   7.136   6.857   4.690
11013TIP3    H232983   7.217   6.729   4.700
11014TIP3   OH232984   3.749   1.463   0.529
11014TIP3    H132985   3.686   1.472   0.600
11014TIP3    H232986   3.701   1.490   0.451
11015TIP3   OH232987   3.026   2.877   3.347
11015TIP3    H132988   3.038   2.943   3.415
11015TIP3    H232989   3.049   2.794   3.389
11016TIP3   OH232990   4.979   5.916   3.536
11016TIP3    H132991   4.975   5.918   3.632
11016TIP3    H232992   5.071   5.895   3.517
11017TIP3   OH232993   0.957   1.635   3.297
11017TIP3    H132994   0.978   1.700   3.230
11017TIP3    H232995   0.872   1.662   3.331
11018TIP3   OH232996   0.828   5.676   6.091
11018TIP3    H132997   0.820   5.767   6.063
11018TIP3    H232998   0.737   5.645   6.098
11019TIP3   OH232999   0.407   6.190   4.267
11019TIP3    H133000   0.459   6.157   4.194
11019TIP3    H233001   0.423   6.285   4.267
11020TIP3   OH233002   2.907   1.805   2.505
11020TIP3    H133003   2.815   1.781   2.494
11020TIP3    H233004   2.936   1.755   2.581
11021TIP3   OH233005   5.705   6.401   4.870
11021TIP3    H133006   5.684   6.353   4.951
11021TIP3    H233007   5.781   6.455   4.894
11022TIP3   OH233008   3.398   5.908   5.671
11022TIP3    H133009   3.429   5.826   5.631
11022TIP3    H233010   3.305   5.894   5.685
11023TIP3   OH233011   4.840   3.477   2.020
11023TIP3    H133012   4.872   3.418   1.952
11023TIP3    H233013   4.918   3.500   2.071
11024TIP3   OH233014   7.458   3.437   1.721
11024TIP3    H133015   7.454   3.357   1.670
11024TIP3    H233016   7.372   3.445   1.761
11025TIP3   OH233017   5.069   6.443   4.525
11025TIP3    H133018   5.030   6.368   4.481
11025TIP3    H233019   5.090   6.504   4.454
11026TIP3   OH233020   3.136   0.819   3.699
11026TIP3    H133021   3.057   0.864   3.727
11026TIP3    H233022   3.125   0.809   3.604
11027TIP3   OH233023   7.534   7.001   4.533
11027TIP3    H133024   7.540   7.008   4.438
11027TIP3    H233025   7.593   6.928   4.555
11028TIP3   OH233026   1.060   6.952   3.592
11028TIP3    H133027   1.134   6.905   3.554
11028TIP3    H233028   1.095   7.039   3.613
11029TIP3   OH233029   0.328   0.409   3.339
11029TIP3    H133030   0.324   0.386   3.246
11029TIP3    H233031   0.296   0.499   3.344
11030TIP3   OH233032   8.093   4.074   4.267
11030TIP3    H133033   8.002   4.074   4.238
11030TIP3    H233034   8.109   4.163   4.295
11031TIP3   OH233035   7.608   4.889   3.087
11031TIP3    H133036   7.573   4.960   3.141
11031TIP3    H233037   7.699   4.915   3.069
11032TIP3   OH233038   0.167   5.445   0.069
11032TIP3    H133039   0.108   5.504   0.117
11032TIP3    H233040   0.248   5.446   0.119
11033TIP3   OH233041   1.275   5.720   0.114
11033TIP3    H133042   1.203   5.663   0.142
11033TIP3    H233043   1.272   5.793   0.175
11034TIP3   OH233044   6.994   1.447   4.471
11034TIP3    H133045   7.008   1.503   4.394
11034TIP3    H233046   6.946   1.372   4.437
11035TIP3   OH233047   3.507   0.972   3.953
11035TIP3    H133048   3.521   0.951   3.861
11035TIP3    H233049   3.458   1.055   3.952
11036TIP3   OH233050   2.421   5.979   2.210
11036TIP3    H133051   2.486   5.962   2.278
11036TIP3    H233052   2.471   5.977   2.128
11037TIP3   OH233053   0.940   3.860   1.222
11037TIP3    H133054   0.859   3.835   1.267
11037TIP3    H233055   0.922   3.844   1.130
11038TIP3   OH233056   0.465   0.339   5.295
11038TIP3    H133057   0.507   0.259   5.262
11038TIP3    H233058   0.537   0.395   5.321
11039TIP3   OH233059   1.192   2.811   6.705
11039TIP3    H133060   1.138   2.818   6.784
11039TIP3    H233061   1.134   2.771   6.640
11040TIP3   OH233062   2.321   6.113   0.420
11040TIP3    H133063   2.240   6.152   0.451
11040TIP3    H233064   2.310   6.019   0.435
11041TIP3   OH233065   3.132   4.087   5.550
11041TIP3    H133066   3.200   4.121   5.608
11041TIP3    H233067   3.166   4.101   5.462
11042TIP3   OH233068   4.029   4.750   4.502
11042TIP3    H133069   4.025   4.844   4.481
11042TIP3    H233070   4.121   4.735   4.525
11043TIP3   OH233071   6.572   0.869   1.815
11043TIP3    H133072   6.613   0.826   1.890
11043TIP3    H233073   6.632   0.939   1.790
11044TIP3   OH233074   7.034   0.266   1.229
11044TIP3    H133075   6.981   0.188   1.213
11044TIP3    H233076   6.999   0.332   1.169
11045TIP3   OH233077   2.266   2.686   4.049
11045TIP3    H133078   2.349   2.640   4.057
11045TIP3    H233079   2.200   2.617   4.047
11046TIP3   OH233080   3.959   3.462   6.021
11046TIP3    H133081   3.944   3.424   5.934
11046TIP3    H233082   3.876   3.453   6.066
11047TIP3   OH233083   1.041   4.286   6.298
11047TIP3    H133084   0.963   4.235   6.277
11047TIP3    H233085   1.107   4.221   6.322
11048TIP3   OH233086   7.939   1.551   1.402
11048TIP3    H133087   7.872   1.520   1.341
11048TIP3    H233088   7.915   1.513   1.486
11049TIP3   OH233089   7.069   1.681   4.281
11049TIP3    H133090   6.975   1.685   4.264
11049TIP3    H233091   7.107   1.652   4.197
11050TIP3   OH233092   2.684   6.418   6.737
11050TIP3    H133093   2.682   6.430   6.642
11050TIP3    H233094   2.688   6.323   6.749
11051TIP3   OH233095   5.958   4.413   4.052
11051TIP3    H133096   6.015   4.356   4.000
11051TIP3    H233097   5.894   4.447   3.990
11052TIP3   OH233098   7.688   5.432   0.924
11052TIP3    H133099   7.702   5.341   0.951
11052TIP3    H233100   7.653   5.475   1.002
11053TIP3   OH233101   0.488   5.076   4.716
11053TIP3    H133102   0.404   5.064   4.760
11053TIP3    H233103   0.482   5.163   4.676
11054TIP3   OH233104   3.218   4.412   6.742
11054TIP3    H133105   3.214   4.370   6.828
11054TIP3    H233106   3.226   4.340   6.680
11055TIP3   OH233107   4.140   3.632   5.606
11055TIP3    H133108   4.190   3.553   5.628
11055TIP3    H233109   4.201   3.704   5.622
11056TIP3   OH233110   8.024   0.065   5.009
11056TIP3    H133111   8.006   0.031   5.096
11056TIP3    H233112   8.119   0.059   4.999
11057TIP3   OH233113   4.113   5.610  -0.021
11057TIP3    H133114   4.095   5.618   0.072
11057TIP3    H233115   4.065   5.683  -0.061
11058TIP3   OH233116   7.701   6.572   6.332
11058TIP3    H133117   7.791   6.586   6.363
11058TIP3    H233118   7.671   6.659   6.306
11059TIP3   OH233119   4.625   2.855   3.591
11059TIP3    H133120   4.589   2.770   3.565
11059TIP3    H233121   4.548   2.910   3.604
11060TIP3   OH233122   0.650   1.748   1.168
11060TIP3    H133123   0.704   1.677   1.202
11060TIP3    H233124   0.562   1.710   1.160
11061TIP3   OH233125   4.771   3.744   2.073
11061TIP3    H133126   4.774   3.772   2.164
11061TIP3    H233127   4.761   3.649   2.077
11062TIP3   OH233128   6.913   7.139   6.537
11062TIP3    H133129   6.891   7.107   6.624
11062TIP3    H233130   6.904   7.062   6.480
11063TIP3   OH233131   3.524   5.906   2.089
11063TIP3    H133132   3.429   5.901   2.074
11063TIP3    H233133   3.546   5.820   2.125
11064TIP3   OH233134   2.545   5.622   5.039
11064TIP3    H133135   2.632   5.596   5.070
11064TIP3    H233136   2.510   5.676   5.110
11065TIP3   OH233137   5.211   3.874   5.095
11065TIP3    H133138   5.293   3.910   5.129
11065TIP3    H233139   5.220   3.880   5.000
11066TIP3   OH233140   6.230   7.707   2.321
11066TIP3    H133141   6.193   7.628   2.363
11066TIP3    H233142   6.314   7.678   2.285
11067TIP3   OH233143   4.725   4.031   4.291
11067TIP3    H133144   4.808   4.013   4.335
11067TIP3    H233145   4.722   4.127   4.283
11068TIP3   OH233146   3.200   1.784   2.338
11068TIP3    H133147   3.105   1.786   2.354
11068TIP3    H233148   3.208   1.751   2.249
11069TIP3   OH233149   3.184   4.857   1.426
11069TIP3    H133150   3.221   4.841   1.512
11069TIP3    H233151   3.239   4.926   1.388
11070TIP3   OH233152   6.892   7.304   2.929
11070TIP3    H133153   6.900   7.314   2.834
11070TIP3    H233154   6.903   7.210   2.944
11071TIP3   OH233155   2.250   0.799   3.251
11071TIP3    H133156   2.337   0.813   3.215
11071TIP3    H233157   2.193   0.857   3.200
11072TIP3   OH233158   2.570   4.910   0.265
11072TIP3    H133159   2.650   4.906   0.317
11072TIP3    H233160   2.588   4.975   0.197
11073TIP3   OH233161   2.411   2.874   5.017
11073TIP3    H133162   2.440   2.965   5.019
11073TIP3    H233163   2.449   2.835   5.095
11074TIP3   OH233164   6.090   3.610   0.768
11074TIP3    H133165   6.157   3.571   0.823
11074TIP3    H233166   6.131   3.618   0.682
11075TIP3   OH233167   6.353   5.341   6.063
11075TIP3    H133168   6.425   5.292   6.024
11075TIP3    H233169   6.296   5.274   6.101
11076TIP3   OH233170   1.827   2.088   1.409
11076TIP3    H133171   1.775   2.157   1.451
11076TIP3    H233172   1.902   2.135   1.373
11077TIP3   OH233173   7.871   7.150   1.794
11077TIP3    H133174   7.861   7.064   1.835
11077TIP3    H233175   7.809   7.149   1.721
11078TIP3   OH233176   2.727   5.870   3.747
11078TIP3    H133177   2.643   5.916   3.751
11078TIP3    H233178   2.776   5.902   3.822
11079TIP3   OH233179   6.450   6.329   2.856
11079TIP3    H133180   6.478   6.238   2.873
11079TIP3    H233181   6.391   6.322   2.781
11080TIP3   OH233182   6.769   0.139   3.430
11080TIP3    H133183   6.815   0.055   3.423
11080TIP3    H233184   6.814   0.185   3.501
11081TIP3   OH233185   6.416   6.070   4.662
11081TIP3    H133186   6.440   6.163   4.668
11081TIP3    H233187   6.350   6.067   4.593
11082TIP3   OH233188   2.261   6.829   2.772
11082TIP3    H133189   2.233   6.751   2.821
11082TIP3    H233190   2.287   6.892   2.839
11083TIP3   OH233191   5.539   5.135   6.165
11083TIP3    H133192   5.596   5.105   6.235
11083TIP3    H233193   5.453   5.142   6.206
11084TIP3   OH233194   3.157   7.461   5.126
11084TIP3    H133195   3.065   7.487   5.122
11084TIP3    H233196   3.156   7.367   5.111
11085TIP3   OH233197   1.284   4.983   5.282
11085TIP3    H133198   1.341   4.932   5.339
11085TIP3    H233199   1.198   4.978   5.324
11086TIP3   OH233200   1.085   2.426   0.367
11086TIP3    H133201   1.051   2.376   0.293
11086TIP3    H233202   1.041   2.389   0.444
11087TIP3   OH233203   2.045   0.484   1.096
11087TIP3    H133204   2.133   0.521   1.083
11087TIP3    H233205   2.038   0.472   1.190
11088TIP3   OH233206   5.339   5.935   5.043
11088TIP3    H133207   5.384   6.002   5.095
11088TIP3    H233208   5.250   5.934   5.078
11089TIP3   OH233209   5.064   3.232   6.534
11089TIP3    H133210   5.148   3.275   6.548
11089TIP3    H233211   5.083   3.139   6.536
11090TIP3   OH233212   5.542   0.417   5.998
11090TIP3    H133213   5.573   0.502   6.030
11090TIP3    H233214   5.605   0.354   6.033
11091TIP3   OH233215   7.849   7.830   2.489
11091TIP3    H133216   7.820   7.864   2.404
11091TIP3    H233217   7.783   7.764   2.512
11092TIP3   OH233218   6.504   1.099   1.976
11092TIP3    H133219   6.531   1.015   1.939
11092TIP3    H233220   6.518   1.090   2.070
11093TIP3   OH233221   3.919   3.026   4.793
11093TIP3    H133222   3.899   3.021   4.699
11093TIP3    H233223   4.015   3.027   4.797
11094TIP3   OH233224   3.254   6.276   5.432
11094TIP3    H133225   3.200   6.281   5.511
11094TIP3    H233226   3.200   6.314   5.363
11095TIP3   OH233227   3.872   7.647   2.647
11095TIP3    H133228   3.916   7.567   2.619
11095TIP3    H233229   3.938   7.716   2.634
11096TIP3   OH233230   3.766   0.826   2.291
11096TIP3    H133231   3.682   0.800   2.329
11096TIP3    H233232   3.746   0.845   2.199
11097TIP3   OH233233   4.956   0.419   3.746
11097TIP3    H133234   4.983   0.332   3.719
11097TIP3    H233235   4.921   0.459   3.666
11098TIP3   OH233236   2.459   1.981   1.380
11098TIP3    H133237   2.469   2.076   1.375
11098TIP3    H233238   2.473   1.949   1.291
11099TIP3   OH233239   3.324   0.076   5.843
11099TIP3    H133240   3.263   0.091   5.771
11099TIP3    H233241   3.303  -0.012   5.874
11100TIP3   OH233242   7.026   6.482   4.858
11100TIP3    H133243   7.020   6.577   4.844
11100TIP3    H233244   7.091   6.472   4.927
11101TIP3   OH233245   0.254   1.602   5.705
11101TIP3    H133246   0.292   1.548   5.775
11101TIP3    H233247   0.329   1.622   5.648
11102TIP3   OH233248   0.129   3.430   2.108
11102TIP3    H133249   0.090   3.484   2.039
11102TIP3    H233250   0.092   3.465   2.189
11103TIP3   OH233251   3.380   1.124   2.617
11103TIP3    H133252   3.388   1.155   2.527
11103TIP3    H233253   3.421   1.037   2.615
11104TIP3   OH233254   1.489   2.529   3.012
11104TIP3    H133255   1.517   2.620   3.011
11104TIP3    H233256   1.484   2.507   3.106
11105TIP3   OH233257   2.846   2.318   3.333
11105TIP3    H133258   2.891   2.282   3.410
11105TIP3    H233259   2.856   2.251   3.266
11106TIP3   OH233260   7.969   5.343   2.667
11106TIP3    H133261   7.919   5.311   2.743
11106TIP3    H233262   7.963   5.438   2.673
11107TIP3   OH233263   2.882   0.402   3.342
11107TIP3    H133264   2.970   0.436   3.356
11107TIP3    H233265   2.843   0.398   3.429
11108TIP3   OH233266   3.258   6.117   1.928
11108TIP3    H133267   3.331   6.173   1.955
11108TIP3    H233268   3.231   6.152   1.844
11109TIP3   OH233269   4.085   2.746   3.255
11109TIP3    H133270   4.019   2.735   3.323
11109TIP3    H233271   4.138   2.820   3.284
11110TIP3   OH233272   3.773   5.625   2.389
11110TIP3    H133273   3.814   5.689   2.331
11110TIP3    H233274   3.795   5.655   2.477
11111TIP3   OH233275   8.107   0.503   6.697
11111TIP3    H133276   8.189   0.543   6.726
11111TIP3    H233277   8.099   0.423   6.748
11112TIP3   OH233278   7.223   0.816   3.184
11112TIP3    H133279   7.282   0.879   3.225
11112TIP3    H233280   7.275   0.775   3.115
11113TIP3   OH233281   8.028   0.646   1.362
11113TIP3    H133282   7.947   0.674   1.405
11113TIP3    H233283   8.036   0.553   1.384
11114TIP3   OH233284   0.921   3.291   4.546
11114TIP3    H133285   0.898   3.378   4.515
11114TIP3    H233286   0.868   3.232   4.493
11115TIP3   OH233287   4.727   6.542   1.096
11115TIP3    H133288   4.773   6.468   1.134
11115TIP3    H233289   4.791   6.613   1.096
11116TIP3   OH233290   1.974   3.213   4.286
11116TIP3    H133291   1.941   3.256   4.365
11116TIP3    H233292   1.900   3.217   4.224
11117TIP3   OH233293   4.446   6.986   3.739
11117TIP3    H133294   4.352   7.004   3.729
11117TIP3    H233295   4.490   7.062   3.702
11118TIP3   OH233296   1.680   2.779   4.489
11118TIP3    H133297   1.690   2.825   4.573
11118TIP3    H233298   1.666   2.687   4.514
11119TIP3   OH233299   7.465   2.553   2.361
11119TIP3    H133300   7.434   2.543   2.271
11119TIP3    H233301   7.415   2.488   2.411
11120TIP3   OH233302   3.380   7.058   2.516
11120TIP3    H133303   3.368   7.153   2.510
11120TIP3    H233304   3.395   7.042   2.609
11121TIP3   OH233305   5.416   7.118   2.705
11121TIP3    H133306   5.337   7.092   2.752
11121TIP3    H233307   5.435   7.044   2.647
11122TIP3   OH233308   6.071   3.693   4.592
11122TIP3    H133309   5.987   3.706   4.638
11122TIP3    H233310   6.082   3.598   4.591
11123TIP3   OH233311   7.860   0.881   3.727
11123TIP3    H133312   7.810   0.961   3.741
11123TIP3    H233313   7.843   0.857   3.636
11124TIP3   OH233314   1.175   3.265   0.077
11124TIP3    H133315   1.185   3.240   0.169
11124TIP3    H233316   1.094   3.316   0.074
11125TIP3   OH233317   4.338   2.676   4.404
11125TIP3    H133318   4.268   2.720   4.452
11125TIP3    H233319   4.328   2.584   4.426
11126TIP3   OH233320   2.657   6.744   6.744
11126TIP3    H133321   2.752   6.757   6.754
11126TIP3    H233322   2.649   6.664   6.693
11127TIP3   OH233323   0.880   6.066   5.007
11127TIP3    H133324   0.844   6.072   4.919
11127TIP3    H233325   0.871   6.155   5.043
11128TIP3   OH233326   0.691   3.206   4.427
11128TIP3    H133327   0.694   3.204   4.331
11128TIP3    H233328   0.657   3.293   4.448
11129TIP3   OH233329   6.293  -0.033   2.326
11129TIP3    H133330   6.341  -0.045   2.408
11129TIP3    H233331   6.294   0.061   2.312
11130TIP3   OH233332   2.309   0.426   5.221
11130TIP3    H133333   2.287   0.421   5.128
11130TIP3    H233334   2.397   0.390   5.227
11131TIP3   OH233335   2.882   6.014   3.911
11131TIP3    H133336   2.970   5.984   3.888
11131TIP3    H233337   2.875   6.101   3.872
11132TIP3   OH233338   2.194   4.984   0.563
11132TIP3    H133339   2.269   4.931   0.536
11132TIP3    H233340   2.127   4.964   0.498
11133TIP3   OH233341   0.784   6.003   0.536
11133TIP3    H133342   0.706   5.955   0.564
11133TIP3    H233343   0.762   6.095   0.550
11134TIP3   OH233344   3.613   2.138   5.791
11134TIP3    H133345   3.672   2.213   5.795
11134TIP3    H233346   3.663   2.066   5.832
11135TIP3   OH233347   1.040   4.065   2.965
11135TIP3    H133348   0.952   4.040   2.993
11135TIP3    H233349   1.027   4.109   2.881
11136TIP3   OH233350   7.641   6.636   3.878
11136TIP3    H133351   7.571   6.651   3.815
11136TIP3    H233352   7.667   6.545   3.863
11137TIP3   OH233353   6.855   7.561   5.560
11137TIP3    H133354   6.934   7.614   5.571
11137TIP3    H233355   6.828   7.577   5.469
11138TIP3   OH233356   0.942   2.439   6.701
11138TIP3    H133357   0.924   2.489   6.622
11138TIP3    H233358   0.879   2.367   6.700
11139TIP3   OH233359   5.429   5.801   3.792
11139TIP3    H133360   5.435   5.759   3.878
11139TIP3    H233361   5.438   5.728   3.730
11140TIP3   OH233362   2.417   0.031   2.168
11140TIP3    H133363   2.397   0.112   2.216
11140TIP3    H233364   2.505   0.044   2.135
11141TIP3   OH233365   3.667   6.599   6.461
11141TIP3    H133366   3.737   6.665   6.456
11141TIP3    H233367   3.662   6.563   6.372
11142TIP3   OH233368   7.177   4.070   1.850
11142TIP3    H133369   7.112   4.139   1.839
11142TIP3    H233370   7.127   3.989   1.841
11143TIP3   OH233371   6.551   1.430   6.778
11143TIP3    H133372   6.474   1.376   6.795
11143TIP3    H233373   6.609   1.373   6.727
11144TIP3   OH233374   6.661   4.417   1.381
11144TIP3    H133375   6.639   4.357   1.452
11144TIP3    H233376   6.667   4.502   1.423
11145TIP3   OH233377   0.105   6.026   3.294
11145TIP3    H133378   0.073   6.104   3.249
11145TIP3    H233379   0.077   5.953   3.239
11146TIP3   OH233380   6.930   5.207   0.996
11146TIP3    H133381   6.874   5.248   1.062
11146TIP3    H233382   6.996   5.160   1.047
11147TIP3   OH233383   6.985   6.640   5.191
11147TIP3    H133384   6.969   6.712   5.130
11147TIP3    H233385   7.067   6.601   5.160
11148TIP3   OH233386   0.161   1.056   4.817
11148TIP3    H133387   0.150   1.120   4.888
11148TIP3    H233388   0.221   1.098   4.756
11149TIP3   OH233389   7.972   5.579   4.688
11149TIP3    H133390   7.953   5.580   4.782
11149TIP3    H233391   8.052   5.528   4.680
11150TIP3   OH233392   6.789   5.377   4.926
11150TIP3    H133393   6.717   5.396   4.865
11150TIP3    H233394   6.864   5.424   4.890
11151TIP3   OH233395   8.019   6.193   0.712
11151TIP3    H133396   8.092   6.233   0.759
11151TIP3    H233397   7.940   6.230   0.753
11152TIP3   OH233398   1.319   2.642   6.047
11152TIP3    H133399   1.319   2.684   5.961
11152TIP3    H233400   1.271   2.560   6.034
11153TIP3   OH233401   8.081   5.809   2.995
11153TIP3    H133402   8.172   5.826   3.019
11153TIP3    H233403   8.060   5.725   3.037
11154TIP3   OH233404   0.527   7.623   4.184
11154TIP3    H133405   0.482   7.692   4.232
11154TIP3    H233406   0.487   7.542   4.216
11155TIP3   OH233407   7.466   6.801   6.457
11155TIP3    H133408   7.474   6.864   6.528
11155TIP3    H233409   7.544   6.814   6.403
11156TIP3   OH233410   2.524   6.920   0.220
11156TIP3    H133411   2.607   6.965   0.201
11156TIP3    H233412   2.456   6.984   0.198
11157TIP3   OH233413   5.916   5.668   2.574
11157TIP3    H133414   5.997   5.714   2.553
11157TIP3    H233415   5.893   5.621   2.494
11158TIP3   OH233416   4.763   2.616   5.342
11158TIP3    H133417   4.677   2.608   5.385
11158TIP3    H233418   4.775   2.532   5.297
11159TIP3   OH233419   0.097   4.764   5.072
11159TIP3    H133420   0.141   4.848   5.086
11159TIP3    H233421   0.060   4.770   4.984
11160TIP3   OH233422   4.080   4.356   3.275
11160TIP3    H133423   4.058   4.357   3.368
11160TIP3    H233424   4.057   4.268   3.246
11161TIP3   OH233425   7.790   1.892   6.293
11161TIP3    H133426   7.700   1.867   6.315
11161TIP3    H233427   7.806   1.971   6.345
11162TIP3   OH233428   4.584   6.569   5.730
11162TIP3    H133429   4.543   6.655   5.736
11162TIP3    H233430   4.610   6.561   5.639
11163TIP3   OH233431   3.661   4.254   2.891
11163TIP3    H133432   3.757   4.258   2.895
11163TIP3    H233433   3.641   4.258   2.798
11164TIP3   OH233434   1.444   4.613   6.120
11164TIP3    H133435   1.357   4.603   6.158
11164TIP3    H233436   1.433   4.587   6.028
11165TIP3   OH233437   7.102   2.435   2.172
11165TIP3    H133438   7.068   2.424   2.261
11165TIP3    H233439   7.111   2.346   2.139
11166TIP3   OH233440   4.019   4.748   0.633
11166TIP3    H133441   3.997   4.701   0.713
11166TIP3    H233442   4.112   4.731   0.620
11167TIP3   OH233443   5.417   2.572   6.126
11167TIP3    H133444   5.443   2.482   6.144
11167TIP3    H233445   5.412   2.578   6.031
11168TIP3   OH233446   6.812   5.385   2.394
11168TIP3    H133447   6.823   5.324   2.466
11168TIP3    H233448   6.770   5.462   2.433
11169TIP3   OH233449   0.028   1.803   1.935
11169TIP3    H133450   0.073   1.741   1.992
11169TIP3    H233451   0.086   1.812   1.859
11170TIP3   OH233452   7.146   1.427   1.672
11170TIP3    H133453   7.109   1.347   1.711
11170TIP3    H233454   7.225   1.444   1.722
11171TIP3   OH233455   3.685   7.399   3.556
11171TIP3    H133456   3.651   7.315   3.587
11171TIP3    H233457   3.730   7.436   3.632
11172TIP3   OH233458   6.163   3.686   2.206
11172TIP3    H133459   6.085   3.631   2.207
11172TIP3    H233460   6.225   3.639   2.152
11173TIP3   OH233461   1.448   4.911   0.290
11173TIP3    H133462   1.510   4.966   0.242
11173TIP3    H233463   1.388   4.879   0.223
11174TIP3   OH233464   5.592   6.486   5.743
11174TIP3    H133465   5.500   6.463   5.755
11174TIP3    H233466   5.606   6.481   5.649
11175TIP3   OH233467   1.572   6.600   3.953
11175TIP3    H133468   1.646   6.539   3.953
11175TIP3    H233469   1.608   6.680   3.914
11176TIP3   OH233470   1.080   4.793   2.064
11176TIP3    H133471   1.093   4.837   1.981
11176TIP3    H233472   1.013   4.844   2.109
11177TIP3   OH233473   6.848   1.331   4.690
11177TIP3    H133474   6.888   1.418   4.690
11177TIP3    H233475   6.863   1.297   4.601
11178TIP3   OH233476   5.443   6.583   3.932
11178TIP3    H133477   5.473   6.501   3.893
11178TIP3    H233478   5.443   6.646   3.860
11179TIP3   OH233479   4.672   2.849   2.787
11179TIP3    H133480   4.719   2.890   2.860
11179TIP3    H233481   4.598   2.804   2.828
11180TIP3   OH233482   7.446   2.803   6.717
11180TIP3    H133483   7.417   2.855   6.642
11180TIP3    H233484   7.391   2.725   6.714
11181TIP3   OH233485   4.379   2.722   3.531
11181TIP3    H133486   4.380   2.650   3.467
11181TIP3    H233487   4.334   2.686   3.607
11182TIP3   OH233488   3.244   7.342   6.404
11182TIP3    H133489   3.284   7.429   6.401
11182TIP3    H233490   3.312   7.283   6.372
11183TIP3   OH233491   8.045   4.284   1.441
11183TIP3    H133492   8.028   4.331   1.359
11183TIP3    H233493   8.062   4.194   1.413
11184TIP3   OH233494   3.208   4.762   1.144
11184TIP3    H133495   3.162   4.778   1.226
11184TIP3    H233496   3.139   4.747   1.079
11185TIP3   OH233497   1.924   6.878   5.698
11185TIP3    H133498   1.948   6.897   5.608
11185TIP3    H233499   1.855   6.812   5.692
11186TIP3   OH233500   3.489   2.643   5.657
11186TIP3    H133501   3.510   2.669   5.567
11186TIP3    H233502   3.572   2.650   5.704
11187TIP3   OH233503   2.953   3.010   4.670
11187TIP3    H133504   2.989   2.944   4.730
11187TIP3    H233505   2.864   3.026   4.702
11188TIP3   OH233506   4.755   7.184   6.128
11188TIP3    H133507   4.683   7.134   6.166
11188TIP3    H233508   4.714   7.235   6.058
11189TIP3   OH233509   4.952   6.581   3.699
11189TIP3    H133510   4.873   6.563   3.649
11189TIP3    H233511   5.014   6.513   3.672
11190TIP3   OH233512   6.872   2.683   5.369
11190TIP3    H133513   6.820   2.651   5.442
11190TIP3    H233514   6.936   2.742   5.409
11191TIP3   OH233515   2.389   6.339   6.505
11191TIP3    H133516   2.313   6.282   6.516
11191TIP3    H233517   2.357   6.410   6.449
11192TIP3   OH233518   3.111   5.160   3.677
11192TIP3    H133519   3.088   5.127   3.590
11192TIP3    H233520   3.077   5.250   3.677
11193TIP3   OH233521   3.876   6.335   4.257
11193TIP3    H133522   3.904   6.382   4.179
11193TIP3    H233523   3.830   6.258   4.223
11194TIP3   OH233524   3.315   6.987   3.835
11194TIP3    H133525   3.334   7.081   3.835
11194TIP3    H233526   3.250   6.975   3.904
11195TIP3   OH233527   4.223   1.946   2.418
11195TIP3    H133528   4.245   1.975   2.507
11195TIP3    H233529   4.158   2.010   2.389
11196TIP3   OH233530   4.951   0.255   3.171
11196TIP3    H133531   5.021   0.279   3.110
11196TIP3    H233532   4.980   0.171   3.208
11197TIP3   OH233533   6.515   2.217   4.881
11197TIP3    H133534   6.594   2.167   4.860
11197TIP3    H233535   6.506   2.280   4.809
11198TIP3   OH233536   4.145   1.481   4.732
11198TIP3    H133537   4.095   1.523   4.662
11198TIP3    H233538   4.084   1.481   4.807
11199TIP3   OH233539   5.888   5.417   4.961
11199TIP3    H133540   5.834   5.348   5.002
11199TIP3    H233541   5.870   5.409   4.868
11200TIP3   OH233542   6.001   4.934   2.336
11200TIP3    H133543   5.965   4.993   2.269
11200TIP3    H233544   6.092   4.960   2.344
11201TIP3   OH233545   5.709   7.319   5.978
11201TIP3    H133546   5.718   7.413   5.962
11201TIP3    H233547   5.694   7.313   6.073
11202TIP3   OH233548   7.374   1.156   1.712
11202TIP3    H133549   7.328   1.076   1.683
11202TIP3    H233550   7.324   1.186   1.788
11203TIP3   OH233551   6.931   1.380   2.686
11203TIP3    H133552   6.916   1.366   2.593
11203TIP3    H233553   6.881   1.459   2.707
11204TIP3   OH233554   2.036   6.224   0.953
11204TIP3    H133555   1.969   6.253   1.015
11204TIP3    H233556   2.047   6.131   0.973
11205TIP3   OH233557   3.714   1.761   4.173
11205TIP3    H133558   3.623   1.752   4.146
11205TIP3    H233559   3.714   1.735   4.265
11206TIP3   OH233560   2.663   6.015   4.091
11206TIP3    H133561   2.742   5.986   4.045
11206TIP3    H233562   2.683   6.001   4.183
11207TIP3   OH233563   5.353   4.769   2.432
11207TIP3    H133564   5.437   4.811   2.410
11207TIP3    H233565   5.356   4.685   2.387
11208TIP3   OH233566   7.659   3.699   1.185
11208TIP3    H133567   7.708   3.686   1.267
11208TIP3    H233568   7.693   3.782   1.150
11209TIP3   OH233569   1.749   4.183   3.706
11209TIP3    H133570   1.746   4.218   3.617
11209TIP3    H233571   1.803   4.105   3.699
11210TIP3   OH233572   4.872   7.410   6.413
11210TIP3    H133573   4.906   7.325   6.441
11210TIP3    H233574   4.780   7.409   6.440
11211TIP3   OH233575   2.410   5.849   4.709
11211TIP3    H133576   2.466   5.790   4.659
11211TIP3    H233577   2.459   5.932   4.712
11212TIP3   OH233578   1.725   6.837   3.224
11212TIP3    H133579   1.733   6.916   3.171
11212TIP3    H233580   1.735   6.867   3.314
11213TIP3   OH233581   2.126   4.627   3.454
11213TIP3    H133582   2.103   4.567   3.526
11213TIP3    H233583   2.169   4.701   3.498
11214TIP3   OH233584   7.320   7.412   4.917
11214TIP3    H133585   7.407   7.437   4.948
11214TIP3    H233586   7.291   7.344   4.978
11215TIP3   OH233587   3.342   2.695   2.627
11215TIP3    H133588   3.425   2.648   2.641
11215TIP3    H233589   3.366   2.767   2.569
11216TIP3   OH233590   6.450   2.375   3.361
11216TIP3    H133591   6.452   2.433   3.436
11216TIP3    H233592   6.514   2.413   3.300
11217TIP3   OH233593   4.255   7.609   0.858
11217TIP3    H133594   4.337   7.561   0.867
11217TIP3    H233595   4.258   7.675   0.927
11218TIP3   OH233596   7.702   1.376   5.472
11218TIP3    H133597   7.686   1.465   5.442
11218TIP3    H233598   7.770   1.385   5.539
11219TIP3   OH233599   2.714   4.131   4.613
11219TIP3    H133600   2.742   4.056   4.560
11219TIP3    H233601   2.778   4.135   4.684
11220TIP3   OH233602   4.951   1.708   2.628
11220TIP3    H133603   4.987   1.784   2.583
11220TIP3    H233604   4.873   1.685   2.577
11221TIP3   OH233605   4.619   5.998   0.987
11221TIP3    H133606   4.567   6.015   0.908
11221TIP3    H233607   4.629   6.085   1.028
11222TIP3   OH233608   2.334   0.206   2.677
11222TIP3    H133609   2.345   0.138   2.611
11222TIP3    H233610   2.260   0.258   2.647
11223TIP3   OH233611   7.325   4.288   0.273
11223TIP3    H133612   7.344   4.285   0.180
11223TIP3    H233613   7.347   4.377   0.300
11224TIP3   OH233614   7.892   6.413   0.211
11224TIP3    H133615   7.817   6.375   0.166
11224TIP3    H233616   7.873   6.402   0.304
11225TIP3   OH233617   1.681   1.342   1.370
11225TIP3    H133618   1.723   1.332   1.284
11225TIP3    H233619   1.752   1.366   1.429
11226TIP3   OH233620   7.695   4.316   2.173
11226TIP3    H133621   7.738   4.330   2.089
11226TIP3    H233622   7.620   4.376   2.172
11227TIP3   OH233623   3.456   0.974   0.106
11227TIP3    H133624   3.484   1.034   0.176
11227TIP3    H233625   3.435   1.032   0.033
11228TIP3   OH233626   2.992   2.303   1.750
11228TIP3    H133627   3.038   2.235   1.800
11228TIP3    H233628   2.924   2.335   1.810
11229TIP3   OH233629   6.972   0.339   2.917
11229TIP3    H133630   6.917   0.403   2.872
11229TIP3    H233631   7.002   0.384   2.995
11230TIP3   OH233632   3.742   0.213   3.392
11230TIP3    H133633   3.659   0.196   3.436
11230TIP3    H233634   3.764   0.304   3.416
11231TIP3   OH233635   1.428   3.301   1.577
11231TIP3    H133636   1.391   3.236   1.636
11231TIP3    H233637   1.353   3.355   1.551
11232TIP3   OH233638   5.680   4.077   4.629
11232TIP3    H133639   5.666   4.167   4.658
11232TIP3    H233640   5.641   4.023   4.698
11233TIP3   OH233641   1.480   7.621   1.523
11233TIP3    H133642   1.491   7.528   1.503
11233TIP3    H233643   1.482   7.665   1.437
11234TIP3   OH233644   7.075   7.822   5.211
11234TIP3    H133645   7.160   7.792   5.180
11234TIP3    H233646   7.092   7.908   5.250
11235TIP3   OH233647   4.258   7.487   0.375
11235TIP3    H133648   4.186   7.485   0.438
11235TIP3    H233649   4.335   7.463   0.427
11236TIP3   OH233650   7.263   2.965   3.332
11236TIP3    H133651   7.215   2.887   3.360
11236TIP3    H233652   7.199   3.014   3.279
11237TIP3   OH233653   1.471   3.314   2.877
11237TIP3    H133654   1.475   3.408   2.859
11237TIP3    H233655   1.559   3.292   2.907
11238TIP3   OH233656   7.817   1.978   4.018
11238TIP3    H133657   7.894   1.922   4.003
11238TIP3    H233658   7.831   2.014   4.106
11239TIP3   OH233659   7.204   7.215   0.782
11239TIP3    H133660   7.245   7.296   0.812
11239TIP3    H233661   7.113   7.240   0.765
11240TIP3   OH233662   1.592   4.932   4.662
11240TIP3    H133663   1.608   4.902   4.573
11240TIP3    H233664   1.580   5.026   4.654
11241TIP3   OH233665   5.095   6.053   0.917
11241TIP3    H133666   5.131   6.015   0.837
11241TIP3    H233667   5.136   6.003   0.988
11242TIP3   OH233668   7.164   1.252   6.035
11242TIP3    H133669   7.235   1.212   6.085
11242TIP3    H233670   7.139   1.329   6.087
11243TIP3   OH233671   7.453   0.966   2.512
11243TIP3    H133672   7.514   0.996   2.445
11243TIP3    H233673   7.414   0.886   2.475
11244TIP3   OH233674   2.873   5.793   1.312
11244TIP3    H133675   2.893   5.871   1.364
11244TIP3    H233676   2.789   5.813   1.270
11245TIP3   OH233677   7.060   1.843   0.933
11245TIP3    H133678   7.056   1.930   0.892
11245TIP3    H233679   6.980   1.800   0.906
11246TIP3   OH233680   5.078   5.887   5.103
11246TIP3    H133681   5.003   5.901   5.162
11246TIP3    H233682   5.041   5.841   5.028
11247TIP3   OH233683   7.396   7.085   6.077
11247TIP3    H133684   7.426   7.066   6.166
11247TIP3    H233685   7.309   7.046   6.072
11248TIP3   OH233686   0.615   2.931   1.809
11248TIP3    H133687   0.554   3.004   1.801
11248TIP3    H233688   0.613   2.908   1.903
11249TIP3   OH233689   1.979   6.431   6.346
11249TIP3    H133690   1.933   6.430   6.430
11249TIP3    H233691   1.911   6.455   6.282
11250TIP3   OH233692   2.000   5.092   1.422
11250TIP3    H133693   1.928   5.034   1.396
11250TIP3    H233694   2.076   5.059   1.373
11251TIP3   OH233695   1.215   7.751   3.049
11251TIP3    H133696   1.136   7.803   3.068
11251TIP3    H233697   1.283   7.790   3.104
11252TIP3   OH233698   6.742   5.799   3.238
11252TIP3    H133699   6.756   5.891   3.261
11252TIP3    H233700   6.760   5.795   3.144
11253TIP3   OH233701   7.170   1.254   3.637
11253TIP3    H133702   7.144   1.192   3.568
11253TIP3    H233703   7.129   1.337   3.611
11254TIP3   OH233704   4.240   2.717   4.159
11254TIP3    H133705   4.151   2.745   4.180
11254TIP3    H233706   4.272   2.679   4.241
11255TIP3   OH233707   3.363   0.784   2.853
11255TIP3    H133708   3.340   0.742   2.770
11255TIP3    H233709   3.442   0.835   2.832
11256TIP3   OH233710   6.370   1.206   6.481
11256TIP3    H133711   6.383   1.160   6.398
11256TIP3    H233712   6.411   1.150   6.546
11257TIP3   OH233713   0.745   1.007   5.126
11257TIP3    H133714   0.676   0.953   5.163
11257TIP3    H233715   0.826   0.966   5.154
11258TIP3   OH233716   1.424   2.428   5.708
11258TIP3    H133717   1.340   2.417   5.664
11258TIP3    H233718   1.470   2.346   5.694
11259TIP3   OH233719   7.696   3.635   0.909
11259TIP3    H133720   7.738   3.647   0.995
11259TIP3    H233721   7.621   3.694   0.911
11260TIP3   OH233722   3.447   5.081   3.005
11260TIP3    H133723   3.468   4.988   2.998
11260TIP3    H233724   3.453   5.113   2.915
11261TIP3   OH233725   0.396   2.827   0.033
11261TIP3    H133726   0.444   2.899  -0.007
11261TIP3    H233727   0.463   2.770   0.070
11262TIP3   OH233728   7.727   0.045   1.217
11262TIP3    H133729   7.634   0.065   1.227
11262TIP3    H233730   7.771   0.102   1.281
11263TIP3   OH233731   6.146   0.037   5.213
11263TIP3    H133732   6.169   0.095   5.286
11263TIP3    H233733   6.226   0.029   5.162
11264TIP3   OH233734   5.027   6.955   1.555
11264TIP3    H133735   4.985   6.917   1.632
11264TIP3    H233736   5.080   6.884   1.520
11265TIP3   OH233737   2.456   6.608   5.813
11265TIP3    H133738   2.380   6.666   5.805
11265TIP3    H233739   2.472   6.576   5.724
11266TIP3   OH233740   7.360   7.058   0.308
11266TIP3    H133741   7.309   7.082   0.230
11266TIP3    H233742   7.372   6.963   0.300
11267TIP3   OH233743   2.082   2.637   6.069
11267TIP3    H133744   2.093   2.568   6.004
11267TIP3    H233745   2.146   2.704   6.045
11268TIP3   OH233746   6.988   4.364   0.025
11268TIP3    H133747   6.932   4.298   0.066
11268TIP3    H233748   7.058   4.314  -0.017
11269TIP3   OH233749   2.423   5.092   6.118
11269TIP3    H133750   2.371   5.125   6.191
11269TIP3    H233751   2.368   5.027   6.076
11270TIP3   OH233752   5.284   4.374   6.158
11270TIP3    H133753   5.244   4.310   6.216
11270TIP3    H233754   5.333   4.432   6.216
11271TIP3   OH233755   3.147   3.658   1.049
11271TIP3    H133756   3.191   3.741   1.067
11271TIP3    H233757   3.057   3.672   1.076
11272TIP3   OH233758   4.240   2.331   5.916
11272TIP3    H133759   4.279   2.409   5.877
11272TIP3    H233760   4.261   2.260   5.855
11273TIP3   OH233761   2.349   5.249   4.518
11273TIP3    H133762   2.318   5.279   4.604
11273TIP3    H233763   2.371   5.157   4.531
11274TIP3   OH233764   3.506   4.140   4.769
11274TIP3    H133765   3.540   4.191   4.695
11274TIP3    H233766   3.583   4.125   4.824
11275TIP3   OH233767   6.316   0.622   0.583
11275TIP3    H133768   6.252   0.613   0.513
11275TIP3    H233769   6.384   0.680   0.546
11276TIP3   OH233770   3.084   4.236   5.080
11276TIP3    H133771   3.173   4.202   5.077
11276TIP3    H233772   3.078   4.283   5.163
11277TIP3   OH233773   7.789   3.200   0.929
11277TIP3    H133774   7.795   3.107   0.949
11277TIP3    H233775   7.764   3.242   1.012
11278TIP3   OH233776   7.031   0.455   3.640
11278TIP3    H133777   6.963   0.387   3.640
11278TIP3    H233778   7.098   0.423   3.701
11279TIP3   OH233779   5.265   4.095   0.571
11279TIP3    H133780   5.302   4.110   0.659
11279TIP3    H233781   5.340   4.069   0.518
11280TIP3   OH233782   2.711   1.059   4.100
11280TIP3    H133783   2.700   0.986   4.040
11280TIP3    H233784   2.681   1.026   4.184
11281TIP3   OH233785   3.913   6.081   0.174
11281TIP3    H133786   3.981   6.079   0.241
11281TIP3    H233787   3.838   6.121   0.217
11282TIP3   OH233788   6.211   1.299   2.368
11282TIP3    H133789   6.237   1.306   2.460
11282TIP3    H233790   6.115   1.304   2.370
11283TIP3   OH233791   0.007   6.260   4.606
11283TIP3    H133792   0.031   6.235   4.517
11283TIP3    H233793   0.019   6.355   4.609
11284TIP3   OH233794   1.507   3.389   5.510
11284TIP3    H133795   1.435   3.362   5.453
11284TIP3    H233796   1.566   3.437   5.452
11285TIP3   OH233797   1.408   2.628   1.820
11285TIP3    H133798   1.412   2.567   1.893
11285TIP3    H233799   1.328   2.679   1.835
11286TIP3   OH233800   4.968   6.334   2.590
11286TIP3    H133801   4.875   6.321   2.571
11286TIP3    H233802   4.988   6.420   2.556
11287TIP3   OH233803   6.726   6.143   0.497
11287TIP3    H133804   6.645   6.174   0.456
11287TIP3    H233805   6.702   6.125   0.588
11288TIP3   OH233806   1.467   2.095   6.156
11288TIP3    H133807   1.508   2.177   6.132
11288TIP3    H233808   1.494   2.033   6.088
11289TIP3   OH233809   2.101   1.795   4.984
11289TIP3    H133810   2.174   1.735   4.967
11289TIP3    H233811   2.140   1.868   5.031
11290TIP3   OH233812   5.184   2.769   2.045
11290TIP3    H133813   5.220   2.858   2.051
11290TIP3    H233814   5.163   2.758   1.952
11291TIP3   OH233815   0.869   4.455   2.463
11291TIP3    H133816   0.873   4.491   2.552
11291TIP3    H233817   0.822   4.372   2.473
11292TIP3   OH233818   4.255   7.462   5.981
11292TIP3    H133819   4.216   7.401   6.043
11292TIP3    H233820   4.310   7.407   5.925
11293TIP3   OH233821   0.941   5.514   5.903
11293TIP3    H133822   0.877   5.444   5.894
11293TIP3    H233823   0.903   5.574   5.967
11294TIP3   OH233824   6.234   7.612   2.734
11294TIP3    H133825   6.258   7.524   2.706
11294TIP3    H233826   6.194   7.600   2.820
11295TIP3   OH233827   1.641   1.337   2.122
11295TIP3    H133828   1.622   1.330   2.029
11295TIP3    H233829   1.564   1.301   2.165
11296TIP3   OH233830   1.594   3.879   1.248
11296TIP3    H133831   1.559   3.943   1.310
11296TIP3    H233832   1.551   3.900   1.165
11297TIP3   OH233833   5.664   3.947   5.230
11297TIP3    H133834   5.729   4.017   5.233
11297TIP3    H233835   5.597   3.979   5.169
11298TIP3   OH233836   0.175   4.839   1.643
11298TIP3    H133837   0.225   4.842   1.561
11298TIP3    H233838   0.103   4.899   1.630
11299TIP3   OH233839   0.660   2.730   4.676
11299TIP3    H133840   0.610   2.662   4.720
11299TIP3    H233841   0.748   2.723   4.713
11300TIP3   OH233842   7.417   1.450   1.863
11300TIP3    H133843   7.491   1.405   1.823
11300TIP3    H233844   7.411   1.414   1.951
11301TIP3   OH233845   3.695   2.786   0.682
11301TIP3    H133846   3.697   2.882   0.684
11301TIP3    H233847   3.780   2.760   0.719
11302TIP3   OH233848   1.887   6.897   5.437
11302TIP3    H133849   1.947   6.845   5.383
11302TIP3    H233850   1.801   6.857   5.421
11303TIP3   OH233851   7.066   1.462   1.364
11303TIP3    H133852   7.100   1.378   1.396
11303TIP3    H233853   7.103   1.527   1.424
11304TIP3   OH233854   6.613   5.253   3.138
11304TIP3    H133855   6.576   5.288   3.057
11304TIP3    H233856   6.693   5.207   3.110
11305TIP3   OH233857   5.053   1.920   2.481
11305TIP3    H133858   5.055   1.953   2.392
11305TIP3    H233859   5.029   1.996   2.535
11306TIP3   OH233860   4.227   5.779   2.549
11306TIP3    H133861   4.198   5.834   2.476
11306TIP3    H233862   4.210   5.690   2.519
11307TIP3   OH233863   3.082   3.206   5.643
11307TIP3    H133864   3.065   3.137   5.580
11307TIP3    H233865   3.057   3.168   5.728
11308TIP3   OH233866   2.113   3.365   2.563
11308TIP3    H133867   2.207   3.366   2.581
11308TIP3    H233868   2.095   3.452   2.527
11309TIP3   OH233869   8.049   3.129   6.700
11309TIP3    H133870   8.051   3.201   6.637
11309TIP3    H233871   8.026   3.170   6.783
11310TIP3   OH233872   3.243   7.395   3.027
11310TIP3    H133873   3.286   7.339   2.963
11310TIP3    H233874   3.313   7.451   3.061
11311TIP3   OH233875   4.780   0.912   4.637
11311TIP3    H133876   4.821   0.827   4.650
11311TIP3    H233877   4.702   0.894   4.585
11312TIP3   OH233878   6.089   0.311   0.830
11312TIP3    H133879   6.096   0.312   0.734
11312TIP3    H233880   6.157   0.371   0.859
11313TIP3   OH233881   6.671   3.422   3.037
11313TIP3    H133882   6.621   3.357   2.988
11313TIP3    H233883   6.681   3.495   2.975
11314TIP3   OH233884   7.670   1.525   0.263
11314TIP3    H133885   7.741   1.507   0.325
11314TIP3    H233886   7.593   1.540   0.319
11315TIP3   OH233887   4.712   5.465   3.374
11315TIP3    H133888   4.791   5.480   3.321
11315TIP3    H233889   4.661   5.546   3.364
11316TIP3   OH233890   7.422   4.054   2.300
11316TIP3    H133891   7.375   4.089   2.375
11316TIP3    H233892   7.369   4.081   2.224
11317TIP3   OH233893   0.174   2.256   6.438
11317TIP3    H133894   0.152   2.348   6.450
11317TIP3    H233895   0.250   2.256   6.380
11318TIP3   OH233896   1.614   7.504   1.868
11318TIP3    H133897   1.564   7.534   1.943
11318TIP3    H233898   1.550   7.501   1.796
11319TIP3   OH233899   6.583   4.348   1.664
11319TIP3    H133900   6.611   4.370   1.753
11319TIP3    H233901   6.646   4.282   1.635
11320TIP3   OH233902   4.117   6.838   0.563
11320TIP3    H133903   4.177   6.770   0.592
11320TIP3    H233904   4.173   6.912   0.538
11321TIP3   OH233905   3.545   6.680   0.121
11321TIP3    H133906   3.474   6.675   0.057
11321TIP3    H233907   3.518   6.621   0.192
11322TIP3   OH233908   4.784   0.240   4.658
11322TIP3    H133909   4.810   0.308   4.596
11322TIP3    H233910   4.699   0.209   4.625
11323TIP3   OH233911   5.079   4.120   3.117
11323TIP3    H133912   5.121   4.164   3.043
11323TIP3    H233913   5.110   4.029   3.111
11324TIP3   OH233914   5.463   5.447   6.594
11324TIP3    H133915   5.474   5.496   6.675
11324TIP3    H233916   5.403   5.376   6.617
11325TIP3   OH233917   4.896   3.810   4.134
11325TIP3    H133918   4.867   3.894   4.099
11325TIP3    H233919   4.835   3.790   4.205
11326TIP3   OH233920   0.760   3.555   4.716
11326TIP3    H133921   0.720   3.473   4.747
11326TIP3    H233922   0.739   3.558   4.623
11327TIP3   OH233923   5.214   2.688   5.051
11327TIP3    H133924   5.231   2.601   5.015
11327TIP3    H233925   5.121   2.702   5.037
11328TIP3   OH233926   2.106   2.723   1.830
11328TIP3    H133927   2.055   2.710   1.751
11328TIP3    H233928   2.042   2.749   1.896
11329TIP3   OH233929   7.905   6.304   4.832
11329TIP3    H133930   7.826   6.321   4.884
11329TIP3    H233931   7.927   6.389   4.794
11330TIP3   OH233932   3.463   2.499   5.385
11330TIP3    H133933   3.478   2.594   5.389
11330TIP3    H233934   3.537   2.466   5.334
11331TIP3   OH233935   5.457   0.059   1.641
11331TIP3    H133936   5.517  -0.014   1.624
11331TIP3    H233937   5.514   0.130   1.671
11332TIP3   OH233938   7.942   7.038   4.026
11332TIP3    H133939   8.023   6.988   4.033
11332TIP3    H233940   7.944   7.074   3.937
11333TIP3   OH233941   4.556   2.234   5.329
11333TIP3    H133942   4.479   2.181   5.352
11333TIP3    H233943   4.631   2.176   5.345
11334TIP3   OH233944   5.469   6.374   3.428
11334TIP3    H133945   5.403   6.393   3.361
11334TIP3    H233946   5.424   6.317   3.490
11335TIP3   OH233947   2.159   6.704   2.306
11335TIP3    H133948   2.216   6.715   2.382
11335TIP3    H233949   2.084   6.655   2.339
11336TIP3   OH233950   1.236   6.091   3.540
11336TIP3    H133951   1.211   6.163   3.598
11336TIP3    H233952   1.308   6.047   3.585
11337TIP3   OH233953   4.145   4.683   6.739
11337TIP3    H133954   4.139   4.605   6.684
11337TIP3    H233955   4.222   4.729   6.705
11338TIP3   OH233956   7.240   6.849   5.335
11338TIP3    H133957   7.219   6.854   5.428
11338TIP3    H233958   7.182   6.913   5.294
11339TIP3   OH233959   5.768   6.729   5.705
11339TIP3    H133960   5.773   6.663   5.636
11339TIP3    H233961   5.776   6.812   5.659
11340TIP3   OH233962   1.857   6.515   1.914
11340TIP3    H133963   1.911   6.537   1.991
11340TIP3    H233964   1.907   6.448   1.869
11341TIP3   OH233965   0.744   0.512   2.889
11341TIP3    H133966   0.688   0.482   2.960
11341TIP3    H233967   0.713   0.463   2.812
11342TIP3   OH233968   4.070   1.115   0.034
11342TIP3    H133969   4.134   1.055   0.072
11342TIP3    H233970   4.104   1.135  -0.053
11343TIP3   OH233971   7.783   3.673   4.270
11343TIP3    H133972   7.780   3.585   4.306
11343TIP3    H233973   7.806   3.660   4.178
11344TIP3   OH233974   0.661   4.008   2.213
11344TIP3    H133975   0.681   4.087   2.162
11344TIP3    H233976   0.565   4.004   2.213
11345TIP3   OH233977   5.605   3.955   6.380
11345TIP3    H133978   5.586   3.869   6.420
11345TIP3    H233979   5.670   3.936   6.313
11346TIP3   OH233980   5.733   2.529   4.569
11346TIP3    H133981   5.774   2.581   4.637
11346TIP3    H233982   5.660   2.583   4.538
11347TIP3   OH233983   6.521   2.561   1.075
11347TIP3    H133984   6.521   2.550   1.170
11347TIP3    H233985   6.614   2.561   1.051
11348TIP3   OH233986   3.668   1.132   0.271
11348TIP3    H133987   3.706   1.053   0.311
11348TIP3    H233988   3.743   1.187   0.251
11349TIP3   OH233989   3.676   5.485   0.096
11349TIP3    H133990   3.659   5.558   0.156
11349TIP3    H233991   3.589   5.461   0.062
11350TIP3   OH233992   1.336   7.419   1.250
11350TIP3    H133993   1.299   7.485   1.308
11350TIP3    H233994   1.402   7.466   1.199
11351TIP3   OH233995   5.324   1.920   4.653
11351TIP3    H133996   5.260   1.873   4.706
11351TIP3    H233997   5.403   1.921   4.707
11352TIP3   OH233998   3.660   6.138   5.417
11352TIP3    H133999   3.624   6.062   5.465
11352TIP3    H234000   3.754   6.135   5.434
11353TIP3   OH234001   1.645   1.683   6.658
11353TIP3    H134002   1.697   1.627   6.716
11353TIP3    H234003   1.563   1.697   6.706
11354TIP3   OH234004   4.049   0.428   1.458
11354TIP3    H134005   4.142   0.423   1.438
11354TIP3    H234006   4.017   0.339   1.447
11355TIP3   OH234007   2.356   2.482   3.431
11355TIP3    H134008   2.332   2.538   3.504
11355TIP3    H234009   2.290   2.413   3.431
11356TIP3   OH234010   1.149   3.324   2.500
11356TIP3    H134011   1.176   3.403   2.548
11356TIP3    H234012   1.210   3.256   2.529
11357TIP3   OH234013   0.084   0.707   4.006
11357TIP3    H134014   0.150   0.649   4.044
11357TIP3    H234015   0.132   0.787   3.986
11358TIP3   OH234016   1.319   4.317   2.968
11358TIP3    H134017   1.335   4.329   2.874
11358TIP3    H234018   1.223   4.316   2.976
11359TIP3   OH234019   7.947   1.084   3.016
11359TIP3    H134020   7.859   1.104   3.048
11359TIP3    H234021   7.980   1.018   3.077
11360TIP3   OH234022   7.315   6.223   5.550
11360TIP3    H134023   7.238   6.235   5.606
11360TIP3    H234024   7.388   6.256   5.602
11361TIP3   OH234025   5.753   0.657   1.902
11361TIP3    H134026   5.785   0.577   1.944
11361TIP3    H234027   5.788   0.728   1.956
11362TIP3   OH234028   2.054   1.634   6.358
11362TIP3    H134029   2.077   1.636   6.450
11362TIP3    H234030   2.042   1.541   6.338
11363TIP3   OH234031   7.737   6.237   2.263
11363TIP3    H134032   7.787   6.184   2.202
11363TIP3    H234033   7.800   6.298   2.300
11364TIP3   OH234034   6.137   1.971   4.953
11364TIP3    H134035   6.187   2.042   4.994
11364TIP3    H234036   6.160   1.975   4.860
11365TIP3   OH234037   6.535   0.772   2.725
11365TIP3    H134038   6.536   0.687   2.679
11365TIP3    H234039   6.600   0.825   2.679
11366TIP3   OH234040   6.565   3.231   6.786
11366TIP3    H134041   6.502   3.232   6.714
11366TIP3    H234042   6.510   3.232   6.865
11367TIP3   OH234043   5.739   7.177   1.722
11367TIP3    H134044   5.822   7.160   1.677
11367TIP3    H234045   5.739   7.272   1.736
11368TIP3   OH234046   2.345   4.687   1.321
11368TIP3    H134047   2.257   4.715   1.345
11368TIP3    H234048   2.336   4.653   1.232
11369TIP3   OH234049   0.434   2.898   5.462
11369TIP3    H134050   0.475   2.875   5.379
11369TIP3    H234051   0.441   2.994   5.466
11370TIP3   OH234052   0.510   2.248   0.830
11370TIP3    H134053   0.543   2.327   0.787
11370TIP3    H234054   0.557   2.176   0.788
11371TIP3   OH234055   2.842   0.514   1.428
11371TIP3    H134056   2.857   0.593   1.377
11371TIP3    H234057   2.756   0.482   1.400
11372TIP3   OH234058   6.111   7.410   1.878
11372TIP3    H134059   6.025   7.442   1.852
11372TIP3    H234060   6.143   7.475   1.940
11373TIP3   OH234061   7.816   2.581   4.895
11373TIP3    H134062   7.905   2.561   4.922
11373TIP3    H234063   7.825   2.650   4.831
11374TIP3   OH234064   7.215   1.845   2.507
11374TIP3    H134065   7.142   1.824   2.565
11374TIP3    H234066   7.174   1.867   2.423
11375TIP3   OH234067   5.586   7.466   1.018
11375TIP3    H134068   5.655   7.531   1.029
11375TIP3    H234069   5.533   7.473   1.098
11376TIP3   OH234070   1.084   6.508   1.445
11376TIP3    H134071   1.076   6.589   1.495
11376TIP3    H234072   1.062   6.439   1.507
11377TIP3   OH234073   0.472   7.322   3.685
11377TIP3    H134074   0.447   7.405   3.724
11377TIP3    H234075   0.416   7.257   3.729
11378TIP3   OH234076   6.187   2.719   2.061
11378TIP3    H134077   6.198   2.657   2.133
11378TIP3    H234078   6.147   2.796   2.101
11379TIP3   OH234079   8.066   7.278   0.676
11379TIP3    H134080   7.985   7.304   0.632
11379TIP3    H234081   8.122   7.356   0.672
11380TIP3   OH234082   5.109   3.603   1.070
11380TIP3    H134083   5.193   3.588   1.114
11380TIP3    H234084   5.130   3.602   0.977
11381TIP3   OH234085   5.655   3.006   2.859
11381TIP3    H134086   5.622   2.984   2.772
11381TIP3    H234087   5.619   2.938   2.916
11382TIP3   OH234088   5.916   5.299   3.417
11382TIP3    H134089   5.955   5.326   3.500
11382TIP3    H234090   5.890   5.208   3.430
11383TIP3   OH234091   4.667   4.736   4.966
11383TIP3    H134092   4.704   4.647   4.967
11383TIP3    H234093   4.718   4.782   4.899
11384TIP3   OH234094   0.901   2.776   5.827
11384TIP3    H134095   0.919   2.779   5.734
11384TIP3    H234096   0.900   2.683   5.849
11385TIP3   OH234097   8.273   6.964   4.998
11385TIP3    H134098   8.255   6.871   4.980
11385TIP3    H234099   8.187   7.004   5.005
11386TIP3   OH234100   6.639   1.537   1.596
11386TIP3    H134101   6.640   1.464   1.534
11386TIP3    H234102   6.728   1.539   1.632
11387TIP3   OH234103   1.238   3.010   6.009
11387TIP3    H134104   1.317   2.957   6.016
11387TIP3    H234105   1.239   3.041   5.918
11388TIP3   OH234106   5.516   0.291   4.232
11388TIP3    H134107   5.507   0.283   4.137
11388TIP3    H234108   5.525   0.385   4.248
11389TIP3   OH234109   3.352   0.364   3.393
11389TIP3    H134110   3.392   0.315   3.322
11389TIP3    H234111   3.383   0.321   3.473
11390TIP3   OH234112   7.102   5.987   4.734
11390TIP3    H134113   7.194   6.012   4.743
11390TIP3    H234114   7.056   6.048   4.792
11391TIP3   OH234115   2.980   6.810   5.079
11391TIP3    H134116   2.975   6.739   5.143
11391TIP3    H234117   3.062   6.795   5.032
11392TIP3   OH234118   7.371   3.750   1.280
11392TIP3    H134119   7.452   3.724   1.236
11392TIP3    H234120   7.399   3.780   1.366
11393TIP3   OH234121   1.356   6.723   3.775
11393TIP3    H134122   1.293   6.679   3.717
11393TIP3    H234123   1.442   6.698   3.741
11394TIP3   OH234124   5.575   5.233   5.907
11394TIP3    H134125   5.521   5.311   5.922
11394TIP3    H234126   5.577   5.189   5.993
11395TIP3   OH234127   4.409   1.456   4.617
11395TIP3    H134128   4.315   1.466   4.630
11395TIP3    H234129   4.428   1.365   4.639
11396TIP3   OH234130   2.930   0.424   2.291
11396TIP3    H134131   2.934   0.350   2.353
11396TIP3    H234132   2.878   0.490   2.337
11397TIP3   OH234133   3.182   7.042   5.334
11397TIP3    H134134   3.155   7.080   5.251
11397TIP3    H234135   3.155   7.106   5.400
11398TIP3   OH234136  -0.053   2.609   6.255
11398TIP3    H134137  -0.091   2.680   6.307
11398TIP3    H234138   0.030   2.590   6.298
11399TIP3   OH234139   4.386   4.540   1.836
11399TIP3    H134140   4.442   4.463   1.852
11399TIP3    H234141   4.431   4.588   1.767
11400TIP3   OH234142   2.390   5.632   4.422
11400TIP3    H134143   2.483   5.653   4.429
11400TIP3    H234144   2.345   5.715   4.437
11401TIP3   OH234145   1.538   5.978   1.948
11401TIP3    H134146   1.599   5.964   1.876
11401TIP3    H234147   1.505   6.067   1.936
11402TIP3   OH234148   7.713   3.659   3.790
11402TIP3    H134149   7.803   3.626   3.794
11402TIP3    H234150   7.695   3.692   3.878
11403TIP3   OH234151   2.390   7.108   6.785
11403TIP3    H134152   2.298   7.114   6.811
11403TIP3    H234153   2.404   7.014   6.769
11404TIP3   OH234154   3.440   6.685   3.937
11404TIP3    H134155   3.411   6.662   4.026
11404TIP3    H234156   3.533   6.664   3.936
11405TIP3   OH234157   2.067   1.610   2.730
11405TIP3    H134158   2.018   1.624   2.649
11405TIP3    H234159   2.152   1.577   2.701
11406TIP3   OH234160   6.472   5.963   3.016
11406TIP3    H134161   6.472   5.883   3.068
11406TIP3    H234162   6.436   5.937   2.931
11407TIP3   OH234163   2.260   6.502   6.308
11407TIP3    H134164   2.248   6.486   6.215
11407TIP3    H234165   2.175   6.482   6.347
11408TIP3   OH234166   5.589   3.526   0.473
11408TIP3    H134167   5.659   3.591   0.464
11408TIP3    H234168   5.579   3.489   0.386
11409TIP3   OH234169   4.629   7.493   2.891
11409TIP3    H134170   4.599   7.563   2.948
11409TIP3    H234171   4.564   7.424   2.901
11410TIP3   OH234172   5.049   6.371   5.496
11410TIP3    H134173   4.973   6.325   5.532
11410TIP3    H234174   5.116   6.303   5.489
11411TIP3   OH234175   1.667   7.191   5.947
11411TIP3    H134176   1.648   7.277   5.908
11411TIP3    H234177   1.585   7.142   5.939
11412TIP3   OH234178   2.941   4.426   0.631
11412TIP3    H134179   2.935   4.517   0.605
11412TIP3    H234180   2.882   4.380   0.572
11413TIP3   OH234181   4.649   2.162   2.354
11413TIP3    H134182   4.742   2.161   2.332
11413TIP3    H234183   4.646   2.143   2.447
11414TIP3   OH234184   2.130   4.559   4.702
11414TIP3    H134185   2.086   4.607   4.772
11414TIP3    H234186   2.062   4.546   4.636
11415TIP3   OH234187   4.164   4.067   6.415
11415TIP3    H134188   4.256   4.064   6.390
11415TIP3    H234189   4.164   4.062   6.511
11416TIP3   OH234190   4.839   4.792   1.544
11416TIP3    H134191   4.803   4.857   1.482
11416TIP3    H234192   4.791   4.808   1.625
11417TIP3   OH234193   2.960   6.872   1.597
11417TIP3    H134194   2.910   6.919   1.663
11417TIP3    H234195   2.966   6.933   1.523
11418TIP3   OH234196   6.508   0.579   3.390
11418TIP3    H134197   6.531   0.503   3.443
11418TIP3    H234198   6.557   0.568   3.309
11419TIP3   OH234199   7.601   0.015   1.947
11419TIP3    H134200   7.536   0.079   1.978
11419TIP3    H234201   7.613   0.037   1.855
11420TIP3   OH234202   4.442   0.639   1.050
11420TIP3    H134203   4.489   0.592   1.119
11420TIP3    H234204   4.374   0.579   1.022
11421TIP3   OH234205   4.896  -0.043   4.618
11421TIP3    H134206   4.878   0.037   4.667
11421TIP3    H234207   4.955  -0.015   4.547
11422TIP3   OH234208   1.956   1.813   3.908
11422TIP3    H134209   1.908   1.849   3.834
11422TIP3    H234210   2.025   1.759   3.868
11423TIP3   OH234211   2.687   5.326   0.037
11423TIP3    H134212   2.762   5.354  -0.014
11423TIP3    H234213   2.715   5.334   0.128
11424TIP3   OH234214   2.928   2.013   5.159
11424TIP3    H134215   2.841   2.051   5.171
11424TIP3    H234216   2.962   2.003   5.248
11425TIP3   OH234217   6.255   7.492   0.297
11425TIP3    H134218   6.188   7.560   0.288
11425TIP3    H234219   6.286   7.502   0.387
11426TIP3   OH234220   0.081   6.541   6.370
11426TIP3    H134221   0.024   6.618   6.367
11426TIP3    H234222   0.082   6.515   6.462
11427TIP3   OH234223   3.585   5.338   3.691
11427TIP3    H134224   3.610   5.247   3.707
11427TIP3    H234225   3.573   5.343   3.596
11428TIP3   OH234226   6.402   2.869   2.611
11428TIP3    H134227   6.474   2.817   2.577
11428TIP3    H234228   6.357   2.902   2.533
11429TIP3   OH234229   6.255   4.771   4.634
11429TIP3    H134230   6.162   4.792   4.628
11429TIP3    H234231   6.261   4.704   4.701
11430TIP3   OH234232   5.558   7.595   3.683
11430TIP3    H134233   5.471   7.593   3.723
11430TIP3    H234234   5.556   7.670   3.623
11431TIP3   OH234235   1.305   5.283   4.524
11431TIP3    H134236   1.268   5.235   4.598
11431TIP3    H234237   1.390   5.242   4.509
11432TIP3   OH234238   4.835   5.164   2.566
11432TIP3    H134239   4.852   5.070   2.559
11432TIP3    H234240   4.777   5.184   2.492
11433TIP3   OH234241   3.068   6.452   0.393
11433TIP3    H134242   2.981   6.490   0.401
11433TIP3    H234243   3.063   6.397   0.315
11434TIP3   OH234244   3.678   2.324   0.410
11434TIP3    H134245   3.584   2.320   0.424
11434TIP3    H234246   3.705   2.407   0.448
11435TIP3   OH234247   2.897   3.853   6.567
11435TIP3    H134248   2.980   3.808   6.553
11435TIP3    H234249   2.882   3.901   6.485
11436TIP3   OH234250   5.590   5.521   2.300
11436TIP3    H134251   5.568   5.566   2.382
11436TIP3    H234252   5.685   5.509   2.305
11437TIP3   OH234253   1.237   4.050   0.725
11437TIP3    H134254   1.324   4.009   0.720
11437TIP3    H234255   1.218   4.054   0.818
11438TIP3   OH234256   6.287   7.769   6.011
11438TIP3    H134257   6.361   7.733   5.962
11438TIP3    H234258   6.316   7.771   6.102
11439TIP3   OH234259   5.549   2.306   6.110
11439TIP3    H134260   5.565   2.303   6.016
11439TIP3    H234261   5.497   2.227   6.128
11440TIP3   OH234262   7.086   0.487   3.119
11440TIP3    H134263   7.171   0.526   3.098
11440TIP3    H234264   7.102   0.436   3.198
11441TIP3   OH234265   3.646   0.642   3.020
11441TIP3    H134266   3.656   0.735   3.039
11441TIP3    H234267   3.556   0.622   3.045
11442TIP3   OH234268   4.724   4.550   1.445
11442TIP3    H134269   4.783   4.615   1.485
11442TIP3    H234270   4.756   4.540   1.356
11443TIP3   OH234271   7.342   2.117   6.201
11443TIP3    H134272   7.420   2.119   6.145
11443TIP3    H234273   7.308   2.028   6.192
11444TIP3   OH234274   0.223   0.613   6.004
11444TIP3    H134275   0.233   0.641   6.095
11444TIP3    H234276   0.251   0.521   6.004
11445TIP3   OH234277   5.584   1.430   5.100
11445TIP3    H134278   5.651   1.473   5.047
11445TIP3    H234279   5.542   1.369   5.040
11446TIP3   OH234280   1.713   5.173   3.874
11446TIP3    H134281   1.743   5.257   3.909
11446TIP3    H234282   1.742   5.174   3.782
11447TIP3   OH234283   5.766   0.479   1.013
11447TIP3    H134284   5.837   0.542   0.999
11447TIP3    H234285   5.785   0.408   0.952
11448TIP3   OH234286   0.772   2.118   1.336
11448TIP3    H134287   0.842   2.181   1.352
11448TIP3    H234288   0.810   2.033   1.362
11449TIP3   OH234289   3.647   7.052   1.816
11449TIP3    H134290   3.650   7.019   1.906
11449TIP3    H234291   3.737   7.042   1.783
11450TIP3   OH234292   2.298   1.488   6.544
11450TIP3    H134293   2.298   1.536   6.462
11450TIP3    H234294   2.295   1.396   6.518
11451TIP3   OH234295   0.950   6.096   1.710
11451TIP3    H134296   0.922   6.018   1.758
11451TIP3    H234297   0.923   6.169   1.766
11452TIP3   OH234298   4.325   3.389   6.208
11452TIP3    H134299   4.412   3.397   6.249
11452TIP3    H234300   4.266   3.373   6.281
11453TIP3   OH234301   5.703   4.249   6.120
11453TIP3    H134302   5.669   4.273   6.034
11453TIP3    H234303   5.710   4.332   6.167
11454TIP3   OH234304   6.654   7.405   1.566
11454TIP3    H134305   6.637   7.341   1.635
11454TIP3    H234306   6.730   7.371   1.520
11455TIP3   OH234307   3.442   3.718   2.563
11455TIP3    H134308   3.431   3.624   2.576
11455TIP3    H234309   3.357   3.748   2.531
11456TIP3   OH234310   2.855   7.296   5.094
11456TIP3    H134311   2.904   7.217   5.074
11456TIP3    H234312   2.772   7.286   5.048
11457TIP3   OH234313   1.018   3.425   6.434
11457TIP3    H134314   0.969   3.350   6.402
11457TIP3    H234315   0.952   3.484   6.469
11458TIP3   OH234316   1.686   6.853   3.879
11458TIP3    H134317   1.653   6.916   3.815
11458TIP3    H234318   1.766   6.819   3.839
11459TIP3   OH234319   6.117   2.825   1.791
11459TIP3    H134320   6.143   2.786   1.874
11459TIP3    H234321   6.188   2.805   1.731
11460TIP3   OH234322   2.264   6.914   2.181
11460TIP3    H134323   2.215   6.851   2.235
11460TIP3    H234324   2.201   6.944   2.116
11461TIP3   OH234325   3.676   6.222   1.777
11461TIP3    H134326   3.641   6.134   1.794
11461TIP3    H234327   3.709   6.218   1.688
11462TIP3   OH234328   5.659   2.888   5.531
11462TIP3    H134329   5.638   2.927   5.446
11462TIP3    H234330   5.717   2.814   5.510
11463TIP3   OH234331   4.518   2.160   0.456
11463TIP3    H134332   4.520   2.200   0.369
11463TIP3    H234333   4.466   2.080   0.444
11464TIP3   OH234334   1.310   4.803   1.488
11464TIP3    H134335   1.282   4.890   1.460
11464TIP3    H234336   1.294   4.747   1.412
11465TIP3   OH234337   1.410   6.758   4.114
11465TIP3    H134338   1.472   6.704   4.163
11465TIP3    H234339   1.434   6.745   4.022
11466TIP3   OH234340   0.419   3.098   5.900
11466TIP3    H134341   0.344   3.047   5.870
11466TIP3    H234342   0.456   3.047   5.972
11467TIP3   OH234343   6.727   1.610   4.337
11467TIP3    H134344   6.675   1.661   4.275
11467TIP3    H234345   6.747   1.529   4.289
11468TIP3   OH234346   6.338   2.351   1.923
11468TIP3    H134347   6.434   2.351   1.921
11468TIP3    H234348   6.312   2.403   1.846
11469TIP3   OH234349   3.734   4.117   1.114
11469TIP3    H134350   3.722   4.185   1.180
11469TIP3    H234351   3.813   4.143   1.067
11470TIP3   OH234352   6.469   4.462   4.688
11470TIP3    H134353   6.409   4.515   4.742
11470TIP3    H234354   6.540   4.522   4.666
11471TIP3   OH234355   2.025   0.277   1.644
11471TIP3    H134356   1.950   0.330   1.670
11471TIP3    H234357   1.992   0.188   1.641
11472TIP3   OH234358   6.282   1.337   0.359
11472TIP3    H134359   6.322   1.347   0.445
11472TIP3    H234360   6.356   1.322   0.300
11473TIP3   OH234361   0.916   3.755   0.443
11473TIP3    H134362   1.008   3.781   0.448
11473TIP3    H234363   0.917   3.660   0.437
11474TIP3   OH234364   7.701   0.726   5.002
11474TIP3    H134365   7.728   0.798   5.059
11474TIP3    H234366   7.768   0.659   5.015
11475TIP3   OH234367   4.870   7.673   4.878
11475TIP3    H134368   4.963   7.653   4.875
11475TIP3    H234369   4.852   7.692   4.970
11476TIP3   OH234370   7.890   1.790   0.249
11476TIP3    H134371   7.847   1.727   0.306
11476TIP3    H234372   7.980   1.796   0.282
11477TIP3   OH234373   0.796   4.104   6.219
11477TIP3    H134374   0.856   4.091   6.145
11477TIP3    H234375   0.807   4.026   6.274
11478TIP3   OH234376   6.678   4.913   1.173
11478TIP3    H134377   6.749   4.891   1.112
11478TIP3    H234378   6.683   5.008   1.183
11479TIP3   OH234379   1.260   2.627   0.417
11479TIP3    H134380   1.321   2.575   0.470
11479TIP3    H234381   1.203   2.563   0.375
11480TIP3   OH234382   3.022   3.601   4.508
11480TIP3    H134383   3.040   3.695   4.513
11480TIP3    H234384   3.109   3.560   4.513
11481TIP3   OH234385   3.146   2.320   2.833
11481TIP3    H134386   3.137   2.297   2.741
11481TIP3    H234387   3.057   2.337   2.862
11482TIP3   OH234388   4.153   3.418   2.295
11482TIP3    H134389   4.063   3.452   2.296
11482TIP3    H234390   4.143   3.323   2.305
11483TIP3   OH234391   8.039   2.112   0.170
11483TIP3    H134392   8.030   2.100   0.265
11483TIP3    H234393   8.121   2.161   0.160
11484TIP3   OH234394   5.812   6.319   1.410
11484TIP3    H134395   5.859   6.400   1.392
11484TIP3    H234396   5.749   6.311   1.338
11485TIP3   OH234397   4.940   2.528   2.853
11485TIP3    H134398   4.982   2.464   2.911
11485TIP3    H234399   4.911   2.598   2.911
11486TIP3   OH234400   5.065   7.590  -0.021
11486TIP3    H134401   5.156   7.615  -0.004
11486TIP3    H234402   5.071   7.508  -0.070
11487TIP3   OH234403   3.813   4.307   4.242
11487TIP3    H134404   3.831   4.303   4.148
11487TIP3    H234405   3.859   4.386   4.272
11488TIP3   OH234406   4.329   6.434   5.056
11488TIP3    H134407   4.408   6.406   5.102
11488TIP3    H234408   4.349   6.425   4.963
11489TIP3   OH234409   5.344   6.141   5.390
11489TIP3    H134410   5.282   6.111   5.324
11489TIP3    H234411   5.294   6.141   5.472
11490TIP3   OH234412   7.435   3.486   5.860
11490TIP3    H134413   7.358   3.500   5.915
11490TIP3    H234414   7.401   3.439   5.783
11491TIP3   OH234415   7.464   1.684   3.906
11491TIP3    H134416   7.506   1.770   3.904
11491TIP3    H234417   7.398   1.692   3.975
11492TIP3   OH234418   8.216   0.245   0.562
11492TIP3    H134419   8.210   0.157   0.599
11492TIP3    H234420   8.128   0.262   0.528
11493TIP3   OH234421   7.050   7.746   5.503
11493TIP3    H134422   7.080   7.750   5.412
11493TIP3    H234423   7.004   7.829   5.517
11494TIP3   OH234424   7.957   1.681   4.208
11494TIP3    H134425   7.863   1.693   4.223
11494TIP3    H234426   7.980   1.606   4.262
11495TIP3   OH234427   1.051   7.014   4.834
11495TIP3    H134428   1.123   6.951   4.833
11495TIP3    H234429   0.981   6.972   4.783
11496TIP3   OH234430   0.628   2.128   3.779
11496TIP3    H134431   0.596   2.187   3.848
11496TIP3    H234432   0.700   2.079   3.821
11497TIP3   OH234433   6.658   5.055   5.379
11497TIP3    H134434   6.704   5.138   5.368
11497TIP3    H234435   6.566   5.079   5.391
11498TIP3   OH234436   4.731   6.079   0.611
11498TIP3    H134437   4.757   5.990   0.634
11498TIP3    H234438   4.715   6.075   0.516
11499TIP3   OH234439   2.552   7.576   2.227
11499TIP3    H134440   2.496   7.498   2.224
11499TIP3    H234441   2.598   7.575   2.143
11500TIP3   OH234442   7.492   2.414   5.835
11500TIP3    H134443   7.417   2.462   5.871
11500TIP3    H234444   7.456   2.330   5.807
11501TIP3   OH234445   3.353   6.435   0.122
11501TIP3    H134446   3.408   6.357   0.121
11501TIP3    H234447   3.369   6.474   0.208
11502TIP3   OH234448   7.906   2.076   6.116
11502TIP3    H134449   7.995   2.109   6.129
11502TIP3    H234450   7.903   1.994   6.166
11503TIP3   OH234451   0.232   4.317   0.406
11503TIP3    H134452   0.152   4.317   0.353
11503TIP3    H234453   0.303   4.326   0.342
11504TIP3   OH234454   4.222   1.040   5.568
11504TIP3    H134455   4.243   0.959   5.521
11504TIP3    H234456   4.301   1.060   5.618
11505TIP3   OH234457   2.315   1.180   3.598
11505TIP3    H134458   2.367   1.240   3.545
11505TIP3    H234459   2.236   1.164   3.546
11506TIP3   OH234460   2.126   2.676   6.544
11506TIP3    H134461   2.202   2.646   6.493
11506TIP3    H234462   2.068   2.715   6.479
11507TIP3   OH234463   2.731   3.084   1.211
11507TIP3    H134464   2.756   3.103   1.302
11507TIP3    H234465   2.814   3.077   1.164
11508TIP3   OH234466   3.597   0.219   0.090
11508TIP3    H134467   3.591   0.315   0.085
11508TIP3    H234468   3.657   0.195   0.020
11509TIP3   OH234469   2.147   2.171   3.803
11509TIP3    H134470   2.059   2.182   3.840
11509TIP3    H234471   2.170   2.256   3.767
11510TIP3   OH234472   4.556   6.381   3.070
11510TIP3    H134473   4.467   6.415   3.076
11510TIP3    H234474   4.546   6.286   3.076
11511TIP3   OH234475   2.239   0.982   6.620
11511TIP3    H134476   2.286   0.941   6.693
11511TIP3    H234477   2.166   1.028   6.662
11512TIP3   OH234478   7.112   3.577   3.079
11512TIP3    H134479   7.091   3.497   3.030
11512TIP3    H234480   7.033   3.596   3.129
11513TIP3   OH234481   2.600   5.972   4.856
11513TIP3    H134482   2.529   5.979   4.919
11513TIP3    H234483   2.675   5.944   4.909
11514TIP3   OH234484   4.794   4.943   3.835
11514TIP3    H134485   4.803   4.902   3.749
11514TIP3    H234486   4.745   5.023   3.818
11515TIP3   OH234487   3.394   1.974   4.556
11515TIP3    H134488   3.447   2.039   4.603
11515TIP3    H234489   3.337   1.937   4.623
11516TIP3   OH234490   7.498   2.572   3.966
11516TIP3    H134491   7.579   2.622   3.977
11516TIP3    H234492   7.519   2.508   3.897
11517TIP3   OH234493   0.290   0.121   6.342
11517TIP3    H134494   0.215   0.117   6.402
11517TIP3    H234495   0.256   0.088   6.259
11518TIP3   OH234496   2.762   0.383   0.547
11518TIP3    H134497   2.838   0.429   0.511
11518TIP3    H234498   2.733   0.326   0.477
11519TIP3   OH234499   5.877   5.939   0.114
11519TIP3    H134500   5.947   5.878   0.089
11519TIP3    H234501   5.805   5.882   0.140
11520TIP3   OH234502   0.333   2.252   2.905
11520TIP3    H134503   0.362   2.167   2.873
11520TIP3    H234504   0.282   2.232   2.984
11521TIP3   OH234505   0.926   0.138   1.538
11521TIP3    H134506   0.836   0.147   1.569
11521TIP3    H234507   0.928   0.052   1.495
11522TIP3   OH234508   6.980   0.301   6.083
11522TIP3    H134509   6.939   0.214   6.084
11522TIP3    H234510   7.056   0.292   6.140
11523TIP3   OH234511   1.492   0.722   4.678
11523TIP3    H134512   1.582   0.693   4.664
11523TIP3    H234513   1.463   0.751   4.592
11524TIP3   OH234514   8.037   7.420   6.247
11524TIP3    H134515   7.989   7.481   6.303
11524TIP3    H234516   8.029   7.335   6.291
11525TIP3   OH234517   4.110   1.021   6.188
11525TIP3    H134518   4.125   1.085   6.119
11525TIP3    H234519   4.139   1.065   6.268
11526TIP3   OH234520   3.975   5.598   1.962
11526TIP3    H134521   4.070   5.605   1.957
11526TIP3    H234522   3.943   5.646   1.886
11527TIP3   OH234523   4.162   4.686   2.137
11527TIP3    H134524   4.145   4.595   2.115
11527TIP3    H234525   4.257   4.691   2.149
11528TIP3   OH234526   1.075   5.026   6.689
11528TIP3    H134527   1.132   4.954   6.715
11528TIP3    H234528   1.066   5.016   6.594
11529TIP3   OH234529   7.897   3.240   5.066
11529TIP3    H134530   7.919   3.312   5.007
11529TIP3    H234531   7.900   3.279   5.153
11530TIP3   OH234532   4.163   5.092   2.569
11530TIP3    H134533   4.156   5.179   2.610
11530TIP3    H234534   4.257   5.079   2.557
11531TIP3   OH234535   6.693   2.840   6.650
11531TIP3    H134536   6.597   2.837   6.645
11531TIP3    H234537   6.711   2.891   6.730
11532TIP3   OH234538   1.369   7.081   0.479
11532TIP3    H134539   1.458   7.085   0.514
11532TIP3    H234540   1.378   7.043   0.392
11533TIP3   OH234541   2.178   5.759   3.969
11533TIP3    H134542   2.245   5.723   4.028
11533TIP3    H234543   2.226   5.823   3.915
11534TIP3   OH234544   5.384   2.116   5.542
11534TIP3    H134545   5.305   2.137   5.493
11534TIP3    H234546   5.430   2.199   5.550
11535TIP3   OH234547   7.476   5.830   0.902
11535TIP3    H134548   7.524   5.822   0.820
11535TIP3    H234549   7.401   5.771   0.892
11536TIP3   OH234550   3.769   3.711   3.402
11536TIP3    H134551   3.790   3.777   3.336
11536TIP3    H234552   3.690   3.743   3.445
11537TIP3   OH234553   7.983   4.048   3.240
11537TIP3    H134554   8.021   4.103   3.171
11537TIP3    H234555   7.904   4.094   3.266
11538TIP3   OH234556   5.813   5.218   6.125
11538TIP3    H134557   5.734   5.175   6.157
11538TIP3    H234558   5.827   5.292   6.184
11539TIP3   OH234559   4.805   7.353   3.484
11539TIP3    H134560   4.780   7.263   3.461
11539TIP3    H234561   4.809   7.399   3.401
11540TIP3   OH234562   0.459   2.421   6.028
11540TIP3    H134563   0.524   2.352   6.014
11540TIP3    H234564   0.377   2.383   5.996
11541TIP3   OH234565   1.917   6.110   6.270
11541TIP3    H134566   1.942   6.107   6.178
11541TIP3    H234567   1.919   6.203   6.292
11542TIP3   OH234568   3.666   6.706   3.027
11542TIP3    H134569   3.754   6.685   2.997
11542TIP3    H234570   3.675   6.723   3.121
11543TIP3   OH234571   2.822   1.289   4.191
11543TIP3    H134572   2.794   1.215   4.138
11543TIP3    H234573   2.852   1.250   4.273
11544TIP3   OH234574   6.749   2.252   2.115
11544TIP3    H134575   6.743   2.325   2.053
11544TIP3    H234576   6.741   2.174   2.060
11545TIP3   OH234577   1.699   1.837   1.693
11545TIP3    H134578   1.665   1.848   1.604
11545TIP3    H234579   1.711   1.926   1.725
11546TIP3   OH234580   6.528   4.081   1.014
11546TIP3    H134581   6.524   4.150   0.948
11546TIP3    H234582   6.572   4.122   1.089
11547TIP3   OH234583   1.084   0.770   1.448
11547TIP3    H134584   1.048   0.727   1.526
11547TIP3    H234585   1.088   0.863   1.472
11548TIP3   OH234586   3.203   5.495   0.798
11548TIP3    H134587   3.179   5.571   0.852
11548TIP3    H234588   3.191   5.525   0.708
11549TIP3   OH234589   0.058   1.794   5.778
11549TIP3    H134590   0.085   1.856   5.710
11549TIP3    H234591   0.121   1.722   5.770
11550TIP3   OH234592   0.363   2.920   6.479
11550TIP3    H134593   0.301   2.887   6.544
11550TIP3    H234594   0.341   2.871   6.399
11551TIP3   OH234595   7.417   4.494   1.385
11551TIP3    H134596   7.328   4.495   1.422
11551TIP3    H234597   7.428   4.582   1.348
11552TIP3   OH234598   2.139   4.347   3.285
11552TIP3    H134599   2.146   4.276   3.348
11552TIP3    H234600   2.167   4.425   3.333
11553TIP3   OH234601   6.059   3.327   1.890
11553TIP3    H134602   6.032   3.264   1.956
11553TIP3    H234603   6.088   3.273   1.816
11554TIP3   OH234604   3.144   3.857   2.615
11554TIP3    H134605   3.120   3.784   2.557
11554TIP3    H234606   3.110   3.832   2.700
11555TIP3   OH234607   5.047   3.011   3.824
11555TIP3    H134608   5.025   2.918   3.829
11555TIP3    H234609   5.080   3.023   3.735
11556TIP3   OH234610   3.533   4.451   3.880
11556TIP3    H134611   3.521   4.538   3.843
11556TIP3    H234612   3.458   4.401   3.848
11557TIP3   OH234613   5.528   6.061   4.231
11557TIP3    H134614   5.565   5.990   4.178
11557TIP3    H234615   5.597   6.127   4.234
11558TIP3   OH234616   7.496   2.253   0.611
11558TIP3    H134617   7.491   2.193   0.536
11558TIP3    H234618   7.483   2.196   0.687
11559TIP3   OH234619   6.197   2.756   0.035
11559TIP3    H134620   6.118   2.702   0.036
11559TIP3    H234621   6.264   2.701   0.077
11560TIP3   OH234622   7.124   1.744   6.430
11560TIP3    H134623   7.107   1.799   6.353
11560TIP3    H234624   7.117   1.804   6.504
11561TIP3   OH234625   2.171   1.448   1.568
11561TIP3    H134626   2.107   1.491   1.512
11561TIP3    H234627   2.119   1.397   1.630
11562TIP3   OH234628   0.552   3.484   0.637
11562TIP3    H134629   0.577   3.476   0.729
11562TIP3    H234630   0.532   3.577   0.625
11563TIP3   OH234631   1.454   0.352   6.418
11563TIP3    H134632   1.381   0.366   6.479
11563TIP3    H234633   1.417   0.297   6.350
11564TIP3   OH234634   2.244   1.637   1.296
11564TIP3    H134635   2.289   1.567   1.248
11564TIP3    H234636   2.264   1.619   1.388
11565TIP3   OH234637   7.759   7.419   4.780
11565TIP3    H134638   7.852   7.400   4.764
11565TIP3    H234639   7.745   7.397   4.872
11566TIP3   OH234640   6.479   2.396   2.351
11566TIP3    H134641   6.424   2.450   2.407
11566TIP3    H234642   6.423   2.371   2.278
11567TIP3   OH234643   2.503   3.554   3.340
11567TIP3    H134644   2.479   3.646   3.325
11567TIP3    H234645   2.465   3.508   3.265
11568TIP3   OH234646   2.282   4.780   4.953
11568TIP3    H134647   2.358   4.795   5.009
11568TIP3    H234648   2.252   4.868   4.930
11569TIP3   OH234649   7.914   0.618   6.243
11569TIP3    H134650   7.894   0.706   6.275
11569TIP3    H234651   8.007   0.607   6.261
11570TIP3   OH234652   7.124   3.937   0.591
11570TIP3    H134653   7.183   3.999   0.549
11570TIP3    H234654   7.077   3.896   0.518
11571TIP3   OH234655   0.158   5.364   3.873
11571TIP3    H134656   0.062   5.365   3.883
11571TIP3    H234657   0.172   5.364   3.778
11572TIP3   OH234658   2.073   3.041   1.552
11572TIP3    H134659   2.146   3.004   1.601
11572TIP3    H234660   2.081   3.136   1.566
11573TIP3   OH234661   1.993   1.458   4.504
11573TIP3    H134662   1.910   1.476   4.460
11573TIP3    H234663   1.981   1.489   4.593
11574TIP3   OH234664   2.784   4.377   0.299
11574TIP3    H134665   2.746   4.461   0.323
11574TIP3    H234666   2.878   4.395   0.291
11575TIP3   OH234667   5.312   3.299   2.409
11575TIP3    H134668   5.276   3.258   2.487
11575TIP3    H234669   5.236   3.322   2.356
11576TIP3   OH234670   0.354   3.500   0.339
11576TIP3    H134671   0.292   3.518   0.268
11576TIP3    H234672   0.382   3.587   0.368
11577TIP3   OH234673   4.234   2.638   3.049
11577TIP3    H134674   4.182   2.655   3.127
11577TIP3    H234675   4.279   2.556   3.067
11578TIP3   OH234676   6.252   2.328   4.920
11578TIP3    H134677   6.333   2.281   4.901
11578TIP3    H234678   6.221   2.357   4.834
11579TIP3   OH234679   7.217   3.552   2.201
11579TIP3    H134680   7.130   3.592   2.203
11579TIP3    H234681   7.270   3.614   2.150
11580TIP3   OH234682   5.152   0.050   5.415
11580TIP3    H134683   5.245   0.070   5.423
11580TIP3    H234684   5.118   0.059   5.504
11581TIP3   OH234685   1.803   7.810   2.504
11581TIP3    H134686   1.880   7.781   2.553
11581TIP3    H234687   1.822   7.786   2.414
11582TIP3   OH234688   5.571   6.972   3.010
11582TIP3    H134689   5.505   6.903   3.004
11582TIP3    H234690   5.654   6.928   2.990
11583TIP3   OH234691   8.038   4.421   0.117
11583TIP3    H134692   7.988   4.459   0.190
11583TIP3    H234693   8.087   4.349   0.157
11584TIP3   OH234694   6.059   2.209   2.721
11584TIP3    H134695   6.056   2.113   2.724
11584TIP3    H234696   6.074   2.236   2.812
11585TIP3   OH234697   8.134   5.155   2.752
11585TIP3    H134698   8.136   5.189   2.841
11585TIP3    H234699   8.079   5.217   2.704
11586TIP3   OH234700   7.203   5.410   1.211
11586TIP3    H134701   7.116   5.390   1.246
11586TIP3    H234702   7.188   5.431   1.118
11587TIP3   OH234703   7.453   5.762   4.843
11587TIP3    H134704   7.509   5.708   4.788
11587TIP3    H234705   7.484   5.747   4.932
11588TIP3   OH234706   0.067   3.454   0.206
11588TIP3    H134707   0.076   3.549   0.205
11588TIP3    H234708   0.000   3.437   0.272
11589TIP3   OH234709   7.574   7.181   4.756
11589TIP3    H134710   7.559   7.128   4.677
11589TIP3    H234711   7.630   7.252   4.727
11590TIP3   OH234712   5.871   4.069   5.544
11590TIP3    H134713   5.950   4.030   5.583
11590TIP3    H234714   5.903   4.149   5.502
11591TIP3   OH234715   4.858   2.902   5.391
11591TIP3    H134716   4.919   2.966   5.353
11591TIP3    H234717   4.849   2.835   5.324
11592TIP3   OH234718   2.172   5.009   2.574
11592TIP3    H134719   2.183   5.104   2.584
11592TIP3    H234720   2.258   4.978   2.546
11593TIP3   OH234721   7.665   3.310   1.145
11593TIP3    H134722   7.612   3.377   1.189
11593TIP3    H234723   7.655   3.233   1.201
11594TIP3   OH234724   4.176   3.196   3.552
11594TIP3    H134725   4.244   3.137   3.519
11594TIP3    H234726   4.103   3.184   3.491
11595TIP3   OH234727   4.320   3.100   4.324
11595TIP3    H134728   4.407   3.104   4.365
11595TIP3    H234729   4.259   3.128   4.392
11596TIP3   OH234730   4.965   1.243   6.633
11596TIP3    H134731   4.924   1.161   6.607
11596TIP3    H234732   4.897   1.290   6.682
11597TIP3   OH234733   1.083   4.405   2.303
11597TIP3    H134734   1.073   4.430   2.211
11597TIP3    H234735   1.010   4.447   2.348
11598TIP3   OH234736   1.379   4.467   4.511
11598TIP3    H134737   1.390   4.402   4.580
11598TIP3    H234738   1.465   4.475   4.471
11599TIP3   OH234739   1.966   7.379   4.186
11599TIP3    H134740   1.934   7.296   4.222
11599TIP3    H234741   1.888   7.420   4.148
11600TIP3   OH234742   7.508   4.288   5.229
11600TIP3    H134743   7.565   4.348   5.181
11600TIP3    H234744   7.525   4.306   5.321
11601TIP3   OH234745   6.226   6.782   2.569
11601TIP3    H134746   6.225   6.723   2.493
11601TIP3    H234747   6.234   6.870   2.531
11602TIP3   OH234748   4.876   2.224   3.938
11602TIP3    H134749   4.866   2.297   3.877
11602TIP3    H234750   4.869   2.264   4.025
11603TIP3   OH234751   2.984   7.365   6.283
11603TIP3    H134752   2.931   7.355   6.361
11603TIP3    H234753   3.072   7.341   6.311
11604TIP3   OH234754   4.298   1.328   6.362
11604TIP3    H134755   4.371   1.351   6.304
11604TIP3    H234756   4.340   1.313   6.447
11605TIP3   OH234757   6.554   4.520   0.832
11605TIP3    H134758   6.589   4.594   0.782
11605TIP3    H234759   6.613   4.512   0.907
11606TIP3   OH234760   4.438   6.821   3.247
11606TIP3    H134761   4.407   6.842   3.335
11606TIP3    H234762   4.496   6.747   3.258
11607TIP3   OH234763   6.189   3.697   6.016
11607TIP3    H134764   6.259   3.636   6.040
11607TIP3    H234765   6.204   3.774   6.072
11608TIP3   OH234766   2.841   0.825   5.304
11608TIP3    H134767   2.851   0.741   5.349
11608TIP3    H234768   2.922   0.873   5.323
11609TIP3   OH234769   5.887   1.912   4.333
11609TIP3    H134770   5.829   1.885   4.261
11609TIP3    H234771   5.925   1.830   4.364
11610TIP3   OH234772   7.695   7.391   3.410
11610TIP3    H134773   7.655   7.478   3.406
11610TIP3    H234774   7.789   7.408   3.412
11611TIP3   OH234775   4.367   0.562   2.887
11611TIP3    H134776   4.291   0.505   2.884
11611TIP3    H234777   4.426   0.520   2.950
11612TIP3   OH234778   4.185   1.373   0.547
11612TIP3    H134779   4.262   1.377   0.603
11612TIP3    H234780   4.126   1.439   0.583
11613TIP3   OH234781   6.514   7.833   5.412
11613TIP3    H134782   6.542   7.828   5.321
11613TIP3    H234783   6.445   7.767   5.420
11614TIP3   OH234784   5.903   5.369   0.887
11614TIP3    H134785   5.898   5.388   0.980
11614TIP3    H234786   5.977   5.309   0.878
11615TIP3   OH234787   3.729   5.243   0.933
11615TIP3    H134788   3.656   5.232   0.995
11615TIP3    H234789   3.693   5.215   0.849
11616TIP3   OH234790   6.621   0.738   5.493
11616TIP3    H134791   6.612   0.753   5.587
11616TIP3    H234792   6.713   0.711   5.482
11617TIP3   OH234793   1.676   3.579   5.411
11617TIP3    H134794   1.756   3.632   5.405
11617TIP3    H234795   1.631   3.594   5.328
11618TIP3   OH234796   0.172   6.688   3.001
11618TIP3    H134797   0.239   6.682   2.932
11618TIP3    H234798   0.089   6.686   2.953
11619TIP3   OH234799   6.984   2.689   5.815
11619TIP3    H134800   6.956   2.723   5.900
11619TIP3    H234801   7.074   2.718   5.806
11620TIP3   OH234802   0.216   0.937   1.685
11620TIP3    H134803   0.197   0.879   1.611
11620TIP3    H234804   0.130   0.969   1.713
11621TIP3   OH234805   7.203   2.514   5.511
11621TIP3    H134806   7.114   2.545   5.522
11621TIP3    H234807   7.195   2.419   5.507
11622TIP3   OH234808   5.486   4.689   5.001
11622TIP3    H134809   5.569   4.712   5.043
11622TIP3    H234810   5.511   4.641   4.922
11623TIP3   OH234811   7.524   5.757   3.872
11623TIP3    H134812   7.498   5.718   3.788
11623TIP3    H234813   7.619   5.746   3.875
11624TIP3   OH234814   6.399   6.316   6.300
11624TIP3    H134815   6.473   6.265   6.332
11624TIP3    H234816   6.324   6.283   6.349
11625TIP3   OH234817   2.614   7.333   4.103
11625TIP3    H134818   2.565   7.261   4.142
11625TIP3    H234819   2.590   7.333   4.010
11626TIP3   OH234820   4.310   1.785   5.654
11626TIP3    H134821   4.391   1.733   5.650
11626TIP3    H234822   4.254   1.738   5.716
11627TIP3   OH234823   6.370   1.369   3.066
11627TIP3    H134824   6.418   1.438   3.111
11627TIP3    H234825   6.433   1.332   3.004
11628TIP3   OH234826   4.614   5.833   6.634
11628TIP3    H134827   4.681   5.889   6.673
11628TIP3    H234828   4.642   5.744   6.657
11629TIP3   OH234829   4.343   3.067   2.509
11629TIP3    H134830   4.279   3.004   2.541
11629TIP3    H234831   4.427   3.032   2.538
11630TIP3   OH234832   3.344   6.112   4.675
11630TIP3    H134833   3.280   6.087   4.742
11630TIP3    H234834   3.370   6.030   4.635
11631TIP3   OH234835   0.419   3.704   4.569
11631TIP3    H134836   0.471   3.631   4.536
11631TIP3    H234837   0.353   3.663   4.625
11632TIP3   OH234838   0.029   3.570   2.666
11632TIP3    H134839   0.104   3.519   2.694
11632TIP3    H234840  -0.034   3.562   2.738
11633TIP3   OH234841   4.476   0.340   2.292
11633TIP3    H134842   4.391   0.331   2.336
11633TIP3    H234843   4.540   0.327   2.361
11634TIP3   OH234844   6.916   3.275   2.299
11634TIP3    H134845   6.933   3.269   2.394
11634TIP3    H234846   6.854   3.347   2.291
11635TIP3   OH234847   2.051   4.470   3.672
11635TIP3    H134848   2.123   4.409   3.653
11635TIP3    H234849   1.976   4.434   3.625
11636TIP3   OH234850   1.061   2.632   4.413
11636TIP3    H134851   1.048   2.650   4.506
11636TIP3    H234852   0.973   2.622   4.378
11637TIP3   OH234853   6.074   2.486   5.723
11637TIP3    H134854   6.139   2.479   5.793
11637TIP3    H234855   6.059   2.580   5.714
11638TIP3   OH234856   3.409   4.407   0.212
11638TIP3    H134857   3.448   4.379   0.295
11638TIP3    H234858   3.325   4.362   0.208
11639TIP3   OH234859   7.717   0.890   5.203
11639TIP3    H134860   7.639   0.938   5.229
11639TIP3    H234861   7.772   0.889   5.282
11640TIP3   OH234862   7.326   3.128   1.089
11640TIP3    H134863   7.343   3.137   1.182
11640TIP3    H234864   7.257   3.192   1.071
11641TIP3   OH234865   0.349   4.669   6.050
11641TIP3    H134866   0.442   4.693   6.056
11641TIP3    H234867   0.347   4.599   5.985
11642TIP3   OH234868   4.138   6.921   6.412
11642TIP3    H134869   4.127   6.999   6.467
11642TIP3    H234870   4.202   6.867   6.459
11643TIP3   OH234871   0.048   0.119   0.965
11643TIP3    H134872   0.042   0.214   0.970
11643TIP3    H234873   0.125   0.097   1.017
11644TIP3   OH234874   1.023   5.388   4.022
11644TIP3    H134875   1.084   5.390   4.095
11644TIP3    H234876   1.017   5.295   3.997
11645TIP3   OH234877   7.753   3.992   3.881
11645TIP3    H134878   7.668   4.036   3.881
11645TIP3    H234879   7.736   3.908   3.924
11646TIP3   OH234880   3.434   2.693   4.356
11646TIP3    H134881   3.463   2.701   4.446
11646TIP3    H234882   3.480   2.616   4.323
11647TIP3   OH234883   7.056   4.331   1.493
11647TIP3    H134884   7.068   4.403   1.555
11647TIP3    H234885   7.138   4.283   1.496
11648TIP3   OH234886   3.958   0.036   3.348
11648TIP3    H134887   3.887   0.100   3.351
11648TIP3    H234888   4.038   0.089   3.353
11649TIP3   OH234889   2.103   5.282   5.911
11649TIP3    H134890   2.130   5.205   5.862
11649TIP3    H234891   2.082   5.249   5.999
11650TIP3   OH234892   2.177   3.986   5.788
11650TIP3    H134893   2.120   3.955   5.717
11650TIP3    H234894   2.146   4.074   5.807
11651TIP3   OH234895   4.315   0.699   3.298
11651TIP3    H134896   4.321   0.624   3.239
11651TIP3    H234897   4.294   0.660   3.383
11652TIP3   OH234898   4.661   3.114   1.942
11652TIP3    H134899   4.655   3.186   2.005
11652TIP3    H234900   4.733   3.060   1.975
11653TIP3   OH234901   2.014   3.253   1.923
11653TIP3    H134902   1.949   3.241   1.994
11653TIP3    H234903   1.995   3.182   1.862
11654TIP3   OH234904   3.570   6.995   5.715
11654TIP3    H134905   3.546   6.930   5.649
11654TIP3    H234906   3.662   6.977   5.734
11655TIP3   OH234907   1.247   6.772   3.434
11655TIP3    H134908   1.303   6.850   3.438
11655TIP3    H234909   1.228   6.761   3.341
11656TIP3   OH234910   5.828   5.585   3.846
11656TIP3    H134911   5.884   5.575   3.923
11656TIP3    H234912   5.805   5.678   3.845
11657TIP3   OH234913   2.057   0.003   0.196
11657TIP3    H134914   2.034   0.001   0.289
11657TIP3    H234915   2.002   0.072   0.160
11658TIP3   OH234916   2.734   2.746   3.295
11658TIP3    H134917   2.813   2.693   3.302
11658TIP3    H234918   2.662   2.683   3.297
11659TIP3   OH234919   2.350   1.934   3.039
11659TIP3    H134920   2.281   1.868   3.030
11659TIP3    H234921   2.324   2.004   2.979
11660TIP3   OH234922   0.903   5.233   5.147
11660TIP3    H134923   0.884   5.140   5.154
11660TIP3    H234924   0.819   5.276   5.159
11661TIP3   OH234925   0.816   0.228   5.947
11661TIP3    H134926   0.800   0.143   5.988
11661TIP3    H234927   0.741   0.281   5.972
11662TIP3   OH234928   3.034   2.961   1.381
11662TIP3    H134929   3.054   2.872   1.351
11662TIP3    H234930   3.025   2.952   1.476
11663TIP3   OH234931   0.259   0.880   2.453
11663TIP3    H134932   0.213   0.885   2.537
11663TIP3    H234933   0.284   0.971   2.433
11664TIP3   OH234934   2.035   3.584   6.801
11664TIP3    H134935   2.029   3.632   6.718
11664TIP3    H234936   2.108   3.625   6.847
11665TIP3   OH234937   7.893   5.924   1.132
11665TIP3    H134938   7.961   5.954   1.192
11665TIP3    H234939   7.874   5.835   1.159
11666TIP3   OH234940   7.292   4.431   1.137
11666TIP3    H134941   7.363   4.445   1.076
11666TIP3    H234942   7.335   4.426   1.223
11667TIP3   OH234943   7.280   7.719   0.290
11667TIP3    H134944   7.200   7.769   0.272
11667TIP3    H234945   7.248   7.636   0.325
11668TIP3   OH234946   3.955   0.727   4.696
11668TIP3    H134947   3.942   0.739   4.602
11668TIP3    H234948   3.908   0.800   4.736
11669TIP3   OH234949   1.412   3.315   0.393
11669TIP3    H134950   1.430   3.258   0.468
11669TIP3    H234951   1.320   3.339   0.403
11670TIP3   OH234952   2.908   0.829   2.488
11670TIP3    H134953   2.931   0.796   2.575
11670TIP3    H234954   2.960   0.908   2.477
11671TIP3   OH234955   3.327   5.786   3.525
11671TIP3    H134956   3.349   5.778   3.617
11671TIP3    H234957   3.233   5.772   3.521
11672TIP3   OH234958   1.501   3.579   2.845
11672TIP3    H134959   1.590   3.613   2.850
11672TIP3    H234960   1.461   3.603   2.928
11673TIP3   OH234961   8.132   4.355   4.336
11673TIP3    H134962   8.047   4.380   4.299
11673TIP3    H234963   8.149   4.420   4.404
11674TIP3   OH234964   3.804   0.417   5.822
11674TIP3    H134965   3.826   0.455   5.907
11674TIP3    H234966   3.771   0.330   5.843
11675TIP3   OH234967   1.056   1.552   1.446
11675TIP3    H134968   1.114   1.620   1.480
11675TIP3    H234969   1.088   1.535   1.357
11676TIP3   OH234970   5.126   3.577   1.876
11676TIP3    H134971   5.151   3.512   1.811
11676TIP3    H234972   5.206   3.627   1.892
11677TIP3   OH234973   0.866   5.097   3.308
11677TIP3    H134974   0.831   5.114   3.395
11677TIP3    H234975   0.863   5.182   3.264
11678TIP3   OH234976   6.557   7.310   3.427
11678TIP3    H134977   6.633   7.299   3.484
11678TIP3    H234978   6.496   7.241   3.454
11679TIP3   OH234979   2.910   6.898   3.825
11679TIP3    H134980   2.923   6.990   3.800
11679TIP3    H234981   2.836   6.870   3.771
11680TIP3   OH234982   2.262   1.302   6.228
11680TIP3    H134983   2.356   1.286   6.232
11680TIP3    H234984   2.223   1.226   6.271
11681TIP3   OH234985   5.436   5.228   1.182
11681TIP3    H134986   5.384   5.154   1.149
11681TIP3    H234987   5.519   5.220   1.135
11682TIP3   OH234988   3.596   3.275   0.724
11682TIP3    H134989   3.637   3.312   0.802
11682TIP3    H234990   3.506   3.256   0.750
11683TIP3   OH234991   3.234   6.425   6.622
11683TIP3    H134992   3.147   6.461   6.637
11683TIP3    H234993   3.274   6.485   6.559
11684TIP3   OH234994   7.205   2.402   2.891
11684TIP3    H134995   7.161   2.448   2.963
11684TIP3    H234996   7.204   2.465   2.819
11685TIP3   OH234997   0.168   2.079   1.219
11685TIP3    H134998   0.204   2.145   1.160
11685TIP3    H234999   0.089   2.048   1.175
11686TIP3   OH235000   3.013   5.347   6.492
11686TIP3    H135001   3.048   5.425   6.450
11686TIP3    H235002   3.074   5.330   6.565
11687TIP3   OH235003   1.635   5.152   0.961
11687TIP3    H135004   1.697   5.215   0.998
11687TIP3    H235005   1.549   5.184   0.990
11688TIP3   OH235006   0.259   4.158   0.693
11688TIP3    H135007   0.216   4.214   0.629
11688TIP3    H235008   0.287   4.218   0.762
11689TIP3   OH235009   7.083   2.917   1.232
11689TIP3    H135010   7.035   2.999   1.220
11689TIP3    H235011   7.136   2.909   1.153
11690TIP3   OH235012   2.206   3.824   3.324
11690TIP3    H135013   2.177   3.733   3.318
11690TIP3    H235014   2.195   3.848   3.416
11691TIP3   OH235015   6.123   7.697   4.476
11691TIP3    H135016   6.163   7.693   4.563
11691TIP3    H235017   6.196   7.701   4.415
11692TIP3   OH235018   4.150   0.382   5.580
11692TIP3    H135019   4.056   0.366   5.566
11692TIP3    H235020   4.158   0.392   5.675
11693TIP3   OH235021   7.846   2.894   4.281
11693TIP3    H135022   7.782   2.920   4.214
11693TIP3    H235023   7.804   2.822   4.328
11694TIP3   OH235024   5.345   1.554   5.889
11694TIP3    H135025   5.312   1.467   5.867
11694TIP3    H235026   5.314   1.611   5.819
11695TIP3   OH235027   2.584   2.975   5.461
11695TIP3    H135028   2.662   2.919   5.465
11695TIP3    H235029   2.612   3.051   5.410
11696TIP3   OH235030   6.511   0.314   4.315
11696TIP3    H135031   6.430   0.347   4.276
11696TIP3    H235032   6.546   0.254   4.250
11697TIP3   OH235033   1.657   2.242   1.565
11697TIP3    H135034   1.631   2.329   1.595
11697TIP3    H235035   1.667   2.191   1.646
11698TIP3   OH235036   4.692   0.908   0.370
11698TIP3    H135037   4.758   0.885   0.436
11698TIP3    H235038   4.613   0.862   0.397
11699TIP3   OH235039   2.055   2.580   4.852
11699TIP3    H135040   2.003   2.647   4.808
11699TIP3    H235041   1.991   2.522   4.892
11700TIP3   OH235042   6.002   3.424   4.325
11700TIP3    H135043   5.983   3.518   4.319
11700TIP3    H235044   5.931   3.382   4.277
11701TIP3   OH235045   5.145   6.855   1.307
11701TIP3    H135046   5.233   6.817   1.310
11701TIP3    H235047   5.157   6.939   1.262
11702TIP3   OH235048   1.930   2.436   2.447
11702TIP3    H135049   1.912   2.447   2.541
11702TIP3    H235050   1.847   2.406   2.410
11703TIP3   OH235051   6.182   7.624   5.670
11703TIP3    H135052   6.147   7.632   5.759
11703TIP3    H235053   6.245   7.552   5.676
11704TIP3   OH235054   3.785   2.362   4.931
11704TIP3    H135055   3.787   2.412   4.849
11704TIP3    H235056   3.865   2.388   4.976
11705TIP3   OH235057   8.147   2.806   4.508
11705TIP3    H135058   8.185   2.829   4.424
11705TIP3    H235059   8.171   2.714   4.520
11706TIP3   OH235060   3.393   2.672   3.273
11706TIP3    H135061   3.390   2.741   3.340
11706TIP3    H235062   3.302   2.659   3.248
11707TIP3   OH235063   4.077   5.049   5.694
11707TIP3    H135064   4.018   5.124   5.697
11707TIP3    H235065   4.031   4.985   5.639
11708TIP3   OH235066   3.471   5.808   1.411
11708TIP3    H135067   3.401   5.743   1.415
11708TIP3    H235068   3.436   5.877   1.355
11709TIP3   OH235069   3.365   4.802   4.385
11709TIP3    H135070   3.412   4.817   4.467
11709TIP3    H235071   3.323   4.886   4.366
11710TIP3   OH235072   2.408   2.098   4.631
11710TIP3    H135073   2.434   2.097   4.723
11710TIP3    H235074   2.330   2.044   4.628
11711TIP3   OH235075   5.076   1.556   6.587
11711TIP3    H135076   5.052   1.599   6.505
11711TIP3    H235077   5.058   1.463   6.572
11712TIP3   OH235078   5.997   6.118   5.949
11712TIP3    H135079   6.034   6.039   5.989
11712TIP3    H235080   5.966   6.170   6.023
11713TIP3   OH235081   1.313   3.043   1.728
11713TIP3    H135082   1.318   3.038   1.823
11713TIP3    H235083   1.388   2.993   1.697
11714TIP3   OH235084   5.454   3.691   4.359
11714TIP3    H135085   5.480   3.621   4.299
11714TIP3    H235086   5.536   3.726   4.392
11715TIP3   OH235087   2.724   6.226   2.013
11715TIP3    H135088   2.714   6.131   2.012
11715TIP3    H235089   2.761   6.247   1.927
11716TIP3   OH235090   3.193   4.123   3.236
11716TIP3    H135091   3.133   4.077   3.178
11716TIP3    H235092   3.246   4.054   3.275
11717TIP3   OH235093   6.239   1.855   0.864
11717TIP3    H135094   6.302   1.798   0.907
11717TIP3    H235095   6.291   1.928   0.831
11718TIP3   OH235096   5.426   6.911   5.523
11718TIP3    H135097   5.412   6.975   5.454
11718TIP3    H235098   5.479   6.842   5.483
11719TIP3   OH235099   1.166   2.808   1.858
11719TIP3    H135100   1.139   2.893   1.893
11719TIP3    H235101   1.136   2.809   1.767
11720TIP3   OH235102   2.494   4.528   3.470
11720TIP3    H135103   2.543   4.599   3.430
11720TIP3    H235104   2.512   4.452   3.414
11721TIP3   OH235105   5.567   2.145   6.661
11721TIP3    H135106   5.601   2.148   6.572
11721TIP3    H235107   5.516   2.064   6.665
11722TIP3   OH235108   4.002   5.129   6.744
11722TIP3    H135109   3.997   5.062   6.812
11722TIP3    H235110   3.934   5.105   6.682
11723TIP3   OH235111   5.111   3.120   5.629
11723TIP3    H135112   5.201   3.138   5.601
11723TIP3    H235113   5.105   3.025   5.632
11724TIP3   OH235114   3.215   0.608   0.240
11724TIP3    H135115   3.277   0.604   0.166
11724TIP3    H235116   3.233   0.692   0.282
11725TIP3   OH235117   8.005   7.191   3.224
11725TIP3    H135118   8.028   7.281   3.205
11725TIP3    H235119   7.914   7.182   3.195
11726TIP3   OH235120   2.623   0.215   0.904
11726TIP3    H135121   2.606   0.136   0.852
11726TIP3    H235122   2.589   0.287   0.850
11727TIP3   OH235123   2.004   7.707   2.043
11727TIP3    H135124   1.956   7.653   1.980
11727TIP3    H235125   2.091   7.667   2.048
11728TIP3   OH235126   3.696   4.264   0.160
11728TIP3    H135127   3.742   4.308   0.232
11728TIP3    H235128   3.728   4.174   0.162
11729TIP3   OH235129   7.704   6.302   3.530
11729TIP3    H135130   7.649   6.366   3.484
11729TIP3    H235131   7.761   6.266   3.462
11730TIP3   OH235132   3.532   3.313   3.014
11730TIP3    H135133   3.516   3.345   3.103
11730TIP3    H235134   3.523   3.390   2.958
11731TIP3   OH235135   8.193   6.622   3.989
11731TIP3    H135136   8.197   6.606   3.895
11731TIP3    H235137   8.102   6.603   4.013
11732TIP3   OH235138   1.694   2.879   4.829
11732TIP3    H135139   1.631   2.901   4.897
11732TIP3    H235140   1.772   2.930   4.852
11733TIP3   OH235141   3.019   2.019   3.236
11733TIP3    H135142   2.965   1.966   3.295
11733TIP3    H235143   3.108   1.989   3.252
11734TIP3   OH235144   4.343   2.378   5.561
11734TIP3    H135145   4.340   2.295   5.609
11734TIP3    H235146   4.252   2.399   5.544
11735TIP3   OH235147   6.032   0.055   1.528
11735TIP3    H135148   6.081   0.131   1.496
11735TIP3    H235149   6.062  -0.018   1.474
11736TIP3   OH235150   0.818   2.345   1.721
11736TIP3    H135151   0.863   2.263   1.698
11736TIP3    H235152   0.886   2.412   1.714
11737TIP3   OH235153   2.351   0.909   4.082
11737TIP3    H135154   2.353   0.999   4.050
11737TIP3    H235155   2.349   0.917   4.177
11738TIP3   OH235156   3.806   7.158   5.644
11738TIP3    H135157   3.711   7.152   5.630
11738TIP3    H235158   3.843   7.160   5.556
11739TIP3   OH235159   7.154   4.618   4.919
11739TIP3    H135160   7.075   4.574   4.949
11739TIP3    H235161   7.142   4.710   4.945
11740TIP3   OH235162   0.756   7.415   3.709
11740TIP3    H135163   0.820   7.394   3.777
11740TIP3    H235164   0.672   7.417   3.755
11741TIP3   OH235165   6.334   2.874   3.010
11741TIP3    H135166   6.406   2.810   3.010
11741TIP3    H235167   6.284   2.855   3.089
11742TIP3   OH235168   1.607   7.066   0.627
11742TIP3    H135169   1.606   7.102   0.716
11742TIP3    H235170   1.631   6.974   0.638
11743TIP3   OH235171   3.083   0.354   6.524
11743TIP3    H135172   3.096   0.449   6.519
11743TIP3    H235173   3.009   0.337   6.466
11744TIP3   OH235174   0.919   6.947   6.208
11744TIP3    H135175   0.959   6.861   6.195
11744TIP3    H235176   0.857   6.956   6.135
11745TIP3   OH235177   2.184   5.991   2.636
11745TIP3    H135178   2.234   5.911   2.619
11745TIP3    H235179   2.239   6.041   2.697
11746TIP3   OH235180   7.451   7.541   3.921
11746TIP3    H135181   7.364   7.529   3.883
11746TIP3    H235182   7.491   7.610   3.868
11747TIP3   OH235183   0.117   3.591   0.688
11747TIP3    H135184   0.148   3.599   0.597
11747TIP3    H235185   0.150   3.506   0.717
11748TIP3   OH235186   6.974   4.043   3.398
11748TIP3    H135187   7.062   4.077   3.385
11748TIP3    H235188   6.970   3.963   3.345
11749TIP3   OH235189   3.532   5.193   6.194
11749TIP3    H135190   3.488   5.234   6.268
11749TIP3    H235191   3.591   5.261   6.160
11750TIP3   OH235192   6.627   3.533   5.087
11750TIP3    H135193   6.642   3.438   5.082
11750TIP3    H235194   6.580   3.546   5.170
11751TIP3   OH235195   0.958   3.203   1.200
11751TIP3    H135196   0.918   3.200   1.287
11751TIP3    H235197   1.001   3.289   1.197
11752TIP3   OH235198   6.194   4.831   6.069
11752TIP3    H135199   6.192   4.888   5.992
11752TIP3    H235200   6.105   4.797   6.077
11753TIP3   OH235201   2.366   3.579   4.519
11753TIP3    H135202   2.458   3.573   4.493
11753TIP3    H235203   2.368   3.628   4.601
11754TIP3   OH235204   2.872   7.488   4.131
11754TIP3    H135205   2.791   7.439   4.120
11754TIP3    H235206   2.927   7.460   4.057
11755TIP3   OH235207   1.914   7.090   4.202
11755TIP3    H135208   1.903   7.000   4.173
11755TIP3    H235209   1.827   7.129   4.191
11756TIP3   OH235210   6.835   5.114   1.791
11756TIP3    H135211   6.902   5.091   1.727
11756TIP3    H235212   6.883   5.157   1.862
11757TIP3   OH235213   3.244   3.352   2.289
11757TIP3    H135214   3.280   3.285   2.346
11757TIP3    H235215   3.305   3.357   2.216
11758TIP3   OH235216   3.551   7.643   3.414
11758TIP3    H135217   3.578   7.582   3.482
11758TIP3    H235218   3.576   7.729   3.448
11759TIP3   OH235219   3.732   4.885   1.826
11759TIP3    H135220   3.826   4.877   1.808
11759TIP3    H235221   3.690   4.827   1.761
11760TIP3   OH235222   6.996   5.959   3.529
11760TIP3    H135223   7.031   5.889   3.584
11760TIP3    H235224   7.064   5.975   3.464
11761TIP3   OH235225   2.893   6.201   4.398
11761TIP3    H135226   2.840   6.122   4.411
11761TIP3    H235227   2.977   6.168   4.365
11762TIP3   OH235228   3.780   2.583   5.466
11762TIP3    H135229   3.776   2.657   5.405
11762TIP3    H235230   3.712   2.523   5.437
11763TIP3   OH235231   4.033   4.616   5.709
11763TIP3    H135232   4.015   4.678   5.780
11763TIP3    H235233   3.948   4.576   5.690
11764TIP3   OH235234   5.095   3.894   1.769
11764TIP3    H135235   5.022   3.844   1.805
11764TIP3    H235236   5.054   3.972   1.731
11765TIP3   OH235237   8.036   1.781   0.617
11765TIP3    H135238   8.091   1.790   0.694
11765TIP3    H235239   7.949   1.811   0.646
11766TIP3   OH235240   2.281   6.470   6.005
11766TIP3    H135241   2.358   6.413   6.004
11766TIP3    H235242   2.250   6.471   5.915
11767TIP3   OH235243   1.754   0.164   4.605
11767TIP3    H135244   1.732   0.136   4.694
11767TIP3    H235245   1.671   0.195   4.569
11768TIP3   OH235246   6.049   0.193   5.705
11768TIP3    H135247   6.019   0.196   5.614
11768TIP3    H235248   6.120   0.258   5.709
11769TIP3   OH235249   6.591   0.390   2.856
11769TIP3    H135250   6.498   0.408   2.873
11769TIP3    H235251   6.593   0.299   2.828
11770TIP3   OH235252   1.821   6.768   0.353
11770TIP3    H135253   1.893   6.706   0.359
11770TIP3    H235254   1.849   6.843   0.405
11771TIP3   OH235255   2.467   0.674   6.280
11771TIP3    H135256   2.544   0.622   6.300
11771TIP3    H235257   2.396   0.631   6.329
11772TIP3   OH235258   2.890   5.531   5.888
11772TIP3    H135259   2.956   5.528   5.957
11772TIP3    H235260   2.806   5.526   5.934
11773TIP3   OH235261   4.144   3.617   6.145
11773TIP3    H135262   4.074   3.580   6.091
11773TIP3    H235263   4.207   3.546   6.154
11774TIP3   OH235264   5.520   0.557   3.426
11774TIP3    H135265   5.495   0.509   3.504
11774TIP3    H235266   5.561   0.492   3.369
11775TIP3   OH235267   1.057   4.049   4.241
11775TIP3    H135268   1.130   4.088   4.191
11775TIP3    H235269   0.984   4.048   4.179
11776TIP3   OH235270   0.457   6.814   0.794
11776TIP3    H135271   0.371   6.849   0.815
11776TIP3    H235272   0.506   6.889   0.762
11777TIP3   OH235273   5.534   6.873   0.529
11777TIP3    H135274   5.506   6.782   0.538
11777TIP3    H235275   5.615   6.868   0.478
11778TIP3   OH235276   2.567   7.691   1.351
11778TIP3    H135277   2.621   7.762   1.317
11778TIP3    H235278   2.496   7.734   1.398
11779TIP3   OH235279   1.554   2.592   4.839
11779TIP3    H135280   1.537   2.544   4.759
11779TIP3    H235281   1.618   2.659   4.814
11780TIP3   OH235282   2.569   2.823   3.065
11780TIP3    H135283   2.506   2.769   3.112
11780TIP3    H235284   2.646   2.826   3.122
11781TIP3   OH235285   5.468   2.736   0.664
11781TIP3    H135286   5.486   2.829   0.674
11781TIP3    H235287   5.375   2.732   0.640
11782TIP3   OH235288   3.978   2.536   2.173
11782TIP3    H135289   3.928   2.574   2.244
11782TIP3    H235290   4.061   2.583   2.173
11783TIP3   OH235291   4.737   5.060   2.087
11783TIP3    H135292   4.800   5.040   2.156
11783TIP3    H235293   4.674   4.988   2.090
11784TIP3   OH235294   3.149   7.648   2.881
11784TIP3    H135295   3.108   7.578   2.931
11784TIP3    H235296   3.241   7.648   2.909
11785TIP3   OH235297   4.850   1.602   6.309
11785TIP3    H135298   4.893   1.569   6.231
11785TIP3    H235299   4.786   1.665   6.277
11786TIP3   OH235300   0.998   4.389   5.923
11786TIP3    H135301   0.987   4.358   5.833
11786TIP3    H235302   1.085   4.429   5.924
11787TIP3   OH235303   6.813   4.181   1.773
11787TIP3    H135304   6.870   4.237   1.826
11787TIP3    H235305   6.865   4.161   1.695
11788TIP3   OH235306   5.426   0.337   1.307
11788TIP3    H135307   5.450   0.398   1.377
11788TIP3    H235308   5.392   0.392   1.237
11789TIP3   OH235309   8.289   3.769   5.520
11789TIP3    H135310   8.221   3.791   5.583
11789TIP3    H235311   8.360   3.831   5.539
11790TIP3   OH235312   6.632   4.378   0.230
11790TIP3    H135313   6.582   4.301   0.258
11790TIP3    H235314   6.580   4.416   0.159
11791TIP3   OH235315   0.913   5.535   2.752
11791TIP3    H135316   0.941   5.606   2.810
11791TIP3    H235317   0.827   5.563   2.720
11792TIP3   OH235318   6.556   7.197   0.346
11792TIP3    H135319   6.473   7.185   0.392
11792TIP3    H235320   6.535   7.184   0.254
11793TIP3   OH235321   6.832   1.572   0.369
11793TIP3    H135322   6.797   1.660   0.351
11793TIP3    H235323   6.754   1.519   0.385
11794TIP3   OH235324   7.254   5.452   0.491
11794TIP3    H135325   7.344   5.481   0.474
11794TIP3    H235326   7.200   5.509   0.436
11795TIP3   OH235327   0.435   5.672   0.847
11795TIP3    H135328   0.475   5.590   0.877
11795TIP3    H235329   0.367   5.690   0.912
11796TIP3   OH235330   1.780   6.410   4.964
11796TIP3    H135331   1.761   6.401   5.057
11796TIP3    H235332   1.804   6.502   4.952
11797TIP3   OH235333   5.168   5.050   4.442
11797TIP3    H135334   5.115   4.971   4.445
11797TIP3    H235335   5.135   5.104   4.514
11798TIP3   OH235336   5.365   6.168   1.390
11798TIP3    H135337   5.396   6.202   1.474
11798TIP3    H235338   5.353   6.075   1.404
11799TIP3   OH235339   7.179   3.578   6.508
11799TIP3    H135340   7.225   3.650   6.465
11799TIP3    H235341   7.225   3.567   6.591
11800TIP3   OH235342   5.915   2.185   5.992
11800TIP3    H135343   5.976   2.122   6.030
11800TIP3    H235344   5.961   2.268   5.995
11801TIP3   OH235345   2.182   3.292   5.332
11801TIP3    H135346   2.137   3.289   5.248
11801TIP3    H235347   2.273   3.271   5.311
11802TIP3   OH235348   8.213   0.350   1.788
11802TIP3    H135349   8.237   0.442   1.801
11802TIP3    H235350   8.292   0.310   1.751
11803TIP3   OH235351   0.322   2.187   4.962
11803TIP3    H135352   0.352   2.120   5.023
11803TIP3    H235353   0.229   2.196   4.978
11804TIP3   OH235354   6.373   5.459   6.367
11804TIP3    H135355   6.434   5.387   6.385
11804TIP3    H235356   6.382   5.476   6.273
11805TIP3   OH235357   0.045   3.037   0.282
11805TIP3    H135358  -0.040   3.076   0.261
11805TIP3    H235359   0.025   2.947   0.305
11806TIP3   OH235360   4.410   4.949   1.358
11806TIP3    H135361   4.379   4.965   1.447
11806TIP3    H235362   4.494   4.995   1.352
11807TIP3   OH235363   5.993   2.086   3.555
11807TIP3    H135364   5.942   2.007   3.540
11807TIP3    H235365   5.965   2.116   3.642
11808TIP3   OH235366   3.185   0.156   4.789
11808TIP3    H135367   3.278   0.176   4.801
11808TIP3    H235368   3.147   0.166   4.876
11809TIP3   OH235369   1.669   2.715   1.811
11809TIP3    H135370   1.573   2.712   1.820
11809TIP3    H235371   1.687   2.805   1.783
11810TIP3   OH235372   4.668   5.634   5.780
11810TIP3    H135373   4.725   5.595   5.713
11810TIP3    H235374   4.679   5.728   5.770
11811TIP3   OH235375   5.254   2.399   5.198
11811TIP3    H135376   5.251   2.405   5.102
11811TIP3    H235377   5.347   2.390   5.219
11812TIP3   OH235378   5.744   2.625   0.630
11812TIP3    H135379   5.688   2.702   0.618
11812TIP3    H235380   5.688   2.551   0.609
11813TIP3   OH235381   5.603   6.982   4.717
11813TIP3    H135382   5.530   7.019   4.668
11813TIP3    H235383   5.569   6.972   4.806
11814TIP3   OH235384   1.826   3.506   1.532
11814TIP3    H135385   1.749   3.500   1.589
11814TIP3    H235386   1.812   3.584   1.479
11815TIP3   OH235387   7.947   4.593   2.166
11815TIP3    H135388   8.035   4.609   2.199
11815TIP3    H235389   7.898   4.562   2.242
11816TIP3   OH235390   2.254   2.175   0.301
11816TIP3    H135391   2.281   2.116   0.231
11816TIP3    H235392   2.286   2.133   0.381
11817TIP3   OH235393   4.213   6.924   2.849
11817TIP3    H135394   4.190   6.872   2.772
11817TIP3    H235395   4.298   6.963   2.826
11818TIP3   OH235396   3.032   1.521   5.458
11818TIP3    H135397   2.983   1.456   5.407
11818TIP3    H235398   3.047   1.593   5.397
11819TIP3   OH235399   8.102   0.490   2.923
11819TIP3    H135400   8.053   0.419   2.963
11819TIP3    H235401   8.040   0.562   2.918
11820TIP3   OH235402   6.828   4.405   3.023
11820TIP3    H135403   6.809   4.354   3.102
11820TIP3    H235404   6.855   4.341   2.958
11821TIP3   OH235405   5.982   5.315   4.447
11821TIP3    H135406   5.909   5.310   4.386
11821TIP3    H235407   6.043   5.378   4.407
11822TIP3   OH235408   0.181   0.281   4.885
11822TIP3    H135409   0.231   0.322   4.956
11822TIP3    H235410   0.094   0.322   4.891
11823TIP3   OH235411   4.456   1.888   0.412
11823TIP3    H135412   4.539   1.842   0.420
11823TIP3    H235413   4.419   1.856   0.330
11824TIP3   OH235414   2.178   3.970   1.695
11824TIP3    H135415   2.140   4.047   1.654
11824TIP3    H235416   2.199   3.998   1.784
11825TIP3   OH235417   0.356   2.700   3.710
11825TIP3    H135418   0.413   2.740   3.644
11825TIP3    H235419   0.355   2.762   3.782
11826TIP3   OH235420   5.094   7.490   1.006
11826TIP3    H135421   5.142   7.407   1.009
11826TIP3    H235422   5.106   7.528   1.093
11827TIP3   OH235423   0.242   3.178   3.439
11827TIP3    H135424   0.249   3.121   3.362
11827TIP3    H235425   0.164   3.232   3.421
11828TIP3   OH235426   1.628   6.783   6.005
11828TIP3    H135427   1.571   6.757   6.078
11828TIP3    H235428   1.706   6.819   6.048
11829TIP3   OH235429   7.544   3.147   2.656
11829TIP3    H135430   7.615   3.082   2.658
11829TIP3    H235431   7.553   3.189   2.571
11830TIP3   OH235432   4.489   6.030   2.344
11830TIP3    H135433   4.411   6.055   2.294
11830TIP3    H235434   4.530   6.113   2.367
11831TIP3   OH235435   7.532   7.084   6.590
11831TIP3    H135436   7.457   7.126   6.549
11831TIP3    H235437   7.586   7.157   6.623
11832TIP3   OH235438   0.127   6.243   2.257
11832TIP3    H135439   0.065   6.170   2.265
11832TIP3    H235440   0.084   6.315   2.303
11833TIP3   OH235441   1.458   7.617   6.019
11833TIP3    H135442   1.456   7.542   6.079
11833TIP3    H235443   1.366   7.634   6.000
11834TIP3   OH235444   3.283   0.575   0.865
11834TIP3    H135445   3.225   0.568   0.789
11834TIP3    H235446   3.371   0.584   0.829
11835TIP3   OH235447   2.861   2.765   4.931
11835TIP3    H135448   2.882   2.687   4.983
11835TIP3    H235449   2.941   2.783   4.882
11836TIP3   OH235450   0.353   5.338   2.477
11836TIP3    H135451   0.338   5.379   2.562
11836TIP3    H235452   0.383   5.249   2.499
11837TIP3   OH235453   6.426   7.238   1.914
11837TIP3    H135454   6.400   7.282   1.833
11837TIP3    H235455   6.344   7.209   1.953
11838TIP3   OH235456   6.250   7.041   2.466
11838TIP3    H135457   6.263   7.134   2.485
11838TIP3    H235458   6.156   7.034   2.446
11839TIP3   OH235459   2.381   3.374   2.621
11839TIP3    H135460   2.464   3.365   2.574
11839TIP3    H235461   2.399   3.339   2.708
11840TIP3   OH235462   6.346   7.499   3.865
11840TIP3    H135463   6.386   7.578   3.899
11840TIP3    H235464   6.259   7.496   3.907
11841TIP3   OH235465   5.315   4.895   4.704
11841TIP3    H135466   5.262   4.969   4.675
11841TIP3    H235467   5.403   4.931   4.716
11842TIP3   OH235468   5.662   3.718   3.521
11842TIP3    H135469   5.719   3.795   3.517
11842TIP3    H235470   5.718   3.645   3.493
11843TIP3   OH235471   0.617   0.689   4.576
11843TIP3    H135472   0.525   0.693   4.551
11843TIP3    H235473   0.656   0.767   4.537
11844TIP3   OH235474   0.861   4.226   5.393
11844TIP3    H135475   0.930   4.236   5.328
11844TIP3    H235476   0.829   4.137   5.380
11845TIP3   OH235477   4.038   1.732   2.791
11845TIP3    H135478   3.952   1.771   2.807
11845TIP3    H235479   4.036   1.649   2.837
11846TIP3   OH235480   2.755   1.826   3.959
11846TIP3    H135481   2.713   1.883   4.023
11846TIP3    H235482   2.848   1.846   3.965
11847TIP3   OH235483   2.675   3.141   5.250
11847TIP3    H135484   2.712   3.210   5.195
11847TIP3    H235485   2.718   3.061   5.219
11848TIP3   OH235486   4.791   1.728   0.626
11848TIP3    H135487   4.745   1.738   0.709
11848TIP3    H235488   4.881   1.707   0.651
11849TIP3   OH235489   6.740   4.749   0.808
11849TIP3    H135490   6.790   4.801   0.871
11849TIP3    H235491   6.732   4.805   0.731
11850TIP3   OH235492   7.616   2.149   3.692
11850TIP3    H135493   7.632   2.130   3.600
11850TIP3    H235494   7.690   2.108   3.738
11851TIP3   OH235495   2.908   7.038   0.020
11851TIP3    H135496   2.859   6.983  -0.041
11851TIP3    H235497   2.986   6.987   0.041
11852TIP3   OH235498   4.304   3.151   2.831
11852TIP3    H135499   4.232   3.133   2.771
11852TIP3    H235500   4.311   3.073   2.886
11853TIP3   OH235501   7.170   6.785   0.526
11853TIP3    H135502   7.192   6.866   0.572
11853TIP3    H235503   7.248   6.764   0.475
11854TIP3   OH235504   2.098   3.989   4.444
11854TIP3    H135505   2.157   3.952   4.379
11854TIP3    H235506   2.025   3.928   4.448
11855TIP3   OH235507   8.025   2.936   0.844
11855TIP3    H135508   7.942   2.905   0.806
11855TIP3    H235509   8.045   3.015   0.795
11856TIP3   OH235510   2.667   3.602   2.101
11856TIP3    H135511   2.721   3.525   2.120
11856TIP3    H235512   2.638   3.589   2.011
11857TIP3   OH235513   8.266   1.281   6.170
11857TIP3    H135514   8.212   1.268   6.248
11857TIP3    H235515   8.274   1.194   6.131
11858TIP3   OH235516   8.316   7.358   3.980
11858TIP3    H135517   8.244   7.415   3.951
11858TIP3    H235518   8.372   7.415   4.032
11859TIP3   OH235519   6.054   0.074   4.955
11859TIP3    H135520   6.060   0.150   4.898
11859TIP3    H235521   6.007   0.105   5.032
11860TIP3   OH235522   6.296   0.202   1.953
11860TIP3    H135523   6.223   0.230   1.898
11860TIP3    H235524   6.338   0.132   1.903
11861TIP3   OH235525   3.253   2.346   5.344
11861TIP3    H135526   3.315   2.418   5.354
11861TIP3    H235527   3.175   2.387   5.306
11862TIP3   OH235528   3.154   3.850   5.167
11862TIP3    H135529   3.083   3.824   5.225
11862TIP3    H235530   3.168   3.943   5.186
11863TIP3   OH235531   3.397   2.784   1.421
11863TIP3    H135532   3.485   2.769   1.455
11863TIP3    H235533   3.399   2.875   1.390
11864TIP3   OH235534   7.228   6.592   1.323
11864TIP3    H135535   7.270   6.674   1.350
11864TIP3    H235536   7.134   6.610   1.328
11865TIP3   OH235537   4.002   0.358   1.959
11865TIP3    H135538   3.930   0.296   1.954
11865TIP3    H235539   3.961   0.442   1.982
11866TIP3   OH235540   7.580   1.713   0.056
11866TIP3    H135541   7.578   1.637   0.114
11866TIP3    H235542   7.671   1.718   0.026
11867TIP3   OH235543   4.703   5.437   0.940
11867TIP3    H135544   4.742   5.349   0.938
11867TIP3    H235545   4.643   5.434   1.015
11868TIP3   OH235546   3.615   0.340   4.543
11868TIP3    H135547   3.631   0.267   4.603
11868TIP3    H235548   3.537   0.315   4.494
11869TIP3   OH235549   5.818   2.846   5.803
11869TIP3    H135550   5.833   2.937   5.827
11869TIP3    H235551   5.726   2.830   5.825
11870TIP3   OH235552   3.051   4.492   3.687
11870TIP3    H135553   3.033   4.584   3.709
11870TIP3    H235554   2.968   4.459   3.652
11871TIP3   OH235555   0.787   4.888   2.338
11871TIP3    H135556   0.809   4.971   2.294
11871TIP3    H235557   0.780   4.825   2.267
11872TIP3   OH235558   2.263   4.579   4.422
11872TIP3    H135559   2.313   4.497   4.412
11872TIP3    H235560   2.304   4.622   4.497
11873TIP3   OH235561   4.394   2.138   2.912
11873TIP3    H135562   4.481   2.122   2.949
11873TIP3    H235563   4.339   2.069   2.951
11874TIP3   OH235564   3.177   4.263   2.637
11874TIP3    H135565   3.114   4.315   2.587
11874TIP3    H235566   3.207   4.322   2.705
11875TIP3   OH235567   2.052   5.968   0.985
11875TIP3    H135568   2.047   5.876   1.013
11875TIP3    H235569   2.080   5.963   0.894
11876TIP3   OH235570   7.593   3.770   5.101
11876TIP3    H135571   7.665   3.832   5.103
11876TIP3    H235572   7.516   3.822   5.124
11877TIP3   OH235573   6.046   4.718   0.252
11877TIP3    H135574   6.132   4.703   0.290
11877TIP3    H235575   6.041   4.657   0.178
11878TIP3   OH235576   7.001   5.495   4.824
11878TIP3    H135577   7.063   5.567   4.836
11878TIP3    H235578   6.992   5.487   4.729
11879TIP3   OH235579   1.611   3.274   6.425
11879TIP3    H135580   1.604   3.351   6.369
11879TIP3    H235581   1.623   3.310   6.513
11880TIP3   OH235582   2.020   2.038   0.480
11880TIP3    H135583   2.019   1.965   0.543
11880TIP3    H235584   2.005   2.115   0.534
11881TIP3   OH235585   1.234   4.686   0.957
11881TIP3    H135586   1.186   4.768   0.964
11881TIP3    H235587   1.239   4.652   1.046
11882TIP3   OH235588   3.502   2.119   5.485
11882TIP3    H135589   3.543   2.148   5.567
11882TIP3    H235590   3.413   2.154   5.490
11883TIP3   OH235591   3.931   6.655   2.949
11883TIP3    H135592   3.927   6.703   2.866
11883TIP3    H235593   3.963   6.568   2.924
11884TIP3   OH235594   1.609   2.500   2.184
11884TIP3    H135595   1.652   2.577   2.221
11884TIP3    H235596   1.620   2.432   2.251
11885TIP3   OH235597   7.308   6.639   5.173
11885TIP3    H135598   7.374   6.699   5.140
11885TIP3    H235599   7.271   6.683   5.249
11886TIP3   OH235600   5.150   4.886   2.086
11886TIP3    H135601   5.097   4.912   2.011
11886TIP3    H235602   5.219   4.831   2.048
11887TIP3   OH235603   3.563   0.531   3.889
11887TIP3    H135604   3.630   0.499   3.949
11887TIP3    H235605   3.608   0.596   3.834
11888TIP3   OH235606   2.454   3.052   1.150
11888TIP3    H135607   2.538   3.085   1.183
11888TIP3    H235608   2.389   3.110   1.191
11889TIP3   OH235609   5.625   6.284   3.954
11889TIP3    H135610   5.559   6.216   3.966
11889TIP3    H235611   5.610   6.344   4.027
11890TIP3   OH235612   4.932   7.148   6.358
11890TIP3    H135613   4.891   7.190   6.282
11890TIP3    H235614   4.907   7.056   6.351
11891TIP3   OH235615   2.239   3.033   3.085
11891TIP3    H135616   2.243   3.129   3.080
11891TIP3    H235617   2.286   3.012   3.166
11892TIP3   OH235618   2.752   7.427   4.752
11892TIP3    H135619   2.724   7.506   4.798
11892TIP3    H235620   2.721   7.438   4.662
11893TIP3   OH235621   2.442   4.155   6.057
11893TIP3    H135622   2.444   4.249   6.038
11893TIP3    H235623   2.383   4.147   6.132
11894TIP3   OH235624   5.970   0.300   3.857
11894TIP3    H135625   6.023   0.379   3.844
11894TIP3    H235626   6.031   0.228   3.843
11895TIP3   OH235627   6.841   7.796   5.053
11895TIP3    H135628   6.791   7.877   5.043
11895TIP3    H235629   6.923   7.824   5.094
11896TIP3   OH235630   7.266   7.156   6.406
11896TIP3    H135631   7.246   7.195   6.321
11896TIP3    H235632   7.279   7.232   6.464
11897TIP3   OH235633   3.160   4.004   4.769
11897TIP3    H135634   3.129   3.917   4.792
11897TIP3    H235635   3.221   4.027   4.838
11898TIP3   OH235636   2.628   5.981   3.038
11898TIP3    H135637   2.558   5.941   2.987
11898TIP3    H235638   2.691   5.910   3.052
11899TIP3   OH235639   6.075   4.796   0.918
11899TIP3    H135640   6.008   4.780   0.852
11899TIP3    H235641   6.090   4.710   0.957
11900TIP3   OH235642   4.535   3.752   3.912
11900TIP3    H135643   4.563   3.749   4.003
11900TIP3    H235644   4.554   3.841   3.884
11901TIP3   OH235645   6.867   2.519   2.973
11901TIP3    H135646   6.941   2.566   3.012
11901TIP3    H235647   6.870   2.542   2.881
11902TIP3   OH235648   7.142   3.398   3.772
11902TIP3    H135649   7.196   3.415   3.695
11902TIP3    H235650   7.148   3.303   3.785
11903TIP3   OH235651   6.275   1.453   6.066
11903TIP3    H135652   6.243   1.537   6.097
11903TIP3    H235653   6.200   1.394   6.073
11904TIP3   OH235654   6.597   2.072   0.567
11904TIP3    H135655   6.661   2.131   0.529
11904TIP3    H235656   6.646   2.021   0.631
11905TIP3   OH235657   8.197   6.341   5.080
11905TIP3    H135658   8.243   6.257   5.088
11905TIP3    H235659   8.254   6.394   5.024
11906TIP3   OH235660   1.098   2.215   1.316
11906TIP3    H135661   1.131   2.283   1.374
11906TIP3    H235662   1.137   2.134   1.350
11907TIP3   OH235663   0.867   0.222   4.306
11907TIP3    H135664   0.955   0.255   4.324
11907TIP3    H235665   0.821   0.296   4.265
11908TIP3   OH235666   4.854   3.205   0.649
11908TIP3    H135667   4.897   3.260   0.714
11908TIP3    H235668   4.880   3.116   0.672
11909TIP3   OH235669   3.058   5.801   0.850
11909TIP3    H135670   2.984   5.772   0.902
11909TIP3    H235671   3.127   5.819   0.914
11910TIP3   OH235672   5.730   1.895   4.117
11910TIP3    H135673   5.710   1.804   4.094
11910TIP3    H235674   5.666   1.917   4.185
11911TIP3   OH235675   4.355   6.729   6.298
11911TIP3    H135676   4.378   6.659   6.237
11911TIP3    H235677   4.291   6.782   6.251
11912TIP3   OH235678   1.486   5.834   3.314
11912TIP3    H135679   1.413   5.888   3.284
11912TIP3    H235680   1.451   5.745   3.317
11913TIP3   OH235681   5.194   2.102   2.907
11913TIP3    H135682   5.164   2.014   2.928
11913TIP3    H235683   5.244   2.130   2.984
11914TIP3   OH235684   6.666   0.901   1.058
11914TIP3    H135685   6.674   0.807   1.074
11914TIP3    H235686   6.606   0.908   0.984
11915TIP3   OH235687   3.877   3.367   3.782
11915TIP3    H135688   3.810   3.397   3.843
11915TIP3    H235689   3.919   3.293   3.827
11916TIP3   OH235690   0.651   0.507   3.624
11916TIP3    H135691   0.736   0.496   3.581
11916TIP3    H235692   0.599   0.433   3.594
11917TIP3   OH235693   0.342   3.181   6.390
11917TIP3    H135694   0.375   3.108   6.443
11917TIP3    H235695   0.249   3.186   6.412
11918TIP3   OH235696   4.730   1.606   2.114
11918TIP3    H135697   4.668   1.555   2.063
11918TIP3    H235698   4.811   1.602   2.064
11919TIP3   OH235699   4.796   3.164   3.322
11919TIP3    H135700   4.791   3.135   3.413
11919TIP3    H235701   4.793   3.259   3.326
11920TIP3   OH235702   7.153   1.716   3.960
11920TIP3    H135703   7.177   1.776   3.889
11920TIP3    H235704   7.060   1.733   3.975
11921TIP3   OH235705   2.481   3.827   3.315
11921TIP3    H135706   2.388   3.844   3.301
11921TIP3    H235707   2.516   3.911   3.346
11922TIP3   OH235708   7.321   1.099   0.009
11922TIP3    H135709   7.316   1.023  -0.049
11922TIP3    H235710   7.340   1.062   0.095
11923TIP3   OH235711   7.341   6.010   4.840
11923TIP3    H135712   7.362   6.048   4.925
11923TIP3    H235713   7.410   5.946   4.824
11924TIP3   OH235714   4.379   6.247   1.051
11924TIP3    H135715   4.416   6.278   1.134
11924TIP3    H235716   4.374   6.152   1.060
11925TIP3   OH235717   0.473   1.956   2.144
11925TIP3    H135718   0.397   1.933   2.197
11925TIP3    H235719   0.463   2.049   2.126
11926TIP3   OH235720   1.309   1.994   3.437
11926TIP3    H135721   1.254   2.072   3.441
11926TIP3    H235722   1.392   2.024   3.400
11927TIP3   OH235723   5.354   3.010   5.876
11927TIP3    H135724   5.278   2.957   5.900
11927TIP3    H235725   5.412   2.948   5.831
11928TIP3   OH235726   3.064   5.087   0.909
11928TIP3    H135727   3.093   5.068   0.998
11928TIP3    H235728   3.044   5.002   0.871
11929TIP3   OH235729   7.897   6.725   5.460
11929TIP3    H135730   7.865   6.718   5.370
11929TIP3    H235731   7.978   6.674   5.461
11930TIP3   OH235732   7.768   5.556   5.788
11930TIP3    H135733   7.855   5.563   5.828
11930TIP3    H235734   7.707   5.575   5.859
11931TIP3   OH235735   3.996   5.444   2.366
11931TIP3    H135736   3.927   5.511   2.372
11931TIP3    H235737   3.980   5.401   2.282
11932TIP3   OH235738   6.459   7.683   6.290
11932TIP3    H135739   6.459   7.612   6.225
11932TIP3    H235740   6.435   7.640   6.372
11933TIP3   OH235741   1.419   5.655   3.609
11933TIP3    H135742   1.486   5.595   3.574
11933TIP3    H235743   1.340   5.601   3.616
11934TIP3   OH235744   1.054   0.670   3.950
11934TIP3    H135745   0.962   0.669   3.922
11934TIP3    H235746   1.087   0.754   3.921
11935TIP3   OH235747   4.262   0.230   2.422
11935TIP3    H135748   4.171   0.220   2.451
11935TIP3    H235749   4.279   0.153   2.368
11936TIP3   OH235750   0.788   6.835   2.792
11936TIP3    H135751   0.726   6.895   2.750
11936TIP3    H235752   0.732   6.768   2.832
11937TIP3   OH235753   8.259   1.509   2.489
11937TIP3    H135754   8.185   1.553   2.532
11937TIP3    H235755   8.217   1.446   2.430
11938TIP3   OH235756   7.494   0.930   6.247
11938TIP3    H135757   7.462   0.971   6.327
11938TIP3    H235758   7.425   0.869   6.222
11939TIP3   OH235759   5.534   3.715   6.483
11939TIP3    H135760   5.439   3.716   6.472
11939TIP3    H235761   5.563   3.644   6.426
11940TIP3   OH235762   6.206   5.056   5.919
11940TIP3    H135763   6.252   5.113   5.857
11940TIP3    H235764   6.115   5.086   5.915
11941TIP3   OH235765   3.047   6.542   4.559
11941TIP3    H135766   3.110   6.511   4.494
11941TIP3    H235767   2.999   6.613   4.514
11942TIP3   OH235768   3.048   7.215   1.554
11942TIP3    H135769   3.033   7.227   1.648
11942TIP3    H235770   3.116   7.148   1.549
11943TIP3   OH235771   6.324   1.860   5.631
11943TIP3    H135772   6.399   1.866   5.690
11943TIP3    H235773   6.349   1.797   5.564
11944TIP3   OH235774   6.164   5.817   1.501
11944TIP3    H135775   6.077   5.779   1.493
11944TIP3    H235776   6.185   5.847   1.412
11945TIP3   OH235777   3.202   6.975   6.096
11945TIP3    H135778   3.245   6.895   6.067
11945TIP3    H235779   3.150   7.003   6.021
11946TIP3   OH235780   3.761   4.455   3.477
11946TIP3    H135781   3.774   4.362   3.458
11946TIP3    H235782   3.836   4.478   3.532
11947TIP3   OH235783   0.734   3.992   5.314
11947TIP3    H135784   0.775   3.906   5.324
11947TIP3    H235785   0.771   4.026   5.232
11948TIP3   OH235786   1.749   5.012   3.173
11948TIP3    H135787   1.813   4.953   3.133
11948TIP3    H235788   1.798   5.093   3.189
11949TIP3   OH235789   3.572   1.391   2.375
11949TIP3    H135790   3.598   1.393   2.467
11949TIP3    H235791   3.531   1.476   2.359
11950TIP3   OH235792   4.257   2.724   2.249
11950TIP3    H135793   4.316   2.798   2.236
11950TIP3    H235794   4.311   2.647   2.234
11951TIP3   OH235795   6.711   0.602   5.095
11951TIP3    H135796   6.670   0.678   5.135
11951TIP3    H235797   6.638   0.548   5.065
11952TIP3   OH235798   2.678   6.050   3.293
11952TIP3    H135799   2.671   5.967   3.339
11952TIP3    H235800   2.660   6.029   3.201
11953TIP3   OH235801   1.522   2.174   3.405
11953TIP3    H135802   1.565   2.156   3.321
11953TIP3    H235803   1.467   2.250   3.388
11954TIP3   OH235804   0.064   2.686   3.266
11954TIP3    H135805   0.096   2.597   3.278
11954TIP3    H235806   0.125   2.726   3.204
11955TIP3   OH235807   6.377   1.064   5.671
11955TIP3    H135808   6.434   1.025   5.605
11955TIP3    H235809   6.417   1.149   5.690
11956TIP3   OH235810   7.948   4.806   4.375
11956TIP3    H135811   8.042   4.799   4.385
11956TIP3    H235812   7.917   4.840   4.459
11957TIP3   OH235813   2.224   7.549   1.856
11957TIP3    H135814   2.180   7.481   1.907
11957TIP3    H235815   2.181   7.546   1.771
11958TIP3   OH235816   3.114   1.402   4.004
11958TIP3    H135817   3.029   1.444   3.998
11958TIP3    H235818   3.108   1.349   4.084
11959TIP3   OH235819   3.446   3.992   6.134
11959TIP3    H135820   3.532   4.033   6.122
11959TIP3    H235821   3.395   4.058   6.181
11960TIP3   OH235822   7.235   0.467   4.775
11960TIP3    H135823   7.175   0.409   4.823
11960TIP3    H235824   7.305   0.485   4.837
11961TIP3   OH235825   6.418   6.902   1.115
11961TIP3    H135826   6.510   6.899   1.142
11961TIP3    H235827   6.407   6.989   1.077
11962TIP3   OH235828   6.426   2.692   5.334
11962TIP3    H135829   6.416   2.649   5.420
11962TIP3    H235830   6.510   2.737   5.339
11963TIP3   OH235831   3.295   3.994   5.871
11963TIP3    H135832   3.326   4.065   5.815
11963TIP3    H235833   3.232   4.036   5.930
11964TIP3   OH235834   2.286   7.600   4.807
11964TIP3    H135835   2.224   7.600   4.733
11964TIP3    H235836   2.259   7.674   4.861
11965TIP3   OH235837   8.212   4.896   4.112
11965TIP3    H135838   8.177   4.826   4.167
11965TIP3    H235839   8.218   4.971   4.171
11966TIP3   OH235840   0.861   1.412   2.600
11966TIP3    H135841   0.928   1.471   2.634
11966TIP3    H235842   0.898   1.325   2.612
11967TIP3   OH235843   7.771   0.362   0.258
11967TIP3    H135844   7.820   0.292   0.216
11967TIP3    H235845   7.679   0.340   0.245
11968TIP3   OH235846   2.733   5.079   3.785
11968TIP3    H135847   2.662   5.140   3.767
11968TIP3    H235848   2.789   5.126   3.848
11969TIP3   OH235849   3.850   5.090   2.854
11969TIP3    H135850   3.808   5.071   2.937
11969TIP3    H235851   3.941   5.062   2.865
11970TIP3   OH235852   2.509   4.952   2.989
11970TIP3    H135853   2.522   4.888   2.919
11970TIP3    H235854   2.479   5.031   2.943
11971TIP3   OH235855   6.468   5.481   5.319
11971TIP3    H135856   6.555   5.519   5.305
11971TIP3    H235857   6.476   5.391   5.287
11972TIP3   OH235858   4.576   0.067   5.669
11972TIP3    H135859   4.666   0.056   5.700
11972TIP3    H235860   4.573   0.157   5.636
11973TIP3   OH235861   1.762   4.231   3.441
11973TIP3    H135862   1.674   4.200   3.421
11973TIP3    H235863   1.771   4.311   3.389
11974TIP3   OH235864   3.492   6.322   5.300
11974TIP3    H135865   3.548   6.245   5.307
11974TIP3    H235866   3.441   6.322   5.381
11975TIP3   OH235867   5.754   7.637   0.128
11975TIP3    H135868   5.845   7.665   0.134
11975TIP3    H235869   5.755   7.561   0.070
11976TIP3   OH235870   1.148   5.477   2.044
11976TIP3    H135871   1.068   5.434   2.015
11976TIP3    H235872   1.192   5.503   1.963
11977TIP3   OH235873   3.922   3.438   2.859
11977TIP3    H135874   3.879   3.484   2.932
11977TIP3    H235875   3.985   3.380   2.902
11978TIP3   OH235876   7.356   2.531   0.727
11978TIP3    H135877   7.377   2.604   0.669
11978TIP3    H235878   7.438   2.485   0.740
11979TIP3   OH235879   0.883   2.900   2.919
11979TIP3    H135880   0.877   2.950   2.837
11979TIP3    H235881   0.914   2.964   2.983
11980TIP3   OH235882   2.009   4.278   3.056
11980TIP3    H135883   2.081   4.319   3.008
11980TIP3    H235884   2.024   4.303   3.147
11981TIP3   OH235885   3.009   4.073   1.640
11981TIP3    H135886   2.947   4.000   1.639
11981TIP3    H235887   3.032   4.084   1.732
11982TIP3   OH235888   8.122   0.770   1.105
11982TIP3    H135889   8.204   0.753   1.151
11982TIP3    H235890   8.054   0.739   1.164
11983TIP3   OH235891   3.347   2.093   5.203
11983TIP3    H135892   3.285   2.091   5.130
11983TIP3    H235893   3.331   2.176   5.246
11984TIP3   OH235894   2.976   6.338   2.208
11984TIP3    H135895   2.915   6.269   2.183
11984TIP3    H235896   3.009   6.312   2.294
11985TIP3   OH235897   3.075   2.594   2.654
11985TIP3    H135898   3.171   2.600   2.652
11985TIP3    H235899   3.056   2.501   2.644
11986TIP3   OH235900   0.640   6.078   5.886
11986TIP3    H135901   0.642   6.066   5.791
11986TIP3    H235902   0.711   6.140   5.904
11987TIP3   OH235903   1.686   2.285   2.870
11987TIP3    H135904   1.731   2.293   2.953
11987TIP3    H235905   1.593   2.294   2.891
11988TIP3   OH235906   2.556   0.233   4.513
11988TIP3    H135907   2.519   0.214   4.426
11988TIP3    H235908   2.524   0.320   4.534
11989TIP3   OH235909   2.109   7.421   6.188
11989TIP3    H135910   2.123   7.326   6.193
11989TIP3    H235911   2.149   7.446   6.104
11990TIP3   OH235912   3.954   0.295   4.977
11990TIP3    H135913   3.918   0.363   4.921
11990TIP3    H235914   4.049   0.305   4.968
11991TIP3   OH235915   2.067   6.418   3.162
11991TIP3    H135916   2.073   6.484   3.231
11991TIP3    H235917   2.037   6.339   3.207
11992TIP3   OH235918   2.656   7.279   3.030
11992TIP3    H135919   2.630   7.371   3.020
11992TIP3    H235920   2.638   7.240   2.944
11993TIP3   OH235921   7.601   2.794   1.303
11993TIP3    H135922   7.571   2.714   1.260
11993TIP3    H235923   7.547   2.800   1.382
11994TIP3   OH235924   1.239   3.094   1.111
11994TIP3    H135925   1.293   3.125   1.184
11994TIP3    H235926   1.273   3.141   1.035
11995TIP3   OH235927   3.114   6.625   2.585
11995TIP3    H135928   3.034   6.679   2.588
11995TIP3    H235929   3.185   6.689   2.585
11996TIP3   OH235930   7.257   0.308   6.747
11996TIP3    H135931   7.317   0.236   6.729
11996TIP3    H235932   7.174   0.281   6.706
11997TIP3   OH235933   0.351   0.927   0.194
11997TIP3    H135934   0.309   0.935   0.109
11997TIP3    H235935   0.432   0.879   0.178
11998TIP3   OH235936   2.315   5.799   5.689
11998TIP3    H135937   2.357   5.735   5.632
11998TIP3    H235938   2.372   5.804   5.766
11999TIP3   OH235939   6.473   7.557   0.142
11999TIP3    H135940   6.420   7.615   0.087
11999TIP3    H235941   6.411   7.517   0.203
12000TIP3   OH235942   8.082   1.838   4.035
12000TIP3    H135943   8.043   1.781   4.102
12000TIP3    H235944   8.172   1.851   4.064
12001TIP3   OH235945   8.265   5.652   4.097
12001TIP3    H135946   8.194   5.699   4.141
12001TIP3    H235947   8.251   5.560   4.120
12002TIP3   OH235948   0.944   0.432   0.236
12002TIP3    H135949   0.960   0.459   0.326
12002TIP3    H235950   1.024   0.456   0.189
12003TIP3   OH235951   8.083   7.378   5.511
12003TIP3    H135952   8.068   7.288   5.480
12003TIP3    H235953   8.178   7.389   5.506
12004TIP3   OH235954   5.889   1.440   4.245
12004TIP3    H135955   5.819   1.426   4.180
12004TIP3    H235956   5.943   1.361   4.239
12005TIP3   OH235957   2.510   1.555   4.038
12005TIP3    H135958   2.484   1.647   4.028
12005TIP3    H235959   2.593   1.559   4.087
12006TIP3   OH235960   1.436   5.132   1.924
12006TIP3    H135961   1.427   5.149   2.018
12006TIP3    H235962   1.458   5.039   1.919
12007TIP3   OH235963   2.020   1.205   4.498
12007TIP3    H135964   2.043   1.295   4.520
12007TIP3    H235965   1.930   1.210   4.466
12008TIP3   OH235966   6.504   5.858   5.159
12008TIP3    H135967   6.580   5.908   5.189
12008TIP3    H235968   6.542   5.787   5.106
12009TIP3   OH235969   3.545   1.682   5.605
12009TIP3    H135970   3.547   1.590   5.578
12009TIP3    H235971   3.458   1.713   5.577
12010TIP3   OH235972   0.638   2.468   0.360
12010TIP3    H135973   0.691   2.548   0.362
12010TIP3    H235974   0.695   2.403   0.319
12011TIP3   OH235975   6.457   4.436   2.820
12011TIP3    H135976   6.484   4.447   2.911
12011TIP3    H235977   6.362   4.450   2.822
12012TIP3   OH235978   2.811   5.621   6.219
12012TIP3    H135979   2.728   5.662   6.240
12012TIP3    H235980   2.789   5.530   6.199
12013TIP3   OH235981   6.541   6.576   5.605
12013TIP3    H135982   6.452   6.590   5.573
12013TIP3    H235983   6.585   6.659   5.592
12014TIP3   OH235984   3.490   1.136   4.432
12014TIP3    H135985   3.405   1.113   4.395
12014TIP3    H235986   3.547   1.144   4.356
12015TIP3   OH235987   2.712   5.450   5.511
12015TIP3    H135988   2.755   5.536   5.509
12015TIP3    H235989   2.782   5.389   5.535
12016TIP3   OH235990   6.461   1.091   3.018
12016TIP3    H135991   6.430   1.065   2.932
12016TIP3    H235992   6.385   1.132   3.060
12017TIP3   OH235993   7.597   1.391   1.649
12017TIP3    H135994   7.642   1.308   1.634
12017TIP3    H235995   7.588   1.429   1.562
12018TIP3   OH235996   3.675   7.244   4.874
12018TIP3    H135997   3.584   7.271   4.860
12018TIP3    H235998   3.680   7.229   4.969
12019TIP3   OH235999   3.839   2.107   0.390
12019TIP3    H136000   3.783   2.174   0.428
12019TIP3    H236001   3.830   2.031   0.448
12020TIP3   OH236002   4.429   4.664   2.169
12020TIP3    H136003   4.524   4.674   2.180
12020TIP3    H236004   4.417   4.570   2.154
12021TIP3   OH236005   5.453   5.421   2.669
12021TIP3    H136006   5.433   5.515   2.677
12021TIP3    H236007   5.545   5.418   2.645
12022TIP3   OH236008   2.682   5.272   0.838
12022TIP3    H136009   2.708   5.301   0.925
12022TIP3    H236010   2.752   5.304   0.781
12023TIP3   OH236011   2.797   4.643   0.866
12023TIP3    H136012   2.722   4.596   0.902
12023TIP3    H236013   2.778   4.649   0.772
12024TIP3   OH236014   7.354   7.317   5.724
12024TIP3    H136015   7.326   7.325   5.815
12024TIP3    H236016   7.273   7.324   5.673
12025TIP3   OH236017   0.546   5.583   5.799
12025TIP3    H136018   0.605   5.645   5.842
12025TIP3    H236019   0.586   5.497   5.816
12026TIP3   OH236020   2.798   4.631   2.201
12026TIP3    H136021   2.872   4.670   2.248
12026TIP3    H236022   2.837   4.589   2.125
12027TIP3   OH236023   5.055   6.564   2.396
12027TIP3    H136024   5.034   6.580   2.304
12027TIP3    H236025   5.031   6.646   2.440
12028TIP3   OH236026   0.423   1.152   1.084
12028TIP3    H136027   0.333   1.185   1.077
12028TIP3    H236028   0.476   1.231   1.096
12029TIP3   OH236029   3.455   6.853   3.238
12029TIP3    H136030   3.550   6.847   3.250
12029TIP3    H236031   3.438   6.807   3.156
12030TIP3   OH236032   4.210   7.245   3.468
12030TIP3    H136033   4.170   7.170   3.512
12030TIP3    H236034   4.194   7.319   3.527
12031TIP3   OH236035   6.130   4.972   0.479
12031TIP3    H136036   6.092   4.961   0.392
12031TIP3    H236037   6.214   5.015   0.462
12032TIP3   OH236038   4.555   4.584   2.503
12032TIP3    H136039   4.553   4.679   2.493
12032TIP3    H236040   4.635   4.557   2.458
12033TIP3   OH236041   7.718   2.400   0.655
12033TIP3    H136042   7.630   2.377   0.625
12033TIP3    H236043   7.761   2.316   0.671
12034TIP3   OH236044   6.861   1.313   1.712
12034TIP3    H136045   6.841   1.404   1.737
12034TIP3    H236046   6.817   1.260   1.779
12035TIP3   OH236047   3.706   0.712   5.385
12035TIP3    H136048   3.622   0.694   5.343
12035TIP3    H236049   3.683   0.743   5.473
12036TIP3   OH236050   7.877   1.623   3.728
12036TIP3    H136051   7.931   1.592   3.802
12036TIP3    H236052   7.864   1.545   3.674
12037TIP3   OH236053   6.059   3.721   1.065
12037TIP3    H136054   6.088   3.794   1.121
12037TIP3    H236055   6.117   3.649   1.089
12038TIP3   OH236056   3.196   6.962   1.712
12038TIP3    H136057   3.245   6.889   1.749
12038TIP3    H236058   3.128   6.921   1.658
12039TIP3   OH236059   5.281   0.262   0.678
12039TIP3    H136060   5.229   0.290   0.603
12039TIP3    H236061   5.240   0.305   0.754
12040TIP3   OH236062   0.706   3.837   5.695
12040TIP3    H136063   0.636   3.867   5.636
12040TIP3    H236064   0.661   3.793   5.766
12041TIP3   OH236065   2.121   5.250   4.058
12041TIP3    H136066   2.070   5.292   4.127
12041TIP3    H236067   2.061   5.185   4.020
12042TIP3   OH236068   7.528   1.741   2.679
12042TIP3    H136069   7.442   1.776   2.704
12042TIP3    H236070   7.585   1.817   2.676
12043TIP3   OH236071   7.496   0.645   5.732
12043TIP3    H136072   7.413   0.597   5.740
12043TIP3    H236073   7.504   0.662   5.638
12044TIP3   OH236074   6.735   2.261   0.442
12044TIP3    H136075   6.755   2.287   0.352
12044TIP3    H236076   6.744   2.341   0.492
12045TIP3   OH236077   3.652   0.742   1.136
12045TIP3    H136078   3.626   0.763   1.047
12045TIP3    H236079   3.678   0.650   1.133
12046TIP3   OH236080   0.879   1.221   5.007
12046TIP3    H136081   0.835   1.260   4.931
12046TIP3    H236082   0.811   1.169   5.050
12047TIP3   OH236083   7.848   1.682   2.780
12047TIP3    H136084   7.762   1.643   2.796
12047TIP3    H236085   7.846   1.765   2.828
12048TIP3   OH236086   8.270   3.832   0.018
12048TIP3    H136087   8.220   3.913   0.024
12048TIP3    H236088   8.205   3.762   0.029
12049TIP3   OH236089   2.987   1.654   0.615
12049TIP3    H136090   2.917   1.666   0.680
12049TIP3    H236091   3.006   1.560   0.618
12050TIP3   OH236092   4.157   5.754   5.351
12050TIP3    H136093   4.133   5.833   5.302
12050TIP3    H236094   4.083   5.738   5.409
12051TIP3   OH236095   5.039   4.742   0.091
12051TIP3    H136096   5.096   4.675   0.129
12051TIP3    H236097   4.975   4.692   0.039
12052TIP3   OH236098   2.004   0.448   5.967
12052TIP3    H136099   1.989   0.483   6.055
12052TIP3    H236100   2.095   0.419   5.969
12053TIP3   OH236101   6.778   4.953   6.196
12053TIP3    H136102   6.847   4.899   6.157
12053TIP3    H236103   6.785   5.037   6.151
12054TIP3   OH236104   5.821   1.302   0.213
12054TIP3    H136105   5.821   1.374   0.150
12054TIP3    H236106   5.900   1.252   0.193
12055TIP3   OH236107   1.283   1.559   4.734
12055TIP3    H136108   1.243   1.538   4.818
12055TIP3    H236109   1.378   1.559   4.751
12056TIP3   OH236110   0.343   5.793   1.391
12056TIP3    H136111   0.436   5.793   1.415
12056TIP3    H236112   0.337   5.729   1.319
12057TIP3   OH236113   6.969   3.030   0.109
12057TIP3    H136114   6.939   2.982   0.032
12057TIP3    H236115   7.052   3.070   0.083
12058TIP3   OH236116   5.722   5.447   2.614
12058TIP3    H136117   5.795   5.389   2.591
12058TIP3    H236118   5.748   5.532   2.580
12059TIP3   OH236119   7.996   4.662   6.382
12059TIP3    H136120   7.975   4.755   6.392
12059TIP3    H236121   8.092   4.660   6.375
12060TIP3   OH236122   7.168   7.810   2.537
12060TIP3    H136123   7.207   7.726   2.513
12060TIP3    H236124   7.098   7.788   2.598
12061TIP3   OH236125   4.957   4.263   4.188
12061TIP3    H136126   5.050   4.241   4.180
12061TIP3    H236127   4.956   4.355   4.215
12062TIP3   OH236128   6.527   0.602   3.103
12062TIP3    H136129   6.547   0.575   3.013
12062TIP3    H236130   6.569   0.687   3.112
12063TIP3   OH236131   5.512   2.312   1.519
12063TIP3    H136132   5.495   2.406   1.517
12063TIP3    H236133   5.446   2.276   1.577
12064TIP3   OH236134   7.863   5.354   1.761
12064TIP3    H136135   7.779   5.376   1.800
12064TIP3    H236136   7.842   5.291   1.692
12065TIP3   OH236137   6.097   2.438   2.251
12065TIP3    H136138   6.135   2.351   2.264
12065TIP3    H236139   6.025   2.424   2.191
12066TIP3   OH236140   2.472   1.558   5.892
12066TIP3    H136141   2.521   1.575   5.812
12066TIP3    H236142   2.439   1.468   5.882
12067TIP3   OH236143   4.090   5.915   0.588
12067TIP3    H136144   4.087   5.823   0.561
12067TIP3    H236145   4.154   5.917   0.659
12068TIP3   OH236146   7.815   7.297   2.870
12068TIP3    H136147   7.774   7.220   2.833
12068TIP3    H236148   7.828   7.275   2.962
12069TIP3   OH236149   6.707   2.057   4.732
12069TIP3    H136150   6.723   2.027   4.821
12069TIP3    H236151   6.773   2.011   4.680
12070TIP3   OH236152   6.960   6.649   1.298
12070TIP3    H136153   6.922   6.712   1.359
12070TIP3    H236154   6.885   6.616   1.248
12071TIP3   OH236155   0.749   3.742   1.395
12071TIP3    H136156   0.743   3.791   1.477
12071TIP3    H236157   0.658   3.724   1.372
12072TIP3   OH236158   6.921   1.576   4.850
12072TIP3    H136159   6.886   1.620   4.928
12072TIP3    H236160   6.858   1.595   4.781
12073TIP3   OH236161   4.599   3.680   1.607
12073TIP3    H136162   4.660   3.617   1.569
12073TIP3    H236163   4.567   3.731   1.532
12074TIP3   OH236164   4.262   1.404   1.263
12074TIP3    H136165   4.168   1.394   1.244
12074TIP3    H236166   4.265   1.471   1.332
12075TIP3   OH236167   2.147   3.873   4.998
12075TIP3    H136168   2.065   3.856   4.951
12075TIP3    H236169   2.120   3.910   5.082
12076TIP3   OH236170   7.601   5.535   4.277
12076TIP3    H136171   7.570   5.491   4.197
12076TIP3    H236172   7.521   5.567   4.318
12077TIP3   OH236173   1.833   2.271   0.268
12077TIP3    H136174   1.849   2.177   0.274
12077TIP3    H236175   1.746   2.277   0.226
12078TIP3   OH236176   3.954   2.297   1.242
12078TIP3    H136177   3.893   2.246   1.295
12078TIP3    H236178   4.018   2.233   1.211
12079TIP3   OH236179   3.239   6.120   2.345
12079TIP3    H136180   3.188   6.123   2.426
12079TIP3    H236181   3.320   6.076   2.369
12080TIP3   OH236182   3.961   5.917   3.545
12080TIP3    H136183   4.023   5.848   3.569
12080TIP3    H236184   3.996   5.996   3.586
12081TIP3   OH236185   1.816   1.362   1.616
12081TIP3    H136186   1.854   1.449   1.610
12081TIP3    H236187   1.876   1.314   1.674
12082TIP3   OH236188   3.432   5.850   3.132
12082TIP3    H136189   3.466   5.815   3.215
12082TIP3    H236190   3.443   5.778   3.070
12083TIP3   OH236191   5.031   5.525   5.618
12083TIP3    H136192   5.116   5.493   5.648
12083TIP3    H236193   5.016   5.480   5.535
12084TIP3   OH236194   6.218   2.276   0.010
12084TIP3    H136195   6.153   2.277   0.080
12084TIP3    H236196   6.191   2.204  -0.046
12085TIP3   OH236197   3.347   7.323   3.818
12085TIP3    H136198   3.276   7.315   3.881
12085TIP3    H236199   3.397   7.399   3.847
12086TIP3   OH236200   1.339   0.471   3.761
12086TIP3    H136201   1.351   0.449   3.854
12086TIP3    H236202   1.355   0.565   3.756
12087TIP3   OH236203   3.266   1.898   3.324
12087TIP3    H136204   3.210   1.899   3.402
12087TIP3    H236205   3.322   1.822   3.336
12088TIP3   OH236206   1.709   4.707   4.784
12088TIP3    H136207   1.703   4.684   4.876
12088TIP3    H236208   1.673   4.795   4.779
12089TIP3   OH236209   3.099   1.586   2.647
12089TIP3    H136210   3.192   1.593   2.627
12089TIP3    H236211   3.090   1.619   2.736
12090TIP3   OH236212   4.496   2.210   3.760
12090TIP3    H136213   4.549   2.131   3.774
12090TIP3    H236214   4.411   2.177   3.730
12091TIP3   OH236215   6.947   5.225   2.592
12091TIP3    H136216   6.964   5.145   2.541
12091TIP3    H236217   6.915   5.193   2.676
12092TIP3   OH236218   2.443   0.457   4.649
12092TIP3    H136219   2.473   0.538   4.609
12092TIP3    H236220   2.514   0.431   4.707
12093TIP3   OH236221   4.884   2.671   0.853
12093TIP3    H136222   4.961   2.615   0.860
12093TIP3    H236223   4.854   2.683   0.943
12094TIP3   OH236224   3.245   6.778   1.913
12094TIP3    H136225   3.150   6.779   1.902
12094TIP3    H236226   3.271   6.687   1.896
12095TIP3   OH236227   7.080   3.577   0.916
12095TIP3    H136228   7.174   3.569   0.900
12095TIP3    H236229   7.056   3.662   0.881
12096TIP3   OH236230   6.252   1.724   5.014
12096TIP3    H136231   6.225   1.815   5.009
12096TIP3    H236232   6.210   1.691   5.094
12097TIP3   OH236233   2.275   4.347   4.080
12097TIP3    H136234   2.332   4.368   4.154
12097TIP3    H236235   2.322   4.378   4.003
12098TIP3   OH236236   4.738   0.161   1.488
12098TIP3    H136237   4.811   0.220   1.505
12098TIP3    H236238   4.769   0.102   1.419
12099TIP3   OH236239   7.813   3.993   2.561
12099TIP3    H136240   7.741   3.943   2.600
12099TIP3    H236241   7.772   4.039   2.487
12100TIP3   OH236242   0.920   4.139   1.974
12100TIP3    H136243   0.844   4.187   2.006
12100TIP3    H236244   0.962   4.106   2.054
12101TIP3   OH236245   1.479   2.247   6.698
12101TIP3    H136246   1.487   2.244   6.793
12101TIP3    H236247   1.387   2.269   6.682
12102TIP3   OH236248   4.690   4.482   6.206
12102TIP3    H136249   4.606   4.503   6.247
12102TIP3    H236250   4.699   4.387   6.218
12103TIP3   OH236251   6.438   6.825   5.790
12103TIP3    H136252   6.488   6.786   5.862
12103TIP3    H236253   6.502   6.832   5.719
12104TIP3   OH236254   3.327   7.628   6.372
12104TIP3    H136255   3.258   7.692   6.354
12104TIP3    H236256   3.401   7.655   6.318
12105TIP3   OH236257   7.256   1.825   5.271
12105TIP3    H136258   7.166   1.826   5.303
12105TIP3    H236259   7.253   1.771   5.192
12106TIP3   OH236260   5.359   3.409   3.226
12106TIP3    H136261   5.442   3.363   3.223
12106TIP3    H236262   5.303   3.362   3.164
12107TIP3   OH236263   3.702   2.612   6.267
12107TIP3    H136264   3.635   2.672   6.235
12107TIP3    H236265   3.725   2.645   6.354
12108TIP3   OH236266   1.205   5.700   2.208
12108TIP3    H136267   1.192   5.625   2.150
12108TIP3    H236268   1.179   5.667   2.295
12109TIP3   OH236269   4.983   6.307   1.998
12109TIP3    H136270   5.005   6.399   1.982
12109TIP3    H236271   5.068   6.263   2.006
12110TIP3   OH236272   3.270   4.096   0.462
12110TIP3    H136273   3.362   4.115   0.477
12110TIP3    H236274   3.224   4.177   0.487
12111TIP3   OH236275   4.433   5.595   1.844
12111TIP3    H136276   4.480   5.532   1.900
12111TIP3    H236277   4.445   5.679   1.889
12112TIP3   OH236278   5.495   2.569   0.877
12112TIP3    H136279   5.492   2.643   0.816
12112TIP3    H236280   5.589   2.558   0.896
12113TIP3   OH236281   3.342   2.961   5.391
12113TIP3    H136282   3.247   2.964   5.383
12113TIP3    H236283   3.375   2.997   5.309
12114TIP3   OH236284   0.543   5.793   3.650
12114TIP3    H136285   0.471   5.744   3.690
12114TIP3    H236286   0.523   5.884   3.669
12115TIP3   OH236287   7.195   5.223   5.822
12115TIP3    H136288   7.228   5.144   5.779
12115TIP3    H236289   7.206   5.206   5.916
12116TIP3   OH236290   8.231   0.936   1.734
12116TIP3    H136291   8.253   0.934   1.641
12116TIP3    H236292   8.135   0.938   1.735
12117TIP3   OH236293   3.379   4.795   5.701
12117TIP3    H136294   3.284   4.794   5.707
12117TIP3    H236295   3.400   4.880   5.661
12118TIP3   OH236296   7.312   5.608   0.865
12118TIP3    H136297   7.342   5.543   0.802
12118TIP3    H236298   7.247   5.562   0.918
12119TIP3   OH236299   1.501   1.190   4.098
12119TIP3    H136300   1.429   1.147   4.053
12119TIP3    H236301   1.559   1.220   4.028
12120TIP3   OH236302   5.196   2.502   5.641
12120TIP3    H136303   5.115   2.531   5.600
12120TIP3    H236304   5.265   2.540   5.587
12121TIP3   OH236305   0.566   5.995   5.016
12121TIP3    H136306   0.471   5.996   5.013
12121TIP3    H236307   0.589   6.064   5.078
12122TIP3   OH236308   8.212   5.323   1.359
12122TIP3    H136309   8.180   5.235   1.376
12122TIP3    H236310   8.284   5.311   1.297
12123TIP3   OH236311   6.208   4.536   1.266
12123TIP3    H136312   6.142   4.542   1.196
12123TIP3    H236313   6.233   4.627   1.282
12124TIP3   OH236314   4.061   1.624   5.698
12124TIP3    H136315   3.979   1.655   5.736
12124TIP3    H236316   4.038   1.598   5.609
12125TIP3   OH236317   1.208   4.762   2.940
12125TIP3    H136318   1.259   4.698   2.989
12125TIP3    H236319   1.273   4.821   2.902
12126TIP3   OH236320   6.537   7.157   4.180
12126TIP3    H136321   6.625   7.188   4.158
12126TIP3    H236322   6.482   7.235   4.178
12127TIP3   OH236323   3.659   5.653   6.587
12127TIP3    H136324   3.584   5.711   6.574
12127TIP3    H236325   3.717   5.671   6.513
12128TIP3   OH236326   3.054   6.717   2.233
12128TIP3    H136327   3.031   6.808   2.251
12128TIP3    H236328   3.129   6.699   2.291
12129TIP3   OH236329   5.152   5.298   3.376
12129TIP3    H136330   5.123   5.368   3.318
12129TIP3    H236331   5.081   5.234   3.374
12130TIP3   OH236332   3.224   2.678   1.060
12130TIP3    H136333   3.240   2.585   1.076
12130TIP3    H236334   3.298   2.707   1.007
12131TIP3   OH236335   0.092   0.077   6.623
12131TIP3    H136336   0.052   0.160   6.597
12131TIP3    H236337   0.100   0.084   6.719
12132TIP3   OH236338   1.143   6.281   1.084
12132TIP3    H136339   1.234   6.303   1.102
12132TIP3    H236340   1.147   6.200   1.033
12133TIP3   OH236341   2.378   0.453   3.955
12133TIP3    H136342   2.402   0.369   3.917
12133TIP3    H236343   2.283   0.455   3.950
12134TIP3   OH236344   7.857   3.432   3.131
12134TIP3    H136345   7.851   3.403   3.040
12134TIP3    H236346   7.949   3.455   3.143
12135TIP3   OH236347   0.592   2.529   2.334
12135TIP3    H136348   0.632   2.442   2.338
12135TIP3    H236349   0.543   2.528   2.252
12136TIP3   OH236350   7.005   2.233   0.218
12136TIP3    H136351   6.979   2.256   0.129
12136TIP3    H236352   6.960   2.297   0.273
12137TIP3   OH236353   4.856   4.026   2.035
12137TIP3    H136354   4.862   3.933   2.055
12137TIP3    H236355   4.941   4.062   2.060
12138TIP3   OH236356   1.582   5.464   2.804
12138TIP3    H136357   1.552   5.442   2.716
12138TIP3    H236358   1.614   5.554   2.797
12139TIP3   OH236359   3.248   4.175   0.943
12139TIP3    H136360   3.333   4.148   0.978
12139TIP3    H236361   3.192   4.185   1.020
12140TIP3   OH236362   3.548   2.486   0.770
12140TIP3    H136363   3.501   2.466   0.688
12140TIP3    H236364   3.639   2.499   0.743
12141TIP3   OH236365   6.259   5.279   3.951
12141TIP3    H136366   6.309   5.316   3.878
12141TIP3    H236367   6.323   5.231   4.003
12142TIP3   OH236368   3.697   0.547   5.048
12142TIP3    H136369   3.763   0.506   5.103
12142TIP3    H236370   3.621   0.559   5.106
12143TIP3   OH236371   8.312   3.980   2.744
12143TIP3    H136372   8.248   4.040   2.706
12143TIP3    H236373   8.316   4.004   2.837
12144TIP3   OH236374   3.859   1.479   1.458
12144TIP3    H136375   3.910   1.559   1.444
12144TIP3    H236376   3.797   1.502   1.527
12145TIP3   OH236377   2.684   7.301   1.207
12145TIP3    H136378   2.606   7.357   1.202
12145TIP3    H236379   2.702   7.292   1.300
12146TIP3   OH236380   0.087   3.305   5.530
12146TIP3    H136381   0.083   3.216   5.563
12146TIP3    H236382  -0.004   3.335   5.530
12147TIP3   OH236383   6.687   4.386   6.483
12147TIP3    H136384   6.694   4.414   6.392
12147TIP3    H236385   6.764   4.331   6.498
12148TIP3   OH236386   6.576   3.354   6.410
12148TIP3    H136387   6.578   3.286   6.343
12148TIP3    H236388   6.528   3.315   6.483
12149TIP3   OH236389   6.086   1.054   0.536
12149TIP3    H136390   6.014   1.115   0.519
12149TIP3    H236391   6.109   1.069   0.627
12150TIP3   OH236392   6.118   6.697   5.712
12150TIP3    H136393   6.063   6.772   5.689
12150TIP3    H236394   6.067   6.621   5.686
12151TIP3   OH236395   1.003   4.682   1.737
12151TIP3    H136396   0.928   4.725   1.779
12151TIP3    H236397   1.075   4.743   1.748
12152TIP3   OH236398   7.239   2.624   4.016
12152TIP3    H136399   7.333   2.610   4.020
12152TIP3    H236400   7.202   2.564   4.081
12153TIP3   OH236401   4.309   4.905   6.719
12153TIP3    H136402   4.250   4.951   6.660
12153TIP3    H236403   4.380   4.872   6.663
12154TIP3   OH236404   6.634   1.179   1.177
12154TIP3    H136405   6.613   1.102   1.124
12154TIP3    H236406   6.601   1.158   1.265
12155TIP3   OH236407   5.705   3.339   2.527
12155TIP3    H136408   5.777   3.283   2.499
12155TIP3    H236409   5.747   3.414   2.569
12156TIP3   OH236410   3.325   7.238   5.871
12156TIP3    H136411   3.322   7.207   5.781
12156TIP3    H236412   3.249   7.198   5.913
12157TIP3   OH236413   8.049   0.343   5.379
12157TIP3    H136414   8.010   0.315   5.461
12157TIP3    H236415   8.039   0.268   5.320
12158TIP3   OH236416   6.974   4.366   2.528
12158TIP3    H136417   6.881   4.359   2.508
12158TIP3    H236418   7.016   4.376   2.443
12159TIP3   OH236419   5.168   2.968   0.618
12159TIP3    H136420   5.165   2.882   0.578
12159TIP3    H236421   5.082   2.981   0.657
12160TIP3   OH236422   7.642   1.853   3.396
12160TIP3    H136423   7.713   1.804   3.356
12160TIP3    H236424   7.645   1.829   3.489
12161TIP3   OH236425   2.949   0.329   6.294
12161TIP3    H136426   2.982   0.249   6.253
12161TIP3    H236427   2.951   0.395   6.225
12162TIP3   OH236428   5.785   7.115   0.340
12162TIP3    H136429   5.829   7.032   0.318
12162TIP3    H236430   5.701   7.088   0.376
12163TIP3   OH236431   2.265   0.542   3.379
12163TIP3    H136432   2.188   0.494   3.348
12163TIP3    H236433   2.266   0.622   3.326
12164TIP3   OH236434   6.406   6.109   2.671
12164TIP3    H136435   6.418   6.015   2.665
12164TIP3    H236436   6.314   6.124   2.650
12165TIP3   OH236437   5.839   6.585   5.434
12165TIP3    H136438   5.834   6.668   5.388
12165TIP3    H236439   5.907   6.536   5.389
12166TIP3   OH236440   8.118   6.711   2.640
12166TIP3    H136441   8.199   6.736   2.596
12166TIP3    H236442   8.077   6.648   2.581
12167TIP3   OH236443   4.743   7.320   4.349
12167TIP3    H136444   4.818   7.341   4.405
12167TIP3    H236445   4.777   7.256   4.286
12168TIP3   OH236446   0.561   5.471   4.190
12168TIP3    H136447   0.470   5.500   4.184
12168TIP3    H236448   0.564   5.417   4.268
12169TIP3   OH236449   2.837   7.745   3.432
12169TIP3    H136450   2.884   7.827   3.414
12169TIP3    H236451   2.819   7.709   3.346
12170TIP3   OH236452   7.482   7.781   6.038
12170TIP3    H136453   7.524   7.859   6.074
12170TIP3    H236454   7.398   7.776   6.082
12171TIP3   OH236455   4.500   6.999   2.074
12171TIP3    H136456   4.506   7.046   2.157
12171TIP3    H236457   4.582   6.951   2.066
12172TIP3   OH236458   2.003   3.245   4.718
12172TIP3    H136459   2.097   3.262   4.709
12172TIP3    H236460   1.964   3.283   4.639
12173TIP3   OH236461   1.160   2.011   2.666
12173TIP3    H136462   1.153   2.106   2.653
12173TIP3    H236463   1.239   2.000   2.720
12174TIP3   OH236464   6.886   1.329   3.261
12174TIP3    H136465   6.916   1.371   3.180
12174TIP3    H236466   6.829   1.258   3.231
12175TIP3   OH236467   5.454   7.709   1.919
12175TIP3    H136468   5.393   7.688   1.990
12175TIP3    H236469   5.529   7.651   1.934
12176TIP3   OH236470   2.107   2.962   6.051
12176TIP3    H136471   2.027   2.913   6.068
12176TIP3    H236472   2.079   3.037   5.998
12177TIP3   OH236473   0.500   4.557   3.053
12177TIP3    H136474   0.439   4.614   3.099
12177TIP3    H236475   0.586   4.587   3.081
12178TIP3   OH236476   0.083   2.472   0.795
12178TIP3    H136477   0.056   2.441   0.882
12178TIP3    H236478   0.005   2.463   0.741
12179TIP3   OH236479   3.949   2.462   3.235
12179TIP3    H136480   3.889   2.484   3.163
12179TIP3    H236481   3.959   2.543   3.284
12180TIP3   OH236482   8.103   4.011   1.367
12180TIP3    H136483   8.132   3.962   1.291
12180TIP3    H236484   8.009   4.021   1.355
12181TIP3   OH236485   3.862   6.843   6.037
12181TIP3    H136486   3.863   6.935   6.009
12181TIP3    H236487   3.783   6.807   5.997
12182TIP3   OH236488   6.740   5.201   1.236
12182TIP3    H136489   6.738   5.290   1.273
12182TIP3    H236490   6.763   5.145   1.310
12183TIP3   OH236491   5.563   4.400   1.163
12183TIP3    H136492   5.541   4.308   1.181
12183TIP3    H236493   5.489   4.449   1.200
12184TIP3   OH236494   6.152   3.961   2.650
12184TIP3    H136495   6.099   4.037   2.671
12184TIP3    H236496   6.136   3.900   2.722
12185TIP3   OH236497   3.286   0.761   1.110
12185TIP3    H136498   3.290   0.700   1.184
12185TIP3    H236499   3.301   0.705   1.033
12186TIP3   OH236500   1.918   1.561   0.275
12186TIP3    H136501   1.999   1.587   0.231
12186TIP3    H236502   1.925   1.598   0.363
12187TIP3   OH236503   4.002   7.122   5.136
12187TIP3    H136504   4.097   7.126   5.143
12187TIP3    H236505   3.985   7.104   5.044
12188TIP3   OH236506   7.370   6.328   1.459
12188TIP3    H136507   7.337   6.284   1.381
12188TIP3    H236508   7.315   6.405   1.469
12189TIP3   OH236509   6.181   2.382   3.946
12189TIP3    H136510   6.218   2.412   3.863
12189TIP3    H236511   6.105   2.329   3.920
12190TIP3   OH236512   4.828   5.289   6.141
12190TIP3    H136513   4.759   5.224   6.155
12190TIP3    H236514   4.807   5.328   6.056
12191TIP3   OH236515   8.186   2.644   3.711
12191TIP3    H136516   8.257   2.621   3.771
12191TIP3    H236517   8.230   2.687   3.637
12192TIP3   OH236518   6.559   6.931   4.313
12192TIP3    H136519   6.488   6.868   4.303
12192TIP3    H236520   6.537   7.001   4.251
12193TIP3   OH236521   5.623   5.281   5.203
12193TIP3    H136522   5.632   5.212   5.269
12193TIP3    H236523   5.626   5.363   5.253
12194TIP3   OH236524   2.553   0.701   2.559
12194TIP3    H136525   2.613   0.693   2.634
12194TIP3    H236526   2.485   0.635   2.576
12195TIP3   OH236527   4.738   3.242   2.231
12195TIP3    H136528   4.719   3.153   2.261
12195TIP3    H236529   4.776   3.286   2.307
12196TIP3   OH236530   2.505   2.504   1.961
12196TIP3    H136531   2.414   2.482   1.938
12196TIP3    H236532   2.498   2.584   2.013
12197TIP3   OH236533   7.819   3.929   5.131
12197TIP3    H136534   7.839   3.862   5.197
12197TIP3    H236535   7.897   3.933   5.076
12198TIP3   OH236536   6.786   4.458   5.329
12198TIP3    H136537   6.849   4.421   5.390
12198TIP3    H236538   6.749   4.382   5.283
12199TIP3   OH236539   3.368   0.392   1.809
12199TIP3    H136540   3.308   0.355   1.744
12199TIP3    H236541   3.340   0.482   1.820
12200TIP3   OH236542   3.704   0.444   4.096
12200TIP3    H136543   3.775   0.379   4.100
12200TIP3    H236544   3.745   0.525   4.125
12201TIP3   OH236545   4.708   3.793   1.108
12201TIP3    H136546   4.739   3.839   1.030
12201TIP3    H236547   4.753   3.836   1.181
12202TIP3   OH236548   5.247   6.872   2.475
12202TIP3    H136549   5.186   6.823   2.530
12202TIP3    H236550   5.233   6.836   2.387
12203TIP3   OH236551   6.851   5.700   4.516
12203TIP3    H136552   6.902   5.621   4.536
12203TIP3    H236553   6.798   5.676   4.440
12204TIP3   OH236554   5.579   5.102   0.729
12204TIP3    H136555   5.553   5.026   0.678
12204TIP3    H236556   5.639   5.150   0.671
12205TIP3   OH236557   5.632   1.198   2.409
12205TIP3    H136558   5.543   1.184   2.376
12205TIP3    H236559   5.622   1.211   2.503
12206TIP3   OH236560   7.393   2.186   4.260
12206TIP3    H136561   7.404   2.130   4.336
12206TIP3    H236562   7.298   2.191   4.247
12207TIP3   OH236563   0.576   6.495   0.331
12207TIP3    H136564   0.527   6.416   0.308
12207TIP3    H236565   0.629   6.514   0.253
12208TIP3   OH236566   0.869   5.802   5.136
12208TIP3    H136567   0.915   5.783   5.054
12208TIP3    H236568   0.797   5.859   5.110
12209TIP3   OH236569   1.057   4.530   2.953
12209TIP3    H136570   1.105   4.613   2.958
12209TIP3    H236571   1.080   4.495   2.867
12210TIP3   OH236572   4.424   4.034   6.376
12210TIP3    H136573   4.435   3.951   6.331
12210TIP3    H236574   4.457   4.099   6.315
12211TIP3   OH236575   7.203   3.422   4.988
12211TIP3    H136576   7.141   3.488   4.956
12211TIP3    H236577   7.148   3.348   5.013
12212TIP3   OH236578   8.120   0.621   5.968
12212TIP3    H136579   8.199   0.665   5.935
12212TIP3    H236580   8.154   0.546   6.017
12213TIP3   OH236581   4.820   2.736   4.290
12213TIP3    H136582   4.782   2.722   4.204
12213TIP3    H236583   4.873   2.658   4.306
12214TIP3   OH236584   1.736   3.094   4.448
12214TIP3    H136585   1.652   3.087   4.493
12214TIP3    H236586   1.727   3.037   4.371
12215TIP3   OH236587   7.054   6.873   2.752
12215TIP3    H136588   6.999   6.803   2.788
12215TIP3    H236589   7.033   6.875   2.659
12216TIP3   OH236590   2.395   0.891   0.482
12216TIP3    H136591   2.389   0.892   0.577
12216TIP3    H236592   2.321   0.943   0.452
12217TIP3   OH236593   4.393   5.689   4.073
12217TIP3    H136594   4.306   5.684   4.033
12217TIP3    H236595   4.410   5.782   4.083
12218TIP3   OH236596   7.769   7.238   6.636
12218TIP3    H136597   7.826   7.186   6.694
12218TIP3    H236598   7.784   7.329   6.663
12219TIP3   OH236599   0.483   4.056   0.255
12219TIP3    H136600   0.554   4.020   0.308
12219TIP3    H236601   0.493   4.151   0.262
12220TIP3   OH236602   6.987   6.463   1.648
12220TIP3    H136603   6.987   6.430   1.559
12220TIP3    H236604   6.922   6.409   1.694
12221TIP3   OH236605   2.307   0.505   2.129
12221TIP3    H136606   2.223   0.473   2.095
12221TIP3    H236607   2.286   0.541   2.215
12222TIP3   OH236608   1.110   1.904   0.401
12222TIP3    H136609   1.114   1.991   0.442
12222TIP3    H236610   1.201   1.880   0.386
12223TIP3   OH236611   4.194   2.300   0.478
12223TIP3    H136612   4.286   2.323   0.465
12223TIP3    H236613   4.156   2.299   0.390
12224TIP3   OH236614   0.157   2.438   4.052
12224TIP3    H136615   0.066   2.468   4.055
12224TIP3    H236616   0.208   2.519   4.048
12225TIP3   OH236617   3.501   1.783   4.958
12225TIP3    H136618   3.501   1.688   4.968
12225TIP3    H236619   3.592   1.809   4.973
12226TIP3   OH236620   1.178   2.422   5.966
12226TIP3    H136621   1.162   2.440   5.874
12226TIP3    H236622   1.136   2.337   5.981
12227TIP3   OH236623   1.535   6.561   4.309
12227TIP3    H136624   1.485   6.482   4.286
12227TIP3    H236625   1.490   6.595   4.386
12228TIP3   OH236626   1.512   1.940   5.906
12228TIP3    H136627   1.543   2.015   5.856
12228TIP3    H236628   1.559   1.865   5.870
12229TIP3   OH236629   5.031   4.526   4.223
12229TIP3    H136630   5.125   4.545   4.220
12229TIP3    H236631   4.999   4.577   4.298
12230TIP3   OH236632   3.334   2.120   5.771
12230TIP3    H136633   3.303   2.100   5.683
12230TIP3    H236634   3.426   2.143   5.759
12231TIP3   OH236635  -0.040   5.844   4.719
12231TIP3    H136636   0.015   5.767   4.705
12231TIP3    H236637   0.006   5.894   4.786
12232TIP3   OH236638   0.543   7.348   5.432
12232TIP3    H136639   0.473   7.286   5.415
12232TIP3    H236640   0.560   7.340   5.526
12233TIP3   OH236641   3.236   1.533   0.801
12233TIP3    H136642   3.169   1.601   0.795
12233TIP3    H236643   3.266   1.536   0.892
12234TIP3   OH236644   6.617   6.860   5.581
12234TIP3    H136645   6.627   6.850   5.486
12234TIP3    H236646   6.663   6.941   5.601
12235TIP3   OH236647   6.298   2.263   2.185
12235TIP3    H136648   6.322   2.175   2.155
12235TIP3    H236649   6.296   2.316   2.105
12236TIP3   OH236650   6.072   3.424   4.594
12236TIP3    H136651   6.003   3.433   4.527
12236TIP3    H236652   6.035   3.363   4.658
12237TIP3   OH236653   1.685   1.894   4.257
12237TIP3    H136654   1.720   1.983   4.255
12237TIP3    H236655   1.736   1.848   4.190
12238TIP3   OH236656   1.286   5.831   4.347
12238TIP3    H136657   1.358   5.787   4.303
12238TIP3    H236658   1.219   5.763   4.359
12239TIP3   OH236659   5.670   7.518   0.365
12239TIP3    H136660   5.638   7.566   0.441
12239TIP3    H236661   5.699   7.586   0.304
12240TIP3   OH236662   6.437   0.000   4.621
12240TIP3    H136663   6.486  -0.073   4.659
12240TIP3    H236664   6.351  -0.004   4.664
12241TIP3   OH236665   0.119   5.275   5.942
12241TIP3    H136666   0.205   5.268   5.901
12241TIP3    H236667   0.133   5.329   6.019
12242TIP3   OH236668   7.194   2.751   4.707
12242TIP3    H136669   7.100   2.766   4.701
12242TIP3    H236670   7.210   2.736   4.800
12243TIP3   OH236671   6.050   6.092   4.882
12243TIP3    H136672   6.006   6.070   4.800
12243TIP3    H236673   6.123   6.149   4.856
12244TIP3   OH236674   6.303   1.637  -0.005
12244TIP3    H136675   6.350   1.697   0.053
12244TIP3    H236676   6.244   1.693  -0.056
12245TIP3   OH236677   5.590   2.213   0.594
12245TIP3    H136678   5.516   2.272   0.578
12245TIP3    H236679   5.637   2.253   0.667
12246TIP3   OH236680   5.079   7.623   4.510
12246TIP3    H136681   5.061   7.611   4.417
12246TIP3    H236682   5.174   7.623   4.517
12247TIP3   OH236683   1.747   1.269   4.427
12247TIP3    H136684   1.676   1.303   4.372
12247TIP3    H236685   1.720   1.288   4.516
12248TIP3   OH236686   6.693   4.885   3.094
12248TIP3    H136687   6.692   4.920   3.004
12248TIP3    H236688   6.737   4.801   3.086
12249TIP3   OH236689   6.835   6.947   0.620
12249TIP3    H136690   6.859   6.998   0.542
12249TIP3    H236691   6.843   6.856   0.592
12250TIP3   OH236692   0.552   2.146   1.831
12250TIP3    H136693   0.528   2.070   1.777
12250TIP3    H236694   0.496   2.217   1.799
12251TIP3   OH236695   7.298   5.905   3.005
12251TIP3    H136696   7.214   5.933   3.041
12251TIP3    H236697   7.338   5.852   3.074
12252TIP3   OH236698   3.099   5.944   0.131
12252TIP3    H136699   3.080   5.955   0.038
12252TIP3    H236700   3.124   6.032   0.160
12253TIP3   OH236701   0.085   3.695   4.064
12253TIP3    H136702   0.103   3.785   4.092
12253TIP3    H236703   0.016   3.705   3.998
12254TIP3   OH236704   6.750   2.145   5.640
12254TIP3    H136705   6.718   2.192   5.717
12254TIP3    H236706   6.820   2.089   5.674
12255TIP3   OH236707   3.383   7.686   3.661
12255TIP3    H136708   3.450   7.710   3.598
12255TIP3    H236709   3.309   7.657   3.608
12256TIP3   OH236710   4.863   6.597   2.072
12256TIP3    H136711   4.845   6.640   2.155
12256TIP3    H236712   4.777   6.572   2.039
12257TIP3   OH236713   7.428   3.143   0.289
12257TIP3    H136714   7.372   3.221   0.286
12257TIP3    H236715   7.414   3.107   0.376
12258TIP3   OH236716   4.532   7.131   5.013
12258TIP3    H136717   4.498   7.165   5.096
12258TIP3    H236718   4.528   7.205   4.953
12259TIP3   OH236719   4.754   2.366   0.763
12259TIP3    H136720   4.831   2.417   0.787
12259TIP3    H236721   4.681   2.410   0.806
12260TIP3   OH236722   2.304   7.347   4.106
12260TIP3    H136723   2.364   7.289   4.154
12260TIP3    H236724   2.331   7.340   4.015
12261TIP3   OH236725   7.405   0.194   2.970
12261TIP3    H136726   7.346   0.118   2.967
12261TIP3    H236727   7.426   0.205   3.062
12262TIP3   OH236728   6.933   6.869   3.158
12262TIP3    H136729   6.968   6.793   3.110
12262TIP3    H236730   6.839   6.867   3.141
12263TIP3   OH236731   3.869   0.472   4.539
12263TIP3    H136732   3.775   0.466   4.554
12263TIP3    H236733   3.906   0.490   4.625
12264TIP3   OH236734   0.005   2.448   4.380
12264TIP3    H136735   0.032   2.503   4.307
12264TIP3    H236736  -0.055   2.383   4.341
12265TIP3   OH236737   4.481   4.263   5.321
12265TIP3    H136738   4.471   4.282   5.227
12265TIP3    H236739   4.406   4.208   5.342
12266TIP3   OH236740   2.257   2.943   0.292
12266TIP3    H136741   2.240   2.849   0.291
12266TIP3    H236742   2.180   2.980   0.335
12267TIP3   OH236743   2.651   0.887   6.659
12267TIP3    H136744   2.610   0.802   6.674
12267TIP3    H236745   2.690   0.911   6.743
12268TIP3   OH236746   1.100   6.596   4.240
12268TIP3    H136747   1.109   6.581   4.146
12268TIP3    H236748   1.016   6.640   4.250
12269TIP3   OH236749   3.780   1.836   5.048
12269TIP3    H136750   3.808   1.918   5.006
12269TIP3    H236751   3.822   1.838   5.134
12270TIP3   OH236752   0.805   3.558   6.493
12270TIP3    H136753   0.726   3.556   6.440
12270TIP3    H236754   0.783   3.506   6.571
12271TIP3   OH236755   0.496   3.266   6.192
12271TIP3    H136756   0.481   3.360   6.184
12271TIP3    H236757   0.452   3.241   6.273
12272TIP3   OH236758   4.246   3.263   4.957
12272TIP3    H136759   4.280   3.180   4.990
12272TIP3    H236760   4.303   3.286   4.885
12273TIP3   OH236761   4.431   5.396   2.627
12273TIP3    H136762   4.494   5.459   2.591
12273TIP3    H236763   4.443   5.401   2.722
12274TIP3   OH236764   5.307   4.825   5.566
12274TIP3    H136765   5.348   4.810   5.480
12274TIP3    H236766   5.278   4.916   5.563
12275TIP3   OH236767   6.297   3.635   5.414
12275TIP3    H136768   6.375   3.642   5.469
12275TIP3    H236769   6.313   3.696   5.341
12276TIP3   OH236770   4.815   5.484   6.521
12276TIP3    H136771   4.733   5.510   6.563
12276TIP3    H236772   4.841   5.405   6.568
12277TIP3   OH236773   3.317   7.122   4.553
12277TIP3    H136774   3.337   7.045   4.607
12277TIP3    H236775   3.266   7.179   4.611
12278TIP3   OH236776   5.933   2.048   4.562
12278TIP3    H136777   5.988   2.126   4.555
12278TIP3    H236778   5.935   2.009   4.474
12279TIP3   OH236779   8.118   2.503   0.705
12279TIP3    H136780   8.099   2.569   0.639
12279TIP3    H236781   8.033   2.478   0.739
12280TIP3   OH236782   1.179   7.212   3.389
12280TIP3    H136783   1.226   7.241   3.311
12280TIP3    H236784   1.243   7.158   3.437
12281TIP3   OH236785   0.451   2.796   5.185
12281TIP3    H136786   0.494   2.715   5.158
12281TIP3    H236787   0.468   2.858   5.114
12282TIP3   OH236788   5.364   1.181   4.977
12282TIP3    H136789   5.364   1.166   4.883
12282TIP3    H236790   5.428   1.119   5.011
12283TIP3   OH236791   2.106   0.192   1.263
12283TIP3    H136792   2.135   0.185   1.172
12283TIP3    H236793   2.126   0.283   1.287
12284TIP3   OH236794   8.099   2.039   1.028
12284TIP3    H136795   8.122   1.982   1.101
12284TIP3    H236796   8.182   2.077   0.999
12285TIP3   OH236797   2.314   1.621   6.274
12285TIP3    H136798   2.301   1.534   6.234
12285TIP3    H236799   2.289   1.683   6.205
12286TIP3   OH236800   1.330   6.678   4.454
12286TIP3    H136801   1.347   6.768   4.482
12286TIP3    H236802   1.252   6.685   4.399
12287TIP3   OH236803   7.487   1.190   1.125
12287TIP3    H136804   7.552   1.138   1.172
12287TIP3    H236805   7.451   1.250   1.190
12288TIP3   OH236806   3.060   0.689   3.107
12288TIP3    H136807   3.066   0.755   3.038
12288TIP3    H236808   3.007   0.730   3.176
12289TIP3   OH236809   6.788   2.111   4.399
12289TIP3    H136810   6.798   2.056   4.321
12289TIP3    H236811   6.738   2.057   4.460
12290TIP3   OH236812   5.744   2.598   1.390
12290TIP3    H136813   5.666   2.549   1.417
12290TIP3    H236814   5.710   2.675   1.344
12291TIP3   OH236815   7.203   6.248   6.101
12291TIP3    H136816   7.176   6.316   6.163
12291TIP3    H236817   7.144   6.258   6.027
12292TIP3   OH236818   4.030   1.511   5.441
12292TIP3    H136819   3.956   1.570   5.429
12292TIP3    H236820   3.991   1.425   5.457
12293TIP3   OH236821   1.144   2.684   2.151
12293TIP3    H136822   1.125   2.725   2.066
12293TIP3    H236823   1.227   2.725   2.179
12294TIP3   OH236824   0.711   3.633   2.133
12294TIP3    H136825   0.784   3.678   2.092
12294TIP3    H236826   0.724   3.541   2.110
12295TIP3   OH236827   4.959   6.346   0.162
12295TIP3    H136828   4.929   6.413   0.224
12295TIP3    H236829   4.912   6.267   0.188
12296TIP3   OH236830   3.824   7.597   6.123
12296TIP3    H136831   3.762   7.665   6.095
12296TIP3    H236832   3.798   7.519   6.074
12297TIP3   OH236833   7.757   7.348   1.086
12297TIP3    H136834   7.665   7.347   1.058
12297TIP3    H236835   7.772   7.439   1.112
12298TIP3   OH236836   2.294   4.453   2.642
12298TIP3    H136837   2.323   4.504   2.566
12298TIP3    H236838   2.365   4.392   2.659
12299TIP3   OH236839   2.963   7.860   1.137
12299TIP3    H136840   2.966   7.854   1.041
12299TIP3    H236841   3.015   7.786   1.167
12300TIP3   OH236842   1.292   4.027   5.425
12300TIP3    H136843   1.204   4.015   5.391
12300TIP3    H236844   1.321   4.111   5.390
12301TIP3   OH236845   4.474   0.548   6.684
12301TIP3    H136846   4.553   0.595   6.712
12301TIP3    H236847   4.467   0.475   6.746
12302TIP3   OH236848   4.705   5.994   3.260
12302TIP3    H136849   4.760   5.917   3.274
12302TIP3    H236850   4.766   6.065   3.243
12303TIP3   OH236851   5.003   6.640   1.452
12303TIP3    H136852   5.068   6.696   1.411
12303TIP3    H236853   5.054   6.568   1.490
12304TIP3   OH236854   2.776   3.435   1.333
12304TIP3    H136855   2.830   3.361   1.361
12304TIP3    H236856   2.822   3.512   1.367
12305TIP3   OH236857   1.030   4.529   2.067
12305TIP3    H136858   1.057   4.618   2.042
12305TIP3    H236859   0.954   4.511   2.013
12306TIP3   OH236860   6.541   1.172   0.275
12306TIP3    H136861   6.629   1.138   0.295
12306TIP3    H236862   6.549   1.212   0.189
12307TIP3   OH236863   8.076   6.207   4.443
12307TIP3    H136864   8.114   6.272   4.503
12307TIP3    H236865   8.110   6.123   4.475
12308TIP3   OH236866   1.900   7.622   1.420
12308TIP3    H136867   1.959   7.635   1.346
12308TIP3    H236868   1.818   7.663   1.394
12309TIP3   OH236869   1.919   3.695   5.449
12309TIP3    H136870   1.984   3.626   5.460
12309TIP3    H236871   1.971   3.775   5.441
12310TIP3   OH236872   4.027   4.439   3.566
12310TIP3    H136873   4.062   4.528   3.560
12310TIP3    H236874   4.023   4.421   3.659
12311TIP3   OH236875   4.340   1.475   2.605
12311TIP3    H136876   4.418   1.422   2.615
12311TIP3    H236877   4.372   1.559   2.573
12312TIP3   OH236878   7.692   4.536   0.979
12312TIP3    H136879   7.723   4.611   0.929
12312TIP3    H236880   7.738   4.541   1.063
12313TIP3   OH236881   2.657   0.909   5.700
12313TIP3    H136882   2.727   0.975   5.702
12313TIP3    H236883   2.646   0.888   5.607
12314TIP3   OH236884   5.927   3.297   2.272
12314TIP3    H136885   5.869   3.230   2.310
12314TIP3    H236886   6.014   3.272   2.301
12315TIP3   OH236887   0.071   5.278   5.279
12315TIP3    H136888   0.130   5.232   5.337
12315TIP3    H236889   0.047   5.214   5.212
12316TIP3   OH236890   3.037   0.494   3.679
12316TIP3    H136891   2.977   0.419   3.680
12316TIP3    H236892   3.028   0.533   3.766
12317TIP3   OH236893   6.220   4.525   5.622
12317TIP3    H136894   6.254   4.615   5.623
12317TIP3    H236895   6.228   4.497   5.531
12318TIP3   OH236896   7.167   7.164   5.201
12318TIP3    H136897   7.112   7.190   5.127
12318TIP3    H236898   7.254   7.197   5.178
12319TIP3   OH236899   1.982   3.109   2.508
12319TIP3    H136900   2.008   3.200   2.523
12319TIP3    H236901   2.063   3.065   2.485
12320TIP3   OH236902   0.111   1.939   0.629
12320TIP3    H136903   0.061   1.944   0.547
12320TIP3    H236904   0.062   1.994   0.690
12321TIP3   OH236905   5.426   6.527   2.401
12321TIP3    H136906   5.445   6.604   2.348
12321TIP3    H236907   5.503   6.472   2.394
12322TIP3   OH236908   0.472   0.709   2.565
12322TIP3    H136909   0.459   0.705   2.659
12322TIP3    H236910   0.390   0.744   2.530
12323TIP3   OH236911   2.745   2.322   2.456
12323TIP3    H136912   2.741   2.242   2.403
12323TIP3    H236913   2.757   2.392   2.392
12324TIP3   OH236914   3.678   4.603   0.617
12324TIP3    H136915   3.623   4.538   0.661
12324TIP3    H236916   3.619   4.677   0.601
12325TIP3   OH236917   8.185   5.359   3.840
12325TIP3    H136918   8.168   5.429   3.777
12325TIP3    H236919   8.147   5.390   3.922
12326TIP3   OH236920  -0.048   6.189   0.378
12326TIP3    H136921   0.016   6.256   0.405
12326TIP3    H236922  -0.018   6.161   0.291
12327TIP3   OH236923   7.960   7.001   5.083
12327TIP3    H136924   8.001   7.087   5.084
12327TIP3    H236925   7.895   7.005   5.154
12328TIP3   OH236926   3.734   4.068   1.951
12328TIP3    H136927   3.828   4.053   1.945
12328TIP3    H236928   3.704   4.008   2.020
12329TIP3   OH236929   2.999   3.918   5.743
12329TIP3    H136930   3.029   3.966   5.665
12329TIP3    H236931   3.036   3.967   5.816
12330TIP3   OH236932   2.442   6.529   4.551
12330TIP3    H136933   2.434   6.437   4.575
12330TIP3    H236934   2.362   6.547   4.499
12331TIP3   OH236935   7.734   1.878   5.484
12331TIP3    H136936   7.763   1.968   5.499
12331TIP3    H236937   7.810   1.824   5.505
12332TIP3   OH236938   7.447   0.473   6.155
12332TIP3    H136939   7.358   0.499   6.176
12332TIP3    H236940   7.474   0.417   6.229
12333TIP3   OH236941   2.152   1.059   3.409
12333TIP3    H136942   2.127   1.082   3.319
12333TIP3    H236943   2.113   0.972   3.422
12334TIP3   OH236944   0.053   0.755   3.151
12334TIP3    H136945   0.113   0.724   3.219
12334TIP3    H236946   0.103   0.822   3.104
12335TIP3   OH236947   4.454   5.532   2.874
12335TIP3    H136948   4.400   5.611   2.867
12335TIP3    H236949   4.544   5.565   2.878
12336TIP3   OH236950   7.474   4.356   6.389
12336TIP3    H136951   7.545   4.359   6.325
12336TIP3    H236952   7.516   4.339   6.473
12337TIP3   OH236953   5.126   3.731   6.288
12337TIP3    H136954   5.192   3.798   6.270
12337TIP3    H236955   5.109   3.691   6.203
12338TIP3   OH236956   1.770   6.529   6.151
12338TIP3    H136957   1.751   6.618   6.181
12338TIP3    H236958   1.685   6.485   6.149
12339TIP3   OH236959   5.058   5.641   4.292
12339TIP3    H136960   5.124   5.577   4.320
12339TIP3    H236961   5.100   5.726   4.303
12340TIP3   OH236962   1.833   6.723   6.603
12340TIP3    H136963   1.893   6.651   6.623
12340TIP3    H236964   1.830   6.774   6.684
12341TIP3   OH236965   3.376   2.534   1.276
12341TIP3    H136966   3.456   2.569   1.238
12341TIP3    H236967   3.353   2.597   1.345
12342TIP3   OH236968   2.781   0.897   3.153
12342TIP3    H136969   2.757   0.979   3.196
12342TIP3    H236970   2.815   0.842   3.223
12343TIP3   OH236971   2.662   1.685   2.592
12343TIP3    H136972   2.606   1.625   2.542
12343TIP3    H236973   2.601   1.733   2.648
12344TIP3   OH236974  -0.006   1.260   4.954
12344TIP3    H136975  -0.090   1.231   4.921
12344TIP3    H236976   0.002   1.350   4.925
12345TIP3   OH236977   1.371   5.980   5.065
12345TIP3    H136978   1.329   5.907   5.020
12345TIP3    H236979   1.313   6.001   5.138
12346TIP3   OH236980   4.918   7.294   2.941
12346TIP3    H136981   4.918   7.385   2.968
12346TIP3    H236982   4.972   7.292   2.862
12347TIP3   OH236983   6.105   7.028   0.185
12347TIP3    H136984   6.193   7.017   0.149
12347TIP3    H236985   6.097   6.959   0.251
12348TIP3   OH236986   5.922   5.364   3.698
12348TIP3    H136987   5.931   5.305   3.773
12348TIP3    H236988   5.892   5.446   3.737
12349TIP3   OH236989   0.671   7.083   4.329
12349TIP3    H136990   0.656   7.176   4.348
12349TIP3    H236991   0.712   7.049   4.409
12350TIP3   OH236992   3.758   2.670   5.764
12350TIP3    H136993   3.761   2.576   5.782
12350TIP3    H236994   3.779   2.677   5.671
12351TIP3   OH236995   3.536   1.480   4.029
12351TIP3    H136996   3.462   1.482   3.969
12351TIP3    H236997   3.610   1.510   3.976
12352TIP3   OH236998   0.828   6.041   5.622
12352TIP3    H136999   0.898   6.078   5.676
12352TIP3    H237000   0.855   6.060   5.532
12353TIP3   OH237001   3.788   0.995   5.534
12353TIP3    H137002   3.764   1.002   5.442
12353TIP3    H237003   3.710   1.026   5.581
12354TIP3   OH237004   3.958   5.781   6.576
12354TIP3    H137005   3.989   5.691   6.586
12354TIP3    H237006   4.038   5.832   6.558
12355TIP3   OH237007   7.933   6.936   3.507
12355TIP3    H137008   7.867   6.991   3.466
12355TIP3    H237009   7.894   6.909   3.591
12356TIP3   OH237010   7.028   2.867   3.459
12356TIP3    H137011   7.003   2.807   3.530
12356TIP3    H237012   6.952   2.926   3.450
12357TIP3   OH237013   1.616   4.109   1.442
12357TIP3    H137014   1.708   4.086   1.427
12357TIP3    H237015   1.590   4.155   1.362
12358TIP3   OH237016   2.564   6.130   5.132
12358TIP3    H137017   2.629   6.143   5.202
12358TIP3    H237018   2.562   6.213   5.085
12359TIP3   OH237019   2.420   2.506   6.513
12359TIP3    H137020   2.391   2.477   6.599
12359TIP3    H237021   2.353   2.473   6.453
12360TIP3   OH237022   1.428   6.214   4.678
12360TIP3    H137023   1.483   6.196   4.602
12360TIP3    H237024   1.490   6.234   4.748
12361TIP3   OH237025   3.488   0.196   5.582
12361TIP3    H137026   3.535   0.113   5.576
12361TIP3    H237027   3.403   0.178   5.542
12362TIP3   OH237028   5.571   0.925   2.609
12362TIP3    H137029   5.632   0.875   2.555
12362TIP3    H237030   5.594   0.901   2.699
12363TIP3   OH237031   3.923   7.047   1.731
12363TIP3    H137032   3.959   6.986   1.795
12363TIP3    H237033   3.992   7.113   1.719
12364TIP3   OH237034   1.337   1.313   6.391
12364TIP3    H137035   1.352   1.398   6.432
12364TIP3    H237036   1.398   1.310   6.317
12365TIP3   OH237037   6.725   0.240   0.276
12365TIP3    H137038   6.720   0.330   0.244
12365TIP3    H237039   6.804   0.239   0.331
12366TIP3   OH237040   4.151   5.583   2.872
12366TIP3    H137041   4.095   5.659   2.858
12366TIP3    H237042   4.172   5.586   2.966
12367TIP3   OH237043   6.141   6.753   2.168
12367TIP3    H137044   6.113   6.699   2.095
12367TIP3    H237045   6.175   6.691   2.233
12368TIP3   OH237046   4.266   3.020   6.244
12368TIP3    H137047   4.220   3.098   6.213
12368TIP3    H237048   4.202   2.975   6.299
12369TIP3   OH237049   0.905   7.664   5.503
12369TIP3    H137050   0.919   7.576   5.468
12369TIP3    H237051   0.814   7.664   5.533
12370TIP3   OH237052   3.026   2.469   3.797
12370TIP3    H137053   2.991   2.550   3.760
12370TIP3    H237054   3.105   2.452   3.747
12371TIP3   OH237055   0.698   2.228   6.065
12371TIP3    H137056   0.792   2.217   6.051
12371TIP3    H237057   0.692   2.281   6.145
12372TIP3   OH237058   5.624   1.277   2.670
12372TIP3    H137059   5.573   1.357   2.661
12372TIP3    H237060   5.603   1.246   2.759
12373TIP3   OH237061   5.598   0.838   1.274
12373TIP3    H137062   5.651   0.905   1.318
12373TIP3    H237063   5.649   0.758   1.281
12374TIP3   OH237064   4.752   6.234   1.096
12374TIP3    H137065   4.729   6.236   1.188
12374TIP3    H237066   4.847   6.248   1.095
12375TIP3   OH237067   4.759   1.123   5.073
12375TIP3    H137068   4.668   1.136   5.046
12375TIP3    H237069   4.756   1.124   5.169
12376TIP3   OH237070   0.735   6.419   6.447
12376TIP3    H137071   0.719   6.377   6.362
12376TIP3    H237072   0.823   6.392   6.471
12377TIP3   OH237073   6.187   1.512   5.812
12377TIP3    H137074   6.092   1.499   5.816
12377TIP3    H237075   6.215   1.515   5.903
12378TIP3   OH237076   1.504   4.477   6.364
12378TIP3    H137077   1.577   4.416   6.349
12378TIP3    H237078   1.505   4.535   6.288
12379TIP3   OH237079   2.774   6.162   0.044
12379TIP3    H137080   2.745   6.240  -0.003
12379TIP3    H237081   2.852   6.133  -0.003
12380TIP3   OH237082   3.735   4.999   1.264
12380TIP3    H137083   3.659   5.056   1.278
12380TIP3    H237084   3.766   4.979   1.352
12381TIP3   OH237085   1.874   3.089   5.445
12381TIP3    H137086   1.923   3.066   5.366
12381TIP3    H237087   1.851   3.181   5.432
12382TIP3   OH237088   6.599   0.581   1.376
12382TIP3    H137089   6.614   0.502   1.324
12382TIP3    H237090   6.605   0.551   1.467
12383TIP3   OH237091   2.586   7.219   1.949
12383TIP3    H137092   2.532   7.146   1.919
12383TIP3    H237093   2.631   7.250   1.871
12384TIP3   OH237094   3.469   1.722   3.558
12384TIP3    H137095   3.555   1.689   3.531
12384TIP3    H237096   3.454   1.798   3.502
12385TIP3   OH237097   8.231   2.345   3.648
12385TIP3    H137098   8.303   2.403   3.671
12385TIP3    H237099   8.210   2.368   3.558
12386TIP3   OH237100   3.540   4.178   0.511
12386TIP3    H137101   3.543   4.116   0.583
12386TIP3    H237102   3.631   4.189   0.483
12387TIP3   OH237103   6.193   5.325   1.018
12387TIP3    H137104   6.190   5.316   0.923
12387TIP3    H237105   6.242   5.248   1.047
12388TIP3   OH237106   0.936   4.601   4.375
12388TIP3    H137107   0.906   4.633   4.460
12388TIP3    H237108   1.019   4.556   4.394
12389TIP3   OH237109   4.060   0.753   5.340
12389TIP3    H137110   4.011   0.702   5.275
12389TIP3    H237111   4.081   0.835   5.296
12390TIP3   OH237112   2.056   4.881   4.432
12390TIP3    H137113   2.010   4.808   4.473
12390TIP3    H237114   2.054   4.951   4.498
12391TIP3   OH237115   4.249   0.549   4.774
12391TIP3    H137116   4.234   0.519   4.863
12391TIP3    H237117   4.291   0.635   4.785
12392TIP3   OH237118   4.009   3.618   5.191
12392TIP3    H137119   3.969   3.637   5.275
12392TIP3    H237120   4.092   3.666   5.192
12393TIP3   OH237121   3.972   7.185   6.177
12393TIP3    H137122   3.914   7.136   6.119
12393TIP3    H237123   3.913   7.231   6.237
12394TIP3   OH237124   4.460   6.312   2.282
12394TIP3    H137125   4.468   6.404   2.257
12394TIP3    H237126   4.432   6.314   2.373
12395TIP3   OH237127   7.077   2.101   3.456
12395TIP3    H137128   7.153   2.043   3.468
12395TIP3    H237129   7.039   2.109   3.543
12396TIP3   OH237130   1.583   1.840   3.492
12396TIP3    H137131   1.487   1.832   3.485
12396TIP3    H237132   1.616   1.788   3.419
12397TIP3   OH237133   8.046   0.713   2.426
12397TIP3    H137134   8.042   0.809   2.424
12397TIP3    H237135   8.061   0.692   2.518
12398TIP3   OH237136   5.535   6.591   1.083
12398TIP3    H137137   5.462   6.560   1.029
12398TIP3    H237138   5.495   6.650   1.147
12399TIP3   OH237139   3.274   6.545   2.789
12399TIP3    H137140   3.212   6.493   2.839
12399TIP3    H237141   3.244   6.537   2.698
12400TIP3   OH237142   2.196   7.285   5.216
12400TIP3    H137143   2.190   7.372   5.175
12400TIP3    H237144   2.137   7.230   5.165
12401TIP3   OH237145   1.901   2.000   4.105
12401TIP3    H137146   1.987   1.986   4.145
12401TIP3    H237147   1.897   1.935   4.035
12402TIP3   OH237148   4.761   6.403   6.678
12402TIP3    H137149   4.708   6.438   6.605
12402TIP3    H237150   4.710   6.330   6.712
12403TIP3   OH237151   4.987   5.448   1.688
12403TIP3    H137152   5.049   5.420   1.621
12403TIP3    H237153   4.998   5.385   1.759
12404TIP3   OH237154   2.129   4.344   1.718
12404TIP3    H137155   2.195   4.306   1.775
12404TIP3    H237156   2.119   4.434   1.749
12405TIP3   OH237157   3.052   2.932   2.105
12405TIP3    H137158   3.052   2.936   2.009
12405TIP3    H237159   3.080   3.019   2.133
12406TIP3   OH237160   1.293   7.415   0.241
12406TIP3    H137161   1.232   7.396   0.313
12406TIP3    H237162   1.246   7.476   0.185
12407TIP3   OH237163   3.738   3.746   6.334
12407TIP3    H137164   3.801   3.811   6.363
12407TIP3    H237165   3.738   3.754   6.238
12408TIP3   OH237166   5.144   1.922   4.149
12408TIP3    H137167   5.162   1.828   4.149
12408TIP3    H237168   5.115   1.941   4.060
12409TIP3   OH237169   6.879   7.698   3.432
12409TIP3    H137170   6.891   7.607   3.458
12409TIP3    H237171   6.828   7.694   3.351
12410TIP3   OH237172   1.950   1.526   1.409
12410TIP3    H137173   1.907   1.599   1.364
12410TIP3    H237174   1.988   1.474   1.338
12411TIP3   OH237175   5.839   3.907   3.490
12411TIP3    H137176   5.884   3.942   3.413
12411TIP3    H237177   5.907   3.867   3.543
12412TIP3   OH237178   3.926   1.183   2.032
12412TIP3    H137179   3.915   1.157   1.941
12412TIP3    H237180   3.840   1.217   2.058
12413TIP3   OH237181   5.281   7.411   3.456
12413TIP3    H137182   5.300   7.390   3.547
12413TIP3    H237183   5.198   7.458   3.459
12414TIP3   OH237184   6.374   3.163   0.293
12414TIP3    H137185   6.453   3.121   0.260
12414TIP3    H237186   6.307   3.142   0.227
12415TIP3   OH237187   5.448   6.080   3.907
12415TIP3    H137188   5.457   6.087   3.812
12415TIP3    H237189   5.477   5.990   3.927
12416TIP3   OH237190   5.778   0.843   3.988
12416TIP3    H137191   5.751   0.783   4.057
12416TIP3    H237192   5.718   0.918   3.997
12417TIP3   OH237193   2.268   2.315   0.059
12417TIP3    H137194   2.251   2.407   0.077
12417TIP3    H237195   2.219   2.268   0.127
12418TIP3   OH237196   5.768   5.099   1.670
12418TIP3    H137197   5.723   5.184   1.662
12418TIP3    H237198   5.802   5.099   1.759
12419TIP3   OH237199   6.908   7.681   1.381
12419TIP3    H137200   6.991   7.721   1.408
12419TIP3    H237201   6.847   7.754   1.374
12420TIP3   OH237202   4.779   7.699   1.500
12420TIP3    H137203   4.777   7.627   1.438
12420TIP3    H237204   4.863   7.690   1.545
12421TIP3   OH237205   7.403   2.848   2.433
12421TIP3    H137206   7.412   2.755   2.453
12421TIP3    H237207   7.474   2.867   2.372
12422TIP3   OH237208   4.175   3.170   0.597
12422TIP3    H137209   4.166   3.098   0.660
12422TIP3    H237210   4.247   3.144   0.540
12423TIP3   OH237211   2.979   3.868   4.952
12423TIP3    H137212   2.981   3.946   5.006
12423TIP3    H237213   3.049   3.812   4.988
12424TIP3   OH237214   6.721   5.586   2.556
12424TIP3    H137215   6.667   5.642   2.502
12424TIP3    H237216   6.807   5.629   2.558
12425TIP3   OH237217   2.935   7.442   2.849
12425TIP3    H137218   2.911   7.351   2.833
12425TIP3    H237219   2.882   7.491   2.786
12426TIP3   OH237220   1.319   0.486   2.648
12426TIP3    H137221   1.284   0.440   2.725
12426TIP3    H237222   1.398   0.529   2.681
12427TIP3   OH237223   2.841   0.773   0.282
12427TIP3    H137224   2.798   0.696   0.319
12427TIP3    H237225   2.876   0.820   0.358
12428TIP3   OH237226   0.962   0.894   6.538
12428TIP3    H137227   0.877   0.849   6.542
12428TIP3    H237228   0.942   0.985   6.558
12429TIP3   OH237229   3.221   7.132   1.944
12429TIP3    H137230   3.200   7.066   1.878
12429TIP3    H237231   3.249   7.080   2.020
12430TIP3   OH237232   6.723   7.195   1.238
12430TIP3    H137233   6.739   7.288   1.221
12430TIP3    H237234   6.795   7.150   1.192
12431TIP3   OH237235   8.094   7.174   1.670
12431TIP3    H137236   8.005   7.162   1.704
12431TIP3    H237237   8.082   7.196   1.578
12432TIP3   OH237238   4.054   3.171   4.408
12432TIP3    H137239   4.052   3.262   4.436
12432TIP3    H237240   4.049   3.176   4.312
12433TIP3   OH237241   0.674   0.106   2.867
12433TIP3    H137242   0.667   0.086   2.774
12433TIP3    H237243   0.614   0.045   2.909
12434TIP3   OH237244   2.516   2.134   2.924
12434TIP3    H137245   2.536   2.095   2.839
12434TIP3    H237246   2.505   2.059   2.983
12435TIP3   OH237247   3.932   3.926   5.830
12435TIP3    H137248   3.877   3.856   5.866
12435TIP3    H237249   3.913   4.002   5.885
12436TIP3   OH237250   2.924   0.949   5.971
12436TIP3    H137251   2.995   1.012   5.959
12436TIP3    H237252   2.911   0.911   5.884
12437TIP3   OH237253   3.410   6.119   3.045
12437TIP3    H137254   3.419   6.026   3.025
12437TIP3    H237255   3.348   6.122   3.118
12438TIP3   OH237256   3.886   4.581   0.813
12438TIP3    H137257   3.817   4.588   0.747
12438TIP3    H237258   3.841   4.554   0.892
12439TIP3   OH237259   4.324   2.673   1.175
12439TIP3    H137260   4.276   2.630   1.246
12439TIP3    H237261   4.329   2.765   1.202
12440TIP3   OH237262   2.783   0.143   5.055
12440TIP3    H137263   2.784   0.057   5.096
12440TIP3    H237264   2.711   0.139   4.992
12441TIP3   OH237265   2.215   5.245   2.805
12441TIP3    H137266   2.206   5.209   2.893
12441TIP3    H237267   2.125   5.263   2.777
12442TIP3   OH237268   2.489   5.208   2.379
12442TIP3    H137269   2.517   5.298   2.398
12442TIP3    H237270   2.394   5.212   2.376
12443TIP3   OH237271   5.609   5.905   4.827
12443TIP3    H137272   5.677   5.928   4.889
12443TIP3    H237273   5.575   5.989   4.796
12444TIP3   OH237274   7.389   1.620   3.632
12444TIP3    H137275   7.478   1.652   3.616
12444TIP3    H237276   7.385   1.609   3.727
12445TIP3   OH237277   8.033   2.867   5.654
12445TIP3    H137278   8.081   2.937   5.611
12445TIP3    H237279   8.002   2.906   5.736
12446TIP3   OH237280   7.853   4.412   4.775
12446TIP3    H137281   7.811   4.465   4.706
12446TIP3    H237282   7.887   4.477   4.837
12447TIP3   OH237283   6.553   6.065   3.482
12447TIP3    H137284   6.561   6.039   3.574
12447TIP3    H237285   6.612   6.139   3.472
12448TIP3   OH237286   0.586   3.376   6.552
12448TIP3    H137287   0.613   3.284   6.543
12448TIP3    H237288   0.618   3.402   6.638
12449TIP3   OH237289   6.868   1.396   5.131
12449TIP3    H137290   6.806   1.454   5.087
12449TIP3    H237291   6.952   1.415   5.089
12450TIP3   OH237292   0.145   4.331   3.269
12450TIP3    H137293   0.131   4.326   3.174
12450TIP3    H237294   0.156   4.240   3.296
12451TIP3   OH237295   1.159   1.475   6.687
12451TIP3    H137296   1.234   1.496   6.742
12451TIP3    H237297   1.086   1.464   6.748
12452TIP3   OH237298   3.326   4.749   3.550
12452TIP3    H137299   3.309   4.804   3.626
12452TIP3    H237300   3.375   4.805   3.490
12453TIP3   OH237301   1.844   7.690   3.231
12453TIP3    H137302   1.903   7.732   3.294
12453TIP3    H237303   1.762   7.678   3.279
12454TIP3   OH237304   5.211   5.212   2.496
12454TIP3    H137305   5.269   5.272   2.449
12454TIP3    H237306   5.233   5.125   2.462
12455TIP3   OH237307   3.879   6.644   6.780
12455TIP3    H137308   3.959   6.668   6.828
12455TIP3    H237309   3.912   6.613   6.695
12456TIP3   OH237310   4.129   3.789   0.410
12456TIP3    H137311   4.116   3.705   0.365
12456TIP3    H237312   4.097   3.773   0.499
12457TIP3   OH237313   3.589   6.657   2.044
12457TIP3    H137314   3.664   6.603   2.068
12457TIP3    H237315   3.523   6.638   2.111
12458TIP3   OH237316   4.935   4.046   2.350
12458TIP3    H137317   4.950   4.123   2.296
12458TIP3    H237318   4.974   4.069   2.435
12459TIP3   OH237319   4.569   2.404   5.766
12459TIP3    H137320   4.634   2.474   5.772
12459TIP3    H237321   4.523   2.421   5.684
12460TIP3   OH237322   7.978   2.418   6.074
12460TIP3    H137323   7.910   2.418   6.007
12460TIP3    H237324   7.966   2.501   6.120
12461TIP3   OH237325   4.125   4.137   4.599
12461TIP3    H137326   4.154   4.059   4.646
12461TIP3    H237327   4.060   4.105   4.537
12462TIP3   OH237328   5.699   6.605   0.130
12462TIP3    H137329   5.733   6.683   0.086
12462TIP3    H237330   5.723   6.533   0.072
12463TIP3   OH237331   0.068   3.126   6.393
12463TIP3    H137332  -0.010   3.084   6.428
12463TIP3    H237333   0.083   3.083   6.308
12464TIP3   OH237334   0.372   1.952   4.176
12464TIP3    H137335   0.317   1.948   4.254
12464TIP3    H237336   0.374   2.045   4.152
12465TIP3   OH237337   0.424   2.214   2.095
12465TIP3    H137338   0.477   2.195   2.018
12465TIP3    H237339   0.466   2.290   2.136
12466TIP3   OH237340   5.561   4.145   0.520
12466TIP3    H137341   5.545   4.221   0.464
12466TIP3    H237342   5.616   4.088   0.467
12467TIP3   OH237343   2.056   0.930   0.906
12467TIP3    H137344   2.061   0.910   0.999
12467TIP3    H237345   1.973   0.893   0.877
12468TIP3   OH237346   1.162   6.671   3.143
12468TIP3    H137347   1.243   6.630   3.112
12468TIP3    H237348   1.124   6.710   3.064
12469TIP3   OH237349   0.215   6.841   0.107
12469TIP3    H137350   0.164   6.770   0.067
12469TIP3    H237351   0.171   6.859   0.190
12470TIP3   OH237352   8.050   4.211   3.015
12470TIP3    H137353   7.971   4.218   2.961
12470TIP3    H237354   8.120   4.192   2.952
12471TIP3   OH237355   4.311   0.433   3.207
12471TIP3    H137356   4.402   0.401   3.211
12471TIP3    H237357   4.259   0.354   3.197
12472TIP3   OH237358   6.722   0.135   4.213
12472TIP3    H137359   6.668   0.081   4.156
12472TIP3    H237360   6.696   0.110   4.301
12473TIP3   OH237361   2.047   4.741   2.324
12473TIP3    H137362   2.064   4.647   2.331
12473TIP3    H237363   1.952   4.746   2.311
12474TIP3   OH237364   6.903   0.389   4.912
12474TIP3    H137365   6.859   0.457   4.962
12474TIP3    H237366   6.835   0.326   4.890
12475TIP3   OH237367   7.993   5.537   4.959
12475TIP3    H137368   7.926   5.509   5.022
12475TIP3    H237369   8.072   5.491   4.986
12476TIP3   OH237370   7.917   2.054   4.247
12476TIP3    H137371   7.992   1.995   4.249
12476TIP3    H237372   7.868   2.033   4.327
12477TIP3   OH237373   6.660   3.356   4.516
12477TIP3    H137374   6.661   3.399   4.602
12477TIP3    H237375   6.712   3.414   4.461
12478TIP3   OH237376   7.797   6.768   4.353
12478TIP3    H137377   7.766   6.835   4.292
12478TIP3    H237378   7.781   6.685   4.308
12479TIP3   OH237379   1.061   1.879   3.212
12479TIP3    H137380   1.132   1.905   3.270
12479TIP3    H237381   1.071   1.936   3.135
12480TIP3   OH237382   5.914   1.082   4.695
12480TIP3    H137383   5.891   1.063   4.786
12480TIP3    H237384   5.854   1.152   4.669
12481TIP3   OH237385   3.934   4.021   5.378
12481TIP3    H137386   3.856   4.010   5.433
12481TIP3    H237387   3.965   4.110   5.398
12482TIP3   OH237388   2.009   3.990   5.534
12482TIP3    H137389   2.069   4.064   5.534
12482TIP3    H237390   1.926   4.027   5.504
12483TIP3   OH237391   0.575   2.027   1.182
12483TIP3    H137392   0.614   1.949   1.142
12483TIP3    H237393   0.649   2.078   1.213
12484TIP3   OH237394   1.355   2.399   4.971
12484TIP3    H137395   1.307   2.429   4.894
12484TIP3    H237396   1.381   2.480   5.016
12485TIP3   OH237397   7.076   1.847   1.303
12485TIP3    H137398   6.989   1.843   1.343
12485TIP3    H237399   7.136   1.830   1.375
12486TIP3   OH237400   2.940   0.433   4.769
12486TIP3    H137401   2.926   0.489   4.845
12486TIP3    H237402   3.012   0.375   4.795
12487TIP3   OH237403   6.583   5.709   2.356
12487TIP3    H137404   6.661   5.728   2.304
12487TIP3    H237405   6.543   5.634   2.312
12488TIP3   OH237406   7.457   2.964   4.940
12488TIP3    H137407   7.400   2.887   4.944
12488TIP3    H237408   7.506   2.962   5.022
12489TIP3   OH237409   6.645   3.194   3.355
12489TIP3    H137410   6.597   3.167   3.276
12489TIP3    H237411   6.577   3.226   3.414
12490TIP3   OH237412   4.167   2.386   2.867
12490TIP3    H137413   4.126   2.467   2.897
12490TIP3    H237414   4.234   2.415   2.805
12491TIP3   OH237415   6.715   1.946   5.993
12491TIP3    H137416   6.658   1.869   5.988
12491TIP3    H237417   6.769   1.941   5.914
12492TIP3   OH237418   2.250   6.039   3.831
12492TIP3    H137419   2.155   6.043   3.844
12492TIP3    H237420   2.274   6.128   3.803
12493TIP3   OH237421   0.470   6.237   2.866
12493TIP3    H137422   0.396   6.234   2.805
12493TIP3    H237423   0.434   6.205   2.949
12494TIP3   OH237424   3.417   0.630   3.444
12494TIP3    H137425   3.398   0.540   3.417
12494TIP3    H237426   3.381   0.684   3.374
12495TIP3   OH237427   6.035   4.695   3.820
12495TIP3    H137428   6.024   4.749   3.741
12495TIP3    H237429   6.105   4.634   3.797
12496TIP3   OH237430   7.631   6.851   5.830
12496TIP3    H137431   7.564   6.913   5.803
12496TIP3    H237432   7.616   6.774   5.775
12497TIP3   OH237433   6.413   4.869   2.131
12497TIP3    H137434   6.404   4.781   2.168
12497TIP3    H237435   6.367   4.926   2.192
12498TIP3   OH237436   5.386   5.241   4.355
12498TIP3    H137437   5.422   5.174   4.297
12498TIP3    H237438   5.296   5.213   4.372
12499TIP3   OH237439   0.297   7.446   2.035
12499TIP3    H137440   0.278   7.540   2.045
12499TIP3    H237441   0.331   7.419   2.120
12500TIP3   OH237442   7.363   5.688   4.301
12500TIP3    H137443   7.349   5.661   4.392
12500TIP3    H237444   7.365   5.784   4.304
12501TIP3   OH237445   7.788   0.709   1.466
12501TIP3    H137446   7.807   0.689   1.557
12501TIP3    H237447   7.707   0.761   1.469
12502TIP3   OH237448   5.226   2.024   2.222
12502TIP3    H137449   5.235   2.019   2.127
12502TIP3    H237450   5.247   2.115   2.244
12503TIP3   OH237451   4.941   2.230   3.163
12503TIP3    H137452   4.995   2.287   3.108
12503TIP3    H237453   5.001   2.160   3.189
12504TIP3   OH237454   1.985   3.236   0.639
12504TIP3    H137455   1.936   3.267   0.716
12504TIP3    H237456   2.043   3.168   0.674
12505TIP3   OH237457   7.177   2.977   1.499
12505TIP3    H137458   7.252   2.918   1.509
12505TIP3    H237459   7.146   2.961   1.410
12506TIP3   OH237460   2.920   1.646   5.151
12506TIP3    H137461   2.981   1.693   5.209
12506TIP3    H237462   2.935   1.682   5.064
12507TIP3   OH237463   6.991   1.439   3.505
12507TIP3    H137464   7.058   1.501   3.477
12507TIP3    H237465   6.960   1.398   3.425
12508TIP3   OH237466   2.390   6.279   3.737
12508TIP3    H137467   2.392   6.361   3.688
12508TIP3    H237468   2.430   6.299   3.821
12509TIP3   OH237469   0.695   3.870   1.613
12509TIP3    H137470   0.653   3.950   1.644
12509TIP3    H237471   0.665   3.802   1.673
12510TIP3   OH237472   5.208   1.314   1.271
12510TIP3    H137473   5.119   1.301   1.304
12510TIP3    H237474   5.230   1.232   1.228
12511TIP3   OH237475   4.908   7.718   3.441
12511TIP3    H137476   4.990   7.768   3.439
12511TIP3    H237477   4.861   7.745   3.362
12512TIP3   OH237478   1.615   6.792   1.090
12512TIP3    H137479   1.536   6.741   1.077
12512TIP3    H237480   1.686   6.727   1.085
12513TIP3   OH237481   4.303   1.094   0.260
12513TIP3    H137482   4.236   1.160   0.240
12513TIP3    H237483   4.364   1.139   0.320
12514TIP3   OH237484   0.586   1.756   1.998
12514TIP3    H137485   0.546   1.839   2.025
12514TIP3    H237486   0.553   1.692   2.060
12515TIP3   OH237487   1.379   2.010   2.840
12515TIP3    H137488   1.402   2.102   2.831
12515TIP3    H237489   1.443   1.964   2.786
12516TIP3   OH237490   6.406   5.986   1.377
12516TIP3    H137491   6.408   5.997   1.282
12516TIP3    H237492   6.432   5.895   1.391
12517TIP3   OH237493   0.529   3.746   5.282
12517TIP3    H137494   0.589   3.818   5.301
12517TIP3    H237495   0.539   3.686   5.356
12518TIP3   OH237496   0.825   0.550   1.193
12518TIP3    H137497   0.763   0.545   1.265
12518TIP3    H237498   0.882   0.474   1.205
12519TIP3   OH237499   4.398   5.195   6.574
12519TIP3    H137500   4.468   5.259   6.583
12519TIP3    H237501   4.389   5.184   6.479
12520TIP3   OH237502   5.224   4.449   5.914
12520TIP3    H137503   5.227   4.544   5.903
12520TIP3    H237504   5.263   4.434   6.000
12521TIP3   OH237505   3.394   4.945   2.607
12521TIP3    H137506   3.486   4.957   2.585
12521TIP3    H237507   3.386   4.853   2.631
12522TIP3   OH237508   2.619   1.478   1.066
12522TIP3    H137509   2.611   1.548   1.131
12522TIP3    H237510   2.699   1.432   1.090
12523TIP3   OH237511   5.985   6.283   6.206
12523TIP3    H137512   5.943   6.239   6.281
12523TIP3    H237513   5.963   6.375   6.217
12524TIP3   OH237514   3.148   3.715   6.576
12524TIP3    H137515   3.156   3.692   6.484
12524TIP3    H237516   3.122   3.632   6.619
12525TIP3   OH237517   5.184   6.987   3.258
12525TIP3    H137518   5.272   7.024   3.257
12525TIP3    H237519   5.126   7.063   3.247
12526TIP3   OH237520   8.144   0.834   5.666
12526TIP3    H137521   8.142   0.754   5.613
12526TIP3    H237522   8.183   0.807   5.749
12527TIP3   OH237523   5.354   2.231   2.744
12527TIP3    H137524   5.306   2.170   2.800
12527TIP3    H237525   5.370   2.182   2.664
12528TIP3   OH237526   7.664   2.402   2.667
12528TIP3    H137527   7.710   2.324   2.698
12528TIP3    H237528   7.666   2.462   2.742
12529TIP3   OH237529   4.373   6.580   4.260
12529TIP3    H137530   4.413   6.538   4.183
12529TIP3    H237531   4.284   6.603   4.232
12530TIP3   OH237532   3.500   4.709   6.593
12530TIP3    H137533   3.556   4.787   6.596
12530TIP3    H237534   3.530   4.654   6.665
12531TIP3   OH237535   3.717   4.785   3.352
12531TIP3    H137536   3.745   4.698   3.325
12531TIP3    H237537   3.764   4.801   3.434
12532TIP3   OH237538   4.565   5.995   0.083
12532TIP3    H137539   4.522   5.982   0.168
12532TIP3    H237540   4.591   6.087   0.083
12533TIP3   OH237541   0.902   4.250   4.440
12533TIP3    H137542   0.983   4.290   4.409
12533TIP3    H237543   0.910   4.158   4.416
12534TIP3   OH237544   4.793   3.977   5.849
12534TIP3    H137545   4.744   4.056   5.825
12534TIP3    H237546   4.849   3.959   5.774
12535TIP3   OH237547   2.767   6.848   6.052
12535TIP3    H137548   2.839   6.890   6.099
12535TIP3    H237549   2.688   6.889   6.087
12536TIP3   OH237550   5.721   0.173   4.343
12536TIP3    H137551   5.662   0.219   4.283
12536TIP3    H237552   5.725   0.084   4.309
12537TIP3   OH237553   2.908   0.049   1.184
12537TIP3    H137554   2.936   0.073   1.273
12537TIP3    H237555   2.840   0.112   1.163
12538TIP3   OH237556   5.738   6.419   4.598
12538TIP3    H137557   5.699   6.485   4.541
12538TIP3    H237558   5.735   6.458   4.685
12539TIP3   OH237559   5.004   4.772   2.783
12539TIP3    H137560   5.080   4.738   2.735
12539TIP3    H237561   5.041   4.815   2.860
12540TIP3   OH237562   5.929   3.168   0.674
12540TIP3    H137563   6.011   3.214   0.655
12540TIP3    H237564   5.927   3.095   0.613
12541TIP3   OH237565   3.161   4.544   1.704
12541TIP3    H137566   3.203   4.498   1.631
12541TIP3    H237567   3.072   4.508   1.707
12542TIP3   OH237568   2.573   1.544   6.420
12542TIP3    H137569   2.582   1.463   6.371
12542TIP3    H237570   2.510   1.595   6.370
12543TIP3   OH237571   1.587   5.721   5.514
12543TIP3    H137572   1.528   5.704   5.440
12543TIP3    H237573   1.537   5.780   5.571
12544TIP3   OH237574   5.263   2.205   0.062
12544TIP3    H137575   5.297   2.265   0.129
12544TIP3    H237576   5.237   2.263  -0.010
12545TIP3   OH237577   5.112   1.599   2.416
12545TIP3    H137578   5.042   1.632   2.473
12545TIP3    H237579   5.171   1.673   2.404
12546TIP3   OH237580   4.781   4.540   4.112
12546TIP3    H137581   4.871   4.543   4.142
12546TIP3    H237582   4.749   4.629   4.121
12547TIP3   OH237583   3.261   6.217   6.112
12547TIP3    H137584   3.204   6.143   6.092
12547TIP3    H237585   3.245   6.235   6.205
12548TIP3   OH237586   5.143   4.324   0.652
12548TIP3    H137587   5.118   4.357   0.566
12548TIP3    H237588   5.196   4.247   0.634
12549TIP3   OH237589   2.570   2.379   2.228
12549TIP3    H137590   2.562   2.385   2.323
12549TIP3    H237591   2.602   2.465   2.201
12550TIP3   OH237592   7.980   7.571   4.115
12550TIP3    H137593   7.987   7.585   4.209
12550TIP3    H237594   7.904   7.624   4.089
12551TIP3   OH237595   2.151   7.177   4.372
12551TIP3    H137596   2.095   7.147   4.301
12551TIP3    H237597   2.115   7.134   4.450
12552TIP3   OH237598   1.249   2.472   4.703
12552TIP3    H137599   1.180   2.537   4.691
12552TIP3    H237600   1.266   2.438   4.614
12553TIP3   OH237601   1.722   3.298   0.811
12553TIP3    H137602   1.789   3.366   0.818
12553TIP3    H237603   1.757   3.225   0.862
12554TIP3   OH237604   0.593   1.612   4.181
12554TIP3    H137605   0.582   1.524   4.218
12554TIP3    H237606   0.675   1.643   4.218
12555TIP3   OH237607   3.992   4.283   5.475
12555TIP3    H137608   4.037   4.364   5.453
12555TIP3    H237609   3.968   4.293   5.567
12556TIP3   OH237610   1.685   0.107   5.847
12556TIP3    H137611   1.655   0.073   5.931
12556TIP3    H237612   1.780   0.115   5.856
12557TIP3   OH237613   1.865   1.467   3.803
12557TIP3    H137614   1.951   1.469   3.843
12557TIP3    H237615   1.874   1.518   3.722
12558TIP3   OH237616   8.089   3.187   0.697
12558TIP3    H137617   8.119   3.250   0.763
12558TIP3    H237618   7.996   3.207   0.686
12559TIP3   OH237619   4.433   0.937   3.236
12559TIP3    H137620   4.488   0.899   3.168
12559TIP3    H237621   4.376   0.866   3.264
12560TIP3   OH237622   0.321   4.488   5.844
12560TIP3    H137623   0.250   4.487   5.780
12560TIP3    H237624   0.377   4.414   5.819
12561TIP3   OH237625   8.255   0.116   3.552
12561TIP3    H137626   8.243   0.209   3.568
12561TIP3    H237627   8.234   0.104   3.459
12562TIP3   OH237628   7.742   5.751   0.382
12562TIP3    H137629   7.743   5.845   0.398
12562TIP3    H237630   7.769   5.741   0.291
12563TIP3   OH237631   2.305   6.180   2.435
12563TIP3    H137632   2.250   6.243   2.481
12563TIP3    H237633   2.266   6.095   2.456
12564TIP3   OH237634   5.909   5.989   2.658
12564TIP3    H137635   5.844   5.968   2.725
12564TIP3    H237636   5.859   5.997   2.577
12565TIP3   OH237637   8.208   1.697   4.448
12565TIP3    H137638   8.181   1.635   4.517
12565TIP3    H237639   8.251   1.642   4.382
12566TIP3   OH237640   4.709   5.014   5.879
12566TIP3    H137641   4.783   5.054   5.833
12566TIP3    H237642   4.633   5.034   5.824
12567TIP3   OH237643   0.314   6.338   1.971
12567TIP3    H137644   0.332   6.255   1.927
12567TIP3    H237645   0.365   6.334   2.052
12568TIP3   OH237646   5.341   6.579   1.775
12568TIP3    H137647   5.353   6.660   1.826
12568TIP3    H237648   5.330   6.511   1.841
12569TIP3   OH237649   6.688   7.475   3.884
12569TIP3    H137650   6.599   7.467   3.850
12569TIP3    H237651   6.710   7.568   3.872
12570TIP3   OH237652   6.561   2.105   6.172
12570TIP3    H137653   6.617   2.068   6.103
12570TIP3    H237654   6.578   2.051   6.249
12571TIP3   OH237655   7.946   1.209   3.440
12571TIP3    H137656   8.001   1.132   3.454
12571TIP3    H237657   8.008   1.280   3.427
12572TIP3   OH237658   3.967   4.481   3.841
12572TIP3    H137659   3.906   4.411   3.865
12572TIP3    H237660   4.044   4.466   3.897
12573TIP3   OH237661   7.698   5.150   3.549
12573TIP3    H137662   7.658   5.129   3.634
12573TIP3    H237663   7.782   5.105   3.551
12574TIP3   OH237664   5.856   7.322   0.930
12574TIP3    H137665   5.857   7.271   0.850
12574TIP3    H237666   5.813   7.405   0.905
12575TIP3   OH237667   2.655   3.633   0.505
12575TIP3    H137668   2.580   3.600   0.454
12575TIP3    H237669   2.670   3.565   0.571
12576TIP3   OH237670   7.384   2.773   1.913
12576TIP3    H137671   7.326   2.769   1.989
12576TIP3    H237672   7.326   2.765   1.837
12577TIP3   OH237673   2.530   7.277   3.519
12577TIP3    H137674   2.506   7.300   3.609
12577TIP3    H237675   2.569   7.357   3.483
12578TIP3   OH237676   4.762   0.107   6.303
12578TIP3    H137677   4.772   0.181   6.363
12578TIP3    H237678   4.819   0.039   6.339
12579TIP3   OH237679   4.031   2.863   2.260
12579TIP3    H137680   4.121   2.834   2.243
12579TIP3    H237681   4.025   2.949   2.218
12580TIP3   OH237682   2.342   1.833   4.365
12580TIP3    H137683   2.429   1.807   4.396
12580TIP3    H237684   2.303   1.752   4.332
12581TIP3   OH237685   4.008   2.757   2.602
12581TIP3    H137686   4.093   2.801   2.604
12581TIP3    H237687   3.946   2.827   2.584
12582TIP3   OH237688   1.219   1.512   0.505
12582TIP3    H137689   1.143   1.568   0.497
12582TIP3    H237690   1.262   1.540   0.586
12583TIP3   OH237691   1.502   7.347   4.378
12583TIP3    H137692   1.467   7.364   4.291
12583TIP3    H237693   1.434   7.378   4.438
12584TIP3   OH237694   5.860   7.341   6.410
12584TIP3    H137695   5.820   7.310   6.492
12584TIP3    H237696   5.801   7.409   6.379
12585TIP3   OH237697   4.013   6.158   0.831
12585TIP3    H137698   3.944   6.094   0.820
12585TIP3    H237699   4.093   6.106   0.843
12586TIP3   OH237700   4.272   0.588   5.445
12586TIP3    H137701   4.229   0.522   5.500
12586TIP3    H237702   4.200   0.638   5.407
12587TIP3   OH237703   6.903   6.710   0.839
12587TIP3    H137704   6.949   6.712   0.755
12587TIP3    H237705   6.814   6.682   0.817
12588TIP3   OH237706   5.305   6.725   5.184
12588TIP3    H137707   5.293   6.820   5.184
12588TIP3    H237708   5.357   6.707   5.263
12589TIP3   OH237709   5.594   7.538   2.500
12589TIP3    H137710   5.642   7.579   2.573
12589TIP3    H237711   5.517   7.499   2.541
12590TIP3   OH237712   5.194   2.678   0.745
12590TIP3    H137713   5.179   2.744   0.812
12590TIP3    H237714   5.140   2.603   0.771
12591TIP3   OH237715   3.404   6.582   4.552
12591TIP3    H137716   3.381   6.646   4.619
12591TIP3    H237717   3.434   6.505   4.602
12592TIP3   OH237718   1.463   4.880   3.166
12592TIP3    H137719   1.470   4.964   3.121
12592TIP3    H237720   1.531   4.825   3.127
12593TIP3   OH237721   5.892   5.489   2.340
12593TIP3    H137722   5.948   5.493   2.262
12593TIP3    H237723   5.935   5.424   2.396
12594TIP3   OH237724   1.902   3.310   2.857
12594TIP3    H137725   1.901   3.373   2.785
12594TIP3    H237726   1.889   3.363   2.936
12595TIP3   OH237727   3.098   7.621   5.783
12595TIP3    H137728   3.061   7.590   5.866
12595TIP3    H237729   3.049   7.574   5.715
12596TIP3   OH237730   1.650   0.387   5.065
12596TIP3    H137731   1.708   0.436   5.123
12596TIP3    H237732   1.570   0.439   5.060
12597TIP3   OH237733   2.920   0.759   6.574
12597TIP3    H137734   2.824   0.754   6.575
12597TIP3    H237735   2.944   0.783   6.663
12598TIP3   OH237736   7.994   1.134   3.898
12598TIP3    H137737   8.034   1.164   3.980
12598TIP3    H237738   7.939   1.060   3.924
12599TIP3   OH237739   7.046   5.891   4.453
12599TIP3    H137740   6.987   5.816   4.467
12599TIP3    H237741   7.048   5.936   4.537
12600TIP3   OH237742   0.071   6.551   4.612
12600TIP3    H137743   0.085   6.643   4.635
12600TIP3    H237744   0.086   6.548   4.517
12601TIP3   OH237745   0.329   3.510   6.156
12601TIP3    H137746   0.293   3.592   6.122
12601TIP3    H237747   0.330   3.451   6.080
12602TIP3   OH237748   6.907   0.213   1.971
12602TIP3    H137749   6.828   0.252   2.009
12602TIP3    H237750   6.900   0.120   1.990
12603TIP3   OH237751   1.342   3.997   1.837
12603TIP3    H137752   1.427   3.954   1.842
12603TIP3    H237753   1.352   4.065   1.770
12604TIP3   OH237754   6.279   6.691   1.217
12604TIP3    H137755   6.185   6.689   1.204
12604TIP3    H237756   6.308   6.771   1.173
12605TIP3   OH237757   0.786   6.210   1.440
12605TIP3    H137758   0.836   6.238   1.363
12605TIP3    H237759   0.763   6.291   1.485
12606TIP3   OH237760   6.684   5.136   3.376
12606TIP3    H137761   6.654   5.154   3.288
12606TIP3    H237762   6.643   5.203   3.431
12607TIP3   OH237763   7.844   7.250   1.333
12607TIP3    H137764   7.818   7.293   1.252
12607TIP3    H237765   7.763   7.240   1.382
12608TIP3   OH237766   1.342   0.358   0.256
12608TIP3    H137767   1.300   0.301   0.192
12608TIP3    H237768   1.428   0.319   0.271
12609TIP3   OH237769   3.683   7.381   3.108
12609TIP3    H137770   3.708   7.451   3.048
12609TIP3    H237771   3.736   7.396   3.186
12610TIP3   OH237772   3.969   7.109   6.591
12610TIP3    H137773   4.050   7.159   6.601
12610TIP3    H237774   3.942   7.089   6.681
12611TIP3   OH237775   6.361   7.310   2.389
12611TIP3    H137776   6.309   7.305   2.309
12611TIP3    H237777   6.452   7.297   2.360
12612TIP3   OH237778   4.041   6.159   1.200
12612TIP3    H137779   4.028   6.242   1.155
12612TIP3    H237780   4.073   6.183   1.286
12613TIP3   OH237781   4.935   4.908   6.025
12613TIP3    H137782   4.913   4.826   6.068
12613TIP3    H237783   4.851   4.944   5.998
12614TIP3   OH237784   6.293   7.606   3.127
12614TIP3    H137785   6.237   7.541   3.084
12614TIP3    H237786   6.346   7.643   3.057
12615TIP3   OH237787   2.572   2.486   1.176
12615TIP3    H137788   2.516   2.563   1.187
12615TIP3    H237789   2.643   2.500   1.239
12616TIP3   OH237790   5.542   5.006   3.412
12616TIP3    H137791   5.589   5.082   3.377
12616TIP3    H237792   5.513   4.958   3.335
12617TIP3   OH237793   0.989   1.604   5.907
12617TIP3    H137794   1.031   1.645   5.983
12617TIP3    H237795   0.908   1.568   5.941
12618TIP3   OH237796   3.069   4.953   1.841
12618TIP3    H137797   3.098   4.927   1.753
12618TIP3    H237798   3.018   5.032   1.828
12619TIP3   OH237799   3.275   4.029   1.544
12619TIP3    H137800   3.251   3.957   1.487
12619TIP3    H237801   3.192   4.057   1.584
12620TIP3   OH237802   0.375   0.961   2.886
12620TIP3    H137803   0.378   1.006   2.801
12620TIP3    H237804   0.315   0.888   2.872
12621TIP3   OH237805   7.724   2.701   4.046
12621TIP3    H137806   7.725   2.793   4.071
12621TIP3    H237807   7.784   2.696   3.972
12622TIP3   OH237808   5.445   0.797   1.019
12622TIP3    H137809   5.527   0.773   0.977
12622TIP3    H237810   5.470   0.861   1.086
12623TIP3   OH237811   7.397   5.191   0.787
12623TIP3    H137812   7.443   5.231   0.713
12623TIP3    H237813   7.380   5.101   0.758
12624TIP3   OH237814   6.420   5.336   3.361
12624TIP3    H137815   6.508   5.366   3.384
12624TIP3    H237816   6.388   5.401   3.298
12625TIP3   OH237817   4.585   5.898   3.647
12625TIP3    H137818   4.503   5.865   3.612
12625TIP3    H237819   4.588   5.866   3.737
12626TIP3   OH237820   1.904   1.296   0.321
12626TIP3    H137821   1.835   1.292   0.387
12626TIP3    H237822   1.907   1.388   0.295
12627TIP3   OH237823   0.625   3.890   4.287
12627TIP3    H137824   0.662   3.978   4.299
12627TIP3    H237825   0.701   3.832   4.293
12628TIP3   OH237826   7.155   6.126   1.491
12628TIP3    H137827   7.159   6.075   1.410
12628TIP3    H237828   7.113   6.208   1.466
12629TIP3   OH237829   5.407   6.486   5.091
12629TIP3    H137830   5.486   6.463   5.140
12629TIP3    H237831   5.389   6.576   5.116
12630TIP3   OH237832   1.216   1.082   2.794
12630TIP3    H137833   1.252   0.994   2.805
12630TIP3    H237834   1.131   1.079   2.839
12631TIP3   OH237835   2.654   4.112   1.726
12631TIP3    H137836   2.576   4.065   1.698
12631TIP3    H237837   2.641   4.202   1.695
12632TIP3   OH237838   5.008   7.639   2.242
12632TIP3    H137839   4.958   7.718   2.263
12632TIP3    H237840   5.017   7.641   2.146
12633TIP3   OH237841   2.638   7.407   0.277
12633TIP3    H137842   2.583   7.456   0.338
12633TIP3    H237843   2.725   7.411   0.315
12634TIP3   OH237844   4.296   5.216   0.054
12634TIP3    H137845   4.322   5.197  -0.036
12634TIP3    H237846   4.378   5.235   0.099
12635TIP3   OH237847   7.172   4.923   4.082
12635TIP3    H137848   7.222   4.932   4.163
12635TIP3    H237849   7.233   4.881   4.021
12636TIP3   OH237850   3.273   0.785   3.255
12636TIP3    H137851   3.224   0.714   3.214
12636TIP3    H237852   3.265   0.858   3.194
12637TIP3   OH237853   6.019   6.510   2.724
12637TIP3    H137854   5.977   6.501   2.638
12637TIP3    H237855   5.947   6.525   2.785
12638TIP3   OH237856   2.927   7.181   1.816
12638TIP3    H137857   2.921   7.179   1.912
12638TIP3    H237858   2.899   7.270   1.793
12639TIP3   OH237859   1.112   5.949   2.182
12639TIP3    H137860   1.180   6.005   2.145
12639TIP3    H237861   1.148   5.861   2.177
12640TIP3   OH237862   5.236   0.035   4.027
12640TIP3    H137863   5.309  -0.019   3.998
12640TIP3    H237864   5.188  -0.019   4.090
12641TIP3   OH237865   0.539   1.336   1.322
12641TIP3    H137866   0.591   1.260   1.347
12641TIP3    H237867   0.528   1.387   1.402
12642TIP3   OH237868   7.345   5.448   3.772
12642TIP3    H137869   7.289   5.391   3.719
12642TIP3    H237870   7.361   5.525   3.717
12643TIP3   OH237871   1.567   1.079   1.317
12643TIP3    H137872   1.525   1.067   1.232
12643TIP3    H237873   1.604   1.167   1.313
12644TIP3   OH237874   5.769   0.875   5.539
12644TIP3    H137875   5.728   0.833   5.464
12644TIP3    H237876   5.862   0.851   5.532
12645TIP3   OH237877   0.359   1.958   3.742
12645TIP3    H137878   0.357   2.045   3.701
12645TIP3    H237879   0.449   1.946   3.770
12646TIP3   OH237880   3.232   4.617   6.569
12646TIP3    H137881   3.237   4.531   6.612
12646TIP3    H237882   3.322   4.636   6.543
12647TIP3   OH237883   5.598   6.439   5.475
12647TIP3    H137884   5.601   6.348   5.446
12647TIP3    H237885   5.689   6.467   5.475
12648TIP3   OH237886   5.702   3.816   4.459
12648TIP3    H137887   5.754   3.894   4.438
12648TIP3    H237888   5.676   3.830   4.550
12649TIP3   OH237889   7.009   2.163   2.200
12649TIP3    H137890   6.927   2.207   2.176
12649TIP3    H237891   6.987   2.070   2.201
12650TIP3   OH237892   3.374   0.735   2.071
12650TIP3    H137893   3.335   0.705   1.988
12650TIP3    H237894   3.312   0.801   2.103
12651TIP3   OH237895   4.336   5.135   4.524
12651TIP3    H137896   4.266   5.142   4.589
12651TIP3    H237897   4.415   5.160   4.571
12652TIP3   OH237898   8.245   6.046   2.281
12652TIP3    H137899   8.254   5.951   2.276
12652TIP3    H237900   8.197   6.070   2.202
12653TIP3   OH237901   6.069   7.465   3.365
12653TIP3    H137902   6.069   7.534   3.431
12653TIP3    H237903   6.149   7.415   3.382
12654TIP3   OH237904   4.353   3.863   1.089
12654TIP3    H137905   4.265   3.837   1.114
12654TIP3    H237906   4.382   3.795   1.027
12655TIP3   OH237907   0.847   5.617   3.303
12655TIP3    H137908   0.774   5.675   3.279
12655TIP3    H237909   0.925   5.664   3.275
12656TIP3   OH237910   1.097   2.678   2.715
12656TIP3    H137911   1.018   2.643   2.674
12656TIP3    H237912   1.117   2.757   2.666
12657TIP3   OH237913   3.748   7.463   0.267
12657TIP3    H137914   3.703   7.547   0.277
12657TIP3    H237915   3.749   7.427   0.356
12658TIP3   OH237916   6.861   6.962   4.345
12658TIP3    H137917   6.869   6.998   4.257
12658TIP3    H237918   6.772   6.928   4.350
12659TIP3   OH237919   7.617   2.358   1.325
12659TIP3    H137920   7.616   2.292   1.256
12659TIP3    H237921   7.710   2.379   1.336
12660TIP3   OH237922   4.543   1.200   4.678
12660TIP3    H137923   4.559   1.147   4.600
12660TIP3    H237924   4.622   1.188   4.732
12661TIP3   OH237925   5.591   4.500   2.381
12661TIP3    H137926   5.599   4.575   2.440
12661TIP3    H237927   5.669   4.448   2.398
12662TIP3   OH237928   4.412   1.284   0.728
12662TIP3    H137929   4.432   1.352   0.793
12662TIP3    H237930   4.480   1.294   0.662
12663TIP3   OH237931   5.288   5.206   3.972
12663TIP3    H137932   5.330   5.124   3.998
12663TIP3    H237933   5.360   5.263   3.947
12664TIP3   OH237934   7.945   2.774   3.711
12664TIP3    H137935   8.032   2.735   3.712
12664TIP3    H237936   7.934   2.807   3.622
12665TIP3   OH237937   4.206   1.585   6.089
12665TIP3    H137938   4.247   1.667   6.061
12665TIP3    H237939   4.146   1.610   6.158
12666TIP3   OH237940   1.790   3.823   0.927
12666TIP3    H137941   1.742   3.745   0.953
12666TIP3    H237942   1.835   3.798   0.846
12667TIP3   OH237943   7.476   6.872   2.102
12667TIP3    H137944   7.435   6.827   2.176
12667TIP3    H237945   7.483   6.804   2.034
12668TIP3   OH237946   3.818   1.414   1.047
12668TIP3    H137947   3.734   1.367   1.051
12668TIP3    H237948   3.796   1.498   1.008
12669TIP3   OH237949   6.356   7.350   2.661
12669TIP3    H137950   6.417   7.280   2.685
12669TIP3    H237951   6.358   7.351   2.566
12670TIP3   OH237952   4.621   5.572   2.522
12670TIP3    H137953   4.701   5.573   2.469
12670TIP3    H237954   4.558   5.621   2.470
12671TIP3   OH237955   0.317   1.481   5.178
12671TIP3    H137956   0.362   1.396   5.172
12671TIP3    H237957   0.265   1.474   5.258
12672TIP3   OH237958   7.570   6.339   5.137
12672TIP3    H137959   7.606   6.268   5.190
12672TIP3    H237960   7.614   6.418   5.171
12673TIP3   OH237961   0.600   6.464   3.270
12673TIP3    H137962   0.538   6.453   3.342
12673TIP3    H237963   0.646   6.381   3.265
12674TIP3   OH237964   5.113   5.085   1.489
12674TIP3    H137965   5.189   5.028   1.500
12674TIP3    H237966   5.088   5.108   1.579
12675TIP3   OH237967   3.704   1.971   6.697
12675TIP3    H137968   3.799   1.976   6.701
12675TIP3    H237969   3.682   1.887   6.738
12676TIP3   OH237970   7.191   3.181   6.792
12676TIP3    H137971   7.150   3.244   6.851
12676TIP3    H237972   7.136   3.184   6.713
12677TIP3   OH237973   3.141   6.151   3.578
12677TIP3    H137974   3.162   6.065   3.615
12677TIP3    H237975   3.058   6.136   3.531
12678TIP3   OH237976   8.205   0.986   4.712
12678TIP3    H137977   8.132   1.034   4.751
12678TIP3    H237978   8.282   1.038   4.735
12679TIP3   OH237979   1.730   4.574   5.553
12679TIP3    H137980   1.808   4.607   5.599
12679TIP3    H237981   1.656   4.613   5.599
12680TIP3   OH237982   3.410   7.642   4.842
12680TIP3    H137983   3.496   7.613   4.874
12680TIP3    H237984   3.391   7.720   4.894
12681TIP3   OH237985   2.741   0.724   2.758
12681TIP3    H137986   2.781   0.640   2.782
12681TIP3    H237987   2.790   0.789   2.808
12682TIP3   OH237988   7.242   4.135   3.414
12682TIP3    H137989   7.312   4.078   3.382
12682TIP3    H237990   7.280   4.223   3.413
12683TIP3   OH237991   3.471   1.233   1.571
12683TIP3    H137992   3.544   1.182   1.606
12683TIP3    H237993   3.490   1.323   1.596
12684TIP3   OH237994   3.708   3.277   1.277
12684TIP3    H137995   3.644   3.254   1.345
12684TIP3    H237996   3.780   3.317   1.326
12685TIP3   OH237997   3.551   4.154   6.588
12685TIP3    H137998   3.611   4.081   6.575
12685TIP3    H237999   3.596   4.229   6.548
12686TIP3   OH238000   4.964   1.093   0.724
12686TIP3    H138001   4.971   1.057   0.813
12686TIP3    H238002   4.950   1.016   0.669
12687TIP3   OH238003   2.969   3.603   5.863
12687TIP3    H138004   2.896   3.663   5.847
12687TIP3    H238005   2.951   3.565   5.949
12688TIP3   OH238006   4.670   6.529   2.402
12688TIP3    H138007   4.632   6.547   2.316
12688TIP3    H238008   4.627   6.591   2.461
12689TIP3   OH238009   4.198   1.050   3.018
12689TIP3    H138010   4.193   1.091   3.104
12689TIP3    H238011   4.267   1.098   2.972
12690TIP3   OH238012   1.614   6.244   6.366
12690TIP3    H138013   1.523   6.226   6.342
12690TIP3    H238014   1.661   6.164   6.343
12691TIP3   OH238015   4.076   7.636   4.786
12691TIP3    H138016   4.128   7.704   4.829
12691TIP3    H238017   4.100   7.555   4.831
12692TIP3   OH238018   7.174   3.557   4.565
12692TIP3    H138019   7.135   3.470   4.553
12692TIP3    H238020   7.101   3.613   4.590
12693TIP3   OH238021   4.316   1.396   5.734
12693TIP3    H138022   4.261   1.335   5.782
12693TIP3    H238023   4.343   1.461   5.798
12694TIP3   OH238024   7.719   7.646   6.224
12694TIP3    H138025   7.645   7.684   6.271
12694TIP3    H238026   7.680   7.608   6.145
12695TIP3   OH238027   3.287   5.460   5.040
12695TIP3    H138028   3.224   5.532   5.037
12695TIP3    H238029   3.237   5.385   5.073
12696TIP3   OH238030   4.842   2.817   3.295
12696TIP3    H138031   4.790   2.873   3.353
12696TIP3    H238032   4.903   2.772   3.353
12697TIP3   OH238033   5.538   7.162   2.052
12697TIP3    H138034   5.589   7.203   2.123
12697TIP3    H238035   5.588   7.180   1.973
12698TIP3   OH238036   3.376   2.289   6.620
12698TIP3    H138037   3.342   2.234   6.549
12698TIP3    H238038   3.443   2.343   6.578
12699TIP3   OH238039   4.070   2.256   2.418
12699TIP3    H138040   4.038   2.344   2.434
12699TIP3    H238041   3.993   2.199   2.430
12700TIP3   OH238042   3.495   0.035   5.205
12700TIP3    H138043   3.434   0.000   5.270
12700TIP3    H238044   3.506   0.127   5.228
12701TIP3   OH238045   5.825   6.355   0.211
12701TIP3    H138046   5.733   6.363   0.185
12701TIP3    H238047   5.866   6.307   0.140
12702TIP3   OH238048   6.267   4.045   1.404
12702TIP3    H138049   6.339   4.011   1.457
12702TIP3    H238050   6.296   4.131   1.375
12703TIP3   OH238051   1.307   6.733   2.488
12703TIP3    H138052   1.302   6.641   2.516
12703TIP3    H238053   1.218   6.755   2.462
12704TIP3   OH238054   2.465   7.453   1.231
12704TIP3    H138055   2.406   7.485   1.163
12704TIP3    H238056   2.509   7.531   1.264
12705TIP3   OH238057   2.638   3.638   2.818
12705TIP3    H138058   2.551   3.601   2.827
12705TIP3    H238059   2.632   3.725   2.859
12706TIP3   OH238060   0.920   1.837   1.617
12706TIP3    H138061   0.981   1.765   1.632
12706TIP3    H238062   0.835   1.803   1.646
12707TIP3   OH238063   4.342   4.271   3.640
12707TIP3    H138064   4.333   4.182   3.605
12707TIP3    H238065   4.291   4.270   3.721
12708TIP3   OH238066   6.689   0.564   4.690
12708TIP3    H138067   6.612   0.509   4.675
12708TIP3    H238068   6.760   0.518   4.646
12709TIP3   OH238069   5.081   1.350   0.985
12709TIP3    H138070   5.076   1.259   1.015
12709TIP3    H238071   5.063   1.346   0.892
12710TIP3   OH238072   1.160   7.608   3.769
12710TIP3    H138073   1.144   7.620   3.676
12710TIP3    H238074   1.108   7.531   3.793
12711TIP3   OH238075   2.341   3.767   1.681
12711TIP3    H138076   2.418   3.820   1.705
12711TIP3    H238077   2.269   3.830   1.680
12712TIP3   OH238078   2.022   5.786   1.335
12712TIP3    H138079   1.992   5.785   1.244
12712TIP3    H238080   1.944   5.802   1.387
12713TIP3   OH238081   3.447   0.919   5.955
12713TIP3    H138082   3.435   0.979   6.028
12713TIP3    H238083   3.541   0.900   5.955
12714TIP3   OH238084   0.378   5.360   2.190
12714TIP3    H138085   0.352   5.386   2.278
12714TIP3    H238086   0.329   5.280   2.173
12715TIP3   OH238087   7.856   4.310   4.253
12715TIP3    H138088   7.888   4.362   4.179
12715TIP3    H238089   7.860   4.220   4.223
12716TIP3   OH238090   7.103   5.503   6.184
12716TIP3    H138091   7.026   5.556   6.202
12716TIP3    H238092   7.101   5.489   6.089
12717TIP3   OH238093   4.223   1.666   1.915
12717TIP3    H138094   4.235   1.759   1.894
12717TIP3    H238095   4.230   1.662   2.010
12718TIP3   OH238096   2.990   3.213   6.426
12718TIP3    H138097   3.005   3.145   6.360
12718TIP3    H238098   3.043   3.287   6.396
12719TIP3   OH238099   5.012   2.625   5.479
12719TIP3    H138100   5.081   2.654   5.419
12719TIP3    H238101   4.932   2.629   5.426
12720TIP3   OH238102   0.657   7.461   0.400
12720TIP3    H138103   0.746   7.454   0.435
12720TIP3    H238104   0.669   7.491   0.310
12721TIP3   OH238105   0.133   0.983   3.003
12721TIP3    H138106   0.102   1.036   3.076
12721TIP3    H238107   0.203   1.035   2.964
12722TIP3   OH238108   0.591   3.491   0.925
12722TIP3    H138109   0.497   3.496   0.945
12722TIP3    H238110   0.629   3.568   0.967
12723TIP3   OH238111   4.510   2.445   3.021
12723TIP3    H138112   4.482   2.416   2.934
12723TIP3    H238113   4.600   2.413   3.029
12724TIP3   OH238114   0.724   4.833   5.450
12724TIP3    H138115   0.685   4.746   5.435
12724TIP3    H238116   0.799   4.816   5.508
12725TIP3   OH238117   3.192   2.490   4.902
12725TIP3    H138118   3.284   2.489   4.927
12725TIP3    H238119   3.159   2.404   4.927
12726TIP3   OH238120   8.159   4.764   3.414
12726TIP3    H138121   8.210   4.701   3.364
12726TIP3    H238122   8.224   4.814   3.463
12727TIP3   OH238123   2.705   4.914   4.343
12727TIP3    H138124   2.739   4.864   4.418
12727TIP3    H238125   2.727   5.005   4.362
12728TIP3   OH238126   0.374   5.550   1.196
12728TIP3    H138127   0.459   5.560   1.238
12728TIP3    H238128   0.391   5.493   1.121
12729TIP3   OH238129   5.448   5.093   3.654
12729TIP3    H138130   5.520   5.103   3.716
12729TIP3    H238131   5.489   5.061   3.573
12730TIP3   OH238132   5.572   4.129   2.826
12730TIP3    H138133   5.664   4.104   2.815
12730TIP3    H238134   5.523   4.048   2.810
12731TIP3   OH238135   6.967   0.916   2.292
12731TIP3    H138136   6.962   0.945   2.201
12731TIP3    H238137   7.053   0.875   2.300
12732TIP3   OH238138   3.638   6.343   6.667
12732TIP3    H138139   3.668   6.265   6.620
12732TIP3    H238140   3.641   6.413   6.601
12733TIP3   OH238141   6.169   3.160   4.312
12733TIP3    H138142   6.136   3.248   4.294
12733TIP3    H238143   6.105   3.122   4.372
12734TIP3   OH238144   2.481   0.882   3.129
12734TIP3    H138145   2.573   0.861   3.145
12734TIP3    H238146   2.475   0.898   3.035
12735TIP3   OH238147   5.671   2.266   1.070
12735TIP3    H138148   5.680   2.247   1.163
12735TIP3    H238149   5.586   2.228   1.046
12736TIP3   OH238150   5.300   3.453   1.649
12736TIP3    H138151   5.292   3.370   1.697
12736TIP3    H238152   5.236   3.446   1.578
12737TIP3   OH238153   2.298   5.263   1.961
12737TIP3    H138154   2.379   5.290   1.917
12737TIP3    H238155   2.306   5.167   1.969
12738TIP3   OH238156   4.907   4.888   6.482
12738TIP3    H138157   4.983   4.945   6.490
12738TIP3    H238158   4.928   4.829   6.409
12739TIP3   OH238159   5.854   4.417   3.095
12739TIP3    H138160   5.895   4.341   3.138
12739TIP3    H238161   5.778   4.437   3.150
12740TIP3   OH238162   8.109   4.025   1.642
12740TIP3    H138163   8.138   4.020   1.551
12740TIP3    H238164   8.033   4.083   1.639
12741TIP3   OH238165   6.562   1.808   5.084
12741TIP3    H138166   6.495   1.876   5.079
12741TIP3    H238167   6.544   1.749   5.012
12742TIP3   OH238168   3.383   2.788   0.641
12742TIP3    H138169   3.476   2.789   0.617
12742TIP3    H238170   3.342   2.737   0.571
12743TIP3   OH238171   5.277   5.038   1.088
12743TIP3    H138172   5.270   4.965   1.026
12743TIP3    H238173   5.207   5.098   1.063
12744TIP3   OH238174   2.110   3.550   4.386
12744TIP3    H138175   2.068   3.636   4.385
12744TIP3    H238176   2.191   3.564   4.434
12745TIP3   OH238177   1.847   1.884   6.675
12745TIP3    H138178   1.771   1.827   6.669
12745TIP3    H238179   1.821   1.950   6.740
12746TIP3   OH238180   0.476   4.558   4.279
12746TIP3    H138181   0.542   4.489   4.283
12746TIP3    H238182   0.408   4.522   4.222
12747TIP3   OH238183   6.199   6.276   5.788
12747TIP3    H138184   6.196   6.283   5.883
12747TIP3    H238185   6.181   6.184   5.770
12748TIP3   OH238186   5.550   4.719   4.067
12748TIP3    H138187   5.564   4.808   4.035
12748TIP3    H238188   5.636   4.677   4.057
12749TIP3   OH238189   1.802   1.065   1.543
12749TIP3    H138190   1.804   1.160   1.542
12749TIP3    H238191   1.733   1.042   1.481
12750TIP3   OH238192   1.474   1.345   5.043
12750TIP3    H138193   1.434   1.319   4.960
12750TIP3    H238194   1.409   1.404   5.083
12751TIP3   OH238195   0.584   6.006   6.240
12751TIP3    H138196   0.558   5.991   6.149
12751TIP3    H238197   0.554   5.927   6.286
12752TIP3   OH238198   2.994   4.028   3.036
12752TIP3    H138199   2.950   4.054   2.954
12752TIP3    H238200   2.930   4.048   3.104
12753TIP3   OH238201   6.191   1.800   1.898
12753TIP3    H138202   6.171   1.762   1.813
12753TIP3    H238203   6.232   1.729   1.947
12754TIP3   OH238204   1.281   2.685   5.785
12754TIP3    H138205   1.232   2.760   5.749
12754TIP3    H238206   1.220   2.612   5.777
12755TIP3   OH238207   7.739   0.811   0.655
12755TIP3    H138208   7.825   0.787   0.620
12755TIP3    H238209   7.748   0.802   0.750
12756TIP3   OH238210   7.466   5.570   0.180
12756TIP3    H138211   7.398   5.503   0.185
12756TIP3    H238212   7.504   5.573   0.268
12757TIP3   OH238213   6.237   6.295   4.848
12757TIP3    H138214   6.292   6.347   4.789
12757TIP3    H238215   6.216   6.355   4.920
12758TIP3   OH238216   6.509   5.015   0.890
12758TIP3    H138217   6.432   5.016   0.832
12758TIP3    H238218   6.537   4.923   0.889
12759TIP3   OH238219   5.914   1.755   3.698
12759TIP3    H138220   5.964   1.700   3.759
12759TIP3    H238221   5.972   1.767   3.623
12760TIP3   OH238222   0.379   5.090   1.187
12760TIP3    H138223   0.451   5.152   1.199
12760TIP3    H238224   0.399   5.046   1.104
12761TIP3   OH238225   2.313   7.642   6.790
12761TIP3    H138226   2.320   7.603   6.703
12761TIP3    H238227   2.325   7.735   6.775
12762TIP3   OH238228   5.230   1.061   1.165
12762TIP3    H138229   5.275   1.050   1.081
12762TIP3    H238230   5.257   0.986   1.217
12763TIP3   OH238231   3.925   1.132   4.255
12763TIP3    H138232   3.903   1.150   4.346
12763TIP3    H238233   3.841   1.132   4.209
12764TIP3   OH238234   3.984   3.428   4.230
12764TIP3    H138235   3.944   3.443   4.315
12764TIP3    H238236   4.078   3.431   4.247
12765TIP3   OH238237   3.074   6.030   2.117
12765TIP3    H138238   3.106   6.091   2.050
12765TIP3    H238239   3.112   6.061   2.199
12766TIP3   OH238240   2.731   3.915   2.662
12766TIP3    H138241   2.747   3.856   2.589
12766TIP3    H238242   2.811   3.969   2.667
12767TIP3   OH238243   2.327   0.901   4.397
12767TIP3    H138244   2.280   0.818   4.401
12767TIP3    H238245   2.327   0.933   4.487
12768TIP3   OH238246   1.279   5.807   3.960
12768TIP3    H138247   1.315   5.752   4.030
12768TIP3    H238248   1.218   5.749   3.914
12769TIP3   OH238249   5.676   0.346   1.984
12769TIP3    H138250   5.626   0.411   2.034
12769TIP3    H238251   5.736   0.308   2.047
12770TIP3   OH238252   2.973   6.184   3.222
12770TIP3    H138253   2.905   6.154   3.161
12770TIP3    H238254   2.990   6.275   3.197
12771TIP3   OH238255   2.319   3.897   3.590
12771TIP3    H138256   2.369   3.975   3.611
12771TIP3    H238257   2.316   3.847   3.672
12772TIP3   OH238258   7.583   3.078   5.862
12772TIP3    H138259   7.612   3.134   5.790
12772TIP3    H238260   7.528   3.011   5.820
12773TIP3   OH238261   5.949   3.617   5.934
12773TIP3    H138262   6.040   3.644   5.947
12773TIP3    H238263   5.937   3.544   5.995
12774TIP3   OH238264   6.925   6.254   2.555
12774TIP3    H138265   6.934   6.318   2.485
12774TIP3    H238266   6.847   6.280   2.604
12775TIP3   OH238267   8.175   2.284   5.421
12775TIP3    H138268   8.169   2.319   5.510
12775TIP3    H238269   8.261   2.311   5.390
12776TIP3   OH238270   0.736   1.490   2.278
12776TIP3    H138271   0.786   1.564   2.314
12776TIP3    H238272   0.794   1.415   2.289
12777TIP3   OH238273   2.501   7.552   0.459
12777TIP3    H138274   2.535   7.638   0.433
12777TIP3    H238275   2.502   7.553   0.554
12778TIP3   OH238276   8.257   7.231   2.981
12778TIP3    H138277   8.238   7.299   3.046
12778TIP3    H238278   8.179   7.229   2.925
12779TIP3   OH238279   0.455   5.105   6.202
12779TIP3    H138280   0.385   5.060   6.154
12779TIP3    H238281   0.470   5.050   6.279
12780TIP3   OH238282   7.080   3.358   2.053
12780TIP3    H138283   7.131   3.405   2.119
12780TIP3    H238284   7.020   3.303   2.104
12781TIP3   OH238285   2.611   4.941   2.707
12781TIP3    H138286   2.582   5.032   2.716
12781TIP3    H238287   2.702   4.947   2.677
12782TIP3   OH238288   0.852   3.601   5.142
12782TIP3    H138289   0.764   3.591   5.105
12782TIP3    H238290   0.910   3.565   5.075
12783TIP3   OH238291   7.690   1.855   4.939
12783TIP3    H138292   7.630   1.919   4.977
12783TIP3    H238293   7.777   1.894   4.951
12784TIP3   OH238294   7.581   5.256   1.448
12784TIP3    H138295   7.524   5.231   1.520
12784TIP3    H238296   7.670   5.245   1.483
12785TIP3   OH238297   4.240   5.849   0.018
12785TIP3    H138298   4.292   5.901  -0.043
12785TIP3    H238299   4.150   5.878   0.003
12786TIP3   OH238300   6.336   6.974   0.036
12786TIP3    H138301   6.393   7.050   0.027
12786TIP3    H238302   6.389   6.900   0.005
12787TIP3   OH238303   3.404   6.060   3.794
12787TIP3    H138304   3.461   6.056   3.718
12787TIP3    H238305   3.406   6.152   3.822
12788TIP3   OH238306   5.709   6.826   0.344
12788TIP3    H138307   5.666   6.802   0.262
12788TIP3    H238308   5.794   6.782   0.340
12789TIP3   OH238309   1.698   1.532   0.098
12789TIP3    H138310   1.737   1.547   0.184
12789TIP3    H238311   1.671   1.440   0.100
12790TIP3   OH238312   5.344   0.425   4.412
12790TIP3    H138313   5.259   0.391   4.383
12790TIP3    H238314   5.335   0.520   4.405
12791TIP3   OH238315   0.345   1.439   5.912
12791TIP3    H138316   0.360   1.485   5.995
12791TIP3    H238317   0.423   1.386   5.899
12792TIP3   OH238318   7.605   5.040   0.172
12792TIP3    H138319   7.615   5.126   0.133
12792TIP3    H238320   7.548   5.054   0.247
12793TIP3   OH238321   4.399   0.141   3.646
12793TIP3    H138322   4.374   0.120   3.737
12793TIP3    H238323   4.379   0.061   3.598
12794TIP3   OH238324   3.932   3.800   2.391
12794TIP3    H138325   3.858   3.793   2.452
12794TIP3    H238326   4.009   3.786   2.446
12795TIP3   OH238327   7.523   6.812   5.110
12795TIP3    H138328   7.603   6.788   5.064
12795TIP3    H238329   7.512   6.905   5.091
12796TIP3   OH238330   1.771   1.323   6.526
12796TIP3    H138331   1.695   1.265   6.522
12796TIP3    H238332   1.738   1.409   6.502
12797TIP3   OH238333   7.260   0.229   2.711
12797TIP3    H138334   7.291   0.252   2.799
12797TIP3    H238335   7.184   0.173   2.725
12798TIP3   OH238336   1.710   3.454   1.814
12798TIP3    H138337   1.781   3.511   1.841
12798TIP3    H238338   1.660   3.438   1.895
12799TIP3   OH238339   0.062   2.492   1.961
12799TIP3    H138340   0.080   2.540   2.042
12799TIP3    H238341  -0.034   2.482   1.961
12800TIP3   OH238342   7.007   7.168   4.955
12800TIP3    H138343   6.980   7.251   4.917
12800TIP3    H238344   6.927   7.116   4.958
12801TIP3   OH238345   1.604   5.699   1.287
12801TIP3    H138346   1.519   5.675   1.322
12801TIP3    H238347   1.659   5.713   1.365
12802TIP3   OH238348   1.357   0.329   1.650
12802TIP3    H138349   1.353   0.414   1.605
12802TIP3    H238350   1.317   0.345   1.735
12803TIP3   OH238351   6.289   2.930   3.484
12803TIP3    H138352   6.293   2.962   3.575
12803TIP3    H238353   6.377   2.947   3.450
12804TIP3   OH238354   5.317   3.637   1.282
12804TIP3    H138355   5.405   3.619   1.316
12804TIP3    H238356   5.259   3.582   1.335
12805TIP3   OH238357   6.460   3.322   2.905
12805TIP3    H138358   6.509   3.272   2.839
12805TIP3    H238359   6.372   3.331   2.869
12806TIP3   OH238360   5.078   4.020   6.050
12806TIP3    H138361   5.032   3.948   6.093
12806TIP3    H238362   5.071   4.001   5.957
12807TIP3   OH238363   7.555   6.275   4.014
12807TIP3    H138364   7.536   6.313   3.928
12807TIP3    H238365   7.494   6.202   4.022
12808TIP3   OH238366   8.011   3.027   1.876
12808TIP3    H138367   8.062   3.100   1.911
12808TIP3    H238368   7.921   3.059   1.874
12809TIP3   OH238369   4.871   6.071   6.183
12809TIP3    H138370   4.882   5.989   6.135
12809TIP3    H238371   4.795   6.055   6.239
12810TIP3   OH238372   2.679   3.057   4.777
12810TIP3    H138373   2.669   3.147   4.746
12810TIP3    H238374   2.623   3.051   4.854
12811TIP3   OH238375   4.235   5.867   0.290
12811TIP3    H138376   4.253   5.948   0.338
12811TIP3    H238377   4.227   5.895   0.199
12812TIP3   OH238378   7.966   4.335   1.159
12812TIP3    H138379   8.029   4.348   1.088
12812TIP3    H238380   7.888   4.302   1.115
12813TIP3   OH238381   2.731   5.515   4.778
12813TIP3    H138382   2.760   5.604   4.799
12813TIP3    H238383   2.699   5.521   4.688
12814TIP3   OH238384   7.012   6.081   2.790
12814TIP3    H138385   7.042   6.006   2.739
12814TIP3    H238386   6.920   6.091   2.765
12815TIP3   OH238387   4.743   1.764   3.238
12815TIP3    H138388   4.647   1.757   3.234
12815TIP3    H238389   4.774   1.693   3.183
12816TIP3   OH238390   1.288   7.179   1.395
12816TIP3    H138391   1.227   7.233   1.445
12816TIP3    H238392   1.263   7.194   1.304
12817TIP3   OH238393   6.129   0.270   5.349
12817TIP3    H138394   6.053   0.304   5.395
12817TIP3    H238395   6.117   0.298   5.258
12818TIP3   OH238396   6.342   7.240   0.184
12818TIP3    H138397   6.322   7.189   0.262
12818TIP3    H238398   6.289   7.320   0.194
12819TIP3   OH238399   5.740   2.327   0.817
12819TIP3    H138400   5.816   2.384   0.814
12819TIP3    H238401   5.715   2.324   0.910
12820TIP3   OH238402   1.581   5.720   0.427
12820TIP3    H138403   1.640   5.749   0.358
12820TIP3    H238404   1.527   5.797   0.446
12821TIP3   OH238405   5.532   0.544   5.759
12821TIP3    H138406   5.622   0.566   5.737
12821TIP3    H238407   5.538   0.488   5.836
12822TIP3   OH238408   3.004   7.433   4.886
12822TIP3    H138409   2.925   7.410   4.836
12822TIP3    H238410   3.009   7.367   4.954
12823TIP3   OH238411   5.817   6.429   0.964
12823TIP3    H138412   5.792   6.371   0.892
12823TIP3    H238413   5.799   6.517   0.931
12824TIP3   OH238414   6.210   2.272   3.235
12824TIP3    H138415   6.199   2.189   3.280
12824TIP3    H238416   6.266   2.323   3.293
12825TIP3   OH238417   4.294   0.285   2.867
12825TIP3    H138418   4.332   0.201   2.843
12825TIP3    H238419   4.241   0.267   2.944
12826TIP3   OH238420   1.178   0.322   3.070
12826TIP3    H138421   1.103   0.320   3.129
12826TIP3    H238422   1.193   0.231   3.047
12827TIP3   OH238423   5.173   5.343   4.559
12827TIP3    H138424   5.211   5.387   4.483
12827TIP3    H238425   5.131   5.413   4.609
12828TIP3   OH238426   1.687   7.616   0.614
12828TIP3    H138427   1.762   7.559   0.599
12828TIP3    H238428   1.618   7.579   0.559
12829TIP3   OH238429   1.885   5.271   1.142
12829TIP3    H138430   1.860   5.363   1.131
12829TIP3    H238431   1.820   5.236   1.203
12830TIP3   OH238432   7.652   7.136   2.577
12830TIP3    H138433   7.586   7.074   2.547
12830TIP3    H238434   7.661   7.118   2.670
12831TIP3   OH238435   0.781   7.141   1.371
12831TIP3    H138436   0.812   7.177   1.454
12831TIP3    H238437   0.699   7.186   1.355
12832TIP3   OH238438   1.965   0.398   2.943
12832TIP3    H138439   1.968   0.418   2.850
12832TIP3    H238440   1.995   0.479   2.986
12833TIP3   OH238441   5.518   3.105   4.965
12833TIP3    H138442   5.482   3.017   4.978
12833TIP3    H238443   5.597   3.092   4.913
12834TIP3   OH238444   7.298   5.122   5.146
12834TIP3    H138445   7.286   5.170   5.065
12834TIP3    H238446   7.342   5.183   5.205
12835TIP3   OH238447   1.898   2.465   1.702
12835TIP3    H138448   1.900   2.430   1.613
12835TIP3    H238449   1.903   2.560   1.691
12836TIP3   OH238450   3.063   0.487   1.047
12836TIP3    H138451   3.119   0.559   1.078
12836TIP3    H238452   3.094   0.410   1.095
12837TIP3   OH238453   5.750   0.205   3.500
12837TIP3    H138454   5.764   0.259   3.577
12837TIP3    H238455   5.813   0.133   3.510
12838TIP3   OH238456   7.587   7.658   3.325
12838TIP3    H138457   7.622   7.661   3.236
12838TIP3    H238458   7.492   7.656   3.315
12839TIP3   OH238459   7.484   6.951   2.472
12839TIP3    H138460   7.393   6.971   2.495
12839TIP3    H238461   7.480   6.865   2.430
12840TIP3   OH238462   6.845   7.397   5.247
12840TIP3    H138463   6.822   7.490   5.246
12840TIP3    H238464   6.772   7.353   5.204
12841TIP3   OH238465   4.712   0.991   3.566
12841TIP3    H138466   4.674   0.904   3.571
12841TIP3    H238467   4.677   1.036   3.643
12842TIP3   OH238468   0.218   2.366   0.025
12842TIP3    H138469   0.199   2.317  -0.055
12842TIP3    H238470   0.308   2.342   0.046
12843TIP3   OH238471   7.650   0.336   1.992
12843TIP3    H138472   7.701   0.293   2.061
12843TIP3    H238473   7.652   0.429   2.015
12844TIP3   OH238474   0.461   7.730   5.021
12844TIP3    H138475   0.417   7.813   5.039
12844TIP3    H238476   0.464   7.685   5.105
12845TIP3   OH238477   6.046   0.479   1.934
12845TIP3    H138478   5.995   0.511   2.009
12845TIP3    H238479   6.030   0.544   1.865
12846TIP3   OH238480   1.371   1.536   3.761
12846TIP3    H138481   1.295   1.510   3.710
12846TIP3    H238482   1.428   1.459   3.761
12847TIP3   OH238483   7.028   3.091   0.866
12847TIP3    H138484   6.985   3.013   0.830
12847TIP3    H238485   7.048   3.145   0.789
12848TIP3   OH238486   8.085   5.613   5.644
12848TIP3    H138487   8.098   5.705   5.620
12848TIP3    H238488   8.035   5.576   5.571
12849TIP3   OH238489   7.060   4.525   3.863
12849TIP3    H138490   6.974   4.530   3.822
12849TIP3    H238491   7.049   4.564   3.949
12850TIP3   OH238492   5.213   5.751   5.849
12850TIP3    H138493   5.148   5.700   5.897
12850TIP3    H238494   5.291   5.749   5.903
12851TIP3   OH238495   6.213   5.744   3.275
12851TIP3    H138496   6.129   5.766   3.313
12851TIP3    H238497   6.274   5.807   3.313
12852TIP3   OH238498   6.339   6.621   5.209
12852TIP3    H138499   6.353   6.712   5.233
12852TIP3    H238500   6.307   6.579   5.288
12853TIP3   OH238501   0.684   5.399   5.159
12853TIP3    H138502   0.615   5.381   5.223
12853TIP3    H238503   0.684   5.494   5.149
12854TIP3   OH238504   4.162   6.511   5.524
12854TIP3    H138505   4.122   6.435   5.566
12854TIP3    H238506   4.088   6.567   5.499
12855TIP3   OH238507   5.263   7.740   0.563
12855TIP3    H138508   5.209   7.687   0.622
12855TIP3    H238509   5.302   7.806   0.619
12856TIP3   OH238510   0.042   5.089   0.306
12856TIP3    H138511  -0.015   5.128   0.372
12856TIP3    H238512   0.125   5.074   0.352
12857TIP3   OH238513   5.011   5.546   3.285
12857TIP3    H138514   4.967   5.631   3.294
12857TIP3    H238515   5.078   5.547   3.353
12858TIP3   OH238516   5.626   3.080   4.026
12858TIP3    H138517   5.682   3.008   3.998
12858TIP3    H238518   5.657   3.155   3.976
12859TIP3   OH238519   4.425   1.333   6.625
12859TIP3    H138520   4.382   1.377   6.698
12859TIP3    H238521   4.506   1.299   6.662
12860TIP3   OH238522   3.694   6.578   2.358
12860TIP3    H138523   3.677   6.603   2.449
12860TIP3    H238524   3.651   6.494   2.347
12861TIP3   OH238525   2.972   4.169   3.692
12861TIP3    H138526   2.960   4.090   3.744
12861TIP3    H238527   2.909   4.231   3.727
12862TIP3   OH238528   4.118   7.517   0.595
12862TIP3    H138529   4.042   7.469   0.628
12862TIP3    H238530   4.177   7.524   0.670
12863TIP3   OH238531   6.164   0.204   2.553
12863TIP3    H138532   6.104   0.239   2.486
12863TIP3    H238533   6.107   0.161   2.616
12864TIP3   OH238534   4.354   5.346   3.558
12864TIP3    H138535   4.345   5.308   3.471
12864TIP3    H238536   4.384   5.274   3.613
12865TIP3   OH238537   2.935   4.448   2.029
12865TIP3    H138538   2.887   4.365   2.024
12865TIP3    H238539   3.027   4.421   2.035
12866TIP3   OH238540   5.236   6.969   2.858
12866TIP3    H138541   5.147   6.935   2.867
12866TIP3    H238542   5.231   7.058   2.893
12867TIP3   OH238543   7.782   4.838   0.115
12867TIP3    H138544   7.715   4.905   0.100
12867TIP3    H238545   7.859   4.870   0.070
12868TIP3   OH238546   0.120   6.207   4.360
12868TIP3    H138547   0.182   6.166   4.300
12868TIP3    H238548   0.071   6.269   4.306
12869TIP3   OH238549   6.701   4.817   5.217
12869TIP3    H138550   6.796   4.822   5.221
12869TIP3    H238551   6.671   4.894   5.265
12870TIP3   OH238552   4.595   0.026   0.737
12870TIP3    H138553   4.633  -0.040   0.795
12870TIP3    H238554   4.566  -0.022   0.660
12871TIP3   OH238555   0.275   1.392   1.232
12871TIP3    H138556   0.356   1.364   1.275
12871TIP3    H238557   0.216   1.317   1.240
12872TIP3   OH238558   7.499   5.977   2.834
12872TIP3    H138559   7.431   5.946   2.893
12872TIP3    H238560   7.536   6.054   2.877
12873TIP3   OH238561   4.658   1.401   5.950
12873TIP3    H138562   4.589   1.464   5.928
12873TIP3    H238563   4.617   1.315   5.936
12874TIP3   OH238564   5.258   4.885   3.016
12874TIP3    H138565   5.301   4.969   3.033
12874TIP3    H238566   5.175   4.891   3.062
12875TIP3   OH238567   2.386   1.700   3.523
12875TIP3    H138568   2.373   1.651   3.441
12875TIP3    H238569   2.431   1.638   3.581
12876TIP3   OH238570   0.451   3.328   0.084
12876TIP3    H138571   0.476   3.236   0.070
12876TIP3    H238572   0.372   3.324   0.137
12877TIP3   OH238573   2.257   0.317   6.012
12877TIP3    H138574   2.299   0.272   6.084
12877TIP3    H238575   2.304   0.400   6.004
12878TIP3   OH238576   7.201   4.486   6.318
12878TIP3    H138577   7.278   4.442   6.352
12878TIP3    H238578   7.128   4.445   6.364
12879TIP3   OH238579   5.076   7.255   3.297
12879TIP3    H138580   5.131   7.332   3.311
12879TIP3    H238581   4.989   7.291   3.279
12880TIP3   OH238582   1.913   3.401   6.610
12880TIP3    H138583   1.928   3.383   6.517
12880TIP3    H238584   1.876   3.489   6.612
12881TIP3   OH238585   6.187   0.793   4.044
12881TIP3    H138586   6.107   0.829   4.082
12881TIP3    H238587   6.173   0.698   4.045
12882TIP3   OH238588   4.293   6.131   6.306
12882TIP3    H138589   4.358   6.124   6.236
12882TIP3    H238590   4.273   6.224   6.310
12883TIP3   OH238591   7.666   2.016   4.430
12883TIP3    H138592   7.612   1.947   4.389
12883TIP3    H238593   7.685   1.982   4.517
12884TIP3   OH238594   5.744   4.998   1.262
12884TIP3    H138595   5.774   4.921   1.214
12884TIP3    H238596   5.662   4.969   1.304
12885TIP3   OH238597   6.729   2.289   5.918
12885TIP3    H138598   6.823   2.306   5.914
12885TIP3    H238599   6.690   2.375   5.934
12886TIP3   OH238600   6.331   6.395   4.071
12886TIP3    H138601   6.380   6.374   4.150
12886TIP3    H238602   6.310   6.310   4.032
12887TIP3   OH238603   5.636   6.521   1.752
12887TIP3    H138604   5.704   6.585   1.773
12887TIP3    H238605   5.555   6.561   1.782
12888TIP3   OH238606   2.838   0.226   4.503
12888TIP3    H138607   2.876   0.165   4.566
12888TIP3    H238608   2.747   0.234   4.530
12889TIP3   OH238609   2.125   2.786   0.996
12889TIP3    H138610   2.114   2.863   1.053
12889TIP3    H238611   2.055   2.794   0.931
12890TIP3   OH238612   5.938   5.767   4.939
12890TIP3    H138613   5.971   5.754   4.851
12890TIP3    H238614   5.985   5.704   4.993
12891TIP3   OH238615   7.431   6.512   5.468
12891TIP3    H138616   7.341   6.545   5.462
12891TIP3    H238617   7.438   6.476   5.557
12892TIP3   OH238618   7.837   4.180   0.957
12892TIP3    H138619   7.765   4.176   0.894
12892TIP3    H238620   7.908   4.132   0.915
12893TIP3   OH238621   3.080   5.487   5.455
12893TIP3    H138622   3.089   5.450   5.543
12893TIP3    H238623   3.071   5.410   5.398
12894TIP3   OH238624   2.643   4.450   2.610
12894TIP3    H138625   2.607   4.361   2.607
12894TIP3    H238626   2.579   4.504   2.563
12895TIP3   OH238627   6.179   6.512   5.001
12895TIP3    H138628   6.175   6.547   5.090
12895TIP3    H238629   6.187   6.590   4.945
12896TIP3   OH238630   4.826   3.876   5.385
12896TIP3    H138631   4.828   3.970   5.400
12896TIP3    H238632   4.802   3.839   5.470
12897TIP3   OH238633   4.573   0.338   5.628
12897TIP3    H138634   4.526   0.393   5.690
12897TIP3    H238635   4.584   0.393   5.550
12898TIP3   OH238636   1.504   0.136   0.554
12898TIP3    H138637   1.413   0.116   0.534
12898TIP3    H238638   1.506   0.152   0.649
12899TIP3   OH238639   5.633   4.140   5.661
12899TIP3    H138640   5.592   4.164   5.578
12899TIP3    H238641   5.724   4.121   5.638
12900TIP3   OH238642   8.135   2.683   2.923
12900TIP3    H138643   8.152   2.605   2.975
12900TIP3    H238644   8.088   2.651   2.846
12901TIP3   OH238645   0.971   7.452   6.528
12901TIP3    H138646   0.994   7.423   6.617
12901TIP3    H238647   0.896   7.509   6.541
12902TIP3   OH238648   0.927   5.393   1.896
12902TIP3    H138649   0.940   5.298   1.902
12902TIP3    H238650   0.839   5.403   1.860
12903TIP3   OH238651   0.650   7.003   1.973
12903TIP3    H138652   0.617   7.072   2.030
12903TIP3    H238653   0.589   6.930   1.986
12904TIP3   OH238654   4.455   2.796   2.925
12904TIP3    H138655   4.392   2.735   2.962
12904TIP3    H238656   4.443   2.877   2.975
12905TIP3   OH238657   2.853   2.884   2.279
12905TIP3    H138658   2.867   2.953   2.343
12905TIP3    H238659   2.927   2.890   2.218
12906TIP3   OH238660   0.433   7.659   0.839
12906TIP3    H138661   0.399   7.746   0.857
12906TIP3    H238662   0.518   7.675   0.798
12907TIP3   OH238663   1.023   6.037   1.444
12907TIP3    H138664   1.027   6.125   1.406
12907TIP3    H238665   1.020   6.053   1.539
12908TIP3   OH238666   6.495   4.885   3.318
12908TIP3    H138667   6.552   4.823   3.364
12908TIP3    H238668   6.541   4.902   3.236
12909TIP3   OH238669   7.996   6.270   6.068
12909TIP3    H138670   7.955   6.270   5.981
12909TIP3    H238671   7.924   6.253   6.129
12910TIP3   OH238672   2.460   2.722   0.976
12910TIP3    H138673   2.476   2.730   0.882
12910TIP3    H238674   2.365   2.730   0.986
12911TIP3   OH238675   7.203   1.577   3.420
12911TIP3    H138676   7.268   1.600   3.486
12911TIP3    H238677   7.254   1.556   3.341
12912TIP3   OH238678   7.339   1.758   4.501
12912TIP3    H138679   7.320   1.665   4.485
12912TIP3    H238680   7.300   1.776   4.586
12913TIP3   OH238681   4.975   6.090   5.416
12913TIP3    H138682   4.949   6.003   5.384
12913TIP3    H238683   5.009   6.135   5.339
12914TIP3   OH238684   5.940   4.105   1.847
12914TIP3    H138685   5.924   4.030   1.904
12914TIP3    H238686   6.007   4.074   1.785
12915TIP3   OH238687   0.280   4.561   5.193
12915TIP3    H138688   0.200   4.608   5.169
12915TIP3    H238689   0.265   4.472   5.160
12916TIP3   OH238690   3.412   7.055   4.981
12916TIP3    H138691   3.414   7.126   5.045
12916TIP3    H238692   3.498   7.013   4.989
12917TIP3   OH238693   0.288   4.990   0.450
12917TIP3    H138694   0.268   4.908   0.406
12917TIP3    H238695   0.357   5.030   0.397
12918TIP3   OH238696   0.155   5.885   4.351
12918TIP3    H138697   0.243   5.918   4.371
12918TIP3    H238698   0.131   5.833   4.428
12919TIP3   OH238699   0.812   2.831   3.648
12919TIP3    H138700   0.799   2.912   3.697
12919TIP3    H238701   0.810   2.762   3.714
12920TIP3   OH238702   5.773   6.469   0.462
12920TIP3    H138703   5.736   6.448   0.376
12920TIP3    H238704   5.856   6.511   0.442
12921TIP3   OH238705   7.261   6.319   6.473
12921TIP3    H138706   7.242   6.284   6.386
12921TIP3    H238707   7.345   6.363   6.464
12922TIP3   OH238708   0.308   5.245   0.584
12922TIP3    H138709   0.227   5.289   0.559
12922TIP3    H238710   0.342   5.210   0.501
12923TIP3   OH238711   7.173   2.066   1.533
12923TIP3    H138712   7.258   2.109   1.543
12923TIP3    H238713   7.194   1.982   1.491
12924TIP3   OH238714   4.681   0.476   3.468
12924TIP3    H138715   4.671   0.383   3.486
12924TIP3    H238716   4.701   0.480   3.374
12925TIP3   OH238717   3.019   5.555   2.844
12925TIP3    H138718   3.026   5.478   2.787
12925TIP3    H238719   2.991   5.519   2.929
12926TIP3   OH238720   0.403   2.677   1.360
12926TIP3    H138721   0.333   2.617   1.387
12926TIP3    H238722   0.441   2.636   1.282
12927TIP3   OH238723   3.458   2.861   2.835
12927TIP3    H138724   3.437   2.791   2.897
12927TIP3    H238725   3.403   2.843   2.759
12928TIP3   OH238726   6.670   6.613   0.000
12928TIP3    H138727   6.687   6.538   0.058
12928TIP3    H238728   6.756   6.640  -0.030
12929TIP3   OH238729   0.417   5.705   2.807
12929TIP3    H138730   0.417   5.800   2.810
12929TIP3    H238731   0.373   5.678   2.888
12930TIP3   OH238732   4.909   1.660   5.356
12930TIP3    H138733   4.835   1.713   5.386
12930TIP3    H238734   4.899   1.658   5.261
12931TIP3   OH238735   4.871   3.083   2.634
12931TIP3    H138736   4.853   2.991   2.614
12931TIP3    H238737   4.889   3.123   2.549
12932TIP3   OH238738   3.037   1.384   0.674
12932TIP3    H138739   3.130   1.399   0.690
12932TIP3    H238740   3.013   1.311   0.731
12933TIP3   OH238741   4.523   7.585   0.078
12933TIP3    H138742   4.530   7.653   0.144
12933TIP3    H238743   4.603   7.533   0.088
12934TIP3   OH238744   7.651   5.105   4.435
12934TIP3    H138745   7.626   5.135   4.523
12934TIP3    H238746   7.591   5.033   4.417
12935TIP3   OH238747   7.707   0.194   2.967
12935TIP3    H138748   7.629   0.249   2.972
12935TIP3    H238749   7.695   0.142   2.887
12936TIP3   OH238750   4.520   6.873   1.145
12936TIP3    H138751   4.484   6.859   1.232
12936TIP3    H238752   4.549   6.964   1.144
12937TIP3   OH238753   5.964   0.490   5.664
12937TIP3    H138754   6.036   0.506   5.725
12937TIP3    H238755   5.900   0.558   5.683
12938TIP3   OH238756   7.007   5.186   4.624
12938TIP3    H138757   7.014   5.268   4.575
12938TIP3    H238758   7.093   5.176   4.666
12939TIP3   OH238759   3.515   0.859   0.526
12939TIP3    H138760   3.543   0.936   0.575
12939TIP3    H238761   3.425   0.844   0.554
12940TIP3   OH238762   6.647   3.073   2.449
12940TIP3    H138763   6.637   3.163   2.481
12940TIP3    H238764   6.570   3.058   2.395
12941TIP3   OH238765   3.679   5.815   4.808
12941TIP3    H138766   3.597   5.821   4.858
12941TIP3    H238767   3.726   5.895   4.832
12942TIP3   OH238768   0.168   7.369   0.574
12942TIP3    H138769   0.251   7.417   0.577
12942TIP3    H238770   0.139   7.365   0.665
12943TIP3   OH238771   7.031   5.826   2.119
12943TIP3    H138772   7.028   5.918   2.094
12943TIP3    H238773   7.020   5.778   2.037
12944TIP3   OH238774   7.863   0.338   3.403
12944TIP3    H138775   7.920   0.351   3.327
12944TIP3    H238776   7.902   0.393   3.472
12945TIP3   OH238777   7.578   3.858   0.238
12945TIP3    H138778   7.531   3.896   0.312
12945TIP3    H238779   7.617   3.933   0.193
12946TIP3   OH238780   4.527   7.625   2.363
12946TIP3    H138781   4.523   7.695   2.427
12946TIP3    H238782   4.576   7.555   2.407
12947TIP3   OH238783   0.561   0.011   1.958
12947TIP3    H138784   0.596  -0.078   1.961
12947TIP3    H238785   0.471   0.003   1.989
12948TIP3   OH238786   1.671   4.119   0.462
12948TIP3    H138787   1.587   4.140   0.502
12948TIP3    H238788   1.658   4.132   0.368
12949TIP3   OH238789   2.622   6.118   3.588
12949TIP3    H138790   2.637   6.110   3.494
12949TIP3    H238791   2.677   6.191   3.616
12950TIP3   OH238792   1.690   0.694   5.459
12950TIP3    H138793   1.677   0.785   5.430
12950TIP3    H238794   1.629   0.684   5.532
12951TIP3   OH238795   2.226   0.048   5.956
12951TIP3    H138796   2.229   0.143   5.958
12951TIP3    H238797   2.315   0.022   5.932
12952TIP3   OH238798   8.190   4.696   0.635
12952TIP3    H138799   8.126   4.752   0.592
12952TIP3    H238800   8.200   4.621   0.577
12953TIP3   OH238801   7.198   3.525   6.062
12953TIP3    H138802   7.184   3.618   6.049
12953TIP3    H238803   7.123   3.496   6.115
12954TIP3   OH238804   0.259   5.038   5.298
12954TIP3    H138805   0.305   4.984   5.234
12954TIP3    H238806   0.171   5.001   5.304
12955TIP3   OH238807   2.363   7.489   6.060
12955TIP3    H138808   2.384   7.438   6.137
12955TIP3    H238809   2.421   7.565   6.065
12956TIP3   OH238810   7.760   6.693   2.453
12956TIP3    H138811   7.802   6.777   2.436
12956TIP3    H238812   7.683   6.715   2.506
12957TIP3   OH238813   5.570   1.784   6.426
12957TIP3    H138814   5.500   1.848   6.441
12957TIP3    H238815   5.525   1.707   6.393
12958TIP3   OH238816   0.158   5.468   6.405
12958TIP3    H138817   0.118   5.410   6.470
12958TIP3    H238818   0.252   5.455   6.418
12959TIP3   OH238819   4.507   1.208   0.406
12959TIP3    H138820   4.516   1.298   0.375
12959TIP3    H238821   4.573   1.199   0.475
12960TIP3   OH238822   8.164   0.096   5.478
12960TIP3    H138823   8.211   0.027   5.524
12960TIP3    H238824   8.173   0.173   5.535
12961TIP3   OH238825   0.018   7.701   0.567
12961TIP3    H138826   0.017   7.609   0.539
12961TIP3    H238827   0.108   7.729   0.552
12962TIP3   OH238828   5.692   3.739   2.829
12962TIP3    H138829   5.743   3.680   2.773
12962TIP3    H238830   5.673   3.687   2.907
12963TIP3   OH238831   4.678   7.388   5.959
12963TIP3    H138832   4.621   7.431   6.023
12963TIP3    H238833   4.667   7.438   5.878
12964TIP3   OH238834   0.023   7.125   1.262
12964TIP3    H138835   0.116   7.115   1.283
12964TIP3    H238836   0.006   7.057   1.198
12965TIP3   OH238837   5.289   5.284   1.891
12965TIP3    H138838   5.340   5.363   1.873
12965TIP3    H238839   5.354   5.217   1.911
12966TIP3   OH238840   0.592   4.175   4.039
12966TIP3    H138841   0.548   4.178   4.124
12966TIP3    H238842   0.540   4.231   3.982
12967TIP3   OH238843   7.026   2.086   0.838
12967TIP3    H138844   7.020   2.116   0.748
12967TIP3    H238845   7.066   2.159   0.886
12968TIP3   OH238846   1.299   2.156   5.169
12968TIP3    H138847   1.307   2.230   5.108
12968TIP3    H238848   1.213   2.168   5.209
12969TIP3   OH238849   3.599   6.796   4.818
12969TIP3    H138850   3.591   6.846   4.899
12969TIP3    H238851   3.560   6.711   4.839
12970TIP3   OH238852   3.752   6.513   1.234
12970TIP3    H138853   3.822   6.454   1.205
12970TIP3    H238854   3.770   6.595   1.188
12971TIP3   OH238855   2.844   6.829   3.343
12971TIP3    H138856   2.821   6.737   3.361
12971TIP3    H238857   2.838   6.872   3.429
12972TIP3   OH238858   1.539   3.210   6.145
12972TIP3    H138859   1.570   3.292   6.182
12972TIP3    H238860   1.468   3.235   6.086
12973TIP3   OH238861   3.977   5.560   1.510
12973TIP3    H138862   3.904   5.578   1.569
12973TIP3    H238863   3.997   5.467   1.523
12974TIP3   OH238864   5.307   3.034   2.075
12974TIP3    H138865   5.357   3.011   2.154
12974TIP3    H238866   5.373   3.036   2.005
12975TIP3   OH238867   4.942   5.131   5.740
12975TIP3    H138868   5.038   5.135   5.747
12975TIP3    H238869   4.926   5.111   5.648
12976TIP3   OH238870   1.849   0.337   5.541
12976TIP3    H138871   1.890   0.407   5.592
12976TIP3    H238872   1.892   0.340   5.456
12977TIP3   OH238873   0.591   6.707   5.157
12977TIP3    H138874   0.545   6.678   5.078
12977TIP3    H238875   0.522   6.728   5.219
12978TIP3   OH238876   4.829   1.158   2.481
12978TIP3    H138877   4.875   1.239   2.458
12978TIP3    H238878   4.872   1.091   2.427
12979TIP3   OH238879   2.477   2.807   2.778
12979TIP3    H138880   2.510   2.820   2.867
12979TIP3    H238881   2.517   2.724   2.750
12980TIP3   OH238882   8.064   7.209   5.849
12980TIP3    H138883   8.110   7.159   5.917
12980TIP3    H238884   8.085   7.300   5.868
12981TIP3   OH238885   2.212   2.258   3.473
12981TIP3    H138886   2.263   2.205   3.534
12981TIP3    H238887   2.247   2.236   3.387
12982TIP3   OH238888   3.592   3.182   4.001
12982TIP3    H138889   3.687   3.187   4.013
12982TIP3    H238890   3.561   3.271   4.017
12983TIP3   OH238891   6.250   1.388   5.555
12983TIP3    H138892   6.212   1.392   5.643
12983TIP3    H238893   6.344   1.405   5.568
12984TIP3   OH238894   0.523   5.366   6.210
12984TIP3    H138895   0.442   5.404   6.175
12984TIP3    H238896   0.509   5.272   6.206
12985TIP3   OH238897   4.605   1.716   5.675
12985TIP3    H138898   4.628   1.715   5.582
12985TIP3    H238899   4.635   1.801   5.706
12986TIP3   OH238900   1.024   7.855   0.937
12986TIP3    H138901   1.042   7.801   0.860
12986TIP3    H238902   0.940   7.897   0.918
12987TIP3   OH238903   5.414   6.382   4.539
12987TIP3    H138904   5.376   6.432   4.610
12987TIP3    H238905   5.460   6.447   4.485
12988TIP3   OH238906   3.706   1.786   3.874
12988TIP3    H138907   3.622   1.767   3.917
12988TIP3    H238908   3.763   1.814   3.946
12989TIP3   OH238909   7.335   0.797   1.413
12989TIP3    H138910   7.279   0.721   1.392
12989TIP3    H238911   7.290   0.871   1.373
12990TIP3   OH238912   3.758   4.691   0.100
12990TIP3    H138913   3.758   4.711   0.194
12990TIP3    H238914   3.719   4.769   0.060
12991TIP3   OH238915   1.543   7.747   4.487
12991TIP3    H138916   1.574   7.678   4.545
12991TIP3    H238917   1.471   7.707   4.438
12992TIP3   OH238918   5.421   2.840   6.247
12992TIP3    H138919   5.409   2.755   6.206
12992TIP3    H238920   5.504   2.832   6.294
12993TIP3   OH238921   2.730   2.585   4.744
12993TIP3    H138922   2.681   2.523   4.799
12993TIP3    H238923   2.754   2.655   4.805
12994TIP3   OH238924   0.475   1.390   3.594
12994TIP3    H138925   0.561   1.421   3.565
12994TIP3    H238926   0.459   1.435   3.677
12995TIP3   OH238927   7.606   2.066   6.054
12995TIP3    H138928   7.649   2.072   5.969
12995TIP3    H238929   7.668   2.105   6.115
12996TIP3   OH238930   6.333   0.486   2.930
12996TIP3    H138931   6.311   0.401   2.967
12996TIP3    H238932   6.328   0.547   3.003
12997TIP3   OH238933   2.401   6.148   4.538
12997TIP3    H138934   2.434   6.197   4.614
12997TIP3    H238935   2.337   6.207   4.498
12998TIP3   OH238936   1.390   1.788   3.001
12998TIP3    H138937   1.480   1.776   3.032
12998TIP3    H238938   1.395   1.862   2.941
12999TIP3   OH238939   5.849   6.139   4.677
12999TIP3    H138940   5.850   6.234   4.666
12999TIP3    H238941   5.763   6.121   4.715
13000TIP3   OH238942   0.492   7.777   2.153
13000TIP3    H138943   0.401   7.791   2.128
13000TIP3    H238944   0.541   7.789   2.072
13001TIP3   OH238945   4.632   4.106   4.955
13001TIP3    H138946   4.718   4.116   4.996
13001TIP3    H238947   4.583   4.184   4.983
13002TIP3   OH238948   7.605   3.241   2.407
13002TIP3    H138949   7.519   3.279   2.390
13002TIP3    H238950   7.661   3.316   2.427
13003TIP3   OH238951   6.775   4.500   3.520
13003TIP3    H138952   6.866   4.472   3.504
13003TIP3    H238953   6.767   4.501   3.615
13004TIP3   OH238954   5.004   7.505   5.124
13004TIP3    H138955   4.951   7.585   5.123
13004TIP3    H238956   5.071   7.520   5.057
13005TIP3   OH238957   3.787   5.467   4.334
13005TIP3    H138958   3.765   5.556   4.361
13005TIP3    H238959   3.749   5.412   4.403
13006TIP3   OH238960   2.291   5.240   6.375
13006TIP3    H138961   2.204   5.277   6.385
13006TIP3    H238962   2.341   5.307   6.328
13007TIP3   OH238963   1.526   2.897   6.237
13007TIP3    H138964   1.497   2.973   6.187
13007TIP3    H238965   1.477   2.903   6.320
13008TIP3   OH238966   6.842   6.699   6.642
13008TIP3    H138967   6.828   6.651   6.724
13008TIP3    H238968   6.871   6.786   6.671
13009TIP3   OH238969   2.363   0.902   5.734
13009TIP3    H138970   2.459   0.901   5.739
13009TIP3    H238971   2.342   0.990   5.703
13010TIP3   OH238972   4.969   5.335   3.723
13010TIP3    H138973   5.041   5.301   3.669
13010TIP3    H238974   4.988   5.429   3.731
13011TIP3   OH238975   0.843   6.751   4.343
13011TIP3    H138976   0.759   6.727   4.381
13011TIP3    H238977   0.891   6.791   4.416
13012TIP3   OH238978   0.337   3.605   1.919
13012TIP3    H138979   0.369   3.534   1.974
13012TIP3    H238980   0.244   3.611   1.940
13013TIP3   OH238981   5.340   6.081   2.049
13013TIP3    H138982   5.316   6.095   2.140
13013TIP3    H238983   5.272   6.024   2.014
13014TIP3   OH238984   5.350   7.643   0.112
13014TIP3    H138985   5.388   7.683   0.190
13014TIP3    H238986   5.416   7.655   0.044
13015TIP3   OH238987   5.325   0.634   2.453
13015TIP3    H138988   5.308   0.703   2.517
13015TIP3    H238989   5.377   0.570   2.502
13016TIP3   OH238990   0.469   1.960   1.648
13016TIP3    H138991   0.518   1.900   1.592
13016TIP3    H238992   0.457   2.038   1.594
13017TIP3   OH238993   6.112   4.245   6.745
13017TIP3    H138994   6.059   4.245   6.666
13017TIP3    H238995   6.138   4.154   6.757
13018TIP3   OH238996   3.064   7.097   5.890
13018TIP3    H138997   2.993   7.160   5.881
13018TIP3    H238998   3.021   7.011   5.889
13019TIP3   OH238999   0.641   3.867   4.978
13019TIP3    H139000   0.648   3.773   4.990
13019TIP3    H239001   0.631   3.879   4.884
13020TIP3   OH239002   3.098   6.100   4.076
13020TIP3    H139003   3.104   6.096   4.172
13020TIP3    H239004   3.008   6.128   4.059
13021TIP3   OH239005   0.077   1.975   0.338
13021TIP3    H139006   0.013   1.904   0.330
13021TIP3    H239007   0.160   1.935   0.311
13022TIP3   OH239008   3.838   7.692   6.578
13022TIP3    H139009   3.902   7.716   6.510
13022TIP3    H239010   3.848   7.598   6.588
13023TIP3   OH239011   2.333   3.360   3.202
13023TIP3    H139012   2.411   3.336   3.151
13023TIP3    H239013   2.260   3.322   3.152
13024TIP3   OH239014   7.833   6.440   0.715
13024TIP3    H139015   7.921   6.446   0.753
13024TIP3    H239016   7.775   6.433   0.790
13025TIP3   OH239017   7.945   1.108   6.205
13025TIP3    H139018   7.884   1.040   6.177
13025TIP3    H239019   7.916   1.131   6.293
13026TIP3   OH239020   7.679   1.036   1.234
13026TIP3    H139021   7.748   0.997   1.180
13026TIP3    H239022   7.629   0.961   1.266
13027TIP3   OH239023   3.017   7.652   1.400
13027TIP3    H139024   3.051   7.594   1.467
13027TIP3    H239025   3.092   7.668   1.342
13028TIP3   OH239026   2.397   0.931   3.479
13028TIP3    H139027   2.320   0.933   3.423
13028TIP3    H239028   2.410   1.023   3.505
13029TIP3   OH239029   1.831   1.621   2.559
13029TIP3    H139030   1.759   1.642   2.618
13029TIP3    H239031   1.811   1.532   2.529
13030TIP3   OH239032   6.714   4.699   4.396
13030TIP3    H139033   6.767   4.774   4.422
13030TIP3    H239034   6.672   4.670   4.477
13031TIP3   OH239035   7.198   6.652   5.877
13031TIP3    H139036   7.286   6.645   5.914
13031TIP3    H239037   7.163   6.563   5.883
13032TIP3   OH239038   7.491   2.236   2.502
13032TIP3    H139039   7.528   2.297   2.565
13032TIP3    H239040   7.400   2.265   2.491
13033TIP3   OH239041   4.407   4.602   6.248
13033TIP3    H139042   4.345   4.620   6.319
13033TIP3    H239043   4.371   4.526   6.204
13034TIP3   OH239044   4.296   4.082   1.657
13034TIP3    H139045   4.384   4.072   1.692
13034TIP3    H239046   4.307   4.092   1.563
13035TIP3   OH239047   2.085   2.573   5.254
13035TIP3    H139048   2.111   2.622   5.176
13035TIP3    H239049   2.035   2.635   5.306
13036TIP3   OH239050   4.257   4.646   0.036
13036TIP3    H139051   4.259   4.690  -0.049
13036TIP3    H239052   4.334   4.679   0.081
13037TIP3   OH239053   8.086   6.435   0.837
13037TIP3    H139054   8.097   6.529   0.848
13037TIP3    H239055   8.089   6.399   0.926
13038TIP3   OH239056   3.100   5.635   1.253
13038TIP3    H139057   3.046   5.581   1.195
13038TIP3    H239058   3.041   5.704   1.284
13039TIP3   OH239059   1.962   6.298   4.552
13039TIP3    H139060   1.925   6.298   4.464
13039TIP3    H239061   1.954   6.389   4.581
13040TIP3   OH239062   5.473   6.800   1.911
13040TIP3    H139063   5.439   6.862   1.976
13040TIP3    H239064   5.533   6.744   1.960
13041TIP3   OH239065   3.338   1.870   3.762
13041TIP3    H139066   3.320   1.803   3.828
13041TIP3    H239067   3.402   1.829   3.704
13042TIP3   OH239068   6.964   5.058   4.875
13042TIP3    H139069   6.975   5.112   4.797
13042TIP3    H239070   6.981   5.117   4.948
13043TIP3   OH239071   5.666   0.727   2.787
13043TIP3    H139072   5.736   0.678   2.829
13043TIP3    H239073   5.670   0.700   2.695
13044TIP3   OH239074   6.830   7.735   6.688
13044TIP3    H139075   6.762   7.739   6.621
13044TIP3    H239076   6.788   7.691   6.762
13045TIP3   OH239077   3.219   0.587   1.296
13045TIP3    H139078   3.289   0.538   1.338
13045TIP3    H239079   3.154   0.600   1.365
13046TIP3   OH239080   0.518   5.730   5.565
13046TIP3    H139081   0.432   5.696   5.538
13046TIP3    H239082   0.539   5.682   5.645
13047TIP3   OH239083   3.398   3.119   6.551
13047TIP3    H139084   3.461   3.122   6.622
13047TIP3    H239085   3.327   3.063   6.583
13048TIP3   OH239086   6.867   2.261   6.647
13048TIP3    H139087   6.872   2.167   6.659
13048TIP3    H239088   6.859   2.273   6.552
13049TIP3   OH239089   6.479   3.826   5.261
13049TIP3    H139090   6.551   3.830   5.197
13049TIP3    H239091   6.516   3.777   5.335
13050TIP3   OH239092   7.768   3.999   1.909
13050TIP3    H139093   7.771   4.001   2.005
13050TIP3    H239094   7.676   4.015   1.888
13051TIP3   OH239095   6.790   2.377   0.802
13051TIP3    H139096   6.826   2.290   0.816
13051TIP3    H239097   6.792   2.418   0.889
13052TIP3   OH239098   1.538   0.097   2.836
13052TIP3    H139099   1.629   0.066   2.840
13052TIP3    H239100   1.500   0.052   2.761
13053TIP3   OH239101   5.910   2.951   1.511
13053TIP3    H139102   5.859   3.027   1.484
13053TIP3    H239103   5.977   2.987   1.570
13054TIP3   OH239104   7.190   6.780   0.005
13054TIP3    H139105   7.107   6.733   0.012
13054TIP3    H239106   7.193   6.835   0.083
13055TIP3   OH239107   5.461   7.062   0.334
13055TIP3    H139108   5.456   7.035   0.242
13055TIP3    H239109   5.475   6.981   0.382
13056TIP3   OH239110   1.960   5.103   3.442
13056TIP3    H139111   2.054   5.104   3.456
13056TIP3    H239112   1.940   5.014   3.415
13057TIP3   OH239113   4.159   5.405   4.412
13057TIP3    H139114   4.243   5.369   4.383
13057TIP3    H239115   4.147   5.370   4.500
13058TIP3   OH239116   8.245   2.236   0.397
13058TIP3    H139117   8.290   2.157   0.367
13058TIP3    H239118   8.266   2.303   0.332
13059TIP3   OH239119   1.108   1.355   4.235
13059TIP3    H139120   1.176   1.296   4.205
13059TIP3    H239121   1.136   1.383   4.322
13060TIP3   OH239122   1.137   2.760   2.990
13060TIP3    H139123   1.119   2.741   2.898
13060TIP3    H239124   1.051   2.777   3.028
13061TIP3   OH239125   0.606   7.211   2.197
13061TIP3    H139126   0.672   7.256   2.144
13061TIP3    H239127   0.652   7.188   2.278
13062TIP3   OH239128   5.527   7.796   5.065
13062TIP3    H139129   5.516   7.730   4.996
13062TIP3    H239130   5.559   7.747   5.140
13063TIP3   OH239131   1.853   7.751   3.709
13063TIP3    H139132   1.783   7.697   3.747
13063TIP3    H239133   1.895   7.792   3.784
13064TIP3   OH239134   1.558   2.672   5.192
13064TIP3    H139135   1.612   2.594   5.178
13064TIP3    H239136   1.617   2.733   5.237
13065TIP3   OH239137   3.929   3.667   1.824
13065TIP3    H139138   3.869   3.679   1.897
13065TIP3    H239139   3.946   3.756   1.792
13066TIP3   OH239140   6.974   3.358   5.758
13066TIP3    H139141   6.961   3.448   5.789
13066TIP3    H239142   6.915   3.306   5.812
13067TIP3   OH239143   5.794   2.213   0.416
13067TIP3    H139144   5.719   2.194   0.473
13067TIP3    H239145   5.842   2.282   0.462
13068TIP3   OH239146   1.255   3.327   5.683
13068TIP3    H139147   1.221   3.397   5.740
13068TIP3    H239148   1.205   3.336   5.602
13069TIP3   OH239149   4.708   3.281   4.095
13069TIP3    H139150   4.727   3.187   4.096
13069TIP3    H239151   4.625   3.289   4.142
13070TIP3   OH239152   6.261   7.469   4.624
13070TIP3    H139153   6.334   7.411   4.646
13070TIP3    H239154   6.222   7.430   4.546
13071TIP3   OH239155   0.646   5.031   2.639
13071TIP3    H139156   0.628   5.032   2.545
13071TIP3    H239157   0.662   5.122   2.661
13072TIP3   OH239158   7.538   1.730   6.390
13072TIP3    H139159   7.475   1.762   6.454
13072TIP3    H239160   7.484   1.697   6.317
13073TIP3   OH239161   1.530   3.991   3.308
13073TIP3    H139162   1.509   4.008   3.216
13073TIP3    H239163   1.606   3.932   3.305
13074TIP3   OH239164   6.643   2.984   0.417
13074TIP3    H139165   6.699   3.057   0.442
13074TIP3    H239166   6.682   2.951   0.336
13075TIP3   OH239167   1.603   7.449   2.431
13075TIP3    H139168   1.613   7.383   2.500
13075TIP3    H239169   1.509   7.451   2.414
13076TIP3   OH239170   8.266   6.101   6.224
13076TIP3    H139171   8.188   6.047   6.206
13076TIP3    H239172   8.339   6.048   6.193
13077TIP3   OH239173   0.834   5.290   4.739
13077TIP3    H139174   0.844   5.196   4.753
13077TIP3    H239175   0.800   5.297   4.650
13078TIP3   OH239176   6.892   2.327   1.130
13078TIP3    H139177   6.883   2.273   1.208
13078TIP3    H239178   6.979   2.304   1.095
13079TIP3   OH239179   7.631   5.145   0.912
13079TIP3    H139180   7.561   5.186   0.861
13079TIP3    H239181   7.701   5.129   0.849
13080TIP3   OH239182   8.218   6.143   1.569
13080TIP3    H139183   8.313   6.135   1.571
13080TIP3    H239184   8.185   6.056   1.590
13081TIP3   OH239185   6.829   3.056   3.183
13081TIP3    H139186   6.787   3.124   3.235
13081TIP3    H239187   6.902   3.100   3.140
13082TIP3   OH239188   8.050   5.108   1.353
13082TIP3    H139189   7.998   5.120   1.273
13082TIP3    H239190   7.988   5.121   1.424
13083TIP3   OH239191   2.268   3.040   2.278
13083TIP3    H139192   2.235   3.000   2.359
13083TIP3    H239193   2.362   3.028   2.282
13084TIP3   OH239194   6.429   2.260   3.936
13084TIP3    H139195   6.483   2.338   3.945
13084TIP3    H239196   6.339   2.294   3.928
13085TIP3   OH239197   4.912   5.798   0.646
13085TIP3    H139198   4.864   5.765   0.722
13085TIP3    H239199   5.002   5.769   0.660
13086TIP3   OH239200   5.573   5.776   6.618
13086TIP3    H139201   5.511   5.817   6.679
13086TIP3    H239202   5.634   5.728   6.675
13087TIP3   OH239203   5.374   6.654   0.383
13087TIP3    H139204   5.335   6.657   0.296
13087TIP3    H239205   5.468   6.646   0.367
13088TIP3   OH239206   7.740   2.487   3.378
13088TIP3    H139207   7.685   2.563   3.358
13088TIP3    H239208   7.735   2.478   3.473
13089TIP3   OH239209   3.894   3.893   5.132
13089TIP3    H139210   3.810   3.847   5.139
13089TIP3    H239211   3.915   3.917   5.222
13090TIP3   OH239212   8.054   1.182   1.584
13090TIP3    H139213   7.989   1.193   1.516
13090TIP3    H239214   8.032   1.098   1.626
13091TIP3   OH239215   7.087   5.762   5.913
13091TIP3    H139216   7.110   5.808   5.993
13091TIP3    H239217   7.104   5.670   5.933
13092TIP3   OH239218   2.352   0.459   3.100
13092TIP3    H139219   2.325   0.372   3.129
13092TIP3    H239220   2.440   0.470   3.137
13093TIP3   OH239221  -0.013   1.652   1.634
13093TIP3    H139222   0.047   1.583   1.658
13093TIP3    H239223   0.030   1.733   1.660
13094TIP3   OH239224   6.457   6.101   1.627
13094TIP3    H139225   6.551   6.081   1.631
13094TIP3    H239226   6.430   6.074   1.539
13095TIP3   OH239227   0.194   1.466   4.933
13095TIP3    H139228   0.124   1.527   4.957
13095TIP3    H239229   0.244   1.454   5.014
13096TIP3   OH239230   2.985   2.679   4.185
13096TIP3    H139231   2.978   2.682   4.280
13096TIP3    H239232   3.059   2.735   4.164
13097TIP3   OH239233   3.096   0.724   4.748
13097TIP3    H139234   3.060   0.675   4.674
13097TIP3    H239235   3.081   0.668   4.824
13098TIP3   OH239236   3.281   4.545   1.971
13098TIP3    H139237   3.241   4.553   1.884
13098TIP3    H239238   3.303   4.452   1.978
13099TIP3   OH239239   5.529   5.346   3.073
13099TIP3    H139240   5.595   5.353   3.004
13099TIP3    H239241   5.472   5.422   3.058
13100TIP3   OH239242   0.354   7.237   3.276
13100TIP3    H139243   0.332   7.243   3.183
13100TIP3    H239244   0.277   7.272   3.322
13101TIP3   OH239245   3.598   1.336   6.272
13101TIP3    H139246   3.685   1.320   6.236
13101TIP3    H239247   3.541   1.278   6.222
13102TIP3   OH239248   3.157   4.749   5.237
13102TIP3    H139249   3.167   4.810   5.310
13102TIP3    H239250   3.116   4.801   5.168
13103TIP3   OH239251   7.649   0.559   3.635
13103TIP3    H139252   7.566   0.556   3.683
13103TIP3    H239253   7.714   0.527   3.698
13104TIP3   OH239254   4.647   7.663   4.336
13104TIP3    H139255   4.590   7.587   4.345
13104TIP3    H239256   4.587   7.737   4.328
13105TIP3   OH239257   4.221   3.636   0.783
13105TIP3    H139258   4.173   3.598   0.710
13105TIP3    H239259   4.203   3.578   0.857
13106TIP3   OH239260   4.410   2.955   2.242
13106TIP3    H139261   4.497   2.925   2.217
13106TIP3    H239262   4.426   3.020   2.310
13107TIP3   OH239263   5.523   0.261   5.172
13107TIP3    H139264   5.572   0.211   5.107
13107TIP3    H239265   5.506   0.198   5.243
13108TIP3   OH239266   7.497   6.058   6.474
13108TIP3    H139267   7.575   6.109   6.493
13108TIP3    H239268   7.460   6.036   6.560
13109TIP3   OH239269   4.698   1.015   2.681
13109TIP3    H139270   4.765   1.064   2.633
13109TIP3    H239271   4.655   0.962   2.614
13110TIP3   OH239272   3.783   3.710   5.924
13110TIP3    H139273   3.688   3.709   5.936
13110TIP3    H239274   3.801   3.638   5.864
13111TIP3   OH239275   2.700   0.688   2.051
13111TIP3    H139276   2.746   0.737   2.119
13111TIP3    H239277   2.745   0.710   1.970
13112TIP3   OH239278   6.776   7.271   3.581
13112TIP3    H139279   6.763   7.260   3.675
13112TIP3    H239280   6.842   7.340   3.574
13113TIP3   OH239281   3.266   6.822   2.677
13113TIP3    H139282   3.190   6.827   2.736
13113TIP3    H239283   3.341   6.833   2.735
13114TIP3   OH239284   7.444   5.787   3.249
13114TIP3    H139285   7.536   5.794   3.274
13114TIP3    H239286   7.399   5.765   3.331
13115TIP3   OH239287   1.446   0.382   6.071
13115TIP3    H139288   1.381   0.359   6.006
13115TIP3    H239289   1.504   0.305   6.075
13116TIP3   OH239290   4.562   2.378   2.041
13116TIP3    H139291   4.541   2.285   2.032
13116TIP3    H239292   4.657   2.380   2.052
13117TIP3   OH239293   4.957   4.641   3.641
13117TIP3    H139294   4.875   4.681   3.611
13117TIP3    H239295   4.964   4.667   3.733
13118TIP3   OH239296   6.413   0.322   6.326
13118TIP3    H139297   6.400   0.280   6.411
13118TIP3    H239298   6.422   0.415   6.347
13119TIP3   OH239299   0.680   0.768   3.094
13119TIP3    H139300   0.602   0.820   3.111
13119TIP3    H239301   0.678   0.699   3.160
13120TIP3   OH239302   2.877   6.974   4.691
13120TIP3    H139303   2.916   6.902   4.642
13120TIP3    H239304   2.784   6.971   4.668
13121TIP3   OH239305   7.867   6.851   4.611
13121TIP3    H139306   7.929   6.918   4.582
13121TIP3    H239307   7.835   6.810   4.530
13122TIP3   OH239308   8.083   1.320   5.326
13122TIP3    H139309   8.044   1.337   5.411
13122TIP3    H239310   8.090   1.224   5.322
13123TIP3   OH239311   0.804   7.434   6.020
13123TIP3    H139312   0.866   7.467   6.085
13123TIP3    H239313   0.745   7.377   6.070
13124TIP3   OH239314   1.556   5.720   4.438
13124TIP3    H139315   1.626   5.674   4.485
13124TIP3    H239316   1.486   5.655   4.431
13125TIP3   OH239317   1.759   7.011   6.403
13125TIP3    H139318   1.816   6.980   6.474
13125TIP3    H239319   1.798   7.094   6.376
13126TIP3   OH239320   0.829   7.412   0.692
13126TIP3    H139321   0.909   7.395   0.742
13126TIP3    H239322   0.860   7.428   0.603
13127TIP3   OH239323   7.411   1.206   6.192
13127TIP3    H139324   7.421   1.111   6.192
13127TIP3    H239325   7.379   1.228   6.280
13128TIP3   OH239326   4.959   4.118   1.645
13128TIP3    H139327   4.947   4.173   1.567
13128TIP3    H239328   4.874   4.075   1.657
13129TIP3   OH239329   5.682   4.380   6.407
13129TIP3    H139330   5.628   4.455   6.382
13129TIP3    H239331   5.619   4.313   6.434
13130TIP3   OH239332   0.969   1.679   0.128
13130TIP3    H139333   1.011   1.597   0.100
13130TIP3    H239334   1.026   1.748   0.095
13131TIP3   OH239335   6.876   7.390   5.854
13131TIP3    H139336   6.867   7.308   5.903
13131TIP3    H239337   6.789   7.430   5.857
13132TIP3   OH239338   5.467   2.029   0.249
13132TIP3    H139339   5.481   1.964   0.180
13132TIP3    H239340   5.379   2.010   0.282
13133TIP3   OH239341   4.415   4.909   4.346
13133TIP3    H139342   4.452   4.952   4.423
13133TIP3    H239343   4.441   4.817   4.355
13134TIP3   OH239344   6.207   5.246   2.793
13134TIP3    H139345   6.211   5.159   2.833
13134TIP3    H239346   6.253   5.303   2.854
13135TIP3   OH239347   6.985   2.923   6.342
13135TIP3    H139348   6.989   2.911   6.247
13135TIP3    H239349   6.908   2.873   6.370
13136TIP3   OH239350   7.474   6.651   0.985
13136TIP3    H139351   7.509   6.723   0.933
13136TIP3    H239352   7.530   6.576   0.963
13137TIP3   OH239353   6.692   6.423   4.866
13137TIP3    H139354   6.650   6.480   4.931
13137TIP3    H239355   6.776   6.465   4.849
13138TIP3   OH239356   5.896   6.183   0.421
13138TIP3    H139357   5.820   6.162   0.475
13138TIP3    H239358   5.868   6.258   0.368
13139TIP3   OH239359   5.535   4.558   4.388
13139TIP3    H139360   5.463   4.619   4.402
13139TIP3    H239361   5.526   4.530   4.297
13140TIP3   OH239362   2.681   4.384   1.717
13140TIP3    H139363   2.618   4.364   1.786
13140TIP3    H239364   2.699   4.478   1.727
13141TIP3   OH239365   0.436   3.187   5.339
13141TIP3    H139366   0.409   3.278   5.354
13141TIP3    H239367   0.504   3.172   5.404
13142TIP3   OH239368   0.037   7.316   4.887
13142TIP3    H139369   0.050   7.321   4.792
13142TIP3    H239370   0.049   7.405   4.918
13143TIP3   OH239371   0.983   2.853   1.194
13143TIP3    H139372   0.997   2.876   1.286
13143TIP3    H239373   0.904   2.800   1.194
13144TIP3   OH239374   0.595   1.327   4.232
13144TIP3    H139375   0.539   1.304   4.158
13144TIP3    H239376   0.683   1.331   4.195
13145TIP3   OH239377   6.371   5.059   5.444
13145TIP3    H139378   6.368   5.099   5.357
13145TIP3    H239379   6.280   5.059   5.474
13146TIP3   OH239380   5.257   1.005   1.694
13146TIP3    H139381   5.177   1.052   1.670
13146TIP3    H239382   5.255   1.001   1.790
13147TIP3   OH239383   0.876   5.372   3.139
13147TIP3    H139384   0.861   5.460   3.104
13147TIP3    H239385   0.878   5.315   3.062
13148TIP3   OH239386   3.496   3.382   2.671
13148TIP3    H139387   3.531   3.426   2.749
13148TIP3    H239388   3.484   3.291   2.699
13149TIP3   OH239389   5.049   1.758   4.355
13149TIP3    H139390   4.962   1.790   4.377
13149TIP3    H239391   5.046   1.742   4.261
13150TIP3   OH239392   7.348   6.470   3.001
13150TIP3    H139393   7.320   6.386   3.036
13150TIP3    H239394   7.432   6.453   2.960
13151TIP3   OH239395   5.475   7.141   0.645
13151TIP3    H139396   5.531   7.155   0.721
13151TIP3    H239397   5.485   7.048   0.625
13152TIP3   OH239398   3.194   0.705   4.138
13152TIP3    H139399   3.275   0.743   4.171
13152TIP3    H239400   3.178   0.630   4.196
13153TIP3   OH239401   2.699   6.976   0.931
13153TIP3    H139402   2.653   6.998   0.850
13153TIP3    H239403   2.753   6.900   0.908
13154TIP3   OH239404   2.218   7.765   1.016
13154TIP3    H139405   2.169   7.801   0.942
13154TIP3    H239406   2.309   7.789   0.997
13155TIP3   OH239407   5.339   0.734   5.787
13155TIP3    H139408   5.408   0.668   5.796
13155TIP3    H239409   5.385   0.818   5.792
13156TIP3   OH239410   3.934   6.131   5.418
13156TIP3    H139411   3.990   6.068   5.373
13156TIP3    H239412   3.944   6.213   5.369
13157TIP3   OH239413   6.154   5.694   1.908
13157TIP3    H139414   6.247   5.693   1.932
13157TIP3    H239415   6.148   5.634   1.834
13158TIP3   OH239416   6.959   5.427   3.344
13158TIP3    H139417   7.034   5.466   3.300
13158TIP3    H239418   6.971   5.332   3.333
13159TIP3   OH239419   0.576   4.555   0.875
13159TIP3    H139420   0.536   4.582   0.957
13159TIP3    H239421   0.652   4.612   0.865
13160TIP3   OH239422   3.695   5.285   5.574
13160TIP3    H139423   3.780   5.322   5.552
13160TIP3    H239424   3.683   5.213   5.513
13161TIP3   OH239425   4.239   5.978   0.819
13161TIP3    H139426   4.330   5.996   0.796
13161TIP3    H239427   4.244   5.939   0.907
13162TIP3   OH239428   2.417   0.966   2.849
13162TIP3    H139429   2.342   1.020   2.824
13162TIP3    H239430   2.387   0.876   2.837
13163TIP3   OH239431   1.221  -0.004   1.747
13163TIP3    H139432   1.195   0.088   1.754
13163TIP3    H239433   1.146  -0.053   1.779
13164TIP3   OH239434   0.313   3.823   2.969
13164TIP3    H139435   0.322   3.759   2.898
13164TIP3    H239436   0.363   3.899   2.940
13165TIP3   OH239437   0.455   5.086   1.516
13165TIP3    H139438   0.420   5.028   1.449
13165TIP3    H239439   0.499   5.156   1.468
13166TIP3   OH239440   2.271   1.342   2.632
13166TIP3    H139441   2.354   1.313   2.595
13166TIP3    H239442   2.220   1.371   2.557
13167TIP3   OH239443   7.683   0.593   4.422
13167TIP3    H139444   7.774   0.584   4.393
13167TIP3    H239445   7.657   0.504   4.447
13168TIP3   OH239446   3.389   2.585   2.160
13168TIP3    H139447   3.450   2.591   2.086
13168TIP3    H239448   3.385   2.674   2.195
13169TIP3   OH239449   7.561   3.573   3.549
13169TIP3    H139450   7.616   3.601   3.622
13169TIP3    H239451   7.624   3.541   3.483
13170TIP3   OH239452   3.939   7.699   2.250
13170TIP3    H139453   3.995   7.658   2.316
13170TIP3    H239454   3.922   7.787   2.283
13171TIP3   OH239455   4.030   4.687   1.789
13171TIP3    H139456   4.064   4.766   1.832
13171TIP3    H239457   4.078   4.682   1.707
13172TIP3   OH239458   3.224   5.343   1.348
13172TIP3    H139459   3.294   5.405   1.327
13172TIP3    H239460   3.269   5.261   1.368
13173TIP3   OH239461   1.076   6.396   0.175
13173TIP3    H139462   1.016   6.462   0.141
13173TIP3    H239463   1.033   6.362   0.253
13174TIP3   OH239464   3.323   1.183   5.703
13174TIP3    H139465   3.230   1.206   5.697
13174TIP3    H239466   3.365   1.262   5.737
13175TIP3   OH239467   4.294   2.503   6.441
13175TIP3    H139468   4.237   2.578   6.423
13175TIP3    H239469   4.280   2.484   6.533
13176TIP3   OH239470   2.695   2.529   1.700
13176TIP3    H139471   2.663   2.446   1.735
13176TIP3    H239472   2.616   2.579   1.682
13177TIP3   OH239473   7.783   7.593   1.210
13177TIP3    H139474   7.860   7.590   1.266
13177TIP3    H239475   7.740   7.676   1.232
13178TIP3   OH239476   4.923   2.096   0.664
13178TIP3    H139477   4.936   2.103   0.569
13178TIP3    H239478   4.830   2.112   0.677
13179TIP3   OH239479   2.468   5.929   0.705
13179TIP3    H139480   2.438   6.002   0.759
13179TIP3    H239481   2.541   5.966   0.654
13180TIP3   OH239482   5.433   5.455   5.528
13180TIP3    H139483   5.511   5.399   5.532
13180TIP3    H239484   5.468   5.544   5.530
13181TIP3   OH239485   6.352   5.692   6.061
13181TIP3    H139486   6.375   5.647   5.980
13181TIP3    H239487   6.374   5.784   6.045
13182TIP3   OH239488   0.997   3.542   0.878
13182TIP3    H139489   0.930   3.483   0.915
13182TIP3    H239490   0.989   3.622   0.929
13183TIP3   OH239491   5.633   3.976   1.920
13183TIP3    H139492   5.661   3.968   1.828
13183TIP3    H239493   5.700   3.929   1.969
13184TIP3   OH239494   5.213   7.370   0.660
13184TIP3    H139495   5.142   7.307   0.670
13184TIP3    H239496   5.171   7.456   0.671
13185TIP3   OH239497   5.115   1.411   4.534
13185TIP3    H139498   5.085   1.348   4.600
13185TIP3    H239499   5.034   1.442   4.493
13186TIP3   OH239500   6.819   3.867   5.979
13186TIP3    H139501   6.813   3.805   6.052
13186TIP3    H239502   6.820   3.813   5.901
13187TIP3   OH239503   2.532   1.447   2.945
13187TIP3    H139504   2.619   1.482   2.926
13187TIP3    H239505   2.538   1.418   3.036
13188TIP3   OH239506   3.682   0.076   2.544
13188TIP3    H139507   3.607   0.114   2.497
13188TIP3    H239508   3.712   0.146   2.602
13189TIP3   OH239509   0.424   5.427   6.474
13189TIP3    H139510   0.454   5.436   6.383
13189TIP3    H239511   0.492   5.376   6.516
13190TIP3   OH239512   6.242   0.563   2.160
13190TIP3    H139513   6.184   0.503   2.113
13190TIP3    H239514   6.220   0.550   2.253
13191TIP3   OH239515   0.335   6.126   3.106
13191TIP3    H139516   0.305   6.183   3.177
13191TIP3    H239517   0.364   6.046   3.150
13192TIP3   OH239518   6.210   7.120   6.666
13192TIP3    H139519   6.241   7.069   6.591
13192TIP3    H239520   6.276   7.189   6.678
13193TIP3   OH239521   0.905   7.277   1.145
13193TIP3    H139522   0.860   7.249   1.065
13193TIP3    H239523   0.854   7.240   1.216
13194TIP3   OH239524   3.274   1.442   0.452
13194TIP3    H139525   3.273   1.462   0.545
13194TIP3    H239526   3.294   1.349   0.447
13195TIP3   OH239527   7.545   7.358   4.091
13195TIP3    H139528   7.560   7.413   4.014
13195TIP3    H239529   7.479   7.295   4.063
13196TIP3   OH239530   4.517   1.486   1.972
13196TIP3    H139531   4.483   1.405   1.935
13196TIP3    H239532   4.472   1.495   2.056
13197TIP3   OH239533   5.976   3.825   5.751
13197TIP3    H139534   5.961   3.747   5.803
13197TIP3    H239535   6.071   3.826   5.736
13198TIP3   OH239536   2.005   1.282   4.102
13198TIP3    H139537   2.050   1.361   4.072
13198TIP3    H239538   1.923   1.313   4.139
13199TIP3   OH239539   7.119   0.280   5.834
13199TIP3    H139540   7.060   0.313   5.902
13199TIP3    H239541   7.064   0.221   5.783
13200TIP3   OH239542   1.103   5.684   3.809
13200TIP3    H139543   1.008   5.699   3.805
13200TIP3    H239544   1.115   5.598   3.769
13201TIP3   OH239545   7.547   1.301   6.554
13201TIP3    H139546   7.618   1.350   6.512
13201TIP3    H239547   7.551   1.214   6.514
13202TIP3   OH239548   4.900   2.803   2.623
13202TIP3    H139549   4.962   2.804   2.695
13202TIP3    H239550   4.814   2.801   2.665
13203TIP3   OH239551   2.393   3.432   4.080
13203TIP3    H139552   2.301   3.433   4.107
13203TIP3    H239553   2.422   3.523   4.091
13204TIP3   OH239554   7.595   3.304   5.529
13204TIP3    H139555   7.531   3.321   5.598
13204TIP3    H239556   7.672   3.272   5.576
13205TIP3   OH239557   6.750   6.740   4.733
13205TIP3    H139558   6.780   6.732   4.824
13205TIP3    H239559   6.775   6.829   4.707
13206TIP3   OH239560   1.465   0.971   0.511
13206TIP3    H139561   1.461   0.907   0.440
13206TIP3    H239562   1.501   1.050   0.470
13207TIP3   OH239563   7.141   0.356   0.886
13207TIP3    H139564   7.140   0.450   0.904
13207TIP3    H239565   7.227   0.327   0.914
13208TIP3   OH239566   0.516   0.815   6.074
13208TIP3    H139567   0.488   0.744   6.131
13208TIP3    H239568   0.603   0.788   6.044
13209TIP3   OH239569   0.461   7.232   2.693
13209TIP3    H139570   0.427   7.300   2.751
13209TIP3    H239571   0.515   7.279   2.629
13210TIP3   OH239572   0.580   0.458   3.105
13210TIP3    H139573   0.494   0.461   3.062
13210TIP3    H239574   0.605   0.366   3.100
13211TIP3   OH239575   1.025   4.605   6.799
13211TIP3    H139576   0.936   4.640   6.787
13211TIP3    H239577   1.032   4.534   6.735
13212TIP3   OH239578   3.848   7.507   4.466
13212TIP3    H139579   3.846   7.558   4.547
13212TIP3    H239580   3.783   7.438   4.480
13213TIP3   OH239581   5.682   1.776   4.580
13213TIP3    H139582   5.742   1.804   4.649
13213TIP3    H239583   5.726   1.700   4.540
13214TIP3   OH239584   2.860   1.487   3.959
13214TIP3    H139585   2.811   1.476   4.041
13214TIP3    H239586   2.849   1.404   3.913
13215TIP3   OH239587   1.380   1.466   2.804
13215TIP3    H139588   1.367   1.541   2.746
13215TIP3    H239589   1.474   1.451   2.804
13216TIP3   OH239590   3.612  -0.030   3.133
13216TIP3    H139591   3.603  -0.013   3.039
13216TIP3    H239592   3.645   0.053   3.169
13217TIP3   OH239593   2.039   4.423   4.347
13217TIP3    H139594   2.112   4.485   4.345
13217TIP3    H239595   2.060   4.363   4.418
13218TIP3   OH239596   6.769   1.642   4.602
13218TIP3    H139597   6.739   1.626   4.513
13218TIP3    H239598   6.691   1.670   4.650
13219TIP3   OH239599   5.332   7.564   4.271
13219TIP3    H139600   5.408   7.567   4.212
13219TIP3    H239601   5.274   7.632   4.238
13220TIP3   OH239602   6.031   2.218   5.276
13220TIP3    H139603   6.000   2.252   5.360
13220TIP3    H239604   6.125   2.205   5.289
13221TIP3   OH239605   1.631   7.505   6.349
13221TIP3    H139606   1.686   7.574   6.311
13221TIP3    H239607   1.694   7.441   6.383
13222TIP3   OH239608   1.085   1.806   2.497
13222TIP3    H139609   1.108   1.880   2.553
13222TIP3    H239610   1.149   1.809   2.426
13223TIP3   OH239611   7.128   5.606   0.321
13223TIP3    H139612   7.172   5.691   0.318
13223TIP3    H239613   7.045   5.620   0.276
13224TIP3   OH239614   1.552   6.691   2.106
13224TIP3    H139615   1.561   6.603   2.143
13224TIP3    H239616   1.635   6.706   2.060
13225TIP3   OH239617   3.247   3.970   6.517
13225TIP3    H139618   3.336   3.938   6.525
13225TIP3    H239619   3.192   3.894   6.536
13226TIP3   OH239620   2.707   2.139   5.651
13226TIP3    H139621   2.770   2.077   5.614
13226TIP3    H239622   2.762   2.207   5.690
13227TIP3   OH239623   0.969   7.278   4.901
13227TIP3    H139624   1.040   7.214   4.895
13227TIP3    H239625   0.931   7.280   4.814
13228TIP3   OH239626   4.287   1.021   3.486
13228TIP3    H139627   4.376   0.990   3.499
13228TIP3    H239628   4.233   0.959   3.535
13229TIP3   OH239629   3.129   5.465   5.726
13229TIP3    H139630   3.196   5.516   5.771
13229TIP3    H239631   3.049   5.482   5.776
13230TIP3   OH239632   6.417   4.307   1.270
13230TIP3    H139633   6.511   4.324   1.264
13230TIP3    H239634   6.379   4.394   1.286
13231TIP3   OH239635   6.180   4.511   3.670
13231TIP3    H139636   6.275   4.507   3.675
13231TIP3    H239637   6.154   4.431   3.626
13232TIP3   OH239638   5.033   2.290   6.369
13232TIP3    H139639   4.945   2.304   6.403
13232TIP3    H239640   5.037   2.342   6.289
13233TIP3   OH239641   7.716   2.887   6.078
13233TIP3    H139642   7.659   2.884   6.155
13233TIP3    H239643   7.676   2.951   6.020
13234TIP3   OH239644   5.544   6.126   2.378
13234TIP3    H139645   5.589   6.211   2.379
13234TIP3    H239646   5.612   6.063   2.354
13235TIP3   OH239647   1.992   4.358   2.380
13235TIP3    H139648   2.024   4.288   2.324
13235TIP3    H239649   1.917   4.319   2.426
13236TIP3   OH239650   1.387   3.217   2.598
13236TIP3    H139651   1.446   3.141   2.594
13236TIP3    H239652   1.405   3.255   2.684
13237TIP3   OH239653   7.603   2.589   0.958
13237TIP3    H139654   7.561   2.596   1.044
13237TIP3    H239655   7.696   2.578   0.977
13238TIP3   OH239656   0.132   4.579   4.399
13238TIP3    H139657   0.177   4.645   4.453
13238TIP3    H239658   0.048   4.619   4.378
13239TIP3   OH239659   7.544   6.213   0.544
13239TIP3    H139660   7.551   6.190   0.637
13239TIP3    H239661   7.592   6.144   0.499
13240TIP3   OH239662   4.249   1.980   6.713
13240TIP3    H139663   4.328   1.930   6.735
13240TIP3    H239664   4.252   2.057   6.769
13241TIP3   OH239665   4.859   3.851   6.085
13241TIP3    H139666   4.827   3.898   6.008
13241TIP3    H239667   4.798   3.777   6.095
13242TIP3   OH239668   2.818   2.827   5.532
13242TIP3    H139669   2.872   2.803   5.458
13242TIP3    H239670   2.788   2.744   5.569
13243TIP3   OH239671   7.861   5.941   3.539
13243TIP3    H139672   7.909   5.960   3.620
13243TIP3    H239673   7.811   5.862   3.559
13244TIP3   OH239674   4.436   7.350   0.538
13244TIP3    H139675   4.472   7.425   0.585
13244TIP3    H239676   4.436   7.279   0.602
13245TIP3   OH239677   2.607   0.904   6.390
13245TIP3    H139678   2.620   0.887   6.483
13245TIP3    H239679   2.578   0.820   6.354
13246TIP3   OH239680   1.279   5.457   6.380
13246TIP3    H139681   1.278   5.363   6.363
13246TIP3    H239682   1.187   5.483   6.377
13247TIP3   OH239683   3.600   6.221   1.317
13247TIP3    H139684   3.594   6.311   1.285
13247TIP3    H239685   3.585   6.167   1.239
13248TIP3   OH239686   4.581   3.508   1.834
13248TIP3    H139687   4.630   3.430   1.809
13248TIP3    H239688   4.594   3.570   1.762
13249TIP3   OH239689   3.547   2.063   0.815
13249TIP3    H139690   3.515   2.076   0.726
13249TIP3    H239691   3.511   1.978   0.841
13250TIP3   OH239692   2.051   0.046   2.284
13250TIP3    H139693   2.102   0.054   2.203
13250TIP3    H239694   2.030   0.136   2.308
13251TIP3   OH239695   2.580   6.590   1.449
13251TIP3    H139696   2.512   6.657   1.441
13251TIP3    H239697   2.612   6.576   1.360
13252TIP3   OH239698   1.453   2.587   5.436
13252TIP3    H139699   1.500   2.513   5.472
13252TIP3    H239700   1.498   2.607   5.354
13253TIP3   OH239701   4.692   1.987   5.719
13253TIP3    H139702   4.627   2.038   5.768
13253TIP3    H239703   4.760   2.051   5.698
13254TIP3   OH239704   4.119   5.882   2.323
13254TIP3    H139705   4.041   5.832   2.299
13254TIP3    H239706   4.174   5.881   2.244
13255TIP3   OH239707   5.915   4.695   0.724
13255TIP3    H139708   5.832   4.670   0.763
13255TIP3    H239709   5.891   4.745   0.645
13256TIP3   OH239710   0.804   6.686   4.712
13256TIP3    H139711   0.839   6.678   4.801
13256TIP3    H239712   0.881   6.675   4.655
13257TIP3   OH239713   8.141   7.226   5.076
13257TIP3    H139714   8.191   7.236   4.995
13257TIP3    H239715   8.161   7.304   5.127
13258TIP3   OH239716   3.120   6.611   0.755
13258TIP3    H139717   3.190   6.645   0.811
13258TIP3    H239718   3.132   6.657   0.671
13259TIP3   OH239719   1.759   0.946   4.547
13259TIP3    H139720   1.799   0.948   4.634
13259TIP3    H239721   1.830   0.920   4.489
13260TIP3   OH239722   7.032   4.967   1.615
13260TIP3    H139723   7.120   4.935   1.594
13260TIP3    H239724   6.981   4.948   1.536
13261TIP3   OH239725   7.456   2.079   0.388
13261TIP3    H139726   7.378   2.126   0.357
13261TIP3    H239727   7.506   2.062   0.308
13262TIP3   OH239728   5.379   1.000   0.607
13262TIP3    H139729   5.292   0.987   0.571
13262TIP3    H239730   5.435   1.013   0.531
13263TIP3   OH239731   1.163   2.892   0.344
13263TIP3    H139732   1.197   2.808   0.375
13263TIP3    H239733   1.195   2.956   0.407
13264TIP3   OH239734   6.138   3.259   6.744
13264TIP3    H139735   6.086   3.179   6.745
13264TIP3    H239736   6.078   3.327   6.712
13265TIP3   OH239737   1.298   6.790   1.033
13265TIP3    H139738   1.265   6.879   1.044
13265TIP3    H239739   1.246   6.737   1.094
13266TIP3   OH239740   6.834   6.925   6.388
13266TIP3    H139741   6.804   6.834   6.383
13266TIP3    H239742   6.754   6.974   6.405
13267TIP3   OH239743   5.898   3.684   5.234
13267TIP3    H139744   5.941   3.763   5.266
13267TIP3    H239745   5.913   3.685   5.139
13268TIP3   OH239746   1.047   0.684   6.358
13268TIP3    H139747   1.000   0.613   6.401
13268TIP3    H239748   1.034   0.759   6.415
13269TIP3   OH239749   4.119   2.900   0.720
13269TIP3    H139750   4.167   2.852   0.652
13269TIP3    H239751   4.165   2.879   0.801
13270TIP3   OH239752   0.832   3.356   0.972
13270TIP3    H139753   0.750   3.389   0.935
13270TIP3    H239754   0.814   3.349   1.065
13271TIP3   OH239755   1.179   0.493   5.309
13271TIP3    H139756   1.239   0.566   5.300
13271TIP3    H239757   1.235   0.416   5.314
13272TIP3   OH239758   7.569   7.376   3.024
13272TIP3    H139759   7.574   7.471   3.034
13272TIP3    H239760   7.539   7.363   2.935
13273TIP3   OH239761   2.503   6.902   5.056
13273TIP3    H139762   2.577   6.931   5.110
13273TIP3    H239763   2.484   6.976   4.999
13274TIP3   OH239764   3.469   5.615   3.003
13274TIP3    H139765   3.480   5.598   2.909
13274TIP3    H239766   3.402   5.552   3.031
13275TIP3   OH239767   4.273   3.729   4.096
13275TIP3    H139768   4.361   3.748   4.063
13275TIP3    H239769   4.266   3.633   4.092
13276TIP3   OH239770   5.191   0.963   6.564
13276TIP3    H139771   5.210   1.011   6.644
13276TIP3    H239772   5.207   0.871   6.587
13277TIP3   OH239773   5.305   6.353   3.720
13277TIP3    H139774   5.329   6.270   3.763
13277TIP3    H239775   5.216   6.338   3.689
13278TIP3   OH239776   1.217   4.536   4.782
13278TIP3    H139777   1.242   4.591   4.707
13278TIP3    H239778   1.129   4.505   4.761
13279TIP3   OH239779   5.892   6.486   3.384
13279TIP3    H139780   5.806   6.511   3.416
13279TIP3    H239781   5.920   6.415   3.442
13280TIP3   OH239782   4.428   5.631   3.599
13280TIP3    H139783   4.389   5.546   3.579
13280TIP3    H239784   4.492   5.613   3.667
13281TIP3   OH239785   7.353   4.724   5.988
13281TIP3    H139786   7.370   4.687   5.902
13281TIP3    H239787   7.428   4.698   6.041
13282TIP3   OH239788   6.784   5.375   6.327
13282TIP3    H139789   6.714   5.439   6.312
13282TIP3    H239790   6.774   5.349   6.419
13283TIP3   OH239791   2.314   4.796   1.673
13283TIP3    H139792   2.340   4.830   1.587
13283TIP3    H239793   2.278   4.872   1.718
13284TIP3   OH239794   5.678   6.688   2.604
13284TIP3    H139795   5.751   6.654   2.552
13284TIP3    H239796   5.674   6.631   2.680
13285TIP3   OH239797   5.315   6.460   2.674
13285TIP3    H139798   5.338   6.465   2.581
13285TIP3    H239799   5.312   6.551   2.703
13286TIP3   OH239800   7.066   2.894   2.360
13286TIP3    H139801   7.048   2.817   2.306
13286TIP3    H239802   7.161   2.902   2.361
13287TIP3   OH239803   1.597   2.736   5.851
13287TIP3    H139804   1.636   2.824   5.859
13287TIP3    H239805   1.623   2.691   5.931
13288TIP3   OH239806   5.193   1.612   3.494
13288TIP3    H139807   5.186   1.576   3.582
13288TIP3    H239808   5.223   1.702   3.507
13289TIP3   OH239809   5.042   5.646   1.397
13289TIP3    H139810   5.009   5.656   1.486
13289TIP3    H239811   5.098   5.568   1.400
13290TIP3   OH239812   7.090   5.825   5.662
13290TIP3    H139813   7.075   5.785   5.748
13290TIP3    H239814   7.044   5.908   5.666
13291TIP3   OH239815   2.196   6.790   5.771
13291TIP3    H139816   2.103   6.814   5.766
13291TIP3    H239817   2.241   6.862   5.727
13292TIP3   OH239818   1.873   4.141   6.120
13292TIP3    H139819   1.927   4.062   6.120
13292TIP3    H239820   1.789   4.113   6.082
13293TIP3   OH239821   0.175   5.730   0.968
13293TIP3    H139822   0.161   5.645   1.010
13293TIP3    H239823   0.091   5.775   0.975
13294TIP3   OH239824   3.574   5.721   1.824
13294TIP3    H139825   3.541   5.703   1.912
13294TIP3    H239826   3.544   5.647   1.771
13295TIP3   OH239827   3.091   5.478   6.092
13295TIP3    H139828   3.150   5.534   6.041
13295TIP3    H239829   3.113   5.497   6.183
13296TIP3   OH239830   6.999   6.181   4.892
13296TIP3    H139831   6.964   6.182   4.981
13296TIP3    H239832   7.012   6.274   4.871
13297TIP3   OH239833   6.152   2.974   0.260
13297TIP3    H139834   6.234   2.953   0.304
13297TIP3    H239835   6.151   2.918   0.182
13298TIP3   OH239836   0.876   1.927   1.066
13298TIP3    H139837   0.893   1.939   1.159
13298TIP3    H239838   0.809   1.859   1.061
13299TIP3   OH239839   5.063   7.297   3.823
13299TIP3    H139840   5.137   7.239   3.804
13299TIP3    H239841   4.985   7.242   3.807
13300TIP3   OH239842   0.269   5.766   3.443
13300TIP3    H139843   0.183   5.806   3.432
13300TIP3    H239844   0.261   5.711   3.520
13301TIP3   OH239845   1.742   5.845   3.936
13301TIP3    H139846   1.754   5.785   4.009
13301TIP3    H239847   1.672   5.904   3.965
13302TIP3   OH239848   8.211   1.464   4.651
13302TIP3    H139849   8.245   1.486   4.738
13302TIP3    H239850   8.277   1.406   4.614
13303TIP3   OH239851   5.078   4.494   1.381
13303TIP3    H139852   5.075   4.546   1.462
13303TIP3    H239853   5.148   4.534   1.330
13304TIP3   OH239854   1.583   4.527   5.795
13304TIP3    H139855   1.641   4.482   5.857
13304TIP3    H239856   1.577   4.616   5.828
13305TIP3   OH239857   1.803   4.079   1.006
13305TIP3    H139858   1.723   4.132   1.006
13305TIP3    H239859   1.774   3.991   0.984
13306TIP3   OH239860   4.870   1.081   1.152
13306TIP3    H139861   4.936   1.114   1.213
13306TIP3    H239862   4.920   1.049   1.077
13307TIP3   OH239863   3.618   2.660   2.574
13307TIP3    H139864   3.635   2.573   2.539
13307TIP3    H239865   3.680   2.717   2.528
13308TIP3   OH239866   1.179   6.612   1.198
13308TIP3    H139867   1.157   6.591   1.289
13308TIP3    H239868   1.107   6.575   1.146
13309TIP3   OH239869   5.253   0.161   3.224
13309TIP3    H139870   5.181   0.100   3.240
13309TIP3    H239871   5.233   0.199   3.138
13310TIP3   OH239872   3.462   1.817   6.485
13310TIP3    H139873   3.512   1.897   6.468
13310TIP3    H239874   3.475   1.764   6.406
13311TIP3   OH239875   3.868   5.084   5.958
13311TIP3    H139876   3.813   5.052   6.031
13311TIP3    H239877   3.883   5.176   5.978
13312TIP3   OH239878   0.733   6.401   5.497
13312TIP3    H139879   0.740   6.436   5.408
13312TIP3    H239880   0.703   6.311   5.485
13313TIP3   OH239881   0.635   4.258   5.621
13313TIP3    H139882   0.712   4.266   5.565
13313TIP3    H239883   0.657   4.310   5.699
13314TIP3   OH239884   2.913   3.846   4.041
13314TIP3    H139885   2.996   3.882   4.073
13314TIP3    H239886   2.921   3.751   4.054
13315TIP3   OH239887   2.796   5.143   3.307
13315TIP3    H139888   2.718   5.198   3.300
13315TIP3    H239889   2.843   5.178   3.383
13316TIP3   OH239890   3.622   0.029   6.753
13316TIP3    H139891   3.536  -0.006   6.774
13316TIP3    H239892   3.605   0.097   6.688
13317TIP3   OH239893   1.337   1.437   3.392
13317TIP3    H139894   1.428   1.442   3.422
13317TIP3    H239895   1.327   1.513   3.335
13318TIP3   OH239896  -0.019   2.135   6.124
13318TIP3    H139897  -0.037   2.073   6.053
13318TIP3    H239898  -0.045   2.220   6.089
13319TIP3   OH239899   5.745   4.573   4.757
13319TIP3    H139900   5.761   4.558   4.664
13319TIP3    H239901   5.729   4.667   4.764
13320TIP3   OH239902   3.950   2.224   4.130
13320TIP3    H139903   3.997   2.236   4.047
13320TIP3    H239904   3.892   2.150   4.114
13321TIP3   OH239905   4.432   6.652   6.000
13321TIP3    H139906   4.486   6.585   5.959
13321TIP3    H239907   4.432   6.725   5.938
13322TIP3   OH239908   2.049   4.122   1.468
13322TIP3    H139909   2.099   4.204   1.465
13322TIP3    H239910   2.024   4.106   1.378
13323TIP3   OH239911   7.612   5.283   0.074
13323TIP3    H139912   7.670   5.331   0.134
13323TIP3    H239913   7.534   5.337   0.068
13324TIP3   OH239914   2.780   1.299   3.064
13324TIP3    H139915   2.749   1.221   3.017
13324TIP3    H239916   2.806   1.360   2.994
13325TIP3   OH239917   7.685   2.950   0.988
13325TIP3    H139918   7.727   2.880   0.938
13325TIP3    H239919   7.660   2.908   1.071
13326TIP3   OH239920   1.393   5.314   3.171
13326TIP3    H139921   1.466   5.298   3.111
13326TIP3    H239922   1.429   5.296   3.257
13327TIP3   OH239923   7.020   7.634   5.961
13327TIP3    H139924   7.099   7.622   5.907
13327TIP3    H239925   6.962   7.562   5.935
13328TIP3   OH239926   2.051   2.198   5.817
13328TIP3    H139927   2.044   2.115   5.865
13328TIP3    H239928   2.070   2.172   5.727
13329TIP3   OH239929   4.506   1.126   4.952
13329TIP3    H139930   4.463   1.049   4.989
13329TIP3    H239931   4.498   1.115   4.857
13330TIP3   OH239932   1.001   4.969   1.348
13330TIP3    H139933   0.950   4.992   1.426
13330TIP3    H239934   1.090   4.998   1.367
13331TIP3   OH239935   5.937   4.117   2.322
13331TIP3    H139936   5.968   4.029   2.298
13331TIP3    H239937   5.873   4.139   2.254
13332TIP3   OH239938   5.812   1.277   3.042
13332TIP3    H139939   5.745   1.261   3.108
13332TIP3    H239940   5.786   1.223   2.967
13333TIP3   OH239941   1.325   4.935   4.433
13333TIP3    H139942   1.251   4.992   4.452
13333TIP3    H239943   1.402   4.989   4.452
13334TIP3   OH239944   7.747   1.825   0.962
13334TIP3    H139945   7.669   1.862   0.921
13334TIP3    H239946   7.713   1.771   1.034
13335TIP3   OH239947   0.947   2.289   4.716
13335TIP3    H139948   1.003   2.360   4.683
13335TIP3    H239949   0.919   2.243   4.637
13336TIP3   OH239950   6.472   2.701   6.408
13336TIP3    H139951   6.463   2.765   6.479
13336TIP3    H239952   6.393   2.713   6.354
13337TIP3   OH239953   5.398   3.631   1.984
13337TIP3    H139954   5.487   3.622   1.951
13337TIP3    H239955   5.376   3.544   2.018
13338TIP3   OH239956   4.832   2.538   6.651
13338TIP3    H139957   4.875   2.495   6.725
13338TIP3    H239958   4.798   2.465   6.598
13339TIP3   OH239959   7.277   0.012   0.214
13339TIP3    H139960   7.348   0.051   0.163
13339TIP3    H239961   7.234   0.086   0.256
13340TIP3   OH239962   6.777   3.589   2.827
13340TIP3    H139963   6.722   3.614   2.752
13340TIP3    H239964   6.851   3.649   2.823
13341TIP3   OH239965   6.944   3.845   3.211
13341TIP3    H139966   6.951   3.762   3.258
13341TIP3    H239967   6.853   3.849   3.182
13342TIP3   OH239968   6.079   6.611   0.946
13342TIP3    H139969   6.129   6.562   0.881
13342TIP3    H239970   6.017   6.548   0.982
13343TIP3   OH239971   3.590   7.086   5.372
13343TIP3    H139972   3.510   7.118   5.328
13343TIP3    H239973   3.643   7.165   5.386
13344TIP3   OH239974   6.734   2.915   1.054
13344TIP3    H139975   6.765   2.926   0.964
13344TIP3    H239976   6.639   2.908   1.045
13345TIP3   OH239977   7.913   2.511   4.135
13345TIP3    H139978   7.948   2.530   4.222
13345TIP3    H239979   7.837   2.568   4.127
13346TIP3   OH239980   0.797   4.254   6.464
13346TIP3    H139981   0.736   4.259   6.537
13346TIP3    H239982   0.755   4.194   6.402
13347TIP3   OH239983   4.215   4.791   2.582
13347TIP3    H139984   4.174   4.877   2.591
13347TIP3    H239985   4.234   4.784   2.488
13348TIP3   OH239986   6.976   2.558   4.498
13348TIP3    H139987   7.021   2.473   4.494
13348TIP3    H239988   6.988   2.596   4.411
13349TIP3   OH239989   1.026   3.579   4.267
13349TIP3    H139990   1.024   3.550   4.176
13349TIP3    H239991   1.100   3.532   4.306
13350TIP3   OH239992   6.693   2.253   2.416
13350TIP3    H139993   6.614   2.307   2.414
13350TIP3    H239994   6.689   2.203   2.335
13351TIP3   OH239995   1.363   0.625   3.435
13351TIP3    H139996   1.337   0.692   3.371
13351TIP3    H239997   1.417   0.564   3.384
13352TIP3   OH239998   3.986   6.432   1.093
13352TIP3    H139999   4.070   6.477   1.087
13352TIP3    H240000   3.958   6.419   1.002
13353TIP3   OH240001   2.957   1.637   4.520
13353TIP3    H140002   2.951   1.662   4.428
13353TIP3    H240003   3.051   1.626   4.536
13354TIP3   OH240004   6.162   4.897   3.319
13354TIP3    H140005   6.220   4.954   3.370
13354TIP3    H240006   6.216   4.823   3.294
13355TIP3   OH240007   0.376   6.839   5.270
13355TIP3    H140008   0.287   6.858   5.243
13355TIP3    H240009   0.378   6.858   5.364
13356TIP3   OH240010   1.422   1.584   1.616
13356TIP3    H140011   1.482   1.601   1.689
13356TIP3    H240012   1.384   1.498   1.635
13357TIP3   OH240013   5.898   7.534   5.341
13357TIP3    H140014   5.878   7.447   5.306
13357TIP3    H240015   5.981   7.558   5.300
13358TIP3   OH240016   0.707   1.714   6.308
13358TIP3    H140017   0.784   1.734   6.361
13358TIP3    H240018   0.738   1.719   6.218
13359TIP3   OH240019   7.870   5.027   0.339
13359TIP3    H140020   7.821   5.044   0.419
13359TIP3    H240021   7.808   4.984   0.281
13360TIP3   OH240022   6.949   6.484   1.010
13360TIP3    H140023   6.941   6.531   0.927
13360TIP3    H240024   7.003   6.540   1.065
13361TIP3   OH240025   6.656   3.261   5.098
13361TIP3    H140026   6.571   3.254   5.142
13361TIP3    H240027   6.653   3.191   5.032
13362TIP3   OH240028   7.741   7.774   1.843
13362TIP3    H140029   7.731   7.734   1.757
13362TIP3    H240030   7.813   7.836   1.833
13363TIP3   OH240031   6.326   2.836   3.795
13363TIP3    H140032   6.257   2.773   3.773
13363TIP3    H240033   6.395   2.783   3.835
13364TIP3   OH240034   7.274   1.912   2.780
13364TIP3    H140035   7.246   1.991   2.828
13364TIP3    H240036   7.274   1.939   2.688
13365TIP3   OH240037   5.740   4.373   2.003
13365TIP3    H140038   5.773   4.453   2.043
13365TIP3    H240039   5.740   4.309   2.074
13366TIP3   OH240040   5.962   6.299   1.690
13366TIP3    H140041   5.970   6.299   1.595
13366TIP3    H240042   5.987   6.210   1.716
13367TIP3   OH240043   6.669   4.012   5.150
13367TIP3    H140044   6.671   4.064   5.230
13367TIP3    H240045   6.736   3.946   5.162
13368TIP3   OH240046   3.597   2.097   3.725
13368TIP3    H140047   3.521   2.072   3.777
13368TIP3    H240048   3.570   2.081   3.634
13369TIP3   OH240049   4.134   7.330   2.319
13369TIP3    H140050   4.111   7.376   2.238
13369TIP3    H240051   4.163   7.244   2.290
13370TIP3   OH240052   5.733   2.148   0.171
13370TIP3    H140053   5.713   2.055   0.175
13370TIP3    H240054   5.731   2.176   0.263
13371TIP3   OH240055   7.418   7.256   5.187
13371TIP3    H140056   7.489   7.288   5.242
13371TIP3    H240057   7.457   7.183   5.138
13372TIP3   OH240058   2.893   2.358   4.668
13372TIP3    H140059   2.866   2.429   4.727
13372TIP3    H240060   2.839   2.284   4.695
13373TIP3   OH240061   6.538   0.305   1.817
13373TIP3    H140062   6.491   0.312   1.899
13373TIP3    H240063   6.498   0.230   1.772
13374TIP3   OH240064   2.005   3.781   1.490
13374TIP3    H140065   1.911   3.778   1.474
13374TIP3    H240066   2.012   3.788   1.586
13375TIP3   OH240067   0.206   4.019   1.129
13375TIP3    H140068   0.206   4.067   1.212
13375TIP3    H240069   0.119   4.035   1.092
13376TIP3   OH240070   5.972   5.039   4.477
13376TIP3    H140071   5.947   4.997   4.395
13376TIP3    H240072   5.954   5.132   4.464
13377TIP3   OH240073   1.407   1.099   3.007
13377TIP3    H140074   1.316   1.099   2.977
13377TIP3    H240075   1.406   1.152   3.086
13378TIP3   OH240076   0.534   2.839   2.060
13378TIP3    H140077   0.452   2.877   2.092
13378TIP3    H240078   0.580   2.812   2.139
13379TIP3   OH240079   2.661   3.771   1.247
13379TIP3    H140080   2.591   3.732   1.194
13379TIP3    H240081   2.739   3.761   1.193
13380TIP3   OH240082   1.915   2.898   1.391
13380TIP3    H140083   1.822   2.921   1.401
13380TIP3    H240084   1.959   2.949   1.459
13381TIP3   OH240085   6.005   1.109   6.566
13381TIP3    H140086   5.997   1.143   6.477
13381TIP3    H240087   6.006   1.186   6.622
13382TIP3   OH240088   7.830   7.351   2.534
13382TIP3    H140089   7.778   7.271   2.537
13382TIP3    H240090   7.773   7.419   2.571
13383TIP3   OH240091   2.761   5.525   3.272
13383TIP3    H140092   2.708   5.526   3.352
13383TIP3    H240093   2.848   5.554   3.300
13384TIP3   OH240094   8.286   3.603   1.147
13384TIP3    H140095   8.250   3.607   1.235
13384TIP3    H240096   8.285   3.510   1.124
13385TIP3   OH240097   7.654   6.633   2.142
13385TIP3    H140098   7.626   6.556   2.190
13385TIP3    H240099   7.603   6.705   2.180
13386TIP3   OH240100   7.438   5.927   5.147
13386TIP3    H140101   7.513   5.984   5.128
13386TIP3    H240102   7.472   5.838   5.140
13387TIP3   OH240103   2.177   0.696   4.936
13387TIP3    H140104   2.210   0.607   4.926
13387TIP3    H240105   2.184   0.714   5.030
13388TIP3   OH240106   2.072   1.825   1.817
13388TIP3    H140107   2.047   1.871   1.737
13388TIP3    H240108   2.140   1.763   1.789
13389TIP3   OH240109   0.738   3.014   4.608
13389TIP3    H140110   0.730   3.068   4.529
13389TIP3    H240111   0.697   2.930   4.584
13390TIP3   OH240112   1.161   1.451   0.093
13390TIP3    H140113   1.157   1.369   0.045
13390TIP3    H240114   1.246   1.450   0.137
13391TIP3   OH240115   3.105   4.548   4.477
13391TIP3    H140116   3.122   4.633   4.436
13391TIP3    H240117   3.191   4.506   4.480
13392TIP3   OH240118   7.198   3.501   4.052
13392TIP3    H140119   7.179   3.408   4.037
13392TIP3    H240120   7.291   3.503   4.076
13393TIP3   OH240121   3.093   2.274   6.116
13393TIP3    H140122   3.043   2.354   6.099
13393TIP3    H240123   3.179   2.291   6.077
13394TIP3   OH240124   7.772   6.175   5.328
13394TIP3    H140125   7.800   6.221   5.407
13394TIP3    H240126   7.849   6.176   5.271
13395TIP3   OH240127   7.612   1.794   4.667
13395TIP3    H140128   7.614   1.699   4.657
13395TIP3    H240129   7.633   1.809   4.760
13396TIP3   OH240130   0.106   3.022   6.139
13396TIP3    H140131   0.162   3.066   6.075
13396TIP3    H240132   0.040   2.977   6.086
13397TIP3   OH240133   8.098   5.941   5.158
13397TIP3    H140134   8.047   6.022   5.151
13397TIP3    H240135   8.098   5.906   5.069
13398TIP3   OH240136   6.057   7.726   6.700
13398TIP3    H140137   6.045   7.631   6.699
13398TIP3    H240138   6.137   7.740   6.651
13399TIP3   OH240139   1.145   5.884   5.572
13399TIP3    H140140   1.143   5.961   5.515
13399TIP3    H240141   1.153   5.810   5.512
13400TIP3   OH240142   1.756   4.535   1.423
13400TIP3    H140143   1.695   4.579   1.364
13400TIP3    H240144   1.784   4.457   1.376
13401TIP3   OH240145   4.638   5.866   3.913
13401TIP3    H140146   4.658   5.776   3.939
13401TIP3    H240147   4.562   5.890   3.966
13402TIP3   OH240148   3.669   3.448   3.307
13402TIP3    H140149   3.703   3.520   3.360
13402TIP3    H240150   3.581   3.431   3.343
13403TIP3   OH240151   3.641   2.807   6.729
13403TIP3    H140152   3.674   2.778   6.645
13403TIP3    H240153   3.715   2.798   6.789
13404TIP3   OH240154   1.947   3.391   6.328
13404TIP3    H140155   1.914   3.375   6.239
13404TIP3    H240156   1.975   3.482   6.327
13405TIP3   OH240157   7.490   4.423   0.539
13405TIP3    H140158   7.507   4.350   0.599
13405TIP3    H240159   7.552   4.491   0.566
13406TIP3   OH240160   0.201   2.554   6.387
13406TIP3    H140161   0.171   2.634   6.430
13406TIP3    H240162   0.282   2.579   6.343
13407TIP3   OH240163   5.564   5.942   4.500
13407TIP3    H140164   5.553   6.036   4.490
13407TIP3    H240165   5.657   5.927   4.486
13408TIP3   OH240166   2.152   4.800   2.043
13408TIP3    H140167   2.104   4.810   2.125
13408TIP3    H240168   2.101   4.734   1.994
13409TIP3   OH240169   1.841   4.725   4.540
13409TIP3    H140170   1.788   4.760   4.468
13409TIP3    H240171   1.786   4.732   4.617
13410TIP3   OH240172   4.985   3.762   0.489
13410TIP3    H140173   4.981   3.832   0.554
13410TIP3    H240174   4.949   3.685   0.534
13411TIP3   OH240175   3.328   0.284   3.109
13411TIP3    H140176   3.348   0.378   3.104
13411TIP3    H240177   3.383   0.245   3.040
13412TIP3   OH240178   4.341   3.101   3.803
13412TIP3    H140179   4.319   3.022   3.851
13412TIP3    H240180   4.272   3.163   3.827
13413TIP3   OH240181   4.176   4.517   3.075
13413TIP3    H140182   4.231   4.459   3.023
13413TIP3    H240183   4.157   4.467   3.154
13414TIP3   OH240184   3.150   5.788   2.812
13414TIP3    H140185   3.114   5.831   2.734
13414TIP3    H240186   3.103   5.704   2.816
13415TIP3   OH240187   1.645   6.481   0.730
13415TIP3    H140188   1.732   6.454   0.700
13415TIP3    H240189   1.638   6.446   0.819
13416TIP3   OH240190   0.504   6.525   0.701
13416TIP3    H140191   0.589   6.536   0.658
13416TIP3    H240192   0.471   6.614   0.711
13417TIP3   OH240193   4.455   4.667   3.652
13417TIP3    H140194   4.471   4.594   3.713
13417TIP3    H240195   4.495   4.638   3.570
13418TIP3   OH240196   5.726   7.627   1.451
13418TIP3    H140197   5.743   7.719   1.474
13418TIP3    H240198   5.790   7.577   1.502
13419TIP3   OH240199   0.532   6.669   1.408
13419TIP3    H140200   0.538   6.750   1.357
13419TIP3    H240201   0.535   6.698   1.500
13420TIP3   OH240202   8.168   3.780   0.598
13420TIP3    H140203   8.173   3.684   0.593
13420TIP3    H240204   8.145   3.807   0.509
13421TIP3   OH240205   0.751   1.763   2.999
13421TIP3    H140206   0.801   1.685   2.974
13421TIP3    H240207   0.817   1.833   3.005
13422TIP3   OH240208   6.015   6.651   6.638
13422TIP3    H140209   6.086   6.670   6.576
13422TIP3    H240210   6.019   6.556   6.651
13423TIP3   OH240211   0.149   1.370   0.556
13423TIP3    H140212   0.219   1.319   0.596
13423TIP3    H240213   0.177   1.461   0.565
13424TIP3   OH240214   1.542   1.695   1.883
13424TIP3    H140215   1.572   1.611   1.848
13424TIP3    H240216   1.588   1.761   1.832
13425TIP3   OH240217   3.365   1.483   1.953
13425TIP3    H140218   3.321   1.563   1.922
13425TIP3    H240219   3.321   1.412   1.906
13426TIP3   OH240220   6.208   0.356   5.061
13426TIP3    H140221   6.157   0.427   5.099
13426TIP3    H240222   6.165   0.339   4.977
13427TIP3   OH240223   2.711   6.556   0.225
13427TIP3    H140224   2.629   6.557   0.176
13427TIP3    H240225   2.769   6.501   0.173
13428TIP3   OH240226   1.942   2.761   3.826
13428TIP3    H140227   2.017   2.787   3.879
13428TIP3    H240228   1.971   2.771   3.736
13429TIP3   OH240229   1.088   6.968   1.081
13429TIP3    H140230   1.120   7.057   1.092
13429TIP3    H240231   1.051   6.944   1.166
13430TIP3   OH240232   2.882   7.139   1.078
13430TIP3    H140233   2.838   7.108   0.999
13430TIP3    H240234   2.822   7.202   1.117
13431TIP3   OH240235   0.741   3.912   0.302
13431TIP3    H140236   0.696   3.850   0.245
13431TIP3    H240237   0.818   3.865   0.333
13432TIP3   OH240238   0.147   7.699   3.570
13432TIP3    H140239   0.185   7.731   3.652
13432TIP3    H240240   0.189   7.753   3.502
13433TIP3   OH240241   7.270   5.860   1.746
13433TIP3    H140242   7.305   5.949   1.752
13433TIP3    H240243   7.299   5.828   1.661
13434TIP3   OH240244   5.084   7.830   6.595
13434TIP3    H140245   5.169   7.841   6.638
13434TIP3    H240246   5.095   7.752   6.540
13435TIP3   OH240247   7.487   3.017   4.597
13435TIP3    H140248   7.451   2.966   4.525
13435TIP3    H240249   7.578   3.033   4.573
13436TIP3   OH240250   5.044   3.442   3.555
13436TIP3    H140251   4.949   3.429   3.562
13436TIP3    H240252   5.055   3.537   3.553
13437TIP3   OH240253   7.060   2.468   4.954
13437TIP3    H140254   7.097   2.380   4.948
13437TIP3    H240255   7.013   2.481   4.872
13438TIP3   OH240256   1.161   1.695   1.203
13438TIP3    H140257   1.255   1.686   1.219
13438TIP3    H240258   1.151   1.781   1.162
13439TIP3   OH240259   1.475   4.003   2.762
13439TIP3    H140260   1.434   3.941   2.822
13439TIP3    H240261   1.561   3.965   2.743
13440TIP3   OH240262   1.627   5.962   3.506
13440TIP3    H140263   1.584   5.913   3.437
13440TIP3    H240264   1.701   5.907   3.532
13441TIP3   OH240265   1.129   7.151   3.757
13441TIP3    H140266   1.218   7.117   3.751
13441TIP3    H240267   1.119   7.177   3.848
13442TIP3   OH240268   3.024   2.248   3.542
13442TIP3    H140269   3.087   2.187   3.505
13442TIP3    H240270   3.076   2.306   3.598
13443TIP3   OH240271   6.043   4.321   0.332
13443TIP3    H140272   6.090   4.238   0.344
13443TIP3    H240273   6.080   4.358   0.252
13444TIP3   OH240274   3.170   1.168   3.533
13444TIP3    H140275   3.226   1.186   3.608
13444TIP3    H240276   3.207   1.220   3.462
13445TIP3   OH240277   6.329   1.966   1.687
13445TIP3    H140278   6.275   1.945   1.763
13445TIP3    H240279   6.357   1.880   1.654
13446TIP3   OH240280   1.915   3.629   1.914
13446TIP3    H140281   1.955   3.607   1.998
13446TIP3    H240282   1.895   3.723   1.921
13447TIP3   OH240283   5.087   0.604   0.635
13447TIP3    H140284   5.148   0.566   0.572
13447TIP3    H240285   5.142   0.630   0.709
13448TIP3   OH240286   6.660   2.820   4.719
13448TIP3    H140287   6.680   2.824   4.813
13448TIP3    H240288   6.569   2.793   4.715
13449TIP3   OH240289   3.674   5.175   0.527
13449TIP3    H140290   3.624   5.239   0.578
13449TIP3    H240291   3.607   5.117   0.491
13450TIP3   OH240292   1.897   6.693   2.140
13450TIP3    H140293   1.915   6.625   2.205
13450TIP3    H240294   1.858   6.764   2.191
13451TIP3   OH240295   5.174   0.067   0.127
13451TIP3    H140296   5.120  -0.012   0.123
13451TIP3    H240297   5.141   0.116   0.202
13452TIP3   OH240298   3.512   5.014   1.501
13452TIP3    H140299   3.590   4.959   1.500
13452TIP3    H240300   3.478   5.007   1.590
13453TIP3   OH240301   5.333   5.201   6.699
13453TIP3    H140302   5.315   5.107   6.691
13453TIP3    H240303   5.375   5.210   6.784
13454TIP3   OH240304   3.916   0.850   4.426
13454TIP3    H140305   3.832   0.896   4.423
13454TIP3    H240306   3.943   0.843   4.335
13455TIP3   OH240307   3.414   0.074   1.963
13455TIP3    H140308   3.423   0.168   1.950
13455TIP3    H240309   3.437   0.036   1.878
13456TIP3   OH240310   5.929   6.836   2.301
13456TIP3    H140311   6.008   6.804   2.256
13456TIP3    H240312   5.961   6.910   2.353
13457TIP3   OH240313   7.505   7.698   5.638
13457TIP3    H140314   7.416   7.670   5.659
13457TIP3    H240315   7.496   7.745   5.555
13458TIP3   OH240316   2.760   1.346   2.222
13458TIP3    H140317   2.745   1.440   2.229
13458TIP3    H240318   2.672   1.308   2.213
13459TIP3   OH240319   3.578   2.968   5.703
13459TIP3    H140320   3.517   3.036   5.672
13459TIP3    H240321   3.524   2.913   5.761
13460TIP3   OH240322   7.355   7.222   4.302
13460TIP3    H140323   7.417   7.282   4.344
13460TIP3    H240324   7.271   7.243   4.343
13461TIP3   OH240325   5.999   6.754   1.170
13461TIP3    H140326   5.949   6.835   1.169
13461TIP3    H240327   6.012   6.733   1.077
13462TIP3   OH240328   5.416   4.656   1.164
13462TIP3    H140329   5.336   4.652   1.112
13462TIP3    H240330   5.486   4.664   1.099
13463TIP3   OH240331   5.051   1.188   2.705
13463TIP3    H140332   5.123   1.179   2.768
13463TIP3    H240333   5.088   1.242   2.634
13464TIP3   OH240334   5.381   4.428   5.552
13464TIP3    H140335   5.353   4.345   5.592
13464TIP3    H240336   5.445   4.401   5.486
13465TIP3   OH240337   3.915   0.974   3.348
13465TIP3    H140338   3.970   0.902   3.318
13465TIP3    H240339   3.919   0.969   3.443
13466TIP3   OH240340   6.744   6.604   1.119
13466TIP3    H140341   6.650   6.599   1.135
13466TIP3    H240342   6.764   6.522   1.073
13467TIP3   OH240343   6.381   2.708   4.689
13467TIP3    H140344   6.304   2.755   4.721
13467TIP3    H240345   6.368   2.702   4.594
13468TIP3   OH240346   6.425   4.261   4.498
13468TIP3    H140347   6.494   4.255   4.432
13468TIP3    H240348   6.458   4.325   4.561
13469TIP3   OH240349   8.245   7.792   6.281
13469TIP3    H140350   8.301   7.739   6.337
13469TIP3    H240351   8.161   7.795   6.327
13470TIP3   OH240352   4.434   7.479   1.557
13470TIP3    H140353   4.527   7.464   1.577
13470TIP3    H240354   4.390   7.461   1.640
13471TIP3   OH240355   5.172   0.256   2.376
13471TIP3    H140356   5.210   0.204   2.305
13471TIP3    H240357   5.150   0.340   2.335
13472TIP3   OH240358   2.901   3.126   2.395
13472TIP3    H140359   2.883   3.207   2.348
13472TIP3    H240360   2.916   3.154   2.486
13473TIP3   OH240361   1.931   4.857   5.903
13473TIP3    H140362   1.963   4.769   5.925
13473TIP3    H240363   1.907   4.895   5.987
13474TIP3   OH240364   1.664   6.232   3.658
13474TIP3    H140365   1.669   6.160   3.595
13474TIP3    H240366   1.572   6.257   3.659
13475TIP3   OH240367   3.670   4.082   4.357
13475TIP3    H140368   3.678   4.017   4.287
13475TIP3    H240369   3.705   4.163   4.318
13476TIP3   OH240370   7.509   4.851   2.815
13476TIP3    H140371   7.507   4.946   2.801
13476TIP3    H240372   7.537   4.842   2.907
13477TIP3   OH240373   2.232   0.488   6.689
13477TIP3    H140374   2.152   0.532   6.716
13477TIP3    H240375   2.202   0.403   6.654
13478TIP3   OH240376   7.853   3.991   6.031
13478TIP3    H140377   7.867   3.918   5.972
13478TIP3    H240378   7.921   4.055   6.007
13479TIP3   OH240379   2.509   4.482   4.968
13479TIP3    H140380   2.526   4.414   5.033
13479TIP3    H240381   2.414   4.481   4.956
13480TIP3   OH240382   1.461   5.487   1.017
13480TIP3    H140383   1.418   5.423   1.074
13480TIP3    H240384   1.416   5.569   1.034
13481TIP3   OH240385   5.834   4.742   1.147
13481TIP3    H140386   5.778   4.669   1.119
13481TIP3    H240387   5.914   4.700   1.178
13482TIP3   OH240388   8.113   3.786   0.325
13482TIP3    H140389   8.130   3.727   0.252
13482TIP3    H240390   8.060   3.857   0.287
13483TIP3   OH240391   7.087   7.006   2.135
13483TIP3    H140392   7.091   7.052   2.051
13483TIP3    H240393   7.165   7.035   2.182
13484TIP3   OH240394   1.820   2.908   2.201
13484TIP3    H140395   1.772   2.959   2.136
13484TIP3    H240396   1.878   2.852   2.148
13485TIP3   OH240397   3.407   4.670   4.629
13485TIP3    H140398   3.497   4.650   4.655
13485TIP3    H240399   3.381   4.596   4.574
13486TIP3   OH240400   3.139   1.252   4.246
13486TIP3    H140401   3.080   1.254   4.321
13486TIP3    H240402   3.194   1.175   4.260
13487TIP3   OH240403   7.966   6.444   1.870
13487TIP3    H140404   8.010   6.360   1.858
13487TIP3    H240405   7.993   6.497   1.795
13488TIP3   OH240406   7.880   2.464   1.349
13488TIP3    H140407   7.893   2.404   1.422
13488TIP3    H240408   7.959   2.518   1.347
13489TIP3   OH240409   5.784   4.799   5.074
13489TIP3    H140410   5.822   4.883   5.102
13489TIP3    H240411   5.842   4.770   5.004
13490TIP3   OH240412   1.681   4.672   3.335
13490TIP3    H140413   1.668   4.732   3.261
13490TIP3    H240414   1.595   4.633   3.349
13491TIP3   OH240415   0.139   5.657   1.521
13491TIP3    H140416   0.209   5.687   1.463
13491TIP3    H240417   0.113   5.736   1.569
13492TIP3   OH240418   6.240   3.526   3.265
13492TIP3    H140419   6.159   3.477   3.279
13492TIP3    H240420   6.239   3.547   3.172
13493TIP3   OH240421   4.775   7.044   0.009
13493TIP3    H140422   4.851   6.989  -0.010
13493TIP3    H240423   4.719   7.035  -0.067
13494TIP3   OH240424  -0.025   5.154   5.046
13494TIP3    H140425  -0.078   5.076   5.032
13494TIP3    H240426   0.049   5.144   4.986
13495TIP3   OH240427   7.535   2.907   5.223
13495TIP3    H140428   7.542   2.985   5.278
13495TIP3    H240429   7.473   2.850   5.270
13496TIP3   OH240430   7.890   5.887   5.914
13496TIP3    H140431   7.904   5.876   5.820
13496TIP3    H240432   7.813   5.943   5.920
13497TIP3   OH240433   0.059   3.661   1.945
13497TIP3    H140434   0.054   3.749   1.982
13497TIP3    H240435  -0.032   3.637   1.927
13498TIP3   OH240436   6.864   3.213   3.907
13498TIP3    H140437   6.775   3.188   3.935
13498TIP3    H240438   6.859   3.307   3.891
13499TIP3   OH240439   1.984   6.105   1.975
13499TIP3    H140440   1.974   6.013   1.998
13499TIP3    H240441   1.940   6.152   2.046
13500TIP3   OH240442   5.417   3.349   5.362
13500TIP3    H140443   5.430   3.360   5.267
13500TIP3    H240444   5.341   3.402   5.382
13501TIP3   OH240445   4.157   4.056   5.712
13501TIP3    H140446   4.117   4.139   5.687
13501TIP3    H240447   4.084   4.003   5.744
13502TIP3   OH240448   3.634   5.062   5.385
13502TIP3    H140449   3.646   4.968   5.370
13502TIP3    H240450   3.595   5.095   5.305
13503TIP3   OH240451   6.114   6.182   1.977
13503TIP3    H140452   6.207   6.176   1.956
13503TIP3    H240453   6.112   6.193   2.072
13504TIP3   OH240454   1.972   1.080   6.735
13504TIP3    H140455   1.979   1.143   6.663
13504TIP3    H240456   1.918   1.009   6.700
13505TIP3   OH240457   1.003   3.267   1.824
13505TIP3    H140458   1.049   3.248   1.742
13505TIP3    H240459   0.956   3.348   1.807
13506TIP3   OH240460   7.180   2.055   1.175
13506TIP3    H140461   7.261   2.091   1.211
13506TIP3    H240462   7.179   1.964   1.205
13507TIP3   OH240463   7.213   5.323   4.233
13507TIP3    H140464   7.282   5.311   4.298
13507TIP3    H240465   7.157   5.392   4.269
13508TIP3   OH240466   7.756   3.749   3.305
13508TIP3    H140467   7.680   3.804   3.322
13508TIP3    H240468   7.746   3.674   3.364
13509TIP3   OH240469   1.562   0.836   4.156
13509TIP3    H140470   1.605   0.913   4.193
13509TIP3    H240471   1.559   0.853   4.062
13510TIP3   OH240472   4.764   5.715   0.872
13510TIP3    H140473   4.683   5.717   0.820
13510TIP3    H240474   4.752   5.639   0.930
13511TIP3   OH240475   2.028   7.569   5.458
13511TIP3    H140476   2.017   7.660   5.429
13511TIP3    H240477   1.940   7.541   5.483
13512TIP3   OH240478   2.594   5.285   5.309
13512TIP3    H140479   2.580   5.354   5.374
13512TIP3    H240480   2.688   5.285   5.293
13513TIP3   OH240481   2.585   1.730   4.427
13513TIP3    H140482   2.649   1.801   4.431
13513TIP3    H240483   2.627   1.663   4.373
13514TIP3   OH240484   8.114   7.225   2.416
13514TIP3    H140485   8.019   7.234   2.405
13514TIP3    H240486   8.124   7.181   2.501
13515TIP3   OH240487   5.003   6.011   4.333
13515TIP3    H140488   5.082   6.028   4.385
13515TIP3    H240489   4.938   6.070   4.370
13516TIP3   OH240490   3.060   2.104   0.542
13516TIP3    H140491   3.042   2.054   0.622
13516TIP3    H240492   3.088   2.190   0.575
13517TIP3   OH240493   7.538   4.098   3.075
13517TIP3    H140494   7.597   4.030   3.041
13517TIP3    H240495   7.490   4.055   3.146
13518TIP3   OH240496   5.814   5.737   0.371
13518TIP3    H140497   5.732   5.774   0.339
13518TIP3    H240498   5.788   5.672   0.436
13519TIP3   OH240499   2.933   2.397   5.309
13519TIP3    H140500   2.838   2.390   5.305
13519TIP3    H240501   2.958   2.342   5.384
13520TIP3   OH240502   7.373   1.064   0.280
13520TIP3    H140503   7.353   1.147   0.323
13520TIP3    H240504   7.453   1.034   0.322
13521TIP3   OH240505   1.067   4.980   0.674
13521TIP3    H140506   1.158   5.006   0.659
13521TIP3    H240507   1.026   4.984   0.587
13522TIP3   OH240508   5.119   2.092   5.993
13522TIP3    H140509   5.177   2.046   5.932
13522TIP3    H240510   5.098   2.174   5.948
13523TIP3   OH240511   6.385   7.273   4.935
13523TIP3    H140512   6.326   7.212   4.979
13523TIP3    H240513   6.415   7.227   4.857
13524TIP3   OH240514   6.112   5.880   4.236
13524TIP3    H140515   6.124   5.975   4.228
13524TIP3    H240516   6.051   5.858   4.166
13525TIP3   OH240517   1.537   1.859   2.650
13525TIP3    H140518   1.554   1.782   2.705
13525TIP3    H240519   1.604   1.855   2.582
13526TIP3   OH240520   4.708   2.265   3.054
13526TIP3    H140521   4.793   2.259   3.098
13526TIP3    H240522   4.658   2.191   3.088
13527TIP3   OH240523   2.637   1.168   4.614
13527TIP3    H140524   2.606   1.082   4.583
13527TIP3    H240525   2.654   1.155   4.707
13528TIP3   OH240526   5.990   5.737   5.948
13528TIP3    H140527   6.040   5.800   6.000
13528TIP3    H240528   6.040   5.727   5.868
13529TIP3   OH240529   5.331   7.281   0.125
13529TIP3    H140530   5.319   7.344   0.054
13529TIP3    H240531   5.421   7.249   0.114
13530TIP3   OH240532   7.214   5.746   5.167
13530TIP3    H140533   7.203   5.701   5.251
13530TIP3    H240534   7.274   5.818   5.186
13531TIP3   OH240535   4.663   6.648   4.870
13531TIP3    H140536   4.645   6.734   4.908
13531TIP3    H240537   4.717   6.604   4.935
13532TIP3   OH240538   8.233   0.547   4.279
13532TIP3    H140539   8.179   0.610   4.232
13532TIP3    H240540   8.288   0.507   4.211
13533TIP3   OH240541   7.107   5.460   2.300
13533TIP3    H140542   7.132   5.549   2.325
13533TIP3    H240543   7.019   5.449   2.335
13534TIP3   OH240544   4.920   6.439   2.859
13534TIP3    H140545   4.926   6.359   2.807
13534TIP3    H240546   5.010   6.472   2.864
13535TIP3   OH240547   1.693   1.241   3.898
13535TIP3    H140548   1.743   1.165   3.868
13535TIP3    H240549   1.754   1.314   3.892
13536TIP3   OH240550   1.270   1.213   0.937
13536TIP3    H140551   1.261   1.120   0.958
13536TIP3    H240552   1.365   1.226   0.929
13537TIP3   OH240553   4.795   5.783   6.180
13537TIP3    H140554   4.764   5.695   6.200
13537TIP3    H240555   4.827   5.778   6.091
13538TIP3   OH240556   4.087   5.293   4.684
13538TIP3    H140557   4.122   5.369   4.730
13538TIP3    H240558   4.104   5.220   4.743
13539TIP3   OH240559   1.030   3.366   3.658
13539TIP3    H140560   0.982   3.441   3.623
13539TIP3    H240561   1.017   3.372   3.753
13540TIP3   OH240562   1.742   7.096   3.698
13540TIP3    H140563   1.821   7.091   3.752
13540TIP3    H240564   1.767   7.149   3.623
13541TIP3   OH240565   1.168   3.326   3.167
13541TIP3    H140566   1.178   3.372   3.250
13541TIP3    H240567   1.149   3.395   3.103
13542TIP3   OH240568   2.125   7.021   1.196
13542TIP3    H140569   2.134   6.939   1.245
13542TIP3    H240570   2.187   7.013   1.124
13543TIP3   OH240571   2.332   2.575   5.769
13543TIP3    H140572   2.253   2.544   5.815
13543TIP3    H240573   2.335   2.669   5.787
13544TIP3   OH240574   5.507   0.157   0.929
13544TIP3    H140575   5.521   0.177   1.021
13544TIP3    H240576   5.530   0.238   0.883
13545TIP3   OH240577   8.232   0.392   4.971
13545TIP3    H140578   8.224   0.478   5.012
13545TIP3    H240579   8.149   0.348   4.992
13546TIP3   OH240580   7.752   0.451   1.414
13546TIP3    H140581   7.767   0.536   1.454
13546TIP3    H240582   7.662   0.428   1.440
13547TIP3   OH240583   5.042   2.526   0.027
13547TIP3    H140584   4.956   2.483   0.024
13547TIP3    H240585   5.097   2.472  -0.029
13548TIP3   OH240586   3.887   7.009   0.232
13548TIP3    H140587   3.900   7.056   0.314
13548TIP3    H240588   3.878   7.077   0.166
13549TIP3   OH240589   3.471   1.680   2.367
13549TIP3    H140590   3.389   1.729   2.379
13549TIP3    H240591   3.508   1.674   2.456
13550TIP3   OH240592   3.931   2.678   4.338
13550TIP3    H140593   3.933   2.583   4.348
13550TIP3    H240594   3.962   2.711   4.423
13551TIP3   OH240595   3.666   4.458   2.670
13551TIP3    H140596   3.688   4.467   2.577
13551TIP3    H240597   3.583   4.409   2.670
13552TIP3   OH240598   4.777   5.507   0.260
13552TIP3    H140599   4.846   5.532   0.198
13552TIP3    H240600   4.824   5.466   0.333
13553TIP3   OH240601   6.951   2.404   4.047
13553TIP3    H140602   6.986   2.483   4.087
13553TIP3    H240603   6.935   2.344   4.120
13554TIP3   OH240604   6.332   5.680   4.192
13554TIP3    H140605   6.249   5.710   4.229
13554TIP3    H240606   6.354   5.746   4.126
13555TIP3   OH240607   1.280   5.533   0.653
13555TIP3    H140608   1.211   5.549   0.589
13555TIP3    H240609   1.344   5.602   0.638
13556TIP3   OH240610   2.335   3.549   0.613
13556TIP3    H140611   2.342   3.549   0.518
13556TIP3    H240612   2.425   3.549   0.644
13557TIP3   OH240613   0.539   0.813   5.189
13557TIP3    H140614   0.501   0.740   5.239
13557TIP3    H240615   0.613   0.774   5.142
13558TIP3   OH240616   3.578   7.603   1.741
13558TIP3    H140617   3.594   7.516   1.778
13558TIP3    H240618   3.514   7.643   1.800
13559TIP3   OH240619   6.303   6.680   6.521
13559TIP3    H140620   6.246   6.646   6.451
13559TIP3    H240621   6.329   6.602   6.570
13560TIP3   OH240622   3.945   1.869   4.322
13560TIP3    H140623   3.892   1.948   4.329
13560TIP3    H240624   3.897   1.815   4.259
13561TIP3   OH240625   1.081   5.812   6.294
13561TIP3    H140626   1.174   5.824   6.312
13561TIP3    H240627   1.069   5.718   6.288
13562TIP3   OH240628   4.586   5.934   4.328
13562TIP3    H140629   4.591   5.950   4.423
13562TIP3    H240630   4.664   5.881   4.309
13563TIP3   OH240631   7.584   7.505   4.577
13563TIP3    H140632   7.511   7.480   4.633
13563TIP3    H240633   7.662   7.472   4.622
13564TIP3   OH240634   5.903   4.338   0.556
13564TIP3    H140635   5.953   4.355   0.476
13564TIP3    H240636   5.867   4.250   0.543
13565TIP3   OH240637   4.838   0.290   0.899
13565TIP3    H140638   4.759   0.254   0.940
13565TIP3    H240639   4.907   0.276   0.964
13566TIP3   OH240640   0.311   0.325   6.001
13566TIP3    H140641   0.404   0.301   6.006
13566TIP3    H240642   0.290   0.319   5.908
13567TIP3   OH240643   2.817   4.972   5.716
13567TIP3    H140644   2.762   5.040   5.755
13567TIP3    H240645   2.794   4.893   5.764
13568TIP3   OH240646   3.433   6.625   6.600
13568TIP3    H140647   3.508   6.605   6.544
13568TIP3    H240648   3.402   6.710   6.569
13569TIP3   OH240649   0.639   4.663   5.647
13569TIP3    H140650   0.638   4.670   5.742
13569TIP3    H240651   0.715   4.608   5.627
13570TIP3   OH240652   7.842   6.733   0.351
13570TIP3    H140653   7.806   6.802   0.407
13570TIP3    H240654   7.765   6.694   0.309
13571TIP3   OH240655   3.295   1.546   1.549
13571TIP3    H140656   3.283   1.634   1.584
13571TIP3    H240657   3.362   1.507   1.605
13572TIP3   OH240658   1.419   7.002   5.996
13572TIP3    H140659   1.337   6.979   6.039
13572TIP3    H240660   1.480   6.932   6.020
13573TIP3   OH240661   7.447   5.273   6.015
13573TIP3    H140662   7.384   5.207   6.042
13573TIP3    H240663   7.506   5.282   6.089
13574TIP3   OH240664   4.655   4.314   4.224
13574TIP3    H140665   4.711   4.345   4.296
13574TIP3    H240666   4.674   4.373   4.152
13575TIP3   OH240667   3.855   7.751   0.514
13575TIP3    H140668   3.798   7.674   0.506
13575TIP3    H240669   3.892   7.762   0.427
13576TIP3   OH240670   3.833   4.965   0.691
13576TIP3    H140671   3.893   4.891   0.693
13576TIP3    H240672   3.746   4.926   0.693
13577TIP3   OH240673   5.324   1.784   2.354
13577TIP3    H140674   5.366   1.828   2.428
13577TIP3    H240675   5.291   1.856   2.300
13578TIP3   OH240676   0.094   3.261  -0.031
13578TIP3    H140677   0.066   3.192   0.029
13578TIP3    H240678   0.071   3.342   0.014
13579TIP3   OH240679   0.500   2.261   5.749
13579TIP3    H140680   0.427   2.318   5.727
13579TIP3    H240681   0.531   2.228   5.665
13580TIP3   OH240682   4.588   6.672   5.321
13580TIP3    H140683   4.573   6.744   5.260
13580TIP3    H240684   4.501   6.646   5.350
13581TIP3   OH240685   3.704   7.277   4.502
13581TIP3    H140686   3.657   7.221   4.563
13581TIP3    H240687   3.679   7.246   4.415
13582TIP3   OH240688   3.493   3.699   1.769
13582TIP3    H140689   3.493   3.646   1.849
13582TIP3    H240690   3.439   3.649   1.708
13583TIP3   OH240691   0.600   7.279   3.411
13583TIP3    H140692   0.598   7.240   3.498
13583TIP3    H240693   0.518   7.250   3.370
13584TIP3   OH240694   2.019   2.503   2.192
13584TIP3    H140695   2.006   2.482   2.285
13584TIP3    H240696   2.041   2.419   2.151
13585TIP3   OH240697   8.273   6.877   1.149
13585TIP3    H140698   8.221   6.812   1.198
13585TIP3    H240699   8.212   6.914   1.086
13586TIP3   OH240700   4.976   2.339   5.125
13586TIP3    H140701   5.054   2.371   5.171
13586TIP3    H240702   4.985   2.373   5.036
13587TIP3   OH240703   3.818   3.414   5.343
13587TIP3    H140704   3.846   3.498   5.380
13587TIP3    H240705   3.846   3.418   5.252
13588TIP3   OH240706   4.915   4.124   4.520
13588TIP3    H140707   4.924   4.082   4.605
13588TIP3    H240708   4.955   4.063   4.458
13589TIP3   OH240709   4.210   4.471   5.087
13589TIP3    H140710   4.202   4.416   5.009
13589TIP3    H240711   4.285   4.528   5.068
13590TIP3   OH240712   1.948   2.693   6.304
13590TIP3    H140713   1.874   2.634   6.293
13590TIP3    H240714   1.993   2.691   6.220
13591TIP3   OH240715   1.626   1.132   3.286
13591TIP3    H140716   1.626   1.038   3.301
13591TIP3    H240717   1.534   1.154   3.272
13592TIP3   OH240718   2.168   5.312   5.111
13592TIP3    H140719   2.178   5.372   5.185
13592TIP3    H240720   2.075   5.315   5.089
13593TIP3   OH240721   4.727   6.403   3.652
13593TIP3    H140722   4.745   6.310   3.643
13593TIP3    H240723   4.663   6.422   3.583
13594TIP3   OH240724   1.058   4.238   2.752
13594TIP3    H140725   0.966   4.259   2.740
13594TIP3    H240726   1.103   4.322   2.745
13595TIP3   OH240727   7.268   5.385   5.008
13595TIP3    H140728   7.354   5.399   4.968
13595TIP3    H240729   7.260   5.454   5.073
13596TIP3   OH240730   7.454   1.980   0.753
13596TIP3    H140731   7.425   1.929   0.829
13596TIP3    H240732   7.374   1.991   0.700
13597TIP3   OH240733   7.638   5.528   6.596
13597TIP3    H140734   7.713   5.536   6.656
13597TIP3    H240735   7.565   5.568   6.644
13598TIP3   OH240736   5.351   4.591   6.317
13598TIP3    H140737   5.439   4.619   6.342
13598TIP3    H240738   5.307   4.672   6.290
13599TIP3   OH240739   7.996   2.318   0.857
13599TIP3    H140740   8.045   2.346   0.934
13599TIP3    H240741   7.938   2.248   0.888
13600TIP3   OH240742   2.284   3.705   5.677
13600TIP3    H140743   2.298   3.799   5.668
13600TIP3    H240744   2.348   3.677   5.743
13601TIP3   OH240745   0.733   6.268   0.224
13601TIP3    H140746   0.810   6.252   0.280
13601TIP3    H240747   0.756   6.345   0.173
13602TIP3   OH240748   7.069   5.492   2.587
13602TIP3    H140749   7.017   5.415   2.606
13602TIP3    H240750   7.064   5.544   2.668
13603TIP3   OH240751   4.679   7.173   1.005
13603TIP3    H140752   4.713   7.199   1.091
13603TIP3    H240753   4.590   7.207   1.002
13604TIP3   OH240754   1.341   3.294   5.970
13604TIP3    H140755   1.279   3.366   5.956
13604TIP3    H240756   1.390   3.289   5.888
13605TIP3   OH240757   5.204   5.383   1.159
13605TIP3    H140758   5.295   5.357   1.146
13605TIP3    H240759   5.155   5.333   1.093
13606TIP3   OH240760   1.717   3.009   6.401
13606TIP3    H140761   1.682   3.098   6.408
13606TIP3    H240762   1.673   2.972   6.324
13607TIP3   OH240763   0.934   4.541   4.703
13607TIP3    H140764   0.884   4.607   4.655
13607TIP3    H240765   0.909   4.458   4.662
13608TIP3   OH240766   1.097   1.586   1.834
13608TIP3    H140767   1.166   1.522   1.848
13608TIP3    H240768   1.035   1.543   1.775
13609TIP3   OH240769   7.973   4.173   3.924
13609TIP3    H140770   8.014   4.133   3.847
13609TIP3    H240771   7.880   4.154   3.914
13610TIP3   OH240772   7.972   0.724   2.902
13610TIP3    H140773   8.007   0.728   2.990
13610TIP3    H240774   7.877   0.731   2.914
13611TIP3   OH240775   1.066   6.085   6.394
13611TIP3    H140776   0.978   6.112   6.368
13611TIP3    H240777   1.078   5.999   6.353
13612TIP3   OH240778   1.075   2.411   6.442
13612TIP3    H140779   1.157   2.360   6.443
13612TIP3    H240780   1.007   2.347   6.461
13613TIP3   OH240781   6.634   1.949   1.408
13613TIP3    H140782   6.654   1.934   1.315
13613TIP3    H240783   6.694   1.890   1.454
13614TIP3   OH240784   1.497   0.236   2.054
13614TIP3    H140785   1.522   0.193   2.135
13614TIP3    H240786   1.457   0.166   2.001
13615TIP3   OH240787   4.201   7.373   3.213
13615TIP3    H140788   4.195   7.296   3.157
13615TIP3    H240789   4.198   7.339   3.302
13616TIP3   OH240790   3.375   3.708   5.564
13616TIP3    H140791   3.299   3.759   5.592
13616TIP3    H240792   3.364   3.623   5.608
13617TIP3   OH240793   5.638   0.993   4.605
13617TIP3    H140794   5.648   0.899   4.586
13617TIP3    H240795   5.587   0.996   4.685
13618TIP3   OH240796   1.508   3.983   0.028
13618TIP3    H140797   1.592   3.955   0.065
13618TIP3    H240798   1.443   3.929   0.073
13619TIP3   OH240799   7.111   2.347   6.753
13619TIP3    H140800   7.033   2.353   6.698
13619TIP3    H240801   7.169   2.287   6.707
13620TIP3   OH240802   2.179   1.468   0.555
13620TIP3    H140803   2.261   1.517   0.557
13620TIP3    H240804   2.166   1.438   0.645
13621TIP3   OH240805   7.640   3.916   4.338
13621TIP3    H140806   7.560   3.897   4.288
13621TIP3    H240807   7.692   3.836   4.330
13622TIP3   OH240808   1.768   4.574   6.069
13622TIP3    H140809   1.854   4.605   6.099
13622TIP3    H240810   1.711   4.651   6.077
13623TIP3   OH240811   0.595   2.324   1.505
13623TIP3    H140812   0.603   2.249   1.447
13623TIP3    H240813   0.681   2.330   1.548
13624TIP3   OH240814   4.481   3.452   4.286
13624TIP3    H140815   4.412   3.467   4.350
13624TIP3    H240816   4.435   3.448   4.202
13625TIP3   OH240817   3.835   6.529   5.459
13625TIP3    H140818   3.748   6.490   5.460
13625TIP3    H240819   3.886   6.471   5.402
13626TIP3   OH240820   3.157   5.097   2.548
13626TIP3    H140821   3.096   5.094   2.622
13626TIP3    H240822   3.225   5.034   2.571
13627TIP3   OH240823   5.196   7.256   4.298
13627TIP3    H140824   5.184   7.333   4.242
13627TIP3    H240825   5.153   7.280   4.380
13628TIP3   OH240826   5.293   3.293   5.867
13628TIP3    H140827   5.312   3.200   5.860
13628TIP3    H240828   5.373   3.332   5.901
13629TIP3   OH240829   5.387   7.402   2.656
13629TIP3    H140830   5.379   7.456   2.735
13629TIP3    H240831   5.386   7.312   2.688
13630TIP3   OH240832   4.081   2.193   6.572
13630TIP3    H140833   4.140   2.238   6.633
13630TIP3    H240834   4.108   2.102   6.575
13631TIP3   OH240835   4.987   2.590   4.633
13631TIP3    H140836   5.058   2.585   4.697
13631TIP3    H240837   4.950   2.502   4.630
13632TIP3   OH240838   5.779   1.115   5.135
13632TIP3    H140839   5.858   1.168   5.127
13632TIP3    H240840   5.794   1.040   5.077
13633TIP3   OH240841   1.261   1.355   1.581
13633TIP3    H140842   1.276   1.365   1.487
13633TIP3    H240843   1.166   1.355   1.590
13634TIP3   OH240844   7.548   5.668   5.123
13634TIP3    H140845   7.644   5.673   5.129
13634TIP3    H240846   7.523   5.608   5.193
13635TIP3   OH240847   1.953   3.440   3.508
13635TIP3    H140848   1.991   3.383   3.575
13635TIP3    H240849   1.868   3.399   3.488
13636TIP3   OH240850   3.795   4.626   1.678
13636TIP3    H140851   3.862   4.643   1.744
13636TIP3    H240852   3.843   4.619   1.595
13637TIP3   OH240853   5.922   1.517   0.721
13637TIP3    H140854   5.847   1.559   0.763
13637TIP3    H240855   5.888   1.485   0.637
13638TIP3   OH240856   3.711   1.549   3.430
13638TIP3    H140857   3.654   1.473   3.436
13638TIP3    H240858   3.726   1.575   3.521
13639TIP3   OH240859   8.065   5.809   4.931
13639TIP3    H140860   8.039   5.718   4.944
13639TIP3    H240861   8.127   5.806   4.858
13640TIP3   OH240862   2.239   1.186   4.205
13640TIP3    H140863   2.154   1.231   4.208
13640TIP3    H240864   2.235   1.122   4.276
13641TIP3   OH240865   1.835   4.594   4.196
13641TIP3    H140866   1.858   4.549   4.115
13641TIP3    H240867   1.912   4.585   4.251
13642TIP3   OH240868   0.712   0.815   0.718
13642TIP3    H140869   0.653   0.747   0.685
13642TIP3    H240870   0.766   0.770   0.783
13643TIP3   OH240871   3.164   3.582   1.862
13643TIP3    H140872   3.175   3.640   1.786
13643TIP3    H240873   3.077   3.544   1.850
13644TIP3   OH240874   1.082   7.416   0.795
13644TIP3    H140875   1.164   7.434   0.749
13644TIP3    H240876   1.108   7.405   0.886
13645TIP3   OH240877   6.371   6.893   5.286
13645TIP3    H140878   6.356   6.936   5.370
13645TIP3    H240879   6.451   6.933   5.252
13646TIP3   OH240880   4.876   5.859   5.942
13646TIP3    H140881   4.884   5.914   5.863
13646TIP3    H240882   4.882   5.769   5.909
13647TIP3   OH240883   3.347   4.071   4.967
13647TIP3    H140884   3.404   4.076   5.044
13647TIP3    H240885   3.397   4.112   4.897
13648TIP3   OH240886   6.432   1.883   5.888
13648TIP3    H140887   6.343   1.878   5.923
13648TIP3    H240888   6.452   1.976   5.886
13649TIP3   OH240889   4.001   7.052   1.412
13649TIP3    H140890   4.070   6.997   1.451
13649TIP3    H240891   4.016   7.139   1.449
13650TIP3   OH240892   3.139   7.005   3.096
13650TIP3    H140893   3.204   7.043   3.155
13650TIP3    H240894   3.079   7.077   3.075
13651TIP3   OH240895   4.032   4.062   4.345
13651TIP3    H140896   4.046   3.967   4.346
13651TIP3    H240897   3.949   4.074   4.300
13652TIP3   OH240898   4.136   0.630   0.512
13652TIP3    H140899   4.151   0.702   0.452
13652TIP3    H240900   4.040   0.624   0.520
13653TIP3   OH240901   6.036   2.780   6.463
13653TIP3    H140902   5.956   2.750   6.507
13653TIP3    H240903   6.088   2.819   6.533
13654TIP3   OH240904   6.794   6.569   2.148
13654TIP3    H140905   6.729   6.628   2.109
13654TIP3    H240906   6.873   6.623   2.155
13655TIP3   OH240907   6.443   3.592   1.222
13655TIP3    H140908   6.494   3.594   1.303
13655TIP3    H240909   6.459   3.504   1.186
13656TIP3   OH240910   2.351   0.026   2.960
13656TIP3    H140911   2.422   0.069   2.912
13656TIP3    H240912   2.329  -0.050   2.907
13657TIP3   OH240913   2.352   3.520   6.199
13657TIP3    H140914   2.294   3.503   6.273
13657TIP3    H240915   2.331   3.452   6.135
13658TIP3   OH240916   1.169   6.913   1.692
13658TIP3    H140917   1.252   6.870   1.674
13658TIP3    H240918   1.192   6.990   1.744
13659TIP3   OH240919   6.959   7.065   4.107
13659TIP3    H140920   7.039   7.018   4.084
13659TIP3    H240921   6.899   7.048   4.035
13660TIP3   OH240922   7.587   2.539   1.548
13660TIP3    H140923   7.572   2.481   1.473
13660TIP3    H240924   7.515   2.602   1.545
13661TIP3   OH240925   1.216   1.748   1.628
13661TIP3    H140926   1.205   1.722   1.719
13661TIP3    H240927   1.301   1.711   1.602
13662TIP3   OH240928   5.779   0.693   4.676
13662TIP3    H140929   5.853   0.712   4.617
13662TIP3    H240930   5.789   0.755   4.748
13663TIP3   OH240931   5.629   4.959   4.423
13663TIP3    H140932   5.575   5.004   4.358
13663TIP3    H240933   5.689   4.905   4.372
13664TIP3   OH240934   2.913   0.222   2.516
13664TIP3    H140935   2.829   0.202   2.558
13664TIP3    H240936   2.942   0.139   2.479
13665TIP3   OH240937   1.532   3.660   4.726
13665TIP3    H140938   1.543   3.709   4.644
13665TIP3    H240939   1.467   3.711   4.776
13666TIP3   OH240940   2.383   4.192   1.616
13666TIP3    H140941   2.295   4.164   1.590
13666TIP3    H240942   2.390   4.282   1.585
13667TIP3   OH240943   4.930   0.789   6.406
13667TIP3    H140944   4.870   0.729   6.363
13667TIP3    H240945   5.005   0.794   6.348
13668TIP3   OH240946   0.004   3.439   4.175
13668TIP3    H140947   0.076   3.382   4.201
13668TIP3    H240948   0.044   3.525   4.165
13669TIP3   OH240949   1.383   5.911   4.621
13669TIP3    H140950   1.413   6.001   4.611
13669TIP3    H240951   1.375   5.879   4.531
13670TIP3   OH240952   7.661   1.046   1.775
13670TIP3    H140953   7.585   1.104   1.766
13670TIP3    H240954   7.624   0.960   1.793
13671TIP3   OH240955   2.069   4.990   4.686
13671TIP3    H140956   2.046   4.922   4.750
13671TIP3    H240957   2.153   5.025   4.717
13672TIP3   OH240958   1.197   3.519   1.784
13672TIP3    H140959   1.184   3.600   1.834
13672TIP3    H240960   1.247   3.463   1.842
13673TIP3   OH240961   0.564   6.124   3.354
13673TIP3    H140962   0.531   6.040   3.323
13673TIP3    H240963   0.592   6.169   3.275
13674TIP3   OH240964   0.319   3.747   1.184
13674TIP3    H140965   0.321   3.684   1.112
13674TIP3    H240966   0.249   3.808   1.161
13675TIP3   OH240967   1.022   7.033   1.984
13675TIP3    H140968   1.092   7.067   1.928
13675TIP3    H240969   0.982   6.962   1.934
13676TIP3   OH240970   7.438   3.772   6.664
13676TIP3    H140971   7.372   3.841   6.671
13676TIP3    H240972   7.414   3.724   6.585
13677TIP3   OH240973   6.887   2.242   2.838
13677TIP3    H140974   6.853   2.309   2.898
13677TIP3    H240975   6.971   2.217   2.876
13678TIP3   OH240976   0.193   4.284   6.597
13678TIP3    H140977   0.225   4.325   6.516
13678TIP3    H240978   0.158   4.200   6.568
13679TIP3   OH240979   6.717   0.127   5.779
13679TIP3    H140980   6.659   0.188   5.735
13679TIP3    H240981   6.673   0.042   5.773
13680TIP3   OH240982   1.412   5.017   5.955
13680TIP3    H140983   1.339   4.957   5.938
13680TIP3    H240984   1.393   5.054   6.042
13681TIP3   OH240985   3.905   7.367   0.676
13681TIP3    H140986   3.873   7.315   0.603
13681TIP3    H240987   3.826   7.393   0.724
13682TIP3   OH240988   5.299   7.010   5.162
13682TIP3    H140989   5.360   7.041   5.229
13682TIP3    H240990   5.223   7.068   5.169
13683TIP3   OH240991   3.943   6.881   5.694
13683TIP3    H140992   3.993   6.961   5.680
13683TIP3    H240993   3.879   6.880   5.623
13684TIP3   OH240994   6.643   0.837   3.082
13684TIP3    H140995   6.639   0.900   3.010
13684TIP3    H240996   6.592   0.879   3.152
13685TIP3   OH240997   3.990   3.039   0.916
13685TIP3    H140998   4.024   2.976   0.852
13685TIP3    H240999   4.063   3.052   0.977
13686TIP3   OH241000   2.820   3.395   2.816
13686TIP3    H141001   2.815   3.408   2.911
13686TIP3    H241002   2.774   3.471   2.779
13687TIP3   OH241003   4.944   4.216   5.193
13687TIP3    H141004   5.023   4.188   5.240
13687TIP3    H241005   4.872   4.197   5.253
13688TIP3   OH241006   0.529   7.742   3.451
13688TIP3    H141007   0.545   7.705   3.365
13688TIP3    H241008   0.594   7.812   3.460
13689TIP3   OH241009   1.041   2.796   4.064
13689TIP3    H141010   1.092   2.757   3.993
13689TIP3    H241011   1.077   2.884   4.074
13690TIP3   OH241012   7.127   3.141   3.156
13690TIP3    H141013   7.110   3.224   3.111
13690TIP3    H241014   7.155   3.082   3.086
13691TIP3   OH241015   4.483   2.200   4.031
13691TIP3    H141016   4.523   2.211   3.944
13691TIP3    H241017   4.400   2.157   4.014
13692TIP3   OH241018   6.399   2.147   4.219
13692TIP3    H141019   6.434   2.061   4.196
13692TIP3    H241020   6.393   2.193   4.136
13693TIP3   OH241021   4.874   3.701   4.574
13693TIP3    H141022   4.914   3.735   4.654
13693TIP3    H241023   4.798   3.651   4.604
13694TIP3   OH241024   4.032   7.351   5.455
13694TIP3    H141025   3.991   7.269   5.428
13694TIP3    H241026   4.118   7.325   5.488
13695TIP3   OH241027   7.504   6.793   1.227
13695TIP3    H141028   7.533   6.723   1.286
13695TIP3    H241029   7.521   6.759   1.139
13696TIP3   OH241030   8.240   2.547   5.146
13696TIP3    H141031   8.204   2.464   5.177
13696TIP3    H241032   8.213   2.611   5.212
13697TIP3   OH241033   6.594   6.507   6.174
13697TIP3    H141034   6.611   6.570   6.243
13697TIP3    H241035   6.535   6.443   6.214
13698TIP3   OH241036   1.412   3.649   5.597
13698TIP3    H141037   1.346   3.649   5.528
13698TIP3    H241038   1.456   3.565   5.589
13699TIP3   OH241039   7.588   5.093   6.748
13699TIP3    H141040   7.681   5.118   6.751
13699TIP3    H241041   7.576   5.039   6.826
13700TIP3   OH241042   4.567   3.638   4.620
13700TIP3    H141043   4.497   3.599   4.672
13700TIP3    H241044   4.529   3.719   4.586
13701TIP3   OH241045   7.522   4.420   4.867
13701TIP3    H141046   7.586   4.349   4.874
13701TIP3    H241047   7.527   4.447   4.775
13702TIP3   OH241048   7.811   4.333   1.895
13702TIP3    H141049   7.838   4.394   1.827
13702TIP3    H241050   7.815   4.247   1.854
13703TIP3   OH241051   5.384   2.364   1.250
13703TIP3    H141052   5.313   2.323   1.300
13703TIP3    H241053   5.460   2.360   1.309
13704TIP3   OH241054   3.460   5.459   6.636
13704TIP3    H141055   3.541   5.493   6.597
13704TIP3    H241056   3.407   5.537   6.652
13705TIP3   OH241057   2.915   1.375   1.911
13705TIP3    H141058   2.933   1.358   2.003
13705TIP3    H241059   2.877   1.462   1.909
13706TIP3   OH241060   7.609   5.114   2.833
13706TIP3    H141061   7.665   5.084   2.905
13706TIP3    H241062   7.584   5.203   2.858
13707TIP3   OH241063   4.124   5.959   4.664
13707TIP3    H141064   4.055   5.998   4.611
13707TIP3    H241065   4.085   5.878   4.697
13708TIP3   OH241066   7.763   6.128   2.911
13708TIP3    H141067   7.805   6.073   2.978
13708TIP3    H241068   7.835   6.154   2.853
13709TIP3   OH241069   7.460   3.224   6.604
13709TIP3    H141070   7.471   3.300   6.661
13709TIP3    H241071   7.366   3.217   6.589
13710TIP3   OH241072   4.853   5.584   1.952
13710TIP3    H141073   4.941   5.559   1.922
13710TIP3    H241074   4.795   5.519   1.913
13711TIP3   OH241075   2.213   6.914   0.928
13711TIP3    H141076   2.163   6.859   0.988
13711TIP3    H241077   2.270   6.853   0.882
13712TIP3   OH241078   4.532   7.329   4.086
13712TIP3    H141079   4.582   7.334   4.167
13712TIP3    H241080   4.548   7.414   4.043
13713TIP3   OH241081   4.451   7.253   1.378
13713TIP3    H141082   4.476   7.323   1.438
13713TIP3    H241083   4.359   7.269   1.360
13714TIP3   OH241084   6.562   3.931   5.632
13714TIP3    H141085   6.606   4.010   5.599
13714TIP3    H241086   6.541   3.952   5.723
13715TIP3   OH241087   6.046   0.030   0.590
13715TIP3    H141088   6.095  -0.005   0.665
13715TIP3    H241089   6.081   0.118   0.577
13716TIP3   OH241090   2.395   7.145   4.473
13716TIP3    H141091   2.322   7.180   4.423
13716TIP3    H241092   2.421   7.217   4.532
13717TIP3   OH241093   3.157   4.456  -0.012
13717TIP3    H141094   3.185   4.385   0.046
13717TIP3    H241095   3.190   4.431  -0.098
13718TIP3   OH241096   5.639   2.243   2.725
13718TIP3    H141097   5.683   2.263   2.808
13718TIP3    H241098   5.546   2.243   2.747
13719TIP3   OH241099   1.474   0.821   1.785
13719TIP3    H141100   1.447   0.839   1.874
13719TIP3    H241101   1.398   0.845   1.731
13720TIP3   OH241102   1.615   0.237   5.344
13720TIP3    H141103   1.618   0.262   5.437
13720TIP3    H241104   1.667   0.304   5.300
13721TIP3   OH241105   0.370   3.336   5.614
13721TIP3    H141106   0.396   3.426   5.637
13721TIP3    H241107   0.292   3.346   5.559
13722TIP3   OH241108   2.701   6.245   1.335
13722TIP3    H141109   2.639   6.209   1.271
13722TIP3    H241110   2.727   6.169   1.388
13723TIP3   OH241111   4.684   7.092   3.417
13723TIP3    H141112   4.651   7.057   3.335
13723TIP3    H241113   4.605   7.109   3.469
13724TIP3   OH241114   3.765   1.725   1.948
13724TIP3    H141115   3.688   1.716   1.892
13724TIP3    H241116   3.838   1.697   1.892
13725TIP3   OH241117   4.792   5.356   5.858
13725TIP3    H141118   4.725   5.347   5.791
13725TIP3    H241119   4.857   5.290   5.836
13726TIP3   OH241120   1.510   1.650   4.927
13726TIP3    H141121   1.591   1.697   4.949
13726TIP3    H241122   1.485   1.606   5.008
13727TIP3   OH241123   5.967   3.726   3.670
13727TIP3    H141124   6.037   3.720   3.605
13727TIP3    H241125   6.010   3.702   3.753
13728TIP3   OH241126   5.353   2.082   4.445
13728TIP3    H141127   5.278   2.082   4.385
13728TIP3    H241128   5.327   2.025   4.517
13729TIP3   OH241129   6.010   6.820   6.329
13729TIP3    H141130   6.013   6.903   6.376
13729TIP3    H241131   5.930   6.777   6.361
13730TIP3   OH241132   2.988   7.673   1.819
13730TIP3    H141133   3.036   7.731   1.879
13730TIP3    H241134   2.969   7.728   1.743
13731TIP3   OH241135   6.212   4.618   3.182
13731TIP3    H141136   6.285   4.583   3.233
13731TIP3    H241137   6.134   4.596   3.233
13732TIP3   OH241138   2.848   6.289   3.499
13732TIP3    H141139   2.873   6.259   3.411
13732TIP3    H241140   2.870   6.383   3.498
13733TIP3   OH241141   2.248   5.638   1.042
13733TIP3    H141142   2.220   5.567   0.985
13733TIP3    H241143   2.208   5.618   1.127
13734TIP3   OH241144   3.037   4.027   5.973
13734TIP3    H141145   3.074   4.010   6.060
13734TIP3    H241146   2.975   4.098   5.988
13735TIP3   OH241147   2.546   5.810   2.840
13735TIP3    H141148   2.572   5.767   2.759
13735TIP3    H241149   2.514   5.739   2.896
13736TIP3   OH241150   2.349   4.717   3.167
13736TIP3    H141151   2.398   4.766   3.102
13736TIP3    H241152   2.337   4.630   3.129
13737TIP3   OH241153   0.422   5.268   1.833
13737TIP3    H141154   0.368   5.239   1.906
13737TIP3    H241155   0.360   5.288   1.763
13738TIP3   OH241156   6.206   6.946   5.837
13738TIP3    H141157   6.161   6.863   5.820
13738TIP3    H241158   6.299   6.924   5.837
13739TIP3   OH241159   1.697   5.879   5.317
13739TIP3    H141160   1.697   5.820   5.392
13739TIP3    H241161   1.683   5.822   5.241
13740TIP3   OH241162   7.907   0.938   2.385
13740TIP3    H141163   7.880   1.006   2.323
13740TIP3    H241164   7.862   0.960   2.466
13741TIP3   OH241165   3.619   0.375   1.916
13741TIP3    H141166   3.527   0.377   1.888
13741TIP3    H241167   3.667   0.404   1.839
13742TIP3   OH241168   2.337   4.022   6.510
13742TIP3    H141169   2.369   3.932   6.511
13742TIP3    H241170   2.415   4.076   6.522
13743TIP3   OH241171   2.639   2.973   0.908
13743TIP3    H141172   2.681   2.905   0.855
13743TIP3    H241173   2.625   3.045   0.847
13744TIP3   OH241174   2.991   0.476   0.430
13744TIP3    H141175   3.026   0.547   0.377
13744TIP3    H241176   3.023   0.396   0.389
13745TIP3   OH241177   1.380   6.369   0.799
13745TIP3    H141178   1.398   6.417   0.718
13745TIP3    H241179   1.439   6.407   0.864
13746TIP3   OH241180   0.617   2.966   1.234
13746TIP3    H141181   0.640   2.931   1.320
13746TIP3    H241182   0.560   3.041   1.253
13747TIP3   OH241183   8.298   5.035   3.278
13747TIP3    H141184   8.245   5.114   3.263
13747TIP3    H241185   8.283   5.014   3.370
13748TIP3   OH241186   4.000   4.272   0.244
13748TIP3    H141187   3.979   4.230   0.161
13748TIP3    H241188   4.035   4.358   0.220
13749TIP3   OH241189   6.523   2.548   1.348
13749TIP3    H141190   6.607   2.576   1.384
13749TIP3    H241191   6.459   2.610   1.384
13750TIP3   OH241192   7.009   6.921   2.498
13750TIP3    H141193   6.934   6.980   2.494
13750TIP3    H241194   6.990   6.853   2.434
13751TIP3   OH241195   3.416   6.291   6.474
13751TIP3    H141196   3.325   6.303   6.502
13751TIP3    H241197   3.468   6.317   6.550
13752TIP3   OH241198   0.756   5.379   5.555
13752TIP3    H141199   0.801   5.416   5.479
13752TIP3    H241200   0.752   5.285   5.537
13753TIP3   OH241201   3.373   2.883   3.423
13753TIP3    H141202   3.364   2.854   3.514
13753TIP3    H241203   3.424   2.964   3.428
13754TIP3   OH241204   1.301   5.202   5.791
13754TIP3    H141205   1.348   5.163   5.865
13754TIP3    H241206   1.212   5.216   5.824
13755TIP3   OH241207   1.175   5.059   3.997
13755TIP3    H141208   1.243   5.109   4.042
13755TIP3    H241209   1.149   4.991   4.060
13756TIP3   OH241210   3.657   3.320   6.682
13756TIP3    H141211   3.614   3.343   6.764
13756TIP3    H241212   3.671   3.403   6.638
13757TIP3   OH241213   0.926   3.148   4.078
13757TIP3    H141214   0.896   3.163   4.167
13757TIP3    H241215   1.021   3.158   4.082
13758TIP3   OH241216   5.386   3.487   3.742
13758TIP3    H141217   5.380   3.501   3.648
13758TIP3    H241218   5.301   3.448   3.766
13759TIP3   OH241219   2.719   1.153   6.333
13759TIP3    H141220   2.677   1.067   6.327
13759TIP3    H241221   2.772   1.149   6.413
13760TIP3   OH241222   3.824   2.952   5.798
13760TIP3    H141223   3.808   2.859   5.815
13760TIP3    H241224   3.748   2.980   5.747
13761TIP3   OH241225   7.404   7.031   3.489
13761TIP3    H141226   7.480   7.069   3.533
13761TIP3    H241227   7.403   7.072   3.402
13762TIP3   OH241228   2.443   4.424   6.031
13762TIP3    H141229   2.423   4.486   6.101
13762TIP3    H241230   2.368   4.429   5.971
13763TIP3   OH241231   7.716   5.700   3.219
13763TIP3    H141232   7.800   5.726   3.256
13763TIP3    H241233   7.721   5.724   3.127
13764TIP3   OH241234   5.491   3.096   1.875
13764TIP3    H141235   5.532   3.165   1.926
13764TIP3    H241236   5.564   3.037   1.852
13765TIP3   OH241237   5.143   1.784   5.431
13765TIP3    H141238   5.083   1.716   5.401
13765TIP3    H241239   5.085   1.855   5.459
13766TIP3   OH241240   3.201   1.548   6.135
13766TIP3    H141241   3.131   1.515   6.079
13766TIP3    H241242   3.275   1.561   6.076
13767TIP3   OH241243   3.941   5.870  -0.030
13767TIP3    H141244   3.862   5.838  -0.074
13767TIP3    H241245   3.909   5.920   0.044
13768TIP3   OH241246   7.765   0.898   0.992
13768TIP3    H141247   7.687   0.856   1.026
13768TIP3    H241248   7.734   0.979   0.952
13769TIP3   OH241249   5.883   7.006   1.283
13769TIP3    H141250   5.960   7.007   1.340
13769TIP3    H241251   5.815   6.965   1.337
13770TIP3   OH241252   4.017   2.978   0.207
13770TIP3    H141253   3.941   3.014   0.161
13770TIP3    H241254   4.038   2.898   0.158
13771TIP3   OH241255   5.564   1.109   0.400
13771TIP3    H141256   5.542   1.162   0.323
13771TIP3    H241257   5.635   1.052   0.370
13772TIP3   OH241258   2.737   6.122   0.317
13772TIP3    H141259   2.751   6.148   0.226
13772TIP3    H241260   2.796   6.178   0.367
13773TIP3   OH241261   3.577   7.201   6.043
13773TIP3    H141262   3.550   7.273   6.099
13773TIP3    H241263   3.501   7.182   5.989
13774TIP3   OH241264   3.110   0.259   2.167
13774TIP3    H141265   3.072   0.233   2.083
13774TIP3    H241266   3.062   0.338   2.191
13775TIP3   OH241267   4.887   2.817   2.293
13775TIP3    H141268   4.838   2.751   2.245
13775TIP3    H241269   4.978   2.788   2.289
13776TIP3   OH241270   6.934   7.628   2.207
13776TIP3    H141271   6.973   7.552   2.164
13776TIP3    H241272   6.938   7.697   2.141
13777TIP3   OH241273   8.060   1.210   4.807
13777TIP3    H141274   8.025   1.181   4.891
13777TIP3    H241275   8.020   1.295   4.792
13778TIP3   OH241276   0.604   7.514   3.933
13778TIP3    H141277   0.581   7.571   4.006
13778TIP3    H241278   0.581   7.566   3.855
13779TIP3   OH241279   2.588   7.518   3.435
13779TIP3    H141280   2.662   7.557   3.389
13779TIP3    H241281   2.588   7.559   3.522
13780TIP3   OH241282   1.214   4.856   1.773
13780TIP3    H141283   1.192   4.946   1.751
13780TIP3    H241284   1.261   4.824   1.696
13781TIP3   OH241285   2.752   3.215   6.054
13781TIP3    H141286   2.768   3.126   6.024
13781TIP3    H241287   2.833   3.262   6.035
13782TIP3   OH241288   2.519   1.502   2.430
13782TIP3    H141289   2.554   1.520   2.343
13782TIP3    H241290   2.535   1.408   2.444
13783TIP3   OH241291   4.490   2.500   1.803
13783TIP3    H141292   4.411   2.543   1.835
13783TIP3    H241293   4.521   2.448   1.878
13784TIP3   OH241294   5.255   4.135   4.276
13784TIP3    H141295   5.328   4.098   4.326
13784TIP3    H241296   5.223   4.062   4.222
13785TIP3   OH241297   6.184   1.940   5.380
13785TIP3    H141298   6.253   1.927   5.446
13785TIP3    H241299   6.209   2.022   5.336
13786TIP3   OH241300   1.052   7.147   0.693
13786TIP3    H141301   1.027   7.197   0.771
13786TIP3    H241302   0.972   7.101   0.668
13787TIP3   OH241303   6.796   5.531   5.821
13787TIP3    H141304   6.806   5.444   5.784
13787TIP3    H241305   6.874   5.544   5.875
13788TIP3   OH241306   2.528   1.016   0.926
13788TIP3    H141307   2.545   0.995   1.018
13788TIP3    H241308   2.496   1.106   0.928
13789TIP3   OH241309   3.231   7.535   2.121
13789TIP3    H141310   3.251   7.545   2.214
13789TIP3    H241311   3.136   7.547   2.116
13790TIP3   OH241312   1.440   2.487   1.206
13790TIP3    H141313   1.491   2.509   1.128
13790TIP3    H241314   1.365   2.438   1.173
13791TIP3   OH241315   7.860   6.467   3.015
13791TIP3    H141316   7.790   6.455   3.080
13791TIP3    H241317   7.930   6.510   3.063
13792TIP3   OH241318   2.117   0.404   3.969
13792TIP3    H141319   2.091   0.367   3.885
13792TIP3    H241320   2.146   0.330   4.021
13793TIP3   OH241321   5.059   4.163   0.408
13793TIP3    H141322   5.105   4.108   0.472
13793TIP3    H241323   4.974   4.119   0.395
13794TIP3   OH241324   5.514   4.209   5.428
13794TIP3    H141325   5.556   4.204   5.342
13794TIP3    H241326   5.438   4.150   5.422
13795TIP3   OH241327   0.798   2.894   0.498
13795TIP3    H141328   0.730   2.835   0.466
13795TIP3    H241329   0.878   2.864   0.456
13796TIP3   OH241330   7.265   2.235   0.264
13796TIP3    H141331   7.252   2.307   0.326
13796TIP3    H241332   7.177   2.217   0.230
13797TIP3   OH241333   7.874   1.073   6.696
13797TIP3    H141334   7.778   1.072   6.704
13797TIP3    H241335   7.900   0.983   6.717
13798TIP3   OH241336   0.944   1.430   0.301
13798TIP3    H141337   1.026   1.439   0.253
13798TIP3    H241338   0.941   1.506   0.360
13799TIP3   OH241339   5.722   3.035   4.801
13799TIP3    H141340   5.740   3.080   4.718
13799TIP3    H241341   5.687   2.950   4.775
13800TIP3   OH241342   0.948   7.509   6.254
13800TIP3    H141343   0.946   7.469   6.341
13800TIP3    H241344   1.038   7.494   6.223
13801TIP3   OH241345   1.866   5.553   5.928
13801TIP3    H141346   1.832   5.522   5.844
13801TIP3    H241347   1.930   5.487   5.953
13802TIP3   OH241348   5.365   4.694   0.464
13802TIP3    H141349   5.436   4.722   0.522
13802TIP3    H241350   5.285   4.714   0.513
13803TIP3   OH241351   7.523   7.328   2.190
13803TIP3    H141352   7.466   7.277   2.132
13803TIP3    H241353   7.563   7.393   2.133
13804TIP3   OH241354   3.019   0.181   3.980
13804TIP3    H141355   3.001   0.272   3.955
13804TIP3    H241356   3.032   0.183   4.074
13805TIP3   OH241357   1.754   6.751   2.605
13805TIP3    H141358   1.689   6.762   2.674
13805TIP3    H241359   1.747   6.659   2.579
13806TIP3   OH241360   7.917   6.780   0.674
13806TIP3    H141361   7.931   6.864   0.631
13806TIP3    H241362   7.920   6.716   0.602
13807TIP3   OH241363   0.351   6.012   2.472
13807TIP3    H141364   0.282   6.056   2.521
13807TIP3    H241365   0.344   5.920   2.497
13808TIP3   OH241366   6.551   1.426   5.457
13808TIP3    H141367   6.528   1.448   5.367
13808TIP3    H241368   6.626   1.367   5.448
13809TIP3   OH241369   4.475   6.584   2.658
13809TIP3    H141370   4.536   6.532   2.709
13809TIP3    H241371   4.414   6.620   2.722
13810TIP3   OH241372   5.629   5.211   0.994
13810TIP3    H141373   5.718   5.191   1.025
13810TIP3    H241374   5.627   5.178   0.905
13811TIP3   OH241375   2.603   5.088   5.919
13811TIP3    H141376   2.556   5.069   5.838
13811TIP3    H241377   2.537   5.080   5.988
13812TIP3   OH241378   1.905   3.437   5.600
13812TIP3    H141379   1.992   3.446   5.562
13812TIP3    H241380   1.877   3.526   5.619
13813TIP3   OH241381   2.913   0.870   2.904
13813TIP3    H141382   2.944   0.960   2.895
13813TIP3    H241383   2.847   0.874   2.973
13814TIP3   OH241384   0.045   7.606   6.455
13814TIP3    H141385  -0.003   7.527   6.479
13814TIP3    H241386   0.136   7.587   6.477
13815TIP3   OH241387   0.358   5.738   1.911
13815TIP3    H141388   0.423   5.703   1.971
13815TIP3    H241389   0.334   5.664   1.855
13816TIP3   OH241390   0.453   6.898  -0.005
13816TIP3    H141391   0.495   6.916   0.079
13816TIP3    H241392   0.369   6.859   0.018
13817TIP3   OH241393   2.289   6.594   2.904
13817TIP3    H141394   2.288   6.532   2.976
13817TIP3    H241395   2.377   6.589   2.868
13818TIP3   OH241396   5.381   4.600   4.730
13818TIP3    H141397   5.369   4.695   4.722
13818TIP3    H241398   5.359   4.566   4.644
13819TIP3   OH241399   6.485   2.507   0.443
13819TIP3    H141400   6.580   2.494   0.441
13819TIP3    H241401   6.457   2.463   0.524
13820TIP3   OH241402   5.991   1.778   3.405
13820TIP3    H141403   5.967   1.719   3.333
13820TIP3    H241404   6.077   1.811   3.381
13821TIP3   OH241405   7.081   3.538   2.522
13821TIP3    H141406   7.046   3.460   2.564
13821TIP3    H241407   7.020   3.556   2.450
13822TIP3   OH241408   5.543   7.778   2.281
13822TIP3    H141409   5.489   7.723   2.224
13822TIP3    H241410   5.571   7.719   2.351
13823TIP3   OH241411   0.369   7.792   0.215
13823TIP3    H141412   0.339   7.741   0.290
13823TIP3    H241413   0.459   7.762   0.201
13824TIP3   OH241414   7.795   1.984   3.119
13824TIP3    H141415   7.760   2.072   3.131
13824TIP3    H241416   7.857   1.973   3.192
13825TIP3   OH241417   6.377   6.096   1.867
13825TIP3    H141418   6.397   6.124   1.778
13825TIP3    H241419   6.440   6.027   1.886
13826TIP3   OH241420   1.724   4.290   2.415
13826TIP3    H141421   1.716   4.226   2.344
13826TIP3    H241422   1.666   4.362   2.389
13827TIP3   OH241423   5.673   6.505   5.185
13827TIP3    H141424   5.661   6.416   5.151
13827TIP3    H241425   5.763   6.527   5.162
13828TIP3   OH241426   3.472   3.127   3.446
13828TIP3    H141427   3.567   3.131   3.457
13828TIP3    H241428   3.450   3.209   3.401
13829TIP3   OH241429   3.180   4.660   3.997
13829TIP3    H141430   3.211   4.572   4.018
13829TIP3    H241431   3.258   4.715   4.000
13830TIP3   OH241432   0.974   6.796   5.222
13830TIP3    H141433   0.889   6.808   5.264
13830TIP3    H241434   1.000   6.884   5.195
13831TIP3   OH241435   0.919   2.862   4.935
13831TIP3    H141436   0.998   2.909   4.963
13831TIP3    H241437   0.949   2.799   4.870
13832TIP3   OH241438   5.675   6.378   2.346
13832TIP3    H141439   5.740   6.369   2.416
13832TIP3    H241440   5.724   6.367   2.265
13833TIP3   OH241441   5.568   6.204   4.711
13833TIP3    H141442   5.608   6.281   4.752
13833TIP3    H241443   5.520   6.240   4.637
13834TIP3   OH241444   3.100   1.831   6.172
13834TIP3    H141445   3.150   1.885   6.111
13834TIP3    H241446   3.140   1.745   6.166
13835TIP3   OH241447   1.464   1.124   6.090
13835TIP3    H141448   1.494   1.083   6.010
13835TIP3    H241449   1.498   1.069   6.161
13836TIP3   OH241450   2.944   6.687   0.966
13836TIP3    H141451   2.962   6.757   0.903
13836TIP3    H241452   2.993   6.612   0.933
13837TIP3   OH241453   3.003   0.828   5.703
13837TIP3    H141454   3.097   0.834   5.720
13837TIP3    H241455   2.975   0.919   5.693
13838TIP3   OH241456   4.499   6.127   3.071
13838TIP3    H141457   4.554   6.049   3.079
13838TIP3    H241458   4.418   6.095   3.031
13839TIP3   OH241459   0.318   1.755   3.329
13839TIP3    H141460   0.336   1.663   3.347
13839TIP3    H241461   0.235   1.772   3.372
13840TIP3   OH241462   2.499   5.102   5.101
13840TIP3    H141463   2.585   5.099   5.058
13840TIP3    H241464   2.515   5.153   5.181
13841TIP3   OH241465   2.865   7.583   0.623
13841TIP3    H141466   2.805   7.657   0.629
13841TIP3    H241467   2.857   7.538   0.707
13842TIP3   OH241468   8.142   1.952   1.788
13842TIP3    H141469   8.178   1.881   1.841
13842TIP3    H241470   8.208   2.020   1.791
13843TIP3   OH241471   2.132   1.897   5.438
13843TIP3    H141472   2.147   1.819   5.492
13843TIP3    H241473   2.049   1.879   5.393
13844TIP3   OH241474   3.018   2.576   0.557
13844TIP3    H141475   2.933   2.610   0.529
13844TIP3    H241476   3.006   2.557   0.651
13845TIP3   OH241477   0.169   0.375   0.673
13845TIP3    H141478   0.152   0.422   0.591
13845TIP3    H241479   0.108   0.301   0.671
13846TIP3   OH241480   6.335   5.375   3.046
13846TIP3    H141481   6.348   5.290   3.088
13846TIP3    H241482   6.244   5.398   3.066
13847TIP3   OH241483   6.314   6.936   0.652
13847TIP3    H141484   6.407   6.952   0.634
13847TIP3    H241485   6.310   6.843   0.674
13848TIP3   OH241486   3.911   1.871  -0.051
13848TIP3    H141487   3.952   1.869   0.035
13848TIP3    H241488   3.821   1.900  -0.034
13849TIP3   OH241489   7.068   4.074   2.892
13849TIP3    H141490   6.975   4.049   2.888
13849TIP3    H241491   7.108   4.006   2.946
13850TIP3   OH241492   5.533   5.040   4.192
13850TIP3    H141493   5.452   4.992   4.175
13850TIP3    H241494   5.572   5.053   4.105
13851TIP3   OH241495   5.150   7.618   4.916
13851TIP3    H141496   5.194   7.547   4.868
13851TIP3    H241497   5.218   7.685   4.926
13852TIP3   OH241498   5.564   1.224   3.930
13852TIP3    H141499   5.624   1.293   3.960
13852TIP3    H241500   5.485   1.236   3.983
13853TIP3   OH241501   0.200   3.542   3.268
13853TIP3    H141502   0.294   3.525   3.264
13853TIP3    H241503   0.177   3.526   3.360
13854TIP3   OH241504   4.996   6.831   5.021
13854TIP3    H141505   4.963   6.889   5.090
13854TIP3    H241506   4.918   6.786   4.989
13855TIP3   OH241507   3.941   0.732   5.600
13855TIP3    H141508   3.854   0.772   5.590
13855TIP3    H241509   3.995   0.775   5.534
13856TIP3   OH241510   0.889   2.193   5.055
13856TIP3    H141511   0.840   2.120   5.093
13856TIP3    H241512   0.955   2.151   4.999
13857TIP3   OH241513   4.372   6.663   5.508
13857TIP3    H141514   4.298   6.610   5.538
13857TIP3    H241515   4.341   6.753   5.513
13858TIP3   OH241516   6.456   1.303   4.565
13858TIP3    H141517   6.502   1.236   4.514
13858TIP3    H241518   6.370   1.310   4.523
13859TIP3   OH241519   1.828   0.242   1.416
13859TIP3    H141520   1.831   0.251   1.321
13859TIP3    H241521   1.895   0.302   1.448
13860TIP3   OH241522   4.954   5.061   2.228
13860TIP3    H141523   4.992   5.118   2.162
13860TIP3    H241524   4.999   5.083   2.309
13861TIP3   OH241525   2.717   2.222   4.156
13861TIP3    H141526   2.658   2.190   4.224
13861TIP3    H241527   2.738   2.311   4.182
13862TIP3   OH241528   5.686   4.919   1.931
13862TIP3    H141529   5.761   4.869   1.965
13862TIP3    H241530   5.632   4.854   1.886
13863TIP3   OH241531   2.099   7.461   6.583
13863TIP3    H141532   2.183   7.444   6.626
13863TIP3    H241533   2.045   7.384   6.603
13864TIP3   OH241534   2.589   7.580   5.116
13864TIP3    H141535   2.628   7.601   5.031
13864TIP3    H241536   2.663   7.579   5.177
13865TIP3   OH241537   5.841   7.187   3.756
13865TIP3    H141538   5.813   7.274   3.730
13865TIP3    H241539   5.761   7.146   3.790
13866TIP3   OH241540   5.815   0.164   5.123
13866TIP3    H141541   5.805   0.259   5.123
13866TIP3    H241542   5.759   0.133   5.052
13867TIP3   OH241543   2.685   0.522   0.289
13867TIP3    H141544   2.634   0.594   0.250
13867TIP3    H241545   2.621   0.453   0.306
13868TIP3   OH241546   2.903   0.638   5.890
13868TIP3    H141547   2.812   0.637   5.859
13868TIP3    H241548   2.950   0.688   5.824
13869TIP3   OH241549   6.364   3.225   6.568
13869TIP3    H141550   6.334   3.171   6.495
13869TIP3    H241551   6.285   3.244   6.618
13870TIP3   OH241552   2.701   1.918   1.572
13870TIP3    H141553   2.651   1.949   1.647
13870TIP3    H241554   2.636   1.911   1.502
13871TIP3   OH241555   4.755   4.846   0.186
13871TIP3    H141556   4.760   4.905   0.111
13871TIP3    H241557   4.845   4.813   0.195
13872TIP3   OH241558   4.811   5.013   0.682
13872TIP3    H141559   4.793   4.947   0.749
13872TIP3    H241560   4.833   4.963   0.603
13873TIP3   OH241561   5.691   6.073   0.557
13873TIP3    H141562   5.650   6.104   0.476
13873TIP3    H241563   5.629   6.096   0.626
13874TIP3   OH241564   1.705   3.857   2.405
13874TIP3    H141565   1.625   3.808   2.424
13874TIP3    H241566   1.743   3.875   2.490
13875TIP3   OH241567   4.336   6.782   2.025
13875TIP3    H141568   4.376   6.865   2.050
13875TIP3    H241569   4.334   6.784   1.930
13876TIP3   OH241570   5.523   7.516   2.881
13876TIP3    H141571   5.604   7.536   2.834
13876TIP3    H241572   5.545   7.441   2.936
13877TIP3   OH241573   0.267   1.439   6.324
13877TIP3    H141574   0.250   1.351   6.291
13877TIP3    H241575   0.338   1.472   6.269
13878TIP3   OH241576   3.146   6.301   6.340
13878TIP3    H141577   3.161   6.394   6.358
13878TIP3    H241578   3.068   6.300   6.284
13879TIP3   OH241579   3.636   0.899   4.530
13879TIP3    H141580   3.571   0.966   4.512
13879TIP3    H241581   3.669   0.920   4.617
13880TIP3   OH241582   4.224   0.311   5.337
13880TIP3    H141583   4.147   0.257   5.316
13880TIP3    H241584   4.204   0.350   5.422
13881TIP3   OH241585   5.089   2.322   4.149
13881TIP3    H141586   5.003   2.362   4.134
13881TIP3    H241587   5.129   2.376   4.217
13882TIP3   OH241588   7.802   3.986   3.623
13882TIP3    H141589   7.776   3.968   3.713
13882TIP3    H241590   7.745   3.931   3.570
13883TIP3   OH241591   6.951   7.787   1.958
13883TIP3    H141592   7.032   7.749   1.926
13883TIP3    H241593   6.892   7.784   1.882
13884TIP3   OH241594   2.550   2.454   0.256
13884TIP3    H141595   2.496   2.529   0.230
13884TIP3    H241596   2.640   2.486   0.247
13885TIP3   OH241597   4.323   6.240   4.424
13885TIP3    H141598   4.248   6.271   4.374
13885TIP3    H241599   4.342   6.312   4.486
13886TIP3   OH241600   3.848   3.450   2.240
13886TIP3    H141601   3.831   3.448   2.146
13886TIP3    H241602   3.799   3.526   2.272
13887TIP3   OH241603   6.525   5.931   5.822
13887TIP3    H141604   6.595   5.875   5.790
13887TIP3    H241605   6.476   5.957   5.744
13888TIP3   OH241606   2.789   4.948   4.083
13888TIP3    H141607   2.790   4.938   4.178
13888TIP3    H241608   2.802   4.859   4.050
13889TIP3   OH241609   7.526   4.291   1.675
13889TIP3    H141610   7.493   4.225   1.736
13889TIP3    H241611   7.524   4.373   1.725
13890TIP3   OH241612   2.707   5.760   5.342
13890TIP3    H141613   2.631   5.812   5.316
13890TIP3    H241614   2.733   5.714   5.263
13891TIP3   OH241615   2.947   7.163   3.791
13891TIP3    H141616   2.892   7.236   3.818
13891TIP3    H241617   2.997   7.196   3.717
13892TIP3   OH241618   6.966   1.624   2.034
13892TIP3    H141619   7.014   1.550   2.071
13892TIP3    H241620   7.020   1.655   1.961
13893TIP3   OH241621   6.871   0.960   1.755
13893TIP3    H141622   6.952   0.911   1.740
13893TIP3    H241623   6.841   0.984   1.668
13894TIP3   OH241624   5.087   3.896   5.790
13894TIP3    H141625   5.141   3.822   5.817
13894TIP3    H241626   5.093   3.897   5.695
13895TIP3   OH241627   5.455   4.108   3.202
13895TIP3    H141628   5.360   4.106   3.203
13895TIP3    H241629   5.481   4.034   3.257
13896TIP3   OH241630   5.155   6.403   5.034
13896TIP3    H141631   5.120   6.469   4.975
13896TIP3    H241632   5.247   6.429   5.046
13897TIP3   OH241633   3.305   3.862   1.319
13897TIP3    H141634   3.350   3.778   1.312
13897TIP3    H241635   3.221   3.847   1.275
13898TIP3   OH241636   6.633   1.515   5.005
13898TIP3    H141637   6.607   1.438   4.953
13898TIP3    H241638   6.560   1.528   5.065
13899TIP3   OH241639   0.094   0.511   5.510
13899TIP3    H141640   0.087   0.606   5.510
13899TIP3    H241641   0.110   0.488   5.418
13900TIP3   OH241642   2.991   0.423   6.008
13900TIP3    H141643   3.085   0.437   5.998
13900TIP3    H241644   2.951   0.505   5.978
13901TIP3   OH241645   0.757   3.944   2.915
13901TIP3    H141646   0.662   3.954   2.926
13901TIP3    H241647   0.769   3.941   2.820
13902TIP3   OH241648   4.687   6.014   4.591
13902TIP3    H141649   4.636   6.087   4.627
13902TIP3    H241650   4.774   6.052   4.573
13903TIP3   OH241651   0.407   6.036   3.705
13903TIP3    H141652   0.362   6.046   3.621
13903TIP3    H241653   0.343   6.065   3.770
13904TIP3   OH241654   5.427   1.641   4.845
13904TIP3    H141655   5.362   1.646   4.914
13904TIP3    H241656   5.446   1.732   4.823
13905TIP3   OH241657   1.030   1.064   1.841
13905TIP3    H141658   1.102   1.127   1.842
13905TIP3    H241659   0.953   1.116   1.817
13906TIP3   OH241660   1.993   2.691   1.565
13906TIP3    H141661   2.055   2.635   1.518
13906TIP3    H241662   1.965   2.756   1.500
13907TIP3   OH241663   0.131   7.095   5.761
13907TIP3    H141664   0.107   7.116   5.851
13907TIP3    H241665   0.222   7.126   5.753
13908TIP3   OH241666   2.290   1.896   3.300
13908TIP3    H141667   2.356   1.840   3.340
13908TIP3    H241668   2.328   1.919   3.215
13909TIP3   OH241669   6.631   2.746   1.692
13909TIP3    H141670   6.598   2.790   1.771
13909TIP3    H241671   6.606   2.804   1.620
13910TIP3   OH241672   1.983   5.971   3.861
13910TIP3    H141673   1.904   5.917   3.862
13910TIP3    H241674   1.990   6.003   3.771
13911TIP3   OH241675   6.887   3.503   3.862
13911TIP3    H141676   6.850   3.574   3.914
13911TIP3    H241677   6.971   3.484   3.903
13912TIP3   OH241678   6.868   2.986   2.137
13912TIP3    H141679   6.781   2.947   2.143
13912TIP3    H241680   6.896   2.995   2.228
13913TIP3   OH241681   1.341   6.472   2.267
13913TIP3    H141682   1.416   6.427   2.230
13913TIP3    H241683   1.300   6.407   2.324
13914TIP3   OH241684   2.538   1.973   3.794
13914TIP3    H141685   2.571   1.962   3.883
13914TIP3    H241686   2.451   1.933   3.795
13915TIP3   OH241687   1.550   2.496   6.472
13915TIP3    H141688   1.486   2.487   6.402
13915TIP3    H241689   1.515   2.566   6.527
13916TIP3   OH241690   6.769   1.112   5.091
13916TIP3    H141691   6.769   1.051   5.017
13916TIP3    H241692   6.782   1.198   5.052
13917TIP3   OH241693   3.663   1.944   0.034
13917TIP3    H141694   3.612   1.877   0.081
13917TIP3    H241695   3.632   2.027   0.072
13918TIP3   OH241696   1.754   5.588   4.951
13918TIP3    H141697   1.668   5.596   4.910
13918TIP3    H241698   1.767   5.672   4.996
13919TIP3   OH241699   3.822   3.984   0.153
13919TIP3    H141700   3.773   3.935   0.088
13919TIP3    H241701   3.822   3.929   0.231
13920TIP3   OH241702   3.780   6.014   3.075
13920TIP3    H141703   3.740   6.012   3.162
13920TIP3    H241704   3.772   5.924   3.043
13921TIP3   OH241705   0.591   5.272   1.325
13921TIP3    H141706   0.630   5.287   1.410
13921TIP3    H241707   0.595   5.357   1.280
13922TIP3   OH241708   6.336   4.375   2.424
13922TIP3    H141709   6.340   4.337   2.512
13922TIP3    H241710   6.249   4.414   2.420
13923TIP3   OH241711   4.485   2.505   5.372
13923TIP3    H141712   4.509   2.413   5.364
13923TIP3    H241713   4.421   2.507   5.444
13924TIP3   OH241714   0.491   3.093   3.238
13924TIP3    H141715   0.428   3.021   3.248
13924TIP3    H241716   0.500   3.103   3.143
13925TIP3   OH241717   5.754   1.051   3.640
13925TIP3    H141718   5.661   1.065   3.658
13925TIP3    H241719   5.767   0.957   3.652
13926TIP3   OH241720   2.404   4.232   4.662
13926TIP3    H141721   2.475   4.168   4.661
13926TIP3    H241722   2.447   4.316   4.649
13927TIP3   OH241723   2.369   4.319   0.395
13927TIP3    H141724   2.293   4.268   0.369
13927TIP3    H241725   2.385   4.294   0.486
13928TIP3   OH241726   4.680   4.798   2.232
13928TIP3    H141727   4.771   4.773   2.250
13928TIP3    H241728   4.646   4.829   2.316
13929TIP3   OH241729   2.462   5.483   2.491
13929TIP3    H141730   2.446   5.514   2.580
13929TIP3    H241731   2.435   5.556   2.435
13930TIP3   OH241732   4.193   2.618   6.744
13930TIP3    H141733   4.265   2.556   6.753
13930TIP3    H241734   4.192   2.666   6.827
13931TIP3   OH241735   4.350   0.909   5.007
13931TIP3    H141736   4.379   0.837   4.952
13931TIP3    H241737   4.255   0.902   5.008
13932TIP3   OH241738   0.121   7.235   2.091
13932TIP3    H141739   0.149   7.238   2.183
13932TIP3    H241740   0.162   7.312   2.052
13933TIP3   OH241741   0.068   6.141   0.152
13933TIP3    H141742   0.128   6.215   0.160
13933TIP3    H241743   0.063   6.124   0.058
13934TIP3   OH241744   4.458   5.924   2.620
13934TIP3    H141745   4.433   5.986   2.551
13934TIP3    H241746   4.380   5.870   2.633
13935TIP3   OH241747   8.320   4.602   1.941
13935TIP3    H141748   8.265   4.662   1.891
13935TIP3    H241749   8.374   4.558   1.876
13936TIP3   OH241750   4.032   5.478   4.160
13936TIP3    H141751   4.093   5.480   4.233
13936TIP3    H241752   3.955   5.432   4.193
13937TIP3   OH241753   4.888   0.415   5.120
13937TIP3    H141754   4.965   0.415   5.063
13937TIP3    H241755   4.918   0.454   5.202
13938TIP3   OH241756   1.611   7.130   5.220
13938TIP3    H141757   1.674   7.063   5.197
13938TIP3    H241758   1.531   7.105   5.174
13939TIP3   OH241759   4.098   4.501   4.083
13939TIP3    H141760   4.146   4.565   4.135
13939TIP3    H241761   4.103   4.420   4.133
13940TIP3   OH241762   7.365   4.607   2.198
13940TIP3    H141763   7.370   4.693   2.240
13940TIP3    H241764   7.395   4.545   2.265
13941TIP3   OH241765   4.045   5.418   3.372
13941TIP3    H141766   3.981   5.488   3.361
13941TIP3    H241767   4.072   5.424   3.463
13942TIP3   OH241768   5.343   4.063   1.214
13942TIP3    H141769   5.391   4.018   1.284
13942TIP3    H241770   5.372   4.020   1.134
13943TIP3   OH241771   8.342   3.663   6.672
13943TIP3    H141772   8.252   3.683   6.647
13943TIP3    H241773   8.391   3.664   6.589
13944TIP3   OH241774   4.623   6.424   6.249
13944TIP3    H141775   4.629   6.365   6.324
13944TIP3    H241776   4.529   6.443   6.241
13945TIP3   OH241777   3.658   5.888   6.315
13945TIP3    H141778   3.748   5.915   6.331
13945TIP3    H241779   3.628   5.943   6.242
13946TIP3   OH241780   4.527   0.545   3.710
13946TIP3    H141781   4.587   0.493   3.657
13946TIP3    H241782   4.440   0.514   3.684
13947TIP3   OH241783   1.840   6.797   0.844
13947TIP3    H141784   1.753   6.837   0.842
13947TIP3    H241785   1.848   6.765   0.934
13948TIP3   OH241786   0.048   6.766   2.478
13948TIP3    H141787   0.047   6.817   2.397
13948TIP3    H241788   0.137   6.776   2.512
13949TIP3   OH241789   5.848   6.898   2.659
13949TIP3    H141790   5.934   6.859   2.674
13949TIP3    H241791   5.786   6.828   2.680
13950TIP3   OH241792   7.805   7.639   2.260
13950TIP3    H141793   7.854   7.709   2.217
13950TIP3    H241794   7.864   7.607   2.328
13951TIP3   OH241795   0.086   3.971   1.947
13951TIP3    H141796   0.121   3.952   2.033
13951TIP3    H241797   0.111   4.062   1.929
13952TIP3   OH241798   4.681   0.911   6.261
13952TIP3    H141799   4.603   0.856   6.271
13952TIP3    H241800   4.737   0.862   6.200
13953TIP3   OH241801   6.070   0.878   0.311
13953TIP3    H141802   6.136   0.810   0.297
13953TIP3    H241803   6.106   0.931   0.382
13954TIP3   OH241804   5.919   3.706   4.331
13954TIP3    H141805   5.840   3.748   4.365
13954TIP3    H241806   5.977   3.779   4.309
13955TIP3   OH241807   3.380   1.184   2.049
13955TIP3    H141808   3.308   1.206   1.991
13955TIP3    H241809   3.452   1.158   1.991
13956TIP3   OH241810   1.981   0.804   2.650
13956TIP3    H141811   1.920   0.820   2.578
13956TIP3    H241812   2.060   0.854   2.627
13957TIP3   OH241813   4.531   7.075   6.306
13957TIP3    H141814   4.561   7.021   6.379
13957TIP3    H241815   4.439   7.094   6.325
13958TIP3   OH241816   8.206   3.275   4.960
13958TIP3    H141817   8.262   3.298   4.887
13958TIP3    H241818   8.251   3.309   5.037
13959TIP3   OH241819   7.182   7.740   1.671
13959TIP3    H141820   7.115   7.685   1.710
13959TIP3    H241821   7.134   7.801   1.614
13960TIP3   OH241822   5.637   4.021   0.747
13960TIP3    H141823   5.639   3.931   0.714
13960TIP3    H241824   5.617   4.074   0.670
13961TIP3   OH241825   1.944   4.040   3.309
13961TIP3    H141826   1.878   4.085   3.363
13961TIP3    H241827   2.027   4.077   3.337
13962TIP3   OH241828   4.657   2.094   0.761
13962TIP3    H141829   4.633   2.181   0.793
13962TIP3    H241830   4.594   2.075   0.692
13963TIP3   OH241831   3.795   0.298   1.631
13963TIP3    H141832   3.751   0.383   1.625
13963TIP3    H241833   3.847   0.293   1.551
13964TIP3   OH241834   4.881   1.370   5.154
13964TIP3    H141835   4.973   1.342   5.154
13964TIP3    H241836   4.843   1.325   5.229
13965TIP3   OH241837   3.720   3.279   3.588
13965TIP3    H141838   3.786   3.307   3.652
13965TIP3    H241839   3.636   3.301   3.629
13966TIP3   OH241840   6.808   5.724   1.494
13966TIP3    H141841   6.864   5.785   1.542
13966TIP3    H241842   6.773   5.666   1.561
13967TIP3   OH241843   3.827   1.707   1.120
13967TIP3    H141844   3.890   1.659   1.173
13967TIP3    H241845   3.763   1.740   1.183
13968TIP3   OH241846   1.619   0.273   0.347
13968TIP3    H141847   1.614   0.207   0.278
13968TIP3    H241848   1.589   0.229   0.426
13969TIP3   OH241849   5.088   4.410   0.352
13969TIP3    H141850   5.087   4.315   0.367
13969TIP3    H241851   4.997   4.432   0.332
13970TIP3   OH241852   2.028   3.588   5.835
13970TIP3    H141853   2.068   3.500   5.836
13970TIP3    H241854   2.100   3.645   5.808
13971TIP3   OH241855   4.479   4.136   1.014
13971TIP3    H141856   4.443   4.048   1.017
13971TIP3    H241857   4.491   4.161   1.105
13972TIP3   OH241858   6.739   4.080   6.574
13972TIP3    H141859   6.742   4.149   6.639
13972TIP3    H241860   6.656   4.035   6.590
13973TIP3   OH241861   5.142   0.808   5.273
13973TIP3    H141862   5.159   0.900   5.294
13973TIP3    H241863   5.119   0.768   5.357
13974TIP3   OH241864   1.004   6.309   6.531
13974TIP3    H141865   1.025   6.229   6.483
13974TIP3    H241866   1.085   6.331   6.578
13975TIP3   OH241867   7.861   0.215   6.401
13975TIP3    H141868   7.852   0.287   6.463
13975TIP3    H241869   7.883   0.139   6.456
13976TIP3   OH241870   2.685   0.026   1.442
13976TIP3    H141871   2.778   0.002   1.447
13976TIP3    H241872   2.682   0.092   1.372
13977TIP3   OH241873   8.197   5.698   1.398
13977TIP3    H141874   8.272   5.651   1.436
13977TIP3    H241875   8.206   5.684   1.304
13978TIP3   OH241876   3.138   0.637   6.493
13978TIP3    H141877   3.145   0.659   6.400
13978TIP3    H241878   3.064   0.688   6.524
13979TIP3   OH241879   0.587   2.042   5.915
13979TIP3    H141880   0.538   2.115   5.877
13979TIP3    H241881   0.644   2.082   5.981
13980TIP3   OH241882   4.062   1.055   5.218
13980TIP3    H141883   3.973   1.049   5.252
13980TIP3    H241884   4.051   1.089   5.129
13981TIP3   OH241885   7.887   2.686   2.740
13981TIP3    H141886   7.920   2.637   2.664
13981TIP3    H241887   7.831   2.623   2.786
13982TIP3   OH241888   7.847   5.362   0.644
13982TIP3    H141889   7.872   5.328   0.558
13982TIP3    H241890   7.924   5.410   0.674
13983TIP3   OH241891   7.121   1.916   4.817
13983TIP3    H141892   7.214   1.933   4.804
13983TIP3    H241893   7.081   1.930   4.731
13984TIP3   OH241894   2.519   3.031   4.209
13984TIP3    H141895   2.553   3.069   4.290
13984TIP3    H241896   2.556   2.943   4.206
13985TIP3   OH241897   7.789   0.647   3.116
13985TIP3    H141898   7.839   0.653   3.198
13985TIP3    H241899   7.711   0.597   3.139
13986TIP3   OH241900   0.678   0.864   3.896
13986TIP3    H141901   0.730   0.870   3.976
13986TIP3    H241902   0.689   0.950   3.854
13987TIP3   OH241903   1.408   3.872   6.606
13987TIP3    H141904   1.373   3.959   6.624
13987TIP3    H241905   1.462   3.852   6.682
13988TIP3   OH241906   2.460   1.317   4.375
13988TIP3    H141907   2.552   1.289   4.373
13988TIP3    H241908   2.415   1.256   4.317
13989TIP3   OH241909   5.415   2.873   6.568
13989TIP3    H141910   5.448   2.952   6.525
13989TIP3    H241911   5.324   2.892   6.589
13990TIP3   OH241912   5.243   4.920   0.139
13990TIP3    H141913   5.217   4.844   0.087
13990TIP3    H241914   5.215   4.995   0.085
13991TIP3   OH241915   4.442   3.383   5.588
13991TIP3    H141916   4.363   3.357   5.636
13991TIP3    H241917   4.412   3.450   5.527
13992TIP3   OH241918   7.666   0.582   6.041
13992TIP3    H141919   7.721   0.610   6.115
13992TIP3    H241920   7.583   0.558   6.082
13993TIP3   OH241921   2.972   3.396   6.060
13993TIP3    H141922   3.068   3.398   6.063
13993TIP3    H241923   2.945   3.426   6.146
13994TIP3   OH241924   1.647   7.333   3.063
13994TIP3    H141925   1.687   7.246   3.053
13994TIP3    H241926   1.706   7.380   3.121
13995TIP3   OH241927   0.718   7.613   6.534
13995TIP3    H141928   0.659   7.649   6.601
13995TIP3    H241929   0.721   7.681   6.467
13996TIP3   OH241930   6.801   6.827   1.458
13996TIP3    H141931   6.764   6.749   1.501
13996TIP3    H241932   6.757   6.901   1.500
13997TIP3   OH241933   0.529   3.644   4.010
13997TIP3    H141934   0.447   3.641   3.962
13997TIP3    H241935   0.503   3.644   4.103
13998TIP3   OH241936   6.798   3.014   2.924
13998TIP3    H141937   6.711   3.032   2.888
13998TIP3    H241938   6.783   3.006   3.019
13999TIP3   OH241939   6.635   2.759   3.770
13999TIP3    H141940   6.582   2.680   3.775
13999TIP3    H241941   6.648   2.785   3.861
14000TIP3   OH241942   2.641   3.891   5.624
14000TIP3    H141943   2.709   3.945   5.584
14000TIP3    H241944   2.635   3.922   5.714
14001TIP3   OH241945   2.254   3.821   1.269
14001TIP3    H141946   2.195   3.839   1.343
14001TIP3    H241947   2.298   3.740   1.293
14002TIP3   OH241948   3.310   5.930   2.535
14002TIP3    H141949   3.356   5.910   2.616
14002TIP3    H241950   3.289   5.844   2.498
14003TIP3   OH241951   7.660   6.292   2.632
14003TIP3    H141952   7.583   6.327   2.678
14003TIP3    H241953   7.734   6.322   2.684
14004TIP3   OH241954   1.847   1.948   4.933
14004TIP3    H141955   1.884   1.863   4.957
14004TIP3    H241956   1.915   2.011   4.956
14005TIP3   OH241957   6.725   4.650   5.566
14005TIP3    H141958   6.661   4.684   5.629
14005TIP3    H241959   6.680   4.655   5.481
14006TIP3   OH241960   0.055   5.269   2.264
14006TIP3    H141961  -0.009   5.237   2.201
14006TIP3    H241962   0.095   5.190   2.300
14007TIP3   OH241963   2.260   5.987   1.271
14007TIP3    H141964   2.231   5.986   1.180
14007TIP3    H241965   2.267   5.895   1.295
14008TIP3   OH241966   3.171   7.285   4.704
14008TIP3    H141967   3.108   7.284   4.632
14008TIP3    H241968   3.119   7.308   4.781
14009TIP3   OH241969   5.175   3.567   0.804
14009TIP3    H141970   5.208   3.564   0.714
14009TIP3    H241971   5.113   3.494   0.809
14010TIP3   OH241972   5.163   1.412   5.047
14010TIP3    H141973   5.232   1.350   5.025
14010TIP3    H241974   5.209   1.486   5.086
14011TIP3   OH241975   0.430   7.358   4.819
14011TIP3    H141976   0.432   7.345   4.914
14011TIP3    H241977   0.364   7.296   4.788
14012TIP3   OH241978   6.206   5.696   6.546
14012TIP3    H141979   6.152   5.619   6.564
14012TIP3    H241980   6.291   5.660   6.519
14013TIP3   OH241981   2.132   6.246   0.557
14013TIP3    H141982   2.126   6.191   0.635
14013TIP3    H241983   2.149   6.334   0.590
14014TIP3   OH241984   0.083   1.448   5.905
14014TIP3    H141985   0.176   1.445   5.924
14014TIP3    H241986   0.053   1.531   5.942
14015TIP3   OH241987   2.705   5.916   1.121
14015TIP3    H141988   2.624   5.887   1.078
14015TIP3    H241989   2.688   6.008   1.143
14016TIP3   OH241990   0.294   2.374   2.663
14016TIP3    H141991   0.300   2.347   2.755
14016TIP3    H241992   0.254   2.299   2.619
14017TIP3   OH241993   6.522   5.822   0.924
14017TIP3    H141994   6.478   5.839   0.840
14017TIP3    H241995   6.477   5.747   0.961
14018TIP3   OH241996   0.382   0.655   4.799
14018TIP3    H141997   0.350   0.641   4.710
14018TIP3    H241998   0.365   0.572   4.844
14019TIP3   OH241999   6.737   5.136   4.300
14019TIP3    H142000   6.749   5.219   4.253
14019TIP3    H242001   6.818   5.088   4.284
14020TIP3   OH242002   3.871   6.550   5.070
14020TIP3    H142003   3.852   6.550   4.976
14020TIP3    H242004   3.964   6.572   5.076
14021TIP3   OH242005   7.964   3.497   3.808
14021TIP3    H142006   8.042   3.460   3.850
14021TIP3    H242007   7.998   3.560   3.745
14022TIP3   OH242008   4.196   5.857   3.839
14022TIP3    H142009   4.176   5.803   3.763
14022TIP3    H242010   4.151   5.813   3.912
14023TIP3   OH242011   5.352   0.552   1.117
14023TIP3    H142012   5.282   0.582   1.175
14023TIP3    H242013   5.389   0.632   1.080
14024TIP3   OH242014   6.180   6.066   4.493
14024TIP3    H142015   6.098   6.017   4.501
14024TIP3    H242016   6.153   6.155   4.471
14025TIP3   OH242017   6.971   0.479   1.689
14025TIP3    H142018   6.936   0.425   1.618
14025TIP3    H242019   6.905   0.475   1.757
14026TIP3   OH242020   8.201   4.631   2.678
14026TIP3    H142021   8.107   4.613   2.679
14026TIP3    H242022   8.209   4.718   2.717
14027TIP3   OH242023   0.619   2.573   5.357
14027TIP3    H142024   0.604   2.556   5.264
14027TIP3    H242025   0.614   2.668   5.366
14028TIP3   OH242026   6.411   4.959   2.683
14028TIP3    H142027   6.422   4.873   2.642
14028TIP3    H242028   6.439   4.946   2.774
14029TIP3   OH242029   6.444   0.142   0.262
14029TIP3    H142030   6.423   0.231   0.289
14029TIP3    H242031   6.529   0.123   0.303
14030TIP3   OH242032   6.312   4.771   5.413
14030TIP3    H142033   6.401   4.803   5.397
14030TIP3    H242034   6.303   4.775   5.508
14031TIP3   OH242035   5.270   6.261   1.720
14031TIP3    H142036   5.274   6.311   1.801
14031TIP3    H242037   5.297   6.173   1.744
14032TIP3   OH242038   1.688   4.338   1.020
14032TIP3    H142039   1.777   4.341   0.985
14032TIP3    H242040   1.649   4.422   0.996
14033TIP3   OH242041   5.762   2.403   4.351
14033TIP3    H142042   5.746   2.311   4.373
14033TIP3    H242043   5.749   2.450   4.434
14034TIP3   OH242044   0.865   0.089   1.875
14034TIP3    H142045   0.855  -0.004   1.855
14034TIP3    H242046   0.788   0.130   1.834
14035TIP3   OH242047   1.319   5.097   0.874
14035TIP3    H142048   1.309   5.187   0.843
14035TIP3    H242049   1.334   5.105   0.968
14036TIP3   OH242050   3.538   1.011   5.649
14036TIP3    H142051   3.471   1.078   5.664
14036TIP3    H242052   3.526   0.949   5.721
14037TIP3   OH242053   3.575   1.623   2.604
14037TIP3    H142054   3.604   1.534   2.624
14037TIP3    H242055   3.561   1.663   2.690
14038TIP3   OH242056   4.255   2.659   1.890
14038TIP3    H142057   4.269   2.748   1.921
14038TIP3    H242058   4.169   2.634   1.926
14039TIP3   OH242059   4.552   7.459   3.611
14039TIP3    H142060   4.634   7.413   3.595
14039TIP3    H242061   4.565   7.546   3.572
14040TIP3   OH242062   0.816   3.127   5.416
14040TIP3    H142063   0.800   3.202   5.359
14040TIP3    H242064   0.748   3.133   5.484
14041TIP3   OH242065   1.000   7.730   2.776
14041TIP3    H142066   1.040   7.688   2.700
14041TIP3    H242067   0.955   7.807   2.740
14042TIP3   OH242068   2.504   5.008   1.525
14042TIP3    H142069   2.471   5.096   1.506
14042TIP3    H242070   2.588   5.004   1.479
14043TIP3   OH242071   3.702   4.921   2.701
14043TIP3    H142072   3.782   4.972   2.712
14043TIP3    H242073   3.655   4.932   2.783
14044TIP3   OH242074   3.479   4.979   3.494
14044TIP3    H142075   3.470   5.033   3.573
14044TIP3    H242076   3.574   4.971   3.482
14045TIP3   OH242077   2.633   3.103   6.623
14045TIP3    H142078   2.541   3.085   6.602
14045TIP3    H242079   2.659   3.169   6.559
14046TIP3   OH242080   1.734   2.865   4.222
14046TIP3    H142081   1.698   2.831   4.304
14046TIP3    H242082   1.824   2.833   4.220
14047TIP3   OH242083   0.598   5.108   4.247
14047TIP3    H142084   0.510   5.126   4.281
14047TIP3    H242085   0.591   5.019   4.210
14048TIP3   OH242086   5.273   4.250   5.739
14048TIP3    H142087   5.265   4.338   5.777
14048TIP3    H242088   5.326   4.202   5.802
14049TIP3   OH242089   6.928   4.071   1.535
14049TIP3    H142090   6.943   4.164   1.522
14049TIP3    H242091   6.978   4.028   1.465
14050TIP3   OH242092   4.541   6.306   5.154
14050TIP3    H142093   4.632   6.334   5.153
14050TIP3    H242094   4.545   6.210   5.163
14051TIP3   OH242095   6.605   3.369   2.493
14051TIP3    H142096   6.526   3.413   2.525
14051TIP3    H242097   6.617   3.404   2.404
14052TIP3   OH242098   1.890   7.251   1.826
14052TIP3    H142099   1.877   7.283   1.737
14052TIP3    H242100   1.891   7.156   1.817
14053TIP3   OH242101   4.454   0.141   6.487
14053TIP3    H142102   4.423   0.090   6.413
14053TIP3    H242103   4.547   0.118   6.494
14054TIP3   OH242104   6.212   3.723   3.533
14054TIP3    H142105   6.196   3.656   3.467
14054TIP3    H242106   6.305   3.713   3.556
14055TIP3   OH242107   2.384   4.941   3.868
14055TIP3    H142108   2.440   4.967   3.941
14055TIP3    H242109   2.354   5.024   3.831
14056TIP3   OH242110   1.383   5.297   0.500
14056TIP3    H142111   1.448   5.351   0.455
14056TIP3    H242112   1.391   5.322   0.592
14057TIP3   OH242113   6.790   7.106   0.089
14057TIP3    H142114   6.846   7.152   0.152
14057TIP3    H242115   6.819   7.138   0.004
14058TIP3   OH242116   4.224   2.648   6.041
14058TIP3    H142117   4.232   2.646   5.946
14058TIP3    H242118   4.132   2.626   6.057
14059TIP3   OH242119   3.170   1.689   2.093
14059TIP3    H142120   3.175   1.593   2.090
14059TIP3    H242121   3.200   1.717   2.006
14060TIP3   OH242122   2.912   6.760   4.466
14060TIP3    H142123   2.871   6.840   4.434
14060TIP3    H242124   2.843   6.693   4.459
14061TIP3   OH242125   1.687   1.369   2.776
14061TIP3    H142126   1.642   1.294   2.737
14061TIP3    H242127   1.775   1.337   2.796
14062TIP3   OH242128   2.339   0.999   2.050
14062TIP3    H142129   2.433   0.981   2.043
14062TIP3    H242130   2.300   0.916   2.079
14063TIP3   OH242131   8.116   5.243   3.010
14063TIP3    H142132   8.135   5.276   3.098
14063TIP3    H242133   8.028   5.206   3.017
14064TIP3   OH242134   4.868   3.129   0.148
14064TIP3    H142135   4.829   3.206   0.190
14064TIP3    H242136   4.873   3.063   0.217
14065TIP3   OH242137   1.756   2.901   5.637
14065TIP3    H142138   1.660   2.900   5.634
14065TIP3    H242139   1.783   2.937   5.552
14066TIP3   OH242140   5.942   5.881   1.887
14066TIP3    H142141   5.937   5.953   1.825
14066TIP3    H242142   6.025   5.838   1.867
14067TIP3   OH242143   2.527   3.167   4.997
14067TIP3    H142144   2.492   3.200   4.914
14067TIP3    H242145   2.614   3.207   5.004
14068TIP3   OH242146   4.986   7.248   0.714
14068TIP3    H142147   4.979   7.202   0.630
14068TIP3    H242148   4.988   7.178   0.780
14069TIP3   OH242149   2.100   0.008   3.549
14069TIP3    H142150   2.092  -0.071   3.496
14069TIP3    H242151   2.143   0.072   3.493
14070TIP3   OH242152   8.151   3.908   4.551
14070TIP3    H142153   8.090   3.968   4.509
14070TIP3    H242154   8.131   3.823   4.511
14071TIP3   OH242155   4.353   2.781   5.338
14071TIP3    H142156   4.389   2.774   5.427
14071TIP3    H242157   4.306   2.699   5.325
14072TIP3   OH242158   4.154   0.152   6.712
14072TIP3    H142159   4.249   0.161   6.725
14072TIP3    H242160   4.144   0.068   6.667
14073TIP3   OH242161   4.463   0.751   6.044
14073TIP3    H142162   4.443   0.660   6.066
14073TIP3    H242163   4.382   0.799   6.063
14074TIP3   OH242164   8.245   3.770   2.356
14074TIP3    H142165   8.158   3.781   2.394
14074TIP3    H242166   8.302   3.825   2.410
14075TIP3   OH242167   3.242   6.108   3.283
14075TIP3    H142168   3.153   6.136   3.304
14075TIP3    H242169   3.236   6.013   3.275
14076TIP3   OH242170   3.268   0.859   0.292
14076TIP3    H142171   3.350   0.910   0.297
14076TIP3    H242172   3.216   0.906   0.227
14077TIP3   OH242173   7.575   0.796   1.301
14077TIP3    H142174   7.490   0.796   1.344
14077TIP3    H242175   7.566   0.736   1.227
14078TIP3   OH242176   2.256   2.489   1.875
14078TIP3    H142177   2.197   2.564   1.876
14078TIP3    H242178   2.209   2.422   1.827
14079TIP3   OH242179   4.322   3.756   6.565
14079TIP3    H142180   4.416   3.744   6.552
14079TIP3    H242181   4.289   3.667   6.580
14080TIP3   OH242182   1.567   4.684   4.155
14080TIP3    H142183   1.558   4.726   4.069
14080TIP3    H242184   1.660   4.664   4.162
14081TIP3   OH242185   0.023   1.668   3.247
14081TIP3    H142186   0.036   1.620   3.165
14081TIP3    H242187   0.033   1.760   3.223
14082TIP3   OH242188   0.977   6.014   2.418
14082TIP3    H142189   1.028   5.989   2.341
14082TIP3    H242190   0.896   6.050   2.383
14083TIP3   OH242191   6.866   4.195   3.626
14083TIP3    H142192   6.887   4.160   3.539
14083TIP3    H242193   6.950   4.223   3.662
14084TIP3   OH242194   4.524   5.848   6.108
14084TIP3    H142195   4.598   5.830   6.166
14084TIP3    H242196   4.529   5.942   6.090
14085TIP3   OH242197   2.849   1.199   1.412
14085TIP3    H142198   2.811   1.217   1.326
14085TIP3    H242199   2.773   1.194   1.471
14086TIP3   OH242200   1.112   7.263   3.054
14086TIP3    H142201   1.034   7.213   3.032
14086TIP3    H242202   1.114   7.335   2.990
14087TIP3   OH242203   5.772   3.056   0.031
14087TIP3    H142204   5.782   2.974  -0.018
14087TIP3    H242205   5.862   3.082   0.052
14088TIP3   OH242206   5.519   1.904   5.719
14088TIP3    H142207   5.572   1.931   5.794
14088TIP3    H242208   5.505   1.985   5.669
14089TIP3   OH242209   7.982   6.018   3.781
14089TIP3    H142210   7.946   6.078   3.847
14089TIP3    H242211   8.018   5.945   3.831
14090TIP3   OH242212   2.482   4.508   1.902
14090TIP3    H142213   2.514   4.595   1.925
14090TIP3    H242214   2.446   4.518   1.814
14091TIP3   OH242215   4.322   2.907   5.840
14091TIP3    H142216   4.356   2.966   5.908
14091TIP3    H242217   4.242   2.951   5.809
14092TIP3   OH242218   7.145   3.337   1.073
14092TIP3    H142219   7.119   3.374   0.988
14092TIP3    H242220   7.165   3.413   1.127
14093TIP3   OH242221   5.108   3.925   5.516
14093TIP3    H142222   5.070   3.862   5.455
14093TIP3    H242223   5.201   3.903   5.519
14094TIP3   OH242224   3.259   4.794   2.332
14094TIP3    H142225   3.347   4.756   2.332
14094TIP3    H242226   3.218   4.758   2.253
14095TIP3   OH242227   5.734   5.011   3.661
14095TIP3    H142228   5.733   4.925   3.618
14095TIP3    H242229   5.825   5.039   3.657
14096TIP3   OH242230   5.745   2.153   3.365
14096TIP3    H142231   5.772   2.089   3.431
14096TIP3    H242232   5.791   2.127   3.286
14097TIP3   OH242233   8.063   1.312   1.094
14097TIP3    H142234   8.069   1.217   1.083
14097TIP3    H242235   8.117   1.331   1.171
14098TIP3   OH242236   3.577   6.893   2.418
14098TIP3    H142237   3.547   6.811   2.379
14098TIP3    H242238   3.510   6.957   2.394
14099TIP3   OH242239   1.437   2.696   3.730
14099TIP3    H142240   1.480   2.694   3.644
14099TIP3    H242241   1.506   2.721   3.791
14100TIP3   OH242242   2.877   1.544   6.511
14100TIP3    H142243   2.907   1.629   6.478
14100TIP3    H242244   2.796   1.527   6.463
14101TIP3   OH242245   1.427   2.456   6.228
14101TIP3    H142246   1.469   2.394   6.168
14101TIP3    H242247   1.411   2.533   6.174
14102TIP3   OH242248   2.609   6.195   6.377
14102TIP3    H142249   2.535   6.229   6.428
14102TIP3    H242250   2.585   6.210   6.286
14103TIP3   OH242251   7.511   5.838   4.566
14103TIP3    H142252   7.417   5.827   4.580
14103TIP3    H242253   7.534   5.918   4.614
14104TIP3   OH242254   6.488   6.694   4.693
14104TIP3    H142255   6.577   6.705   4.725
14104TIP3    H242256   6.453   6.622   4.746
14105TIP3   OH242257   5.888   0.585   2.163
14105TIP3    H142258   5.916   0.646   2.231
14105TIP3    H242259   5.828   0.525   2.207
14106TIP3   OH242260   0.804   4.700   3.943
14106TIP3    H142261   0.872   4.662   3.887
14106TIP3    H242262   0.802   4.643   4.020
14107TIP3   OH242263   4.913   5.897   4.890
14107TIP3    H142264   4.989   5.949   4.864
14107TIP3    H242265   4.877   5.864   4.807
14108TIP3   OH242266   2.579   4.322   1.317
14108TIP3    H142267   2.506   4.309   1.257
14108TIP3    H242268   2.605   4.233   1.341
14109TIP3   OH242269   1.744   0.475   4.698
14109TIP3    H142270   1.750   0.383   4.674
14109TIP3    H242271   1.756   0.475   4.793
14110TIP3   OH242272   3.467   6.155   0.125
14110TIP3    H142273   3.495   6.108   0.047
14110TIP3    H242274   3.542   6.148   0.185
14111TIP3   OH242275   4.640   1.296   1.176
14111TIP3    H142276   4.728   1.259   1.184
14111TIP3    H242277   4.582   1.227   1.209
14112TIP3   OH242278   4.153   4.829   5.064
14112TIP3    H142279   4.077   4.805   5.115
14112TIP3    H242280   4.216   4.863   5.128
14113TIP3   OH242281   3.988   7.464   1.749
14113TIP3    H142282   3.948   7.397   1.806
14113TIP3    H242283   4.080   7.466   1.776
14114TIP3   OH242284   3.401   1.217   3.121
14114TIP3    H142285   3.431   1.147   3.179
14114TIP3    H242286   3.368   1.284   3.181
14115TIP3   OH242287   5.985   7.772   5.799
14115TIP3    H142288   5.921   7.816   5.742
14115TIP3    H242289   6.006   7.837   5.866
14116TIP3   OH242290   2.712   6.877   1.378
14116TIP3    H142291   2.787   6.935   1.361
14116TIP3    H242292   2.749   6.789   1.381
14117TIP3   OH242293   2.547   0.018   4.689
14117TIP3    H142294   2.472  -0.037   4.665
14117TIP3    H242295   2.541   0.093   4.631
14118TIP3   OH242296   1.992   0.627   2.190
14118TIP3    H142297   1.923   0.685   2.219
14118TIP3    H242298   1.961   0.539   2.212
14119TIP3   OH242299   0.792   2.193   6.634
14119TIP3    H142300   0.735   2.116   6.630
14119TIP3    H242301   0.879   2.161   6.609
14120TIP3   OH242302   7.991   1.491   3.970
14120TIP3    H142303   8.078   1.453   3.960
14120TIP3    H242304   7.995   1.540   4.052
14121TIP3   OH242305   4.870   2.337   4.660
14121TIP3    H142306   4.955   2.298   4.638
14121TIP3    H242307   4.828   2.273   4.718
14122TIP3   OH242308   6.806   7.294   6.161
14122TIP3    H142309   6.863   7.225   6.192
14122TIP3    H242310   6.735   7.249   6.115
14123TIP3   OH242311   6.276   1.770   6.463
14123TIP3    H142312   6.322   1.756   6.546
14123TIP3    H242313   6.223   1.692   6.451
14124TIP3   OH242314   5.319   1.693   5.654
14124TIP3    H142315   5.296   1.730   5.568
14124TIP3    H242316   5.411   1.717   5.666
14125TIP3   OH242317   7.160   3.977   5.196
14125TIP3    H142318   7.172   3.989   5.101
14125TIP3    H242319   7.212   3.899   5.217
14126TIP3   OH242320   1.016   1.124   0.301
14126TIP3    H142321   1.090   1.132   0.361
14126TIP3    H242322   0.955   1.191   0.329
14127TIP3   OH242323   2.622   2.403   6.298
14127TIP3    H142324   2.595   2.319   6.334
14127TIP3    H242325   2.608   2.465   6.369
14128TIP3   OH242326   6.766   0.518   0.170
14128TIP3    H142327   6.835   0.540   0.232
14128TIP3    H242328   6.813   0.490   0.090
14129TIP3   OH242329   6.517   6.186   2.087
14129TIP3    H142330   6.579   6.113   2.090
14129TIP3    H242331   6.439   6.149   2.045
14130TIP3   OH242332   4.652   5.062   6.280
14130TIP3    H142333   4.567   5.105   6.276
14130TIP3    H242334   4.639   4.978   6.235
14131TIP3   OH242335   3.846   7.262   0.084
14131TIP3    H142336   3.828   7.338   0.141
14131TIP3    H242337   3.916   7.292   0.026
14132TIP3   OH242338   4.075   0.532   0.224
14132TIP3    H142339   4.076   0.501   0.315
14132TIP3    H242340   3.997   0.587   0.219
14133TIP3   OH242341   1.241   0.071   5.507
14133TIP3    H142342   1.148   0.054   5.493
14133TIP3    H242343   1.244   0.159   5.544
14134TIP3   OH242344   1.606   4.991   1.570
14134TIP3    H142345   1.606   4.896   1.557
14134TIP3    H242346   1.667   5.005   1.642
14135TIP3   OH242347   5.439   6.748   2.990
14135TIP3    H142348   5.364   6.734   3.048
14135TIP3    H242349   5.417   6.700   2.910
14136TIP3   OH242350   0.504   6.036   6.584
14136TIP3    H142351   0.433   5.974   6.602
14136TIP3    H242352   0.466   6.099   6.523
14137TIP3   OH242353   7.596   4.381   5.480
14137TIP3    H142354   7.558   4.313   5.535
14137TIP3    H242355   7.683   4.348   5.457
14138TIP3   OH242356   6.463   5.060   1.589
14138TIP3    H142357   6.475   5.139   1.643
14138TIP3    H242358   6.411   5.090   1.514
14139TIP3   OH242359   8.347   6.489   4.884
14139TIP3    H142360   8.322   6.503   4.793
14139TIP3    H242361   8.337   6.575   4.925
14140TIP3   OH242362   4.848   7.028   6.751
14140TIP3    H142363   4.891   6.942   6.744
14140TIP3    H242364   4.920   7.091   6.752
14141TIP3   OH242365   8.161   6.795   0.337
14141TIP3    H142366   8.178   6.888   0.322
14141TIP3    H242367   8.065   6.789   0.340
14142TIP3   OH242368   2.311   7.310   3.207
14142TIP3    H142369   2.326   7.380   3.271
14142TIP3    H242370   2.266   7.353   3.135
14143TIP3   OH242371   0.945   5.984   2.778
14143TIP3    H142372   0.940   6.072   2.741
14143TIP3    H242373   1.010   5.991   2.848
14144TIP3   OH242374   0.706   4.248   2.107
14144TIP3    H142375   0.729   4.332   2.145
14144TIP3    H242376   0.610   4.251   2.098
14145TIP3   OH242377   5.011   6.597   5.267
14145TIP3    H142378   5.033   6.573   5.357
14145TIP3    H242379   5.095   6.607   5.224
14146TIP3   OH242380   4.628   0.192   3.505
14146TIP3    H142381   4.707   0.168   3.553
14146TIP3    H242382   4.557   0.180   3.569
14147TIP3   OH242383   0.648   6.842   0.993
14147TIP3    H142384   0.740   6.850   0.969
14147TIP3    H242385   0.602   6.832   0.910
14148TIP3   OH242386   4.583   5.079   5.631
14148TIP3    H142387   4.596   5.174   5.625
14148TIP3    H242388   4.644   5.044   5.566
14149TIP3   OH242389   3.482   3.898   5.407
14149TIP3    H142390   3.576   3.883   5.410
14149TIP3    H242391   3.443   3.813   5.428
14150TIP3   OH242392   6.722   1.855   2.328
14150TIP3    H142393   6.701   1.870   2.421
14150TIP3    H242394   6.651   1.898   2.281
14151TIP3   OH242395   0.951   1.177   6.600
14151TIP3    H142396   1.026   1.149   6.653
14151TIP3    H242397   0.986   1.244   6.542
14152TIP3   OH242398   5.354   5.781   0.231
14152TIP3    H142399   5.402   5.855   0.195
14152TIP3    H242400   5.277   5.773   0.175
14153TIP3   OH242401   6.985   7.475   4.812
14153TIP3    H142402   7.075   7.502   4.829
14153TIP3    H242403   6.955   7.533   4.742
14154TIP3   OH242404   7.888   0.802   5.927
14154TIP3    H142405   7.976   0.770   5.947
14154TIP3    H242406   7.902   0.890   5.892
14155TIP3   OH242407   6.196   5.394   4.762
14155TIP3    H142408   6.237   5.410   4.847
14155TIP3    H242409   6.247   5.447   4.701
14156TIP3   OH242410   2.071   5.939   4.931
14156TIP3    H142411   1.977   5.957   4.937
14156TIP3    H242412   2.080   5.846   4.954
14157TIP3   OH242413   6.267   6.813   0.906
14157TIP3    H142414   6.195   6.755   0.933
14157TIP3    H242415   6.317   6.829   0.986
14158TIP3   OH242416   2.433   0.204   0.493
14158TIP3    H142417   2.461   0.278   0.439
14158TIP3    H242418   2.345   0.183   0.461
14159TIP3   OH242419   4.998   6.493   6.783
14159TIP3    H142420   5.054   6.492   6.705
14159TIP3    H242421   4.910   6.471   6.750
14160TIP3   OH242422   5.820   5.165   4.051
14160TIP3    H142423   5.893   5.137   3.996
14160TIP3    H242424   5.766   5.219   3.994
14161TIP3   OH242425   6.970   0.980   2.021
14161TIP3    H142426   6.958   1.074   2.036
14161TIP3    H242427   6.941   0.966   1.931
14162TIP3   OH242428   0.652   4.367   4.327
14162TIP3    H142429   0.734   4.346   4.373
14162TIP3    H242430   0.591   4.300   4.357
14163TIP3   OH242431   4.882   7.769   4.627
14163TIP3    H142432   4.934   7.716   4.567
14163TIP3    H242433   4.853   7.707   4.695
14164TIP3   OH242434   4.284   3.984   2.818
14164TIP3    H142435   4.291   4.004   2.911
14164TIP3    H242436   4.315   3.894   2.810
14165TIP3   OH242437   0.998   6.030   3.459
14165TIP3    H142438   0.989   6.008   3.552
14165TIP3    H242439   1.082   6.077   3.454
14166TIP3   OH242440   1.839   5.140   4.630
14166TIP3    H142441   1.919   5.087   4.634
14166TIP3    H242442   1.787   5.111   4.704
14167TIP3   OH242443   2.509   6.279   2.810
14167TIP3    H142444   2.489   6.311   2.898
14167TIP3    H242445   2.467   6.193   2.806
14168TIP3   OH242446   4.518   6.934   5.527
14168TIP3    H142447   4.541   7.016   5.483
14168TIP3    H242448   4.500   6.873   5.456
14169TIP3   OH242449   6.339   5.505   2.617
14169TIP3    H142450   6.315   5.462   2.535
14169TIP3    H242451   6.306   5.595   2.608
14170TIP3   OH242452   4.773   2.012   2.842
14170TIP3    H142453   4.794   2.059   2.923
14170TIP3    H242454   4.702   1.953   2.866
14171TIP3   OH242455   4.218   3.070   4.720
14171TIP3    H142456   4.249   3.048   4.808
14171TIP3    H242457   4.294   3.056   4.663
14172TIP3   OH242458   7.871   5.133   1.117
14172TIP3    H142459   7.801   5.084   1.073
14172TIP3    H242460   7.829   5.214   1.146
14173TIP3   OH242461   7.292   1.222   3.239
14173TIP3    H142462   7.234   1.214   3.315
14173TIP3    H242463   7.325   1.133   3.225
14174TIP3   OH242464   1.734   5.748   6.076
14174TIP3    H142465   1.767   5.674   6.025
14174TIP3    H242466   1.735   5.822   6.015
14175TIP3   OH242467   5.257   1.870   5.885
14175TIP3    H142468   5.182   1.810   5.891
14175TIP3    H242469   5.307   1.839   5.810
14176TIP3   OH242470   6.511   3.005   5.877
14176TIP3    H142471   6.443   3.071   5.871
14176TIP3    H242472   6.473   2.927   5.835
14177TIP3   OH242473   8.026   6.059   5.642
14177TIP3    H142474   8.081   6.135   5.619
14177TIP3    H242475   8.063   5.987   5.592
14178TIP3   OH242476   2.267   0.646   5.826
14178TIP3    H142477   2.302   0.735   5.815
14178TIP3    H242478   2.334   0.601   5.878
14179TIP3   OH242479   2.550   3.291   5.888
14179TIP3    H142480   2.610   3.274   5.815
14179TIP3    H242481   2.596   3.257   5.965
14180TIP3   OH242482   0.815   7.540   5.770
14180TIP3    H142483   0.806   7.519   5.863
14180TIP3    H242484   0.827   7.635   5.768
14181TIP3   OH242485   6.416   2.789   1.921
14181TIP3    H142486   6.409   2.722   1.853
14181TIP3    H242487   6.335   2.783   1.970
14182TIP3   OH242488   6.244   3.953   6.492
14182TIP3    H142489   6.152   3.978   6.485
14182TIP3    H242490   6.287   3.999   6.420
14183TIP3   OH242491   6.724   5.038   0.445
14183TIP3    H142492   6.699   5.093   0.370
14183TIP3    H242493   6.661   4.966   0.444
14184TIP3   OH242494   0.114   0.226   0.265
14184TIP3    H142495   0.048   0.295   0.264
14184TIP3    H242496   0.073   0.153   0.218
14185TIP3   OH242497   3.178   4.219   6.533
14185TIP3    H142498   3.204   4.133   6.564
14185TIP3    H242499   3.117   4.201   6.461
14186TIP3   OH242500   3.541   6.286   6.171
14186TIP3    H142501   3.535   6.192   6.155
14186TIP3    H242502   3.535   6.294   6.266
14187TIP3   OH242503   3.058   0.089   3.447
14187TIP3    H142504   3.033   0.160   3.507
14187TIP3    H242505   3.144   0.062   3.477
14188TIP3   OH242506   1.833   2.420   4.052
14188TIP3    H142507   1.806   2.340   4.006
14188TIP3    H242508   1.757   2.442   4.107
14189TIP3   OH242509   1.438   5.818   2.296
14189TIP3    H142510   1.414   5.861   2.379
14189TIP3    H242511   1.384   5.739   2.294
14190TIP3   OH242512   2.480   1.940   4.101
14190TIP3    H142513   2.414   1.873   4.121
14190TIP3    H242514   2.515   1.965   4.186
14191TIP3   OH242515   1.007   0.068   2.098
14191TIP3    H142516   1.064   0.141   2.077
14191TIP3    H242517   0.949   0.061   2.022
14192TIP3   OH242518   7.854   6.504   2.726
14192TIP3    H142519   7.842   6.506   2.821
14192TIP3    H242520   7.887   6.590   2.704
14193TIP3   OH242521   3.706   1.010   5.916
14193TIP3    H142522   3.794   0.972   5.921
14193TIP3    H242523   3.709   1.068   5.840
14194TIP3   OH242524   7.853   3.920   5.537
14194TIP3    H142525   7.858   3.951   5.628
14194TIP3    H242526   7.810   3.991   5.490
14195TIP3   OH242527   0.064   1.703   6.551
14195TIP3    H142528   0.095   1.756   6.478
14195TIP3    H242529  -0.022   1.740   6.573
14196TIP3   OH242530   5.894   5.137   2.155
14196TIP3    H142531   5.870   5.156   2.064
14196TIP3    H242532   5.811   5.125   2.200
14197TIP3   OH242533   4.782   3.632   5.285
14197TIP3    H142534   4.826   3.710   5.317
14197TIP3    H242535   4.844   3.592   5.224
14198TIP3   OH242536   4.094   0.252   4.553
14198TIP3    H142537   4.077   0.345   4.537
14198TIP3    H242538   4.168   0.253   4.615
14199TIP3   OH242539   1.792   4.536   0.244
14199TIP3    H142540   1.700   4.549   0.223
14199TIP3    H242541   1.840   4.577   0.171
14200TIP3   OH242542   2.069   3.702   1.033
14200TIP3    H142543   1.975   3.686   1.037
14200TIP3    H242544   2.096   3.712   1.124
14201TIP3   OH242545   5.780   4.506   1.288
14201TIP3    H142546   5.712   4.458   1.241
14201TIP3    H242547   5.862   4.466   1.260
14202TIP3   OH242548   4.539   4.181   3.404
14202TIP3    H142549   4.483   4.259   3.406
14202TIP3    H242550   4.480   4.110   3.432
14203TIP3   OH242551   6.611   1.315   4.804
14203TIP3    H142552   6.561   1.322   4.723
14203TIP3    H242553   6.701   1.301   4.775
14204TIP3   OH242554   1.918   4.811   3.404
14204TIP3    H142555   1.982   4.740   3.399
14204TIP3    H242556   1.833   4.768   3.393
14205TIP3   OH242557   1.219   6.694   6.804
14205TIP3    H142558   1.255   6.731   6.723
14205TIP3    H242559   1.125   6.687   6.787
14206TIP3   OH242560   1.160   4.166   3.764
14206TIP3    H142561   1.134   4.221   3.837
14206TIP3    H242562   1.087   4.171   3.702
14207TIP3   OH242563   2.594   3.543   0.787
14207TIP3    H142564   2.583   3.516   0.879
14207TIP3    H242565   2.682   3.582   0.785
14208TIP3   OH242566   3.677   1.425   3.112
14208TIP3    H142567   3.650   1.377   3.190
14208TIP3    H242568   3.685   1.516   3.140
14209TIP3   OH242569   4.173   0.573   4.495
14209TIP3    H142570   4.243   0.565   4.560
14209TIP3    H242571   4.106   0.626   4.538
14210TIP3   OH242572   7.042   0.227   6.580
14210TIP3    H142573   7.039   0.162   6.651
14210TIP3    H242574   7.017   0.178   6.502
14211TIP3   OH242575   0.967   4.692   1.332
14211TIP3    H142576   0.944   4.784   1.345
14211TIP3    H242577   0.888   4.644   1.358
14212TIP3   OH242578   4.685   1.247   1.758
14212TIP3    H142579   4.634   1.293   1.692
14212TIP3    H242580   4.639   1.164   1.771
14213TIP3   OH242581   5.863   0.539   3.210
14213TIP3    H142582   5.881   0.632   3.192
14213TIP3    H242583   5.860   0.533   3.305
14214TIP3   OH242584   6.441   5.058   3.609
14214TIP3    H142585   6.460   5.013   3.527
14214TIP3    H242586   6.527   5.086   3.641
14215TIP3   OH242587   6.005   6.343   2.474
14215TIP3    H142588   5.922   6.309   2.506
14215TIP3    H242589   5.986   6.373   2.385
14216TIP3   OH242590   5.084   6.019   2.825
14216TIP3    H142591   5.049   5.947   2.773
14216TIP3    H242592   5.132   6.073   2.763
14217TIP3   OH242593   4.508   2.043   1.525
14217TIP3    H142594   4.506   1.948   1.518
14217TIP3    H242595   4.511   2.060   1.619
14218TIP3   OH242596   4.828   3.029   6.593
14218TIP3    H142597   4.842   2.942   6.557
14218TIP3    H242598   4.828   3.016   6.688
14219TIP3   OH242599   0.432   6.372   3.486
14219TIP3    H142600   0.473   6.287   3.472
14219TIP3    H242601   0.453   6.395   3.577
14220TIP3   OH242602   3.254   6.373   3.453
14220TIP3    H142603   3.268   6.375   3.358
14220TIP3    H242604   3.196   6.298   3.467
14221TIP3   OH242605   2.544   0.415   0.738
14221TIP3    H142606   2.625   0.434   0.690
14221TIP3    H242607   2.487   0.490   0.718
14222TIP3   OH242608   7.799   5.397   2.987
14222TIP3    H142609   7.742   5.369   2.916
14222TIP3    H242610   7.840   5.316   3.018
14223TIP3   OH242611   0.669   2.651   4.291
14223TIP3    H142612   0.704   2.734   4.260
14223TIP3    H242613   0.673   2.657   4.386
14224TIP3   OH242614   3.933   3.024   1.996
14224TIP3    H142615   3.853   3.056   2.039
14224TIP3    H242616   3.998   3.091   2.014
14225TIP3   OH242617   2.273   1.300   5.956
14225TIP3    H142618   2.284   1.310   6.051
14225TIP3    H242619   2.336   1.232   5.932
14226TIP3   OH242620   4.676   2.066   1.142
14226TIP3    H142621   4.709   2.087   1.229
14226TIP3    H242622   4.619   1.990   1.156
14227TIP3   OH242623   8.135   6.357   0.132
14227TIP3    H142624   8.040   6.362   0.122
14227TIP3    H242625   8.155   6.417   0.203
14228TIP3   OH242626   2.722   3.270   5.652
14228TIP3    H142627   2.784   3.336   5.623
14228TIP3    H242628   2.773   3.189   5.656
14229TIP3   OH242629   6.966   6.342   3.640
14229TIP3    H142630   6.933   6.342   3.729
14229TIP3    H242631   7.031   6.271   3.638
14230TIP3   OH242632   4.160   1.434   2.081
14230TIP3    H142633   4.080   1.485   2.092
14230TIP3    H242634   4.192   1.457   1.994
14231TIP3   OH242635   0.741   6.317   1.096
14231TIP3    H142636   0.778   6.233   1.070
14231TIP3    H242637   0.791   6.382   1.046
14232TIP3   OH242638   3.216   4.497   2.806
14232TIP3    H142639   3.265   4.573   2.838
14232TIP3    H242640   3.134   4.534   2.771
14233TIP3   OH242641   1.417   7.733   5.076
14233TIP3    H142642   1.345   7.779   5.118
14233TIP3    H242643   1.426   7.651   5.126
14234TIP3   OH242644   4.865   1.300   2.864
14234TIP3    H142645   4.918   1.341   2.933
14234TIP3    H242646   4.929   1.256   2.808
14235TIP3   OH242647   6.097   7.072   4.014
14235TIP3    H142648   6.088   7.089   3.920
14235TIP3    H242649   6.010   7.047   4.043
14236TIP3   OH242650   0.685   6.448   4.983
14236TIP3    H142651   0.599   6.487   4.996
14236TIP3    H242652   0.673   6.388   4.910
14237TIP3   OH242653   1.781   0.789   5.153
14237TIP3    H142654   1.723   0.816   5.223
14237TIP3    H242655   1.862   0.839   5.167
14238TIP3   OH242656   5.863   3.876   1.521
14238TIP3    H142657   5.840   3.969   1.526
14238TIP3    H242658   5.789   3.831   1.562
14239TIP3   OH242659   3.856   4.629   6.598
14239TIP3    H142660   3.795   4.563   6.629
14239TIP3    H242661   3.888   4.595   6.514
14240TIP3   OH242662   5.811   6.976   4.291
14240TIP3    H142663   5.768   6.933   4.366
14240TIP3    H242664   5.904   6.961   4.306
14241TIP3   OH242665   2.595   3.742   1.520
14241TIP3    H142666   2.631   3.731   1.433
14241TIP3    H242667   2.503   3.717   1.511
14242TIP3   OH242668   5.635   0.410   6.678
14242TIP3    H142669   5.653   0.499   6.649
14242TIP3    H242670   5.721   0.373   6.698
14243TIP3   OH242671   5.007   4.474   2.859
14243TIP3    H142672   4.972   4.562   2.842
14243TIP3    H242673   4.944   4.416   2.817
14244TIP3   OH242674   2.240   5.041   4.914
14244TIP3    H142675   2.307   5.085   4.966
14244TIP3    H242676   2.162   5.094   4.926
14245TIP3   OH242677   4.065   4.381   0.865
14245TIP3    H142678   4.057   4.393   0.960
14245TIP3    H242679   4.005   4.445   0.828
14246TIP3   OH242680   6.412   7.533   6.520
14246TIP3    H142681   6.419   7.596   6.591
14246TIP3    H242682   6.334   7.480   6.542
14247TIP3   OH242683   2.231   4.455   1.996
14247TIP3    H142684   2.176   4.519   1.952
14247TIP3    H242685   2.320   4.490   1.988
14248TIP3   OH242686   3.336   6.956   1.130
14248TIP3    H142687   3.255   6.906   1.125
14248TIP3    H242688   3.311   7.045   1.107
14249TIP3   OH242689   6.490   2.449   6.607
14249TIP3    H142690   6.425   2.517   6.621
14249TIP3    H242691   6.446   2.383   6.554
14250TIP3   OH242692   4.088   1.855   0.489
14250TIP3    H142693   4.094   1.774   0.541
14250TIP3    H242694   4.129   1.921   0.544
14251TIP3   OH242695   6.384   0.263   6.619
14251TIP3    H142696   6.415   0.286   6.707
14251TIP3    H242697   6.382   0.167   6.620
14252TIP3   OH242698   6.164   6.510   1.753
14252TIP3    H142699   6.251   6.487   1.722
14252TIP3    H242700   6.114   6.428   1.747
14253TIP3   OH242701   1.700   1.528   5.281
14253TIP3    H142702   1.654   1.450   5.310
14253TIP3    H242703   1.632   1.585   5.245
14254TIP3   OH242704   7.022   3.354   6.564
14254TIP3    H142705   7.077   3.429   6.542
14254TIP3    H242706   6.943   3.392   6.601
14255TIP3   OH242707   0.735   4.509   2.234
14255TIP3    H142708   0.777   4.494   2.318
14255TIP3    H242709   0.659   4.564   2.254
14256TIP3   OH242710   5.964   0.283   3.268
14256TIP3    H142711   5.924   0.361   3.229
14256TIP3    H242712   5.984   0.308   3.358
14257TIP3   OH242713   6.833   3.298   1.428
14257TIP3    H142714   6.892   3.295   1.503
14257TIP3    H242715   6.870   3.364   1.370
14258TIP3   OH242716   5.824   4.370   4.289
14258TIP3    H142717   5.899   4.374   4.230
14258TIP3    H242718   5.748   4.363   4.232
14259TIP3   OH242719   2.513   0.706   4.023
14259TIP3    H142720   2.476   0.636   3.968
14259TIP3    H242721   2.446   0.774   4.023
14260TIP3   OH242722   2.414   4.458   3.855
14260TIP3    H142723   2.409   4.540   3.805
14260TIP3    H242724   2.504   4.455   3.887
14261TIP3   OH242725   4.404   1.786   3.930
14261TIP3    H142726   4.386   1.800   3.837
14261TIP3    H242727   4.402   1.691   3.941
14262TIP3   OH242728   2.501   4.680   4.783
14262TIP3    H142729   2.556   4.754   4.810
14262TIP3    H242730   2.488   4.630   4.863
14263TIP3   OH242731   2.804   1.672   0.822
14263TIP3    H142732   2.824   1.647   0.912
14263TIP3    H242733   2.719   1.717   0.828
14264TIP3   OH242734   2.537   1.958   2.272
14264TIP3    H142735   2.470   2.005   2.321
14264TIP3    H242736   2.615   2.014   2.280
14265TIP3   OH242737   2.618   2.357   3.511
14265TIP3    H142738   2.532   2.377   3.474
14265TIP3    H242739   2.652   2.286   3.456
14266TIP3   OH242740   5.528   3.693   5.214
14266TIP3    H142741   5.596   3.635   5.247
14266TIP3    H242742   5.557   3.781   5.241
14267TIP3   OH242743   2.174   6.191   6.528
14267TIP3    H142744   2.083   6.166   6.543
14267TIP3    H242745   2.216   6.180   6.613
14268TIP3   OH242746   3.067   5.370   1.037
14268TIP3    H142747   2.988   5.352   0.986
14268TIP3    H242748   3.089   5.287   1.078
14269TIP3   OH242749   0.609   0.326   2.683
14269TIP3    H142750   0.682   0.264   2.687
14269TIP3    H242751   0.561   0.301   2.604
14270TIP3   OH242752   3.932   2.408   6.552
14270TIP3    H142753   3.995   2.450   6.610
14270TIP3    H242754   3.951   2.315   6.559
14271TIP3   OH242755   6.877   6.684   5.806
14271TIP3    H142756   6.834   6.619   5.750
14271TIP3    H242757   6.967   6.653   5.814
14272TIP3   OH242758   3.563   5.535   5.734
14272TIP3    H142759   3.515   5.546   5.651
14272TIP3    H242760   3.624   5.464   5.717
14273TIP3   OH242761   5.535   0.571   4.080
14273TIP3    H142762   5.485   0.565   3.999
14273TIP3    H242763   5.602   0.503   4.072
14274TIP3   OH242764   5.223   4.563   5.354
14274TIP3    H142765   5.291   4.631   5.353
14274TIP3    H242766   5.258   4.495   5.412
14275TIP3   OH242767   1.224   3.305   0.816
14275TIP3    H142768   1.210   3.395   0.786
14275TIP3    H242769   1.138   3.276   0.847
14276TIP3   OH242770   2.661   5.531   3.536
14276TIP3    H142771   2.618   5.525   3.621
14276TIP3    H242772   2.701   5.445   3.524
14277TIP3   OH242773   4.053   5.951   3.077
14277TIP3    H142774   3.962   5.981   3.068
14277TIP3    H242775   4.104   6.016   3.028
14278TIP3   OH242776   6.246   3.237   5.476
14278TIP3    H142777   6.307   3.303   5.511
14278TIP3    H242778   6.247   3.251   5.381
14279TIP3   OH242779   6.588   4.178   3.569
14279TIP3    H142780   6.670   4.183   3.618
14279TIP3    H242781   6.586   4.088   3.536
14280TIP3   OH242782   5.415   0.448   5.474
14280TIP3    H142783   5.439   0.366   5.517
14280TIP3    H242784   5.470   0.514   5.516
14281TIP3   OH242785   1.237   5.908   0.297
14281TIP3    H142786   1.246   5.999   0.271
14281TIP3    H242787   1.296   5.898   0.372
14282TIP3   OH242788   6.182   7.750   1.455
14282TIP3    H142789   6.121   7.684   1.487
14282TIP3    H242790   6.130   7.829   1.446
14283TIP3   OH242791   2.999   3.704   3.239
14283TIP3    H142792   2.913   3.719   3.201
14283TIP3    H242793   3.048   3.659   3.170
14284TIP3   OH242794   0.871   3.391   5.734
14284TIP3    H142795   0.898   3.308   5.696
14284TIP3    H242796   0.819   3.366   5.811
14285TIP3   OH242797   8.295   1.311   1.561
14285TIP3    H142798   8.219   1.351   1.603
14285TIP3    H242799   8.259   1.244   1.503
14286TIP3   OH242800   3.754   3.071   4.286
14286TIP3    H142801   3.712   2.992   4.253
14286TIP3    H242802   3.793   3.112   4.209
14287TIP3   OH242803   7.876   3.666   4.626
14287TIP3    H142804   7.950   3.698   4.678
14287TIP3    H242805   7.912   3.655   4.538
14288TIP3   OH242806   7.587   0.268   3.430
14288TIP3    H142807   7.552   0.319   3.504
14288TIP3    H242808   7.682   0.273   3.441
14289TIP3   OH242809   1.188   5.558   4.779
14289TIP3    H142810   1.147   5.569   4.693
14289TIP3    H242811   1.131   5.497   4.825
14290TIP3   OH242812   1.263   0.820   2.872
14290TIP3    H142813   1.174   0.807   2.906
14290TIP3    H242814   1.308   0.737   2.891
14291TIP3   OH242815   2.664   3.136   3.331
14291TIP3    H142816   2.693   3.073   3.266
14291TIP3    H242817   2.684   3.221   3.292
14292TIP3   OH242818   5.035   2.744   6.218
14292TIP3    H142819   5.085   2.817   6.254
14292TIP3    H242820   5.036   2.677   6.287
14293TIP3   OH242821   3.686   6.605   3.814
14293TIP3    H142822   3.778   6.631   3.828
14293TIP3    H242823   3.690   6.510   3.802
14294TIP3   OH242824   3.420   7.586   5.118
14294TIP3    H142825   3.330   7.558   5.135
14294TIP3    H242826   3.428   7.670   5.165
14295TIP3   OH242827   0.448   0.734   6.505
14295TIP3    H142828   0.381   0.669   6.486
14295TIP3    H242829   0.407   0.818   6.485
14296TIP3   OH242830   2.673   3.129   2.104
14296TIP3    H142831   2.633   3.061   2.158
14296TIP3    H242832   2.695   3.084   2.022
14297TIP3   OH242833   7.485   1.259   5.805
14297TIP3    H142834   7.571   1.298   5.790
14297TIP3    H242835   7.503   1.184   5.863
14298TIP3   OH242836   5.160   2.979   6.620
14298TIP3    H142837   5.090   2.940   6.672
14298TIP3    H242838   5.184   3.059   6.667
14299TIP3   OH242839   4.616   3.503   2.828
14299TIP3    H142840   4.523   3.504   2.850
14299TIP3    H242841   4.633   3.413   2.800
14300TIP3   OH242842   7.327   4.386   6.654
14300TIP3    H142843   7.236   4.388   6.686
14300TIP3    H242844   7.331   4.455   6.589
14301TIP3   OH242845   1.482   6.234   1.855
14301TIP3    H142846   1.523   6.321   1.863
14301TIP3    H242847   1.506   6.204   1.768
14302TIP3   OH242848   1.157   1.941   1.076
14302TIP3    H142849   1.064   1.936   1.096
14302TIP3    H242850   1.162   1.927   0.981
14303TIP3   OH242851   5.873   6.512   4.317
14303TIP3    H142852   5.876   6.573   4.391
14303TIP3    H242853   5.903   6.563   4.242
14304TIP3   OH242854   6.672   2.863   5.259
14304TIP3    H142855   6.747   2.808   5.281
14304TIP3    H242856   6.664   2.923   5.333
14305TIP3   OH242857   7.005   7.219   1.176
14305TIP3    H142858   7.065   7.161   1.129
14305TIP3    H242859   7.046   7.233   1.262
14306TIP3   OH242860   3.241   2.633   5.544
14306TIP3    H142861   3.330   2.635   5.581
14306TIP3    H242862   3.224   2.540   5.528
14307TIP3   OH242863   3.155   0.568   0.625
14307TIP3    H142864   3.063   0.549   0.643
14307TIP3    H242865   3.176   0.516   0.547
14308TIP3   OH242866   7.427   0.214   0.698
14308TIP3    H142867   7.495   0.277   0.720
14308TIP3    H242868   7.474   0.133   0.680
14309TIP3   OH242869   2.352   1.881   5.656
14309TIP3    H142870   2.270   1.897   5.703
14309TIP3    H242871   2.365   1.786   5.663
14310TIP3   OH242872   2.556   0.962   2.600
14310TIP3    H142873   2.531   0.958   2.693
14310TIP3    H242874   2.540   0.873   2.568
14311TIP3   OH242875   5.614   7.197   4.261
14311TIP3    H142876   5.538   7.147   4.291
14311TIP3    H242877   5.686   7.135   4.265
14312TIP3   OH242878   1.917   5.130   2.683
14312TIP3    H142879   1.851   5.081   2.731
14312TIP3    H242880   1.938   5.076   2.607
14313TIP3   OH242881   7.548   3.537   4.935
14313TIP3    H142882   7.499   3.582   4.867
14313TIP3    H242883   7.547   3.598   5.010
14314TIP3   OH242884   2.898   7.450   1.713
14314TIP3    H142885   2.832   7.504   1.669
14314TIP3    H242886   2.953   7.512   1.761
14315TIP3   OH242887   2.718   6.484   6.458
14315TIP3    H142888   2.645   6.535   6.423
14315TIP3    H242889   2.796   6.528   6.424
14316TIP3   OH242890   5.715   5.820   3.788
14316TIP3    H142891   5.621   5.812   3.774
14316TIP3    H242892   5.747   5.863   3.708
14317TIP3   OH242893   2.123   0.245   3.702
14317TIP3    H142894   2.104   0.178   3.637
14317TIP3    H242895   2.218   0.241   3.714
14318TIP3   OH242896   8.231   3.129   3.269
14318TIP3    H142897   8.257   3.189   3.199
14318TIP3    H242898   8.298   3.060   3.268
14319TIP3   OH242899   3.417   7.353   4.827
14319TIP3    H142900   3.365   7.316   4.756
14319TIP3    H242901   3.379   7.439   4.844
14320TIP3   OH242902   1.064   4.139   3.223
14320TIP3    H142903   1.043   4.232   3.208
14320TIP3    H242904   1.044   4.097   3.140
14321TIP3   OH242905   3.750   3.531   1.642
14321TIP3    H142906   3.803   3.589   1.696
14321TIP3    H242907   3.694   3.485   1.704
14322TIP3   OH242908   8.154   4.354   5.841
14322TIP3    H142909   8.211   4.371   5.916
14322TIP3    H242910   8.114   4.438   5.821
14323TIP3   OH242911   0.963   6.341   4.332
14323TIP3    H142912   1.012   6.322   4.252
14323TIP3    H242913   0.923   6.258   4.357
14324TIP3   OH242914   0.788   4.741   2.084
14324TIP3    H142915   0.819   4.655   2.111
14324TIP3    H242916   0.780   4.735   1.988
14325TIP3   OH242917   5.279   5.861   5.577
14325TIP3    H142918   5.263   5.806   5.654
14325TIP3    H242919   5.348   5.922   5.605
14326TIP3   OH242920   6.014   7.673   0.208
14326TIP3    H142921   6.029   7.752   0.157
14326TIP3    H242922   5.974   7.705   0.289
14327TIP3   OH242923   0.213   3.162   2.135
14327TIP3    H142924   0.133   3.127   2.174
14327TIP3    H242925   0.197   3.256   2.128
14328TIP3   OH242926   7.255   6.882   5.619
14328TIP3    H142927   7.303   6.929   5.686
14328TIP3    H242928   7.237   6.796   5.657
14329TIP3   OH242929   7.870   6.002   0.201
14329TIP3    H142930   7.932   6.040   0.139
14329TIP3    H242931   7.827   6.077   0.242
14330TIP3   OH242932   5.926   2.103   2.402
14330TIP3    H142933   5.896   2.126   2.314
14330TIP3    H242934   5.854   2.051   2.439
14331TIP3   OH242935   6.354   6.353   2.393
14331TIP3    H142936   6.449   6.359   2.392
14331TIP3    H242937   6.333   6.327   2.483
14332TIP3   OH242938   1.982   3.770   3.899
14332TIP3    H142939   1.989   3.689   3.950
14332TIP3    H242940   1.891   3.797   3.910
14333TIP3   OH242941   5.694   3.659   2.182
14333TIP3    H142942   5.684   3.616   2.097
14333TIP3    H242943   5.665   3.594   2.246
14334TIP3   OH242944   3.550   6.827   2.798
14334TIP3    H142945   3.536   6.900   2.859
14334TIP3    H242946   3.580   6.755   2.854
14335TIP3   OH242947   2.535   1.236   2.544
14335TIP3    H142948   2.629   1.254   2.539
14335TIP3    H242949   2.530   1.141   2.557
14336TIP3   OH242950   5.015   3.983   0.162
14336TIP3    H142951   5.068   4.055   0.128
14336TIP3    H242952   5.072   3.937   0.223
14337TIP3   OH242953   4.969   0.490   1.741
14337TIP3    H142954   5.055   0.510   1.703
14337TIP3    H242955   4.921   0.573   1.734
14338TIP3   OH242956   2.549   0.647   1.375
14338TIP3    H142957   2.596   0.717   1.419
14338TIP3    H242958   2.533   0.582   1.444
14339TIP3   OH242959   7.017   3.118   2.818
14339TIP3    H142960   6.952   3.077   2.875
14339TIP3    H242961   7.000   3.082   2.731
14340TIP3   OH242962   1.572   7.523   4.642
14340TIP3    H142963   1.506   7.472   4.595
14340TIP3    H242964   1.536   7.533   4.730
14341TIP3   OH242965   5.622   2.298   3.885
14341TIP3    H142966   5.535   2.336   3.899
14341TIP3    H242967   5.658   2.289   3.973
14342TIP3   OH242968   6.635   5.713   5.705
14342TIP3    H142969   6.661   5.718   5.614
14342TIP3    H242970   6.698   5.654   5.746
14343TIP3   OH242971   6.188   3.145   5.129
14343TIP3    H142972   6.199   3.069   5.186
14343TIP3    H242973   6.104   3.132   5.087
14344TIP3   OH242974   3.319   1.196   1.060
14344TIP3    H142975   3.225   1.214   1.061
14344TIP3    H242976   3.333   1.137   1.134
14345TIP3   OH242977   1.019   5.120   5.634
14345TIP3    H142978   1.053   5.137   5.722
14345TIP3    H242979   1.006   5.206   5.596
14346TIP3   OH242980   5.428   4.264   0.205
14346TIP3    H142981   5.439   4.284   0.112
14346TIP3    H242982   5.466   4.177   0.215
14347TIP3   OH242983   6.121   6.412   3.797
14347TIP3    H142984   6.210   6.377   3.793
14347TIP3    H242985   6.132   6.505   3.777
14348TIP3   OH242986   6.779   0.674   0.864
14348TIP3    H142987   6.691   0.710   0.868
14348TIP3    H242988   6.820   0.719   0.790
14349TIP3   OH242989   7.866   5.737   0.135
14349TIP3    H142990   7.880   5.831   0.144
14349TIP3    H242991   7.794   5.730   0.071
14350TIP3   OH242992   0.168   1.460   1.703
14350TIP3    H142993   0.175   1.411   1.785
14350TIP3    H242994   0.120   1.401   1.644
14351TIP3   OH242995   3.564   1.737   1.762
14351TIP3    H142996   3.590   1.827   1.740
14351TIP3    H242997   3.473   1.745   1.790
14352TIP3   OH242998   1.643   0.986   5.604
14352TIP3    H142999   1.735   0.970   5.624
14352TIP3    H243000   1.596   0.950   5.680
14353TIP3   OH243001   5.168   0.243   2.973
14353TIP3    H143002   5.212   0.322   2.941
14353TIP3    H243003   5.175   0.181   2.900
14354TIP3   OH243004   8.244   2.398   2.910
14354TIP3    H143005   8.264   2.394   3.004
14354TIP3    H243006   8.169   2.340   2.899
14355TIP3   OH243007   2.899   1.738   2.173
14355TIP3    H143008   2.983   1.696   2.154
14355TIP3    H243009   2.906   1.825   2.134
14356TIP3   OH243010   6.509   2.080   1.861
14356TIP3    H143011   6.449   2.043   1.796
14356TIP3    H243012   6.591   2.092   1.814
14357TIP3   OH243013   2.363   5.634   4.131
14357TIP3    H143014   2.388   5.637   4.223
14357TIP3    H243015   2.381   5.544   4.104
14358TIP3   OH243016   1.711   0.993   6.227
14358TIP3    H143017   1.771   0.979   6.301
14358TIP3    H243018   1.702   1.088   6.222
14359TIP3   OH243019   5.113   6.900   5.552
14359TIP3    H143020   5.036   6.844   5.544
14359TIP3    H243021   5.187   6.838   5.549
14360TIP3   OH243022   0.293   5.651   5.707
14360TIP3    H143023   0.229   5.623   5.771
14360TIP3    H243024   0.377   5.626   5.744
14361TIP3   OH243025   2.369   5.503   2.780
14361TIP3    H143026   2.455   5.485   2.817
14361TIP3    H243027   2.324   5.419   2.783
14362TIP3   OH243028   3.519   1.380   0.913
14362TIP3    H143029   3.435   1.379   0.958
14362TIP3    H243030   3.512   1.451   0.850
14363TIP3   OH243031   6.586   0.496   1.644
14363TIP3    H143032   6.571   0.407   1.676
14363TIP3    H243033   6.541   0.552   1.707
14364TIP3   OH243034   2.500   2.717   6.022
14364TIP3    H143035   2.573   2.664   5.989
14364TIP3    H243036   2.448   2.737   5.944
14365TIP3   OH243037   1.497   0.916   0.186
14365TIP3    H143038   1.444   0.837   0.170
14365TIP3    H243039   1.504   0.957   0.100
14366TIP3   OH243040   1.788   6.480   2.834
14366TIP3    H143041   1.870   6.528   2.844
14366TIP3    H243042   1.720   6.542   2.861
14367TIP3   OH243043   2.363   7.122   4.956
14367TIP3    H143044   2.351   7.096   5.048
14367TIP3    H243045   2.294   7.186   4.940
14368TIP3   OH243046   1.365   1.316   2.165
14368TIP3    H143047   1.291   1.309   2.225
14368TIP3    H243048   1.345   1.392   2.111
14369TIP3   OH243049   7.125   4.728   6.665
14369TIP3    H143050   7.206   4.687   6.634
14369TIP3    H243051   7.154   4.813   6.700
14370TIP3   OH243052   1.771   2.954   0.345
14370TIP3    H143053   1.820   3.034   0.363
14370TIP3    H243054   1.836   2.884   0.350
14371TIP3   OH243055   1.339   6.206   2.117
14371TIP3    H143056   1.427   6.201   2.153
14371TIP3    H243057   1.351   6.229   2.025
14372TIP3   OH243058   2.616   0.661   5.837
14372TIP3    H143059   2.573   0.649   5.921
14372TIP3    H243060   2.645   0.753   5.837
14373TIP3   OH243061   0.432   6.999   3.393
14373TIP3    H143062   0.371   7.070   3.372
14373TIP3    H243063   0.448   7.008   3.487
14374TIP3   OH243064   4.643   4.689   2.927
14374TIP3    H143065   4.641   4.701   3.022
14374TIP3    H243066   4.673   4.599   2.915
14375TIP3   OH243067   3.962   1.245   3.806
14375TIP3    H143068   3.912   1.165   3.789
14375TIP3    H243069   4.031   1.245   3.740
14376TIP3   OH243070   6.681   0.315   1.252
14376TIP3    H143071   6.757   0.325   1.195
14376TIP3    H243072   6.636   0.237   1.219
14377TIP3   OH243073   6.843   4.218   2.199
14377TIP3    H143074   6.763   4.270   2.193
14377TIP3    H243075   6.910   4.280   2.226
14378TIP3   OH243076   3.404   3.974   4.073
14378TIP3    H143077   3.414   3.939   3.985
14378TIP3    H243078   3.458   3.917   4.128
14379TIP3   OH243079   6.248   2.606   0.996
14379TIP3    H143080   6.189   2.533   0.976
14379TIP3    H243081   6.318   2.567   1.048
14380TIP3   OH243082   1.125   3.993   2.615
14380TIP3    H143083   1.105   4.054   2.544
14380TIP3    H243084   1.181   4.043   2.674
14381TIP3   OH243085   5.072   2.473   3.374
14381TIP3    H143086   4.983   2.438   3.377
14381TIP3    H243087   5.094   2.490   3.465
14382TIP3   OH243088   8.249   6.784   5.741
14382TIP3    H143089   8.237   6.739   5.657
14382TIP3    H243090   8.301   6.862   5.719
14383TIP3   OH243091   7.748   3.447   2.872
14383TIP3    H143092   7.702   3.375   2.915
14383TIP3    H243093   7.716   3.526   2.916
14384TIP3   OH243094   1.933   6.867   0.601
14384TIP3    H143095   1.893   6.851   0.686
14384TIP3    H243096   1.975   6.785   0.578
14385TIP3   OH243097   2.818   5.554   4.096
14385TIP3    H143098   2.758   5.508   4.037
14385TIP3    H243099   2.890   5.492   4.110
14386TIP3   OH243100   1.559   5.381   0.749
14386TIP3    H143101   1.556   5.466   0.705
14386TIP3    H243102   1.554   5.403   0.842
14387TIP3   OH243103   0.847   4.872   1.846
14387TIP3    H143104   0.831   4.942   1.908
14387TIP3    H243105   0.796   4.895   1.768
14388TIP3   OH243106   0.101   0.142   2.521
14388TIP3    H143107   0.141   0.164   2.605
14388TIP3    H243108   0.159   0.075   2.484
14389TIP3   OH243109   5.984   5.832   4.004
14389TIP3    H143110   5.955   5.923   3.998
14389TIP3    H243111   6.064   5.828   3.953
14390TIP3   OH243112   6.984   7.721   2.703
14390TIP3    H143113   6.897   7.720   2.664
14390TIP3    H243114   6.976   7.669   2.783
14391TIP3   OH243115   1.099   6.628   6.441
14391TIP3    H143116   1.168   6.565   6.422
14391TIP3    H243117   1.054   6.641   6.357
14392TIP3   OH243118   4.300   6.822   1.740
14392TIP3    H143119   4.263   6.827   1.652
14392TIP3    H243120   4.394   6.812   1.725
14393TIP3   OH243121   3.159   2.709   2.226
14393TIP3    H143122   3.104   2.763   2.169
14393TIP3    H243123   3.224   2.769   2.261
14394TIP3   OH243124   1.696   7.557   6.669
14394TIP3    H143125   1.761   7.595   6.611
14394TIP3    H243126   1.682   7.468   6.634
14395TIP3   OH243127   4.543   7.253   0.115
14395TIP3    H143128   4.509   7.208   0.038
14395TIP3    H243129   4.469   7.257   0.175
14396TIP3   OH243130   0.583   2.209   4.516
14396TIP3    H143131   0.609   2.117   4.511
14396TIP3    H243132   0.575   2.226   4.610
14397TIP3   OH243133   4.210   2.719   1.627
14397TIP3    H143134   4.215   2.697   1.721
14397TIP3    H243135   4.266   2.796   1.618
14398TIP3   OH243136   4.604   0.259   0.186
14398TIP3    H143137   4.634   0.174   0.218
14398TIP3    H243138   4.510   0.248   0.171
14399TIP3   OH243139   1.213   1.234   6.064
14399TIP3    H143140   1.303   1.202   6.061
14399TIP3    H243141   1.221   1.326   6.089
14400TIP3   OH243142   5.687   0.103   0.227
14400TIP3    H143143   5.688   0.010   0.208
14400TIP3    H243144   5.684   0.108   0.323
14401TIP3   OH243145   6.627   2.785   4.987
14401TIP3    H143146   6.617   2.810   5.079
14401TIP3    H243147   6.548   2.735   4.967
14402TIP3   OH243148   0.509   2.276   6.497
14402TIP3    H143149   0.577   2.253   6.560
14402TIP3    H243150   0.461   2.348   6.539
14403TIP3   OH243151   7.007   5.079   4.299
14403TIP3    H143152   7.025   5.157   4.352
14403TIP3    H243153   7.093   5.046   4.275
14404TIP3   OH243154   3.499   6.524   0.341
14404TIP3    H143155   3.562   6.567   0.399
14404TIP3    H243156   3.490   6.436   0.376
14405TIP3   OH243157   4.430   4.651   6.626
14405TIP3    H143158   4.455   4.562   6.650
14405TIP3    H243159   4.506   4.705   6.647
14406TIP3   OH243160   0.088   0.551   1.413
14406TIP3    H143161   0.099   0.594   1.328
14406TIP3    H243162   0.024   0.481   1.396
14407TIP3   OH243163   4.673   3.330   2.541
14407TIP3    H143164   4.580   3.345   2.524
14407TIP3    H243165   4.677   3.311   2.634
14408TIP3   OH243166   4.602   4.427   0.067
14408TIP3    H143167   4.620   4.356   0.129
14408TIP3    H243168   4.591   4.383  -0.018
14409TIP3   OH243169   5.184   2.917   4.486
14409TIP3    H143170   5.218   2.938   4.573
14409TIP3    H243171   5.120   2.848   4.502
14410TIP3   OH243172   6.564   2.029   2.197
14410TIP3    H143173   6.567   2.051   2.104
14410TIP3    H243174   6.473   2.003   2.213
14411TIP3   OH243175   1.849   6.490   4.009
14411TIP3    H143176   1.889   6.544   3.940
14411TIP3    H243177   1.842   6.403   3.971
14412TIP3   OH243178   6.991   0.883   5.306
14412TIP3    H143179   7.063   0.843   5.257
14412TIP3    H243180   7.020   0.974   5.320
14413TIP3   OH243181   1.924   5.901   4.460
14413TIP3    H143182   1.981   5.927   4.532
14413TIP3    H243183   1.985   5.876   4.390
14414TIP3   OH243184   1.531   0.155   0.856
14414TIP3    H143185   1.540   0.089   0.925
14414TIP3    H243186   1.604   0.216   0.872
14415TIP3   OH243187   1.147   2.202   3.523
14415TIP3    H143188   1.129   2.207   3.617
14415TIP3    H243189   1.075   2.251   3.483
14416TIP3   OH243190   2.918   6.615   2.836
14416TIP3    H143191   2.869   6.614   2.918
14416TIP3    H243192   2.956   6.527   2.830
14417TIP3   OH243193   5.967   1.973   1.962
14417TIP3    H143194   5.989   1.893   2.011
14417TIP3    H243195   6.051   2.016   1.950
14418TIP3   OH243196   4.017   7.089   4.878
14418TIP3    H143197   3.983   7.015   4.828
14418TIP3    H243198   3.987   7.166   4.830
14419TIP3   OH243199   2.570   2.955   2.298
14419TIP3    H143200   2.554   2.996   2.383
14419TIP3    H243201   2.649   2.903   2.312
14420TIP3   OH243202   4.825   1.308   1.995
14420TIP3    H143203   4.771   1.259   2.056
14420TIP3    H243204   4.784   1.294   1.909
14421TIP3   OH243205   3.227   7.266   0.079
14421TIP3    H143206   3.250   7.358   0.069
14421TIP3    H243207   3.135   7.261   0.054
14422TIP3   OH243208   4.665   1.492   5.064
14422TIP3    H143209   4.673   1.493   4.969
14422TIP3    H243210   4.739   1.439   5.094
14423TIP3   OH243211   8.125   2.584   1.682
14423TIP3    H143212   8.041   2.602   1.640
14423TIP3    H243213   8.128   2.488   1.690
14424TIP3   OH243214   4.306   7.058   4.387
14424TIP3    H143215   4.388   7.095   4.420
14424TIP3    H243216   4.306   6.968   4.421
14425TIP3   OH243217   2.203   3.317   2.232
14425TIP3    H143218   2.218   3.261   2.308
14425TIP3    H243219   2.281   3.304   2.178
14426TIP3   OH243220   0.979   2.160   6.202
14426TIP3    H143221   1.061   2.135   6.160
14426TIP3    H243222   0.996   2.153   6.295
14427TIP3   OH243223   4.392   7.349   2.875
14427TIP3    H143224   4.305   7.381   2.848
14427TIP3    H243225   4.380   7.255   2.887
14428TIP3   OH243226   6.265   5.016   2.305
14428TIP3    H143227   6.272   5.065   2.387
14428TIP3    H243228   6.234   5.081   2.241
14429TIP3   OH243229   6.203   1.260   0.821
14429TIP3    H143230   6.162   1.178   0.849
14429TIP3    H243231   6.133   1.325   0.829
14430TIP3   OH243232   4.867   1.206   5.828
14430TIP3    H143233   4.805   1.235   5.895
14430TIP3    H243234   4.834   1.121   5.800
14431TIP3   OH243235   1.342   5.389   1.416
14431TIP3    H143236   1.363   5.314   1.473
14431TIP3    H243237   1.354   5.355   1.327
14432TIP3   OH243238   4.043   4.781   1.098
14432TIP3    H143239   3.948   4.767   1.092
14432TIP3    H243240   4.061   4.850   1.034
14433TIP3   OH243241   7.727   7.293   5.051
14433TIP3    H143242   7.708   7.212   5.004
14433TIP3    H243243   7.781   7.265   5.125
14434TIP3   OH243244   4.767   4.233   6.347
14434TIP3    H143245   4.773   4.299   6.416
14434TIP3    H243246   4.673   4.229   6.326
14435TIP3   OH243247   5.295   5.179   4.771
14435TIP3    H143248   5.282   5.267   4.735
14435TIP3    H243249   5.359   5.139   4.713
14436TIP3   OH243250   4.091   2.793   5.199
14436TIP3    H143251   4.121   2.703   5.212
14436TIP3    H243252   4.157   2.847   5.243
14437TIP3   OH243253   4.729   2.632   5.764
14437TIP3    H143254   4.759   2.712   5.723
14437TIP3    H243255   4.676   2.661   5.838
14438TIP3   OH243256   3.255   1.559   4.541
14438TIP3    H143257   3.234   1.470   4.569
14438TIP3    H243258   3.291   1.548   4.452
14439TIP3   OH243259   4.112   4.449   1.139
14439TIP3    H143260   4.095   4.418   1.228
14439TIP3    H243261   4.136   4.541   1.151
14440TIP3   OH243262   0.926   6.328   6.801
14440TIP3    H143263   0.951   6.336   6.709
14440TIP3    H243264   0.842   6.283   6.799
14441TIP3   OH243265   6.362   2.179   2.865
14441TIP3    H143266   6.323   2.095   2.889
14441TIP3    H243267   6.404   2.163   2.780
14442TIP3   OH243268   0.864   1.066   0.967
14442TIP3    H143269   0.815   1.146   0.985
14442TIP3    H243270   0.890   1.074   0.876
14443TIP3   OH243271   1.519   4.771   2.352
14443TIP3    H143272   1.428   4.762   2.326
14443TIP3    H243273   1.522   4.849   2.406
14444TIP3   OH243274   4.148   3.528   3.189
14444TIP3    H143275   4.105   3.467   3.129
14444TIP3    H243276   4.080   3.552   3.252
14445TIP3   OH243277   4.028   0.597   1.671
14445TIP3    H143278   4.026   0.539   1.595
14445TIP3    H243279   4.074   0.547   1.738
14446TIP3   OH243280   0.989   2.993   2.054
14446TIP3    H143281   0.899   3.023   2.058
14446TIP3    H243282   1.017   2.989   2.145
14447TIP3   OH243283   4.917   1.179   0.420
14447TIP3    H143284   4.993   1.151   0.470
14447TIP3    H243285   4.937   1.269   0.394
14448TIP3   OH243286   0.547   6.351   1.685
14448TIP3    H143287   0.552   6.381   1.594
14448TIP3    H243288   0.619   6.395   1.729
14449TIP3   OH243289   4.809   6.754   2.295
14449TIP3    H143290   4.812   6.842   2.332
14449TIP3    H243291   4.776   6.699   2.366
14450TIP3   OH243292   0.387   0.032   2.684
14450TIP3    H143293   0.482   0.036   2.683
14450TIP3    H243294   0.362   0.041   2.592
14451TIP3   OH243295   1.921   2.286   3.510
14451TIP3    H143296   2.002   2.261   3.464
14451TIP3    H243297   1.946   2.361   3.564
14452TIP3   OH243298   5.593   1.739   0.515
14452TIP3    H143299   5.539   1.798   0.567
14452TIP3    H243300   5.679   1.781   0.515
14453TIP3   OH243301   0.050   6.333   4.137
14453TIP3    H143302   0.016   6.422   4.136
14453TIP3    H243303   0.015   6.293   4.057
14454TIP3   OH243304   5.185   4.482   2.025
14454TIP3    H143305   5.241   4.544   1.980
14454TIP3    H243306   5.177   4.408   1.965
14455TIP3   OH243307   5.849   7.804   2.428
14455TIP3    H143308   5.866   7.714   2.401
14455TIP3    H243309   5.913   7.856   2.381
14456TIP3   OH243310   6.321   6.154   5.235
14456TIP3    H143311   6.389   6.186   5.294
14456TIP3    H243312   6.354   6.175   5.147
14457TIP3   OH243313   0.639   5.270   6.647
14457TIP3    H143314   0.698   5.321   6.703
14457TIP3    H243315   0.663   5.179   6.664
14458TIP3   OH243316   2.292   7.757   3.859
14458TIP3    H143317   2.207   7.796   3.880
14458TIP3    H243318   2.353   7.801   3.919
14459TIP3   OH243319   5.979   5.836   3.376
14459TIP3    H143320   5.889   5.837   3.346
14459TIP3    H243321   5.974   5.856   3.470
14460TIP3   OH243322   5.820   5.553   0.147
14460TIP3    H143323   5.831   5.606   0.226
14460TIP3    H243324   5.733   5.577   0.114
14461TIP3   OH243325   5.069   3.974   6.467
14461TIP3    H143326   4.994   3.962   6.409
14461TIP3    H243327   5.092   3.885   6.494
14462TIP3   OH243328   6.569   6.431   0.401
14462TIP3    H143329   6.505   6.397   0.339
14462TIP3    H243330   6.589   6.519   0.369
14463TIP3   OH243331   5.740   5.911   2.387
14463TIP3    H143332   5.686   5.837   2.413
14463TIP3    H243333   5.791   5.879   2.313
14464TIP3   OH243334   6.646   3.010   5.524
14464TIP3    H143335   6.691   3.022   5.607
14464TIP3    H243336   6.654   3.095   5.480
14465TIP3   OH243337   1.185   0.781   4.744
14465TIP3    H143338   1.271   0.738   4.748
14465TIP3    H243339   1.136   0.744   4.817
14466TIP3   OH243340   7.768   0.888   6.164
14466TIP3    H143341   7.756   0.860   6.073
14466TIP3    H243342   7.683   0.926   6.188
14467TIP3   OH243343   1.830   6.621   1.053
14467TIP3    H143344   1.871   6.589   1.133
14467TIP3    H243345   1.823   6.543   0.997
14468TIP3   OH243346   1.236   4.591   0.433
14468TIP3    H143347   1.286   4.667   0.461
14468TIP3    H243348   1.165   4.584   0.498
14469TIP3   OH243349   0.634   7.336   5.694
14469TIP3    H143350   0.687   7.409   5.725
14469TIP3    H243351   0.657   7.264   5.752
14470TIP3   OH243352   4.183   6.919   5.503
14470TIP3    H143353   4.112   6.981   5.520
14470TIP3    H243354   4.154   6.869   5.427
14471TIP3   OH243355   7.328   6.976   0.884
14471TIP3    H143356   7.281   7.056   0.860
14471TIP3    H243357   7.289   6.950   0.967
14472TIP3   OH243358   5.946   2.886   3.100
14472TIP3    H143359   5.958   2.975   3.068
14472TIP3    H243360   5.923   2.895   3.192
14473TIP3   OH243361   8.022   4.980   5.417
14473TIP3    H143362   7.952   5.045   5.424
14473TIP3    H243363   8.005   4.934   5.335
14474TIP3   OH243364   0.735   7.532   4.678
14474TIP3    H143365   0.706   7.581   4.754
14474TIP3    H243366   0.753   7.444   4.711
14475TIP3   OH243367   8.052   3.095   4.202
14475TIP3    H143368   8.067   3.166   4.264
14475TIP3    H243369   7.994   3.035   4.247
14476TIP3   OH243370   5.127   0.689   2.081
14476TIP3    H143371   5.090   0.622   2.024
14476TIP3    H243372   5.142   0.643   2.164
14477TIP3   OH243373   0.610   3.563   4.994
14477TIP3    H143374   0.534   3.526   5.038
14477TIP3    H243375   0.639   3.495   4.934
14478TIP3   OH243376   1.672   6.747   5.398
14478TIP3    H143377   1.718   6.677   5.445
14478TIP3    H243378   1.608   6.780   5.461
14479TIP3   OH243379   2.638   2.093   6.121
14479TIP3    H143380   2.696   2.028   6.083
14479TIP3    H243381   2.598   2.050   6.196
14480TIP3   OH243382   1.431   4.518   0.877
14480TIP3    H143383   1.481   4.584   0.830
14480TIP3    H243384   1.351   4.563   0.904
14481TIP3   OH243385   6.552   4.229   6.025
14481TIP3    H143386   6.490   4.274   6.082
14481TIP3    H243387   6.619   4.294   6.006
14482TIP3   OH243388   5.322   1.687   6.154
14482TIP3    H143389   5.337   1.633   6.077
14482TIP3    H243390   5.322   1.777   6.121
14483TIP3   OH243391   6.189   0.601   5.812
14483TIP3    H143392   6.222   0.599   5.902
14483TIP3    H243393   6.257   0.646   5.762
14484TIP3   OH243394   2.152   7.157   2.596
14484TIP3    H143395   2.186   7.183   2.681
14484TIP3    H243396   2.058   7.144   2.611
14485TIP3   OH243397   4.133   6.971   3.944
14485TIP3    H143398   4.067   7.023   3.989
14485TIP3    H243399   4.213   6.984   3.994
14486TIP3   OH243400   0.424   3.877   2.152
14486TIP3    H143401   0.433   3.783   2.169
14486TIP3    H243402   0.330   3.893   2.154
14487TIP3   OH243403   4.702   3.617   5.938
14487TIP3    H143404   4.650   3.649   5.864
14487TIP3    H243405   4.647   3.636   6.015
14488TIP3   OH243406   0.354   3.099   4.443
14488TIP3    H143407   0.407   3.021   4.460
14488TIP3    H243408   0.394   3.167   4.498
14489TIP3   OH243409   3.239   2.874   0.852
14489TIP3    H143410   3.144   2.881   0.845
14489TIP3    H243411   3.266   2.826   0.774
14490TIP3   OH243412   1.901   0.913   5.687
14490TIP3    H143413   1.986   0.908   5.642
14490TIP3    H243414   1.905   0.843   5.752
14491TIP3   OH243415   2.790   2.541   4.007
14491TIP3    H143416   2.842   2.551   4.087
14491TIP3    H243417   2.807   2.451   3.978
14492TIP3   OH243418   8.102   6.604   5.230
14492TIP3    H143419   8.184   6.645   5.258
14492TIP3    H243420   8.127   6.515   5.206
14493TIP3   OH243421   5.669   3.110   0.525
14493TIP3    H143422   5.736   3.169   0.490
14493TIP3    H243423   5.645   3.055   0.450
14494TIP3   OH243424   4.581   4.946   3.300
14494TIP3    H143425   4.491   4.915   3.291
14494TIP3    H243426   4.588   5.017   3.236
14495TIP3   OH243427   1.965   7.167   5.140
14495TIP3    H143428   1.955   7.255   5.175
14495TIP3    H243429   1.889   7.118   5.172
14496TIP3   OH243430   4.360   3.141   5.994
14496TIP3    H143431   4.289   3.201   5.973
14496TIP3    H243432   4.340   3.110   6.082
14497TIP3   OH243433   4.723   2.372   6.403
14497TIP3    H143434   4.660   2.309   6.368
14497TIP3    H243435   4.680   2.457   6.392
14498TIP3   OH243436   3.011   0.171   4.284
14498TIP3    H143437   3.080   0.112   4.315
14498TIP3    H243438   2.965   0.197   4.364
14499TIP3   OH243439   0.187   6.425   0.394
14499TIP3    H143440   0.140   6.504   0.421
14499TIP3    H243441   0.235   6.398   0.473
14500TIP3   OH243442   7.294   4.438   6.049
14500TIP3    H143443   7.312   4.529   6.072
14500TIP3    H243444   7.217   4.415   6.101
14501TIP3   OH243445   5.853   0.563   6.582
14501TIP3    H143446   5.810   0.644   6.609
14501TIP3    H243447   5.947   0.585   6.580
14502TIP3   OH243448   5.029   6.257   1.102
14502TIP3    H143449   5.117   6.282   1.131
14502TIP3    H243450   5.044   6.197   1.029
14503TIP3   OH243451   7.192   1.835   3.040
14503TIP3    H143452   7.190   1.830   2.945
14503TIP3    H243453   7.277   1.874   3.060
14504TIP3   OH243454   0.961   2.019   4.777
14504TIP3    H143455   1.011   1.937   4.785
14504TIP3    H243456   1.027   2.087   4.792
14505TIP3   OH243457   0.488   4.021   2.918
14505TIP3    H143458   0.428   4.096   2.917
14505TIP3    H243459   0.526   4.020   2.831
14506TIP3   OH243460   0.973   4.970   3.612
14506TIP3    H143461   0.927   5.054   3.614
14506TIP3    H243462   1.020   4.970   3.529
14507TIP3   OH243463   0.129   4.122   1.386
14507TIP3    H143464   0.082   4.039   1.400
14507TIP3    H243465   0.159   4.148   1.473
14508TIP3   OH243466   2.255   3.153   6.190
14508TIP3    H143467   2.254   3.220   6.123
14508TIP3    H243468   2.229   3.073   6.145
14509TIP3   OH243469   0.844   2.394   2.848
14509TIP3    H143470   0.804   2.336   2.913
14509TIP3    H243471   0.818   2.482   2.876
14510TIP3   OH243472   7.584   3.263   4.421
14510TIP3    H143473   7.647   3.323   4.380
14510TIP3    H243474   7.622   3.243   4.507
14511TIP3   OH243475   2.918   3.897   2.016
14511TIP3    H143476   2.876   3.884   2.101
14511TIP3    H243477   2.957   3.812   1.995
14512TIP3   OH243478   3.492   0.730   2.409
14512TIP3    H143479   3.402   0.699   2.423
14512TIP3    H243480   3.500   0.807   2.466
14513TIP3   OH243481   7.328   3.078   2.116
14513TIP3    H143482   7.396   3.025   2.158
14513TIP3    H243483   7.248   3.028   2.127
14514TIP3   OH243484   7.572   6.988   3.837
14514TIP3    H143485   7.580   7.046   3.912
14514TIP3    H243486   7.578   7.046   3.761
14515TIP3   OH243487   4.533   1.438   1.566
14515TIP3    H143488   4.453   1.431   1.514
14515TIP3    H243489   4.507   1.487   1.644
14516TIP3   OH243490   5.687   4.743   2.524
14516TIP3    H143491   5.650   4.799   2.456
14516TIP3    H243492   5.777   4.726   2.495
14517TIP3   OH243493   7.133   6.018   6.525
14517TIP3    H143494   7.202   5.953   6.536
14517TIP3    H243495   7.061   5.986   6.579
14518TIP3   OH243496   4.402   4.849   1.965
14518TIP3    H143497   4.403   4.794   1.886
14518TIP3    H243498   4.389   4.787   2.037
14519TIP3   OH243499   8.294   4.689   5.445
14519TIP3    H143500   8.285   4.605   5.401
14519TIP3    H243501   8.290   4.668   5.538
14520TIP3   OH243502   7.044   3.152   1.658
14520TIP3    H143503   7.086   3.084   1.606
14520TIP3    H243504   7.088   3.149   1.743
14521TIP3   OH243505   5.421   1.715   1.671
14521TIP3    H143506   5.471   1.634   1.674
14521TIP3    H243507   5.343   1.698   1.723
14522TIP3   OH243508   6.835   6.104   3.191
14522TIP3    H143509   6.905   6.041   3.176
14522TIP3    H243510   6.879   6.188   3.199
14523TIP3   OH243511   1.429   6.467   3.156
14523TIP3    H143512   1.477   6.467   3.073
14523TIP3    H243513   1.371   6.391   3.150
14524TIP3   OH243514   2.549   5.539   1.712
14524TIP3    H143515   2.515   5.534   1.802
14524TIP3    H243516   2.474   5.564   1.659
14525TIP3   OH243517   0.880   6.585   2.663
14525TIP3    H143518   0.892   6.679   2.670
14525TIP3    H243519   0.785   6.572   2.666
14526TIP3   OH243520   2.808   0.864   3.559
14526TIP3    H143521   2.766   0.832   3.639
14526TIP3    H243522   2.873   0.928   3.590
14527TIP3   OH243523   1.004   0.853   0.272
14527TIP3    H143524   1.060   0.864   0.195
14527TIP3    H243525   0.972   0.940   0.291
14528TIP3   OH243526   2.753   3.026   1.857
14528TIP3    H143527   2.739   3.064   1.770
14528TIP3    H243528   2.832   2.972   1.847
14529TIP3   OH243529   1.283   5.456   5.147
14529TIP3    H143530   1.220   5.525   5.126
14529TIP3    H243531   1.237   5.400   5.210
14530TIP3   OH243532   4.079   7.842   0.605
14530TIP3    H143533   4.074   7.848   0.701
14530TIP3    H243534   4.001   7.792   0.581
14531TIP3   OH243535   6.783   4.552   3.818
14531TIP3    H143536   6.740   4.629   3.856
14531TIP3    H243537   6.762   4.481   3.878
14532TIP3   OH243538   7.432   6.753   4.084
14532TIP3    H143539   7.440   6.668   4.127
14532TIP3    H243540   7.494   6.749   4.011
14533TIP3   OH243541   6.350   0.959   4.915
14533TIP3    H143542   6.308   0.969   4.830
14533TIP3    H243543   6.278   0.948   4.977
14534TIP3   OH243544   3.213   3.367   4.485
14534TIP3    H143545   3.255   3.367   4.399
14534TIP3    H243546   3.286   3.360   4.547
14535TIP3   OH243547   6.531   2.633   3.485
14535TIP3    H143548   6.581   2.714   3.491
14535TIP3    H243549   6.465   2.639   3.555
14536TIP3   OH243550   5.578   1.712   5.533
14536TIP3    H143551   5.595   1.750   5.447
14536TIP3    H243552   5.592   1.784   5.595
14537TIP3   OH243553   4.252   0.329   1.279
14537TIP3    H143554   4.270   0.394   1.211
14537TIP3    H243555   4.339   0.303   1.311
14538TIP3   OH243556   7.890   6.447   2.359
14538TIP3    H143557   7.855   6.531   2.388
14538TIP3    H243558   7.938   6.468   2.279
14539TIP3   OH243559   2.322   2.238   2.196
14539TIP3    H143560   2.268   2.269   2.269
14539TIP3    H243561   2.401   2.291   2.201
14540TIP3   OH243562   4.776   5.378   1.215
14540TIP3    H143563   4.805   5.467   1.193
14540TIP3    H243564   4.812   5.324   1.145
14541TIP3   OH243565   2.303   2.882   4.329
14541TIP3    H143566   2.382   2.890   4.275
14541TIP3    H243567   2.307   2.793   4.364
14542TIP3   OH243568   4.687   2.996   2.314
14542TIP3    H143569   4.722   2.923   2.263
14542TIP3    H243570   4.684   2.963   2.404
14543TIP3   OH243571   1.101   4.478   5.362
14543TIP3    H143572   1.008   4.497   5.368
14543TIP3    H243573   1.141   4.563   5.342
14544TIP3   OH243574   6.729   2.509   0.572
14544TIP3    H143575   6.797   2.575   0.560
14544TIP3    H243576   6.756   2.460   0.650
14545TIP3   OH243577   1.819   2.301   5.797
14545TIP3    H143578   1.912   2.283   5.786
14545TIP3    H243579   1.815   2.372   5.861
14546TIP3   OH243580   2.009   1.642   4.701
14546TIP3    H143581   2.085   1.671   4.753
14546TIP3    H243582   1.958   1.589   4.763
14547TIP3   OH243583   7.686   3.604   6.736
14547TIP3    H143584   7.609   3.643   6.694
14547TIP3    H243585   7.735   3.678   6.770
14548TIP3   OH243586   1.777   5.218   3.609
14548TIP3    H143587   1.737   5.267   3.538
14548TIP3    H243588   1.810   5.138   3.567
14549TIP3   OH243589   7.370   1.609   6.181
14549TIP3    H143590   7.392   1.537   6.122
14549TIP3    H243591   7.323   1.568   6.254
14550TIP3   OH243592   3.362   4.213   6.260
14550TIP3    H143593   3.363   4.307   6.246
14550TIP3    H243594   3.383   4.202   6.353
14551TIP3   OH243595   7.233   4.954   5.756
14551TIP3    H143596   7.325   4.930   5.761
14551TIP3    H243597   7.192   4.882   5.707
14552TIP3   OH243598   1.768   4.624   1.038
14552TIP3    H143599   1.729   4.645   1.123
14552TIP3    H243600   1.699   4.644   0.974
14553TIP3   OH243601   5.015   0.094   6.725
14553TIP3    H143602   4.970   0.107   6.808
14553TIP3    H243603   5.072   0.170   6.716
14554TIP3   OH243604   7.937   4.219   0.526
14554TIP3    H143605   7.943   4.164   0.604
14554TIP3    H243606   8.022   4.210   0.483
14555TIP3   OH243607   2.767   6.183   2.862
14555TIP3    H143608   2.727   6.107   2.903
14555TIP3    H243609   2.694   6.243   2.846
14556TIP3   OH243610   7.120   0.663   5.074
14556TIP3    H143611   7.185   0.700   5.134
14556TIP3    H243612   7.139   0.569   5.073
14557TIP3   OH243613   8.095   4.345   0.924
14557TIP3    H143614   8.038   4.407   0.879
14557TIP3    H243615   8.163   4.323   0.860
14558TIP3   OH243616   0.744   6.095   2.305
14558TIP3    H143617   0.779   6.125   2.221
14558TIP3    H243618   0.656   6.064   2.284
14559TIP3   OH243619   4.369   3.703   2.769
14559TIP3    H143620   4.376   3.608   2.769
14559TIP3    H243621   4.432   3.732   2.703
14560TIP3   OH243622   2.577   0.586   1.058
14560TIP3    H143623   2.614   0.498   1.052
14560TIP3    H243624   2.588   0.610   1.150
14561TIP3   OH243625   3.584   2.856   3.681
14561TIP3    H143626   3.535   2.912   3.741
14561TIP3    H243627   3.542   2.770   3.687
14562TIP3   OH243628   1.622   6.756   0.675
14562TIP3    H143629   1.536   6.778   0.711
14562TIP3    H243630   1.628   6.661   0.684
14563TIP3   OH243631   2.636   3.879   3.961
14563TIP3    H143632   2.725   3.895   3.995
14563TIP3    H243633   2.634   3.786   3.942
14564TIP3   OH243634   1.436   6.820   1.784
14564TIP3    H143635   1.528   6.798   1.795
14564TIP3    H243636   1.436   6.911   1.754
14565TIP3   OH243637   3.593   1.097   0.688
14565TIP3    H143638   3.589   1.104   0.783
14565TIP3    H243639   3.665   1.154   0.663
14566TIP3   OH243640   0.299   5.724   2.565
14566TIP3    H143641   0.351   5.698   2.641
14566TIP3    H243642   0.208   5.718   2.595
14567TIP3   OH243643   6.618   2.882   4.463
14567TIP3    H143644   6.566   2.954   4.429
14567TIP3    H243645   6.672   2.922   4.531
14568TIP3   OH243646   3.642   3.926   2.157
14568TIP3    H143647   3.562   3.879   2.133
14568TIP3    H243648   3.625   3.958   2.246
14569TIP3   OH243649   8.071   3.378   6.568
14569TIP3    H143650   8.067   3.448   6.634
14569TIP3    H243651   8.008   3.404   6.502
14570TIP3   OH243652   2.423   3.012   0.500
14570TIP3    H143653   2.348   3.005   0.440
14570TIP3    H243654   2.415   3.099   0.538
14571TIP3   OH243655   2.167   2.893   3.896
14571TIP3    H143656   2.232   2.839   3.941
14571TIP3    H243657   2.198   2.983   3.909
14572TIP3   OH243658   4.868   3.009   5.775
14572TIP3    H143659   4.914   2.941   5.725
14572TIP3    H243660   4.878   3.088   5.723
14573TIP3   OH243661   6.499   7.112   2.676
14573TIP3    H143662   6.540   7.118   2.762
14573TIP3    H243663   6.429   7.047   2.687
14574TIP3   OH243664   0.806   4.881   3.153
14574TIP3    H143665   0.842   4.873   3.064
14574TIP3    H243666   0.840   4.965   3.185
14575TIP3   OH243667   5.807   5.955   6.322
14575TIP3    H143668   5.843   5.926   6.406
14575TIP3    H243669   5.865   5.915   6.257
14576TIP3   OH243670   4.143   5.029   0.493
14576TIP3    H143671   4.170   4.942   0.465
14576TIP3    H243672   4.141   5.081   0.413
14577TIP3   OH243673   2.915   5.962   0.568
14577TIP3    H143674   2.833   5.950   0.617
14577TIP3    H243675   2.908   6.049   0.530
14578TIP3   OH243676   5.855   3.185   2.031
14578TIP3    H143677   5.773   3.224   1.999
14578TIP3    H243678   5.872   3.229   2.114
14579TIP3   OH243679   4.747   5.582   5.524
14579TIP3    H143680   4.841   5.569   5.535
14579TIP3    H243681   4.735   5.595   5.430
14580TIP3   OH243682   1.031   0.085   0.363
14580TIP3    H143683   0.947   0.070   0.407
14580TIP3    H243684   1.007   0.103   0.272
14581TIP3   OH243685   5.655   2.494   0.371
14581TIP3    H143686   5.731   2.436   0.372
14581TIP3    H243687   5.590   2.449   0.318
14582TIP3   OH243688   7.219   6.915   6.566
14582TIP3    H143689   7.192   6.829   6.534
14582TIP3    H243690   7.241   6.964   6.486
14583TIP3   OH243691   6.396   1.358   1.046
14583TIP3    H143692   6.360   1.379   0.959
14583TIP3    H243693   6.445   1.277   1.033
14584TIP3   OH243694   3.658   1.708   3.127
14584TIP3    H143695   3.723   1.746   3.068
14584TIP3    H243696   3.688   1.732   3.214
14585TIP3   OH243697   2.953   3.682   1.402
14585TIP3    H143698   2.990   3.745   1.341
14585TIP3    H243699   2.901   3.735   1.463
14586TIP3   OH243700   4.288   7.210   6.422
14586TIP3    H143701   4.325   7.296   6.441
14586TIP3    H243702   4.277   7.169   6.508
14587TIP3   OH243703   7.713   0.738   4.743
14587TIP3    H143704   7.714   0.729   4.838
14587TIP3    H243705   7.797   0.703   4.715
14588TIP3   OH243706   7.694   4.695   5.903
14588TIP3    H143707   7.765   4.718   5.962
14588TIP3    H243708   7.627   4.657   5.959
14589TIP3   OH243709   1.827   6.236   3.883
14589TIP3    H143710   1.776   6.244   3.802
14589TIP3    H243711   1.875   6.154   3.872
14590TIP3   OH243712   0.783   5.125   5.437
14590TIP3    H143713   0.779   5.033   5.465
14590TIP3    H243714   0.713   5.132   5.371
14591TIP3   OH243715   1.234   3.846   2.410
14591TIP3    H143716   1.230   3.920   2.349
14591TIP3    H243717   1.202   3.882   2.493
14592TIP3   OH243718   7.990   7.610   0.924
14592TIP3    H143719   8.016   7.687   0.975
14592TIP3    H243720   7.936   7.559   0.984
14593TIP3   OH243721   2.762   2.730   1.083
14593TIP3    H143722   2.842   2.750   1.133
14593TIP3    H243723   2.765   2.635   1.071
14594TIP3   OH243724   4.990   4.204   0.959
14594TIP3    H143725   5.015   4.115   0.985
14594TIP3    H243726   4.896   4.209   0.976
14595TIP3   OH243727   3.965   5.136   1.069
14595TIP3    H143728   3.925   5.088   1.142
14595TIP3    H243729   3.890   5.167   1.018
14596TIP3   OH243730   3.307   4.506   0.873
14596TIP3    H143731   3.273   4.436   0.818
14596TIP3    H243732   3.295   4.476   0.963
14597TIP3   OH243733   0.822   7.507   4.114
14597TIP3    H143734   0.772   7.560   4.176
14597TIP3    H243735   0.758   7.480   4.049
14598TIP3   OH243736   1.514   1.249   1.659
14598TIP3    H143737   1.567   1.238   1.738
14598TIP3    H243738   1.558   1.318   1.610
14599TIP3   OH243739   0.155   2.691   5.827
14599TIP3    H143740   0.157   2.627   5.898
14599TIP3    H243741   0.092   2.655   5.764
14600TIP3   OH243742   4.846   1.827   6.778
14600TIP3    H143743   4.810   1.773   6.847
14600TIP3    H243744   4.815   1.787   6.697
14601TIP3   OH243745   6.241   7.236   5.731
14601TIP3    H143746   6.234   7.292   5.808
14601TIP3    H243747   6.334   7.213   5.727
14602TIP3   OH243748   2.718   7.374   4.422
14602TIP3    H143749   2.638   7.421   4.446
14602TIP3    H243750   2.767   7.437   4.368
14603TIP3   OH243751   7.734   6.652   3.445
14603TIP3    H143752   7.826   6.629   3.432
14603TIP3    H243753   7.729   6.677   3.537
14604TIP3   OH243754   0.783   3.471   6.070
14604TIP3    H143755   0.852   3.427   6.021
14604TIP3    H243756   0.775   3.419   6.151
14605TIP3   OH243757   7.055   4.230   5.739
14605TIP3    H143758   6.986   4.177   5.779
14605TIP3    H243759   7.067   4.192   5.652
14606TIP3   OH243760   4.227   3.804   5.174
14606TIP3    H143761   4.204   3.892   5.146
14606TIP3    H243762   4.291   3.817   5.245
14607TIP3   OH243763   0.455   6.338   5.809
14607TIP3    H143764   0.433   6.430   5.796
14607TIP3    H243765   0.510   6.338   5.888
14608TIP3   OH243766   1.143   0.453   0.024
14608TIP3    H143767   1.171   0.362   0.014
14608TIP3    H243768   1.217   0.504  -0.008
14609TIP3   OH243769   2.952   2.025   0.312
14609TIP3    H143770   2.989   2.091   0.371
14609TIP3    H243771   2.947   1.946   0.365
14610TIP3   OH243772   5.309   4.749   3.521
14610TIP3    H143773   5.224   4.787   3.496
14610TIP3    H243774   5.287   4.660   3.550
14611TIP3   OH243775   5.047   6.226   3.701
14611TIP3    H143776   5.106   6.155   3.727
14611TIP3    H243777   4.988   6.237   3.776
14612TIP3   OH243778   2.363   1.290   5.456
14612TIP3    H143779   2.453   1.280   5.426
14612TIP3    H243780   2.329   1.365   5.407
14613TIP3   OH243781   2.601   6.748   3.184
14613TIP3    H143782   2.673   6.809   3.168
14613TIP3    H243783   2.627   6.698   3.261
14614TIP3   OH243784   7.657   4.760   3.424
14614TIP3    H143785   7.736   4.707   3.433
14614TIP3    H243786   7.689   4.851   3.431
14615TIP3   OH243787   1.862   3.458   3.957
14615TIP3    H143788   1.812   3.382   3.986
14615TIP3    H243789   1.889   3.501   4.038
14616TIP3   OH243790   2.993   2.090   6.270
14616TIP3    H143791   3.020   2.160   6.211
14616TIP3    H243792   3.029   2.010   6.232
14617TIP3   OH243793   6.441   0.048   1.478
14617TIP3    H143794   6.514  -0.001   1.441
14617TIP3    H243795   6.439   0.130   1.428
14618TIP3   OH243796   6.226   7.311   2.135
14618TIP3    H143797   6.138   7.339   2.108
14618TIP3    H243798   6.282   7.335   2.061
14619TIP3   OH243799   2.750   6.880   2.068
14619TIP3    H143800   2.791   6.823   2.133
14619TIP3    H243801   2.668   6.836   2.045
14620TIP3   OH243802   0.772   2.464   1.318
14620TIP3    H143803   0.693   2.486   1.367
14620TIP3    H243804   0.743   2.398   1.255
14621TIP3   OH243805   1.429   1.924   3.921
14621TIP3    H143806   1.467   1.854   3.869
14621TIP3    H243807   1.398   1.880   4.001
14622TIP3   OH243808   6.986   3.771   2.792
14622TIP3    H143809   7.053   3.723   2.742
14622TIP3    H243810   6.980   3.856   2.747
14623TIP3   OH243811   7.482   4.467   3.924
14623TIP3    H143812   7.416   4.474   3.992
14623TIP3    H243813   7.441   4.414   3.856
14624TIP3   OH243814   2.023   1.688   1.023
14624TIP3    H143815   1.959   1.682   1.094
14624TIP3    H243816   2.032   1.782   1.008
14625TIP3   OH243817   7.347   7.290   1.595
14625TIP3    H143818   7.361   7.208   1.642
14625TIP3    H243819   7.407   7.352   1.639
14626TIP3   OH243820   0.240   1.186   6.228
14626TIP3    H143821   0.158   1.136   6.222
14626TIP3    H243822   0.281   1.175   6.142
14627TIP3   OH243823   7.046   4.596   4.124
14627TIP3    H143824   7.065   4.663   4.191
14627TIP3    H243825   7.039   4.514   4.173
14628TIP3   OH243826   1.745   3.260   3.473
14628TIP3    H143827   1.688   3.196   3.430
14628TIP3    H243828   1.719   3.257   3.565
14629TIP3   OH243829   1.593   6.409   6.590
14629TIP3    H143830   1.598   6.355   6.511
14629TIP3    H243831   1.683   6.409   6.624
14630TIP3   OH243832   0.361   7.207   1.757
14630TIP3    H143833   0.279   7.237   1.719
14630TIP3    H243834   0.424   7.275   1.733
14631TIP3   OH243835   6.954   5.687   1.266
14631TIP3    H143836   6.913   5.617   1.216
14631TIP3    H243837   6.893   5.706   1.337
14632TIP3   OH243838   1.128   0.293   0.990
14632TIP3    H143839   1.134   0.381   1.025
14632TIP3    H243840   1.168   0.299   0.903
14633TIP3   OH243841   5.574   0.901   2.981
14633TIP3    H143842   5.634   0.844   2.934
14633TIP3    H243843   5.558   0.855   3.064
14634TIP3   OH243844   2.777   3.810   2.394
14634TIP3    H143845   2.815   3.872   2.332
14634TIP3    H243846   2.685   3.806   2.370
14635TIP3   OH243847   4.152   2.672   4.794
14635TIP3    H143848   4.152   2.577   4.790
14635TIP3    H243849   4.088   2.694   4.862
14636TIP3   OH243850   7.558   2.599   4.995
14636TIP3    H143851   7.592   2.608   5.083
14636TIP3    H243852   7.634   2.576   4.942
14637TIP3   OH243853   7.792   1.603   3.351
14637TIP3    H143854   7.799   1.530   3.414
14637TIP3    H243855   7.882   1.634   3.340
14638TIP3   OH243856   5.003   6.888   2.901
14638TIP3    H143857   4.957   6.816   2.945
14638TIP3    H243858   4.942   6.962   2.908
14639TIP3   OH243859   0.186   1.188   4.474
14639TIP3    H143860   0.181   1.268   4.527
14639TIP3    H243861   0.277   1.181   4.448
14640TIP3   OH243862   7.185   4.040   4.293
14640TIP3    H143863   7.104   4.005   4.256
14640TIP3    H243864   7.168   4.044   4.387
14641TIP3   OH243865   0.849   0.709   2.209
14641TIP3    H143866   0.908   0.763   2.157
14641TIP3    H243867   0.907   0.647   2.254
14642TIP3   OH243868   3.471   1.480   4.702
14642TIP3    H143869   3.380   1.506   4.686
14642TIP3    H243870   3.488   1.510   4.791
14643TIP3   OH243871   2.123   1.466   2.425
14643TIP3    H143872   2.078   1.423   2.352
14643TIP3    H243873   2.134   1.556   2.397
14644TIP3   OH243874   2.464   0.672   1.935
14644TIP3    H143875   2.554   0.681   1.967
14644TIP3    H243876   2.422   0.614   1.999
14645TIP3   OH243877   1.431   7.714   6.636
14645TIP3    H143878   1.379   7.636   6.616
14645TIP3    H243879   1.519   7.680   6.653
14646TIP3   OH243880   6.655   0.867   3.399
14646TIP3    H143881   6.568   0.893   3.367
14646TIP3    H243882   6.663   0.775   3.376
14647TIP3   OH243883   2.643   0.745   0.526
14647TIP3    H143884   2.591   0.793   0.462
14647TIP3    H243885   2.589   0.669   0.548
14648TIP3   OH243886   6.660   4.150   1.470
14648TIP3    H143887   6.680   4.182   1.382
14648TIP3    H243888   6.743   4.113   1.502
14649TIP3   OH243889   1.628   7.625   3.812
14649TIP3    H143890   1.541   7.607   3.776
14649TIP3    H243891   1.613   7.690   3.880
14650TIP3   OH243892   7.953   0.273   0.448
14650TIP3    H143893   7.895   0.315   0.385
14650TIP3    H243894   7.957   0.182   0.419
14651TIP3   OH243895   7.621   3.359   0.404
14651TIP3    H143896   7.668   3.438   0.429
14651TIP3    H243897   7.571   3.335   0.483
14652TIP3   OH243898   6.338   4.216   2.640
14652TIP3    H143899   6.261   4.159   2.636
14652TIP3    H243900   6.356   4.225   2.733
14653TIP3   OH243901   3.052   6.411   4.803
14653TIP3    H143902   3.036   6.439   4.712
14653TIP3    H243903   3.052   6.493   4.853
14654TIP3   OH243904   6.829   3.740   3.984
14654TIP3    H143905   6.847   3.814   3.926
14654TIP3    H243906   6.735   3.743   3.999
14655TIP3   OH243907   4.126   6.714   1.235
14655TIP3    H143908   4.135   6.629   1.192
14655TIP3    H243909   4.052   6.756   1.192
14656TIP3   OH243910   3.794   1.140   3.170
14656TIP3    H143911   3.837   1.069   3.218
14656TIP3    H243912   3.796   1.215   3.229
14657TIP3   OH243913   7.487   1.009   5.311
14657TIP3    H143914   7.432   1.015   5.233
14657TIP3    H243915   7.465   1.088   5.361
14658TIP3   OH243916   6.974   4.782   6.100
14658TIP3    H143917   6.999   4.721   6.030
14658TIP3    H243918   7.049   4.841   6.108
14659TIP3   OH243919   0.191   4.452   2.538
14659TIP3    H143920   0.253   4.394   2.582
14659TIP3    H243921   0.183   4.528   2.595
14660TIP3   OH243922   3.545   0.466   5.536
14660TIP3    H143923   3.544   0.370   5.545
14660TIP3    H243924   3.599   0.482   5.459
14661TIP3   OH243925   4.264   4.759   0.462
14661TIP3    H143926   4.271   4.763   0.367
14661TIP3    H243927   4.263   4.666   0.482
14662TIP3   OH243928   5.347   5.452   3.862
14662TIP3    H143929   5.309   5.537   3.840
14662TIP3    H243930   5.271   5.394   3.870
14663TIP3   OH243931   4.607   5.355   5.625
14663TIP3    H143932   4.647   5.436   5.592
14663TIP3    H243933   4.513   5.373   5.622
14664TIP3   OH243934   4.346   4.892   3.745
14664TIP3    H143935   4.397   4.953   3.691
14664TIP3    H243936   4.372   4.805   3.715
14665TIP3   OH243937   1.001   1.903   5.105
14665TIP3    H143938   1.010   1.883   5.012
14665TIP3    H243939   0.929   1.847   5.135
14666TIP3   OH243940   3.516   4.813   2.944
14666TIP3    H143941   3.424   4.789   2.949
14666TIP3    H243942   3.563   4.730   2.941
14667TIP3   OH243943   5.952   2.645   4.802
14667TIP3    H143944   5.920   2.677   4.887
14667TIP3    H243945   6.042   2.677   4.798
14668TIP3   OH243946   4.587   5.170   3.168
14668TIP3    H143947   4.602   5.130   3.082
14668TIP3    H243948   4.626   5.257   3.161
14669TIP3   OH243949   0.178   6.920   6.100
14669TIP3    H143950   0.155   6.829   6.082
14669TIP3    H243951   0.251   6.915   6.161
14670TIP3   OH243952   2.417   7.549   0.741
14670TIP3    H143953   2.423   7.644   0.749
14670TIP3    H243954   2.323   7.531   0.735
14671TIP3   OH243955   0.460   3.184   1.323
14671TIP3    H143956   0.409   3.245   1.268
14671TIP3    H243957   0.505   3.241   1.385
14672TIP3   OH243958   6.302   7.532   1.654
14672TIP3    H143959   6.263   7.601   1.600
14672TIP3    H243960   6.233   7.506   1.715
14673TIP3   OH243961   8.153   6.725   6.625
14673TIP3    H143962   8.159   6.772   6.541
14673TIP3    H243963   8.211   6.649   6.614
14674TIP3   OH243964   4.126   3.324   3.003
14674TIP3    H143965   4.190   3.278   2.950
14674TIP3    H243966   4.092   3.256   3.063
14675TIP3   OH243967   7.274   4.201   1.581
14675TIP3    H143968   7.358   4.247   1.585
14675TIP3    H243969   7.298   4.109   1.591
14676TIP3   OH243970   5.037   7.515   3.559
14676TIP3    H143971   4.999   7.582   3.501
14676TIP3    H243972   4.967   7.452   3.573
14677TIP3   OH243973   6.640   6.511   2.986
14677TIP3    H143974   6.624   6.465   3.069
14677TIP3    H243975   6.561   6.495   2.934
14678TIP3   OH243976   4.292   7.153   4.093
14678TIP3    H143977   4.297   7.090   4.165
14678TIP3    H243978   4.373   7.202   4.098
14679TIP3   OH243979   1.995   3.217   3.343
14679TIP3    H143980   2.080   3.203   3.385
14679TIP3    H243981   1.936   3.238   3.415
14680TIP3   OH243982   1.819   6.122   1.545
14680TIP3    H143983   1.804   6.209   1.582
14680TIP3    H243984   1.868   6.138   1.464
14681TIP3   OH243985   1.146   3.220   1.596
14681TIP3    H143986   1.147   3.197   1.503
14681TIP3    H243987   1.191   3.147   1.639
14682TIP3   OH243988   3.137   7.447   6.690
14682TIP3    H143989   3.162   7.430   6.599
14682TIP3    H243990   3.170   7.372   6.738
14683TIP3   OH243991   1.770   2.860   5.255
14683TIP3    H143992   1.850   2.896   5.293
14683TIP3    H243993   1.713   2.937   5.242
14684TIP3   OH243994   3.354   7.697   5.921
14684TIP3    H143995   3.286   7.719   5.984
14684TIP3    H243996   3.307   7.672   5.841
14685TIP3   OH243997   4.977   1.209   1.383
14685TIP3    H143998   4.913   1.279   1.394
14685TIP3    H243999   4.973   1.159   1.464
14686TIP3   OH244000   0.487   5.358   4.419
14686TIP3    H144001   0.503   5.427   4.483
14686TIP3    H244002   0.407   5.316   4.449
14687TIP3   OH244003   2.662   4.958   6.255
14687TIP3    H144004   2.584   4.997   6.214
14687TIP3    H244005   2.644   4.961   6.349
14688TIP3   OH244006   1.443   2.914   2.050
14688TIP3    H144007   1.519   2.970   2.034
14688TIP3    H244008   1.474   2.848   2.113
14689TIP3   OH244009   0.312   0.703   2.810
14689TIP3    H144010   0.360   0.635   2.858
14689TIP3    H244011   0.235   0.658   2.774
14690TIP3   OH244012   3.476   6.407   5.602
14690TIP3    H144013   3.430   6.465   5.663
14690TIP3    H244014   3.466   6.320   5.640
14691TIP3   OH244015   8.278   2.961   4.817
14691TIP3    H144016   8.311   2.921   4.736
14691TIP3    H244017   8.261   3.052   4.793
14692TIP3   OH244018   3.934   7.032   2.088
14692TIP3    H144019   4.021   7.054   2.122
14692TIP3    H244020   3.920   6.941   2.115
14693TIP3   OH244021   4.737   4.150   5.373
14693TIP3    H144022   4.666   4.189   5.322
14693TIP3    H244023   4.747   4.207   5.449
14694TIP3   OH244024   3.865   0.693   2.630
14694TIP3    H144025   3.860   0.786   2.652
14694TIP3    H244026   3.943   0.686   2.575
14695TIP3   OH244027   6.944   3.855   6.633
14695TIP3    H144028   7.016   3.820   6.685
14695TIP3    H244029   6.884   3.892   6.698
14696TIP3   OH244030   0.872   4.568   2.713
14696TIP3    H144031   0.955   4.605   2.744
14696TIP3    H244032   0.808   4.637   2.729
14697TIP3   OH244033   5.554   2.718   5.249
14697TIP3    H144034   5.628   2.725   5.189
14697TIP3    H244035   5.481   2.758   5.202
14698TIP3   OH244036   7.362   5.038   2.540
14698TIP3    H144037   7.300   5.003   2.604
14698TIP3    H244038   7.316   5.111   2.499
14699TIP3   OH244039   2.079   4.965   1.779
14699TIP3    H144040   2.054   4.929   1.865
14699TIP3    H244041   2.017   4.925   1.718
14700TIP3   OH244042   6.972   4.668   5.401
14700TIP3    H144043   6.882   4.688   5.426
14700TIP3    H244044   6.967   4.587   5.350
14701TIP3   OH244045   1.401   4.970   3.455
14701TIP3    H144046   1.393   4.948   3.362
14701TIP3    H244047   1.316   5.009   3.478
14702TIP3   OH244048   8.072   4.163   5.999
14702TIP3    H144049   8.077   4.225   5.927
14702TIP3    H244050   8.160   4.127   6.006
14703TIP3   OH244051   7.597   3.849   5.982
14703TIP3    H144052   7.667   3.841   5.917
14703TIP3    H244053   7.549   3.927   5.956
14704TIP3   OH244054   1.235   5.103   4.762
14704TIP3    H144055   1.292   5.027   4.771
14704TIP3    H244056   1.257   5.159   4.836
14705TIP3   OH244057   7.589   7.110   1.056
14705TIP3    H144058   7.502   7.116   1.017
14705TIP3    H244059   7.649   7.102   0.981
14706TIP3   OH244060   7.655   6.405   4.882
14706TIP3    H144061   7.594   6.410   4.809
14706TIP3    H244062   7.606   6.362   4.952
14707TIP3   OH244063   6.255   2.412   3.635
14707TIP3    H144064   6.160   2.401   3.638
14707TIP3    H244065   6.272   2.450   3.549
14708TIP3   OH244066   1.035   4.347   3.937
14708TIP3    H144067   1.045   4.437   3.907
14708TIP3    H244068   0.942   4.340   3.960
14709TIP3   OH244069   5.088   7.568   1.257
14709TIP3    H144070   5.131   7.645   1.294
14709TIP3    H244071   5.022   7.544   1.322
14710TIP3   OH244072   7.589   6.004   4.229
14710TIP3    H144073   7.514   5.993   4.287
14710TIP3    H244074   7.664   6.013   4.289
14711TIP3   OH244075   3.333   2.998   6.104
14711TIP3    H144076   3.289   2.916   6.128
14711TIP3    H244077   3.379   2.977   6.023
14712TIP3   OH244078   2.399   4.556   0.255
14712TIP3    H144079   2.341   4.614   0.304
14712TIP3    H244080   2.395   4.473   0.303
14713TIP3   OH244081   6.190   2.155   5.774
14713TIP3    H144082   6.278   2.188   5.793
14713TIP3    H244083   6.184   2.072   5.822
14714TIP3   OH244084   6.860   3.443   1.161
14714TIP3    H144085   6.945   3.481   1.139
14714TIP3    H244086   6.822   3.421   1.076
14715TIP3   OH244087   3.053   2.898   2.601
14715TIP3    H144088   2.960   2.910   2.586
14715TIP3    H244089   3.062   2.805   2.622
14716TIP3   OH244090   3.786   6.110   3.855
14716TIP3    H144091   3.736   6.051   3.799
14716TIP3    H244092   3.831   6.051   3.917
14717TIP3   OH244093   8.030   2.619   0.164
14717TIP3    H144094   8.121   2.612   0.133
14717TIP3    H244095   8.016   2.713   0.174
14718TIP3   OH244096   2.654   7.299   1.683
14718TIP3    H144097   2.609   7.384   1.679
14718TIP3    H244098   2.693   7.289   1.596
14719TIP3   OH244099   5.667   3.365   3.184
14719TIP3    H144100   5.714   3.301   3.239
14719TIP3    H244101   5.676   3.331   3.095
14720TIP3   OH244102   2.039   4.152   2.202
14720TIP3    H144103   1.954   4.111   2.219
14720TIP3    H244104   2.097   4.080   2.178
14721TIP3   OH244105   7.854   6.949   1.482
14721TIP3    H144106   7.841   6.893   1.405
14721TIP3    H244107   7.869   7.036   1.447
14722TIP3   OH244108   8.145   3.662   1.392
14722TIP3    H144109   8.173   3.603   1.462
14722TIP3    H244110   8.050   3.653   1.391
14723TIP3   OH244111   6.338   5.097   1.077
14723TIP3    H144112   6.417   5.069   1.030
14723TIP3    H244113   6.299   5.016   1.108
14724TIP3   OH244114   1.840   4.560   2.273
14724TIP3    H144115   1.890   4.506   2.335
14724TIP3    H244116   1.751   4.524   2.277
14725TIP3   OH244117   6.785   4.174   0.648
14725TIP3    H144118   6.798   4.204   0.738
14725TIP3    H244119   6.871   4.186   0.607
14726TIP3   OH244120   5.058   6.102   4.809
14726TIP3    H144121   5.014   6.185   4.828
14726TIP3    H244122   5.138   6.127   4.764
14727TIP3   OH244123   3.820   0.940   0.397
14727TIP3    H144124   3.819   0.883   0.474
14727TIP3    H244125   3.879   1.011   0.422
14728TIP3   OH244126   2.429   0.842   5.175
14728TIP3    H144127   2.349   0.792   5.160
14728TIP3    H244128   2.401   0.934   5.171
14729TIP3   OH244129   1.759   3.681   4.299
14729TIP3    H144130   1.679   3.637   4.329
14729TIP3    H244131   1.732   3.728   4.220
14730TIP3   OH244132   4.710   6.508   5.494
14730TIP3    H144133   4.705   6.423   5.451
14730TIP3    H244134   4.667   6.568   5.433
14731TIP3   OH244135   0.183   4.143   2.457
14731TIP3    H144136   0.160   4.236   2.450
14731TIP3    H244137   0.134   4.112   2.533
14732TIP3   OH244138   0.718   1.274   1.581
14732TIP3    H144139   0.693   1.182   1.590
14732TIP3    H244140   0.640   1.323   1.605
14733TIP3   OH244141   4.438   0.922   1.171
14733TIP3    H144142   4.451   0.866   1.094
14733TIP3    H244143   4.354   0.893   1.208
14734TIP3   OH244144   5.966   0.728   6.032
14734TIP3    H144145   5.931   0.794   5.972
14734TIP3    H244146   6.060   0.728   6.014
14735TIP3   OH244147   6.063   5.366   0.224
14735TIP3    H144148   6.017   5.426   0.166
14735TIP3    H244149   6.010   5.364   0.303
14736TIP3   OH244150   1.336   5.454   5.611
14736TIP3    H144151   1.398   5.495   5.671
14736TIP3    H244152   1.345   5.360   5.625
14737TIP3   OH244153   2.906   1.634   1.091
14737TIP3    H144154   2.817   1.660   1.114
14737TIP3    H244155   2.942   1.598   1.172
14738TIP3   OH244156   7.787   2.862   2.947
14738TIP3    H144157   7.834   2.893   3.024
14738TIP3    H244158   7.855   2.853   2.880
14739TIP3   OH244159   1.890   7.048   6.028
14739TIP3    H144160   1.950   7.103   5.978
14739TIP3    H244161   1.804   7.067   5.991
14740TIP3   OH244162   5.737   2.648   2.894
14740TIP3    H144163   5.813   2.592   2.878
14740TIP3    H244164   5.669   2.588   2.924
14741TIP3   OH244165   1.167   0.909   0.036
14741TIP3    H144166   1.260   0.890   0.037
14741TIP3    H244167   1.133   0.857  -0.036
14742TIP3   OH244168   4.170   1.785   1.650
14742TIP3    H144169   4.223   1.812   1.725
14742TIP3    H244170   4.099   1.849   1.646
14743TIP3   OH244171   0.131   3.811   3.179
14743TIP3    H144172   0.192   3.830   3.109
14743TIP3    H244173   0.147   3.719   3.202
14744TIP3   OH244174   2.989  -0.023   5.350
14744TIP3    H144175   2.990  -0.081   5.425
14744TIP3    H244176   2.896  -0.004   5.335
14745TIP3   OH244177   6.440   7.729   1.380
14745TIP3    H144178   6.347   7.730   1.405
14745TIP3    H244179   6.461   7.637   1.366
14746TIP3   OH244180   7.267   4.397   4.380
14746TIP3    H144181   7.323   4.378   4.455
14746TIP3    H244182   7.312   4.355   4.306
14747TIP3   OH244183   7.832   0.660   0.891
14747TIP3    H144184   7.823   0.742   0.940
14747TIP3    H244185   7.860   0.596   0.956
14748TIP3   OH244186   1.290   6.773   4.813
14748TIP3    H144187   1.316   6.824   4.737
14748TIP3    H244188   1.264   6.688   4.777
14749TIP3   OH244189   4.094   6.395   6.177
14749TIP3    H144190   4.035   6.451   6.126
14749TIP3    H244191   4.072   6.306   6.149
14750TIP3   OH244192   2.774   1.348   0.624
14750TIP3    H144193   2.734   1.397   0.552
14750TIP3    H244194   2.866   1.374   0.623
14751TIP3   OH244195   0.675   7.122   5.850
14751TIP3    H144196   0.679   7.081   5.936
14751TIP3    H244197   0.766   7.124   5.821
14752TIP3   OH244198   0.145   4.555   1.685
14752TIP3    H144199   0.067   4.518   1.644
14752TIP3    H244200   0.133   4.650   1.677
14753TIP3   OH244201   4.749   7.534   1.299
14753TIP3    H144202   4.821   7.483   1.337
14753TIP3    H244203   4.790   7.587   1.231
14754TIP3   OH244204   2.998   3.297   4.637
14754TIP3    H144205   3.057   3.325   4.567
14754TIP3    H244206   3.010   3.202   4.643
14755TIP3   OH244207   4.657   5.018   1.660
14755TIP3    H144208   4.680   5.008   1.568
14755TIP3    H244209   4.649   5.113   1.672
14756TIP3   OH244210   6.696   1.805   0.305
14756TIP3    H144211   6.726   1.895   0.317
14756TIP3    H244212   6.609   1.802   0.345
14757TIP3   OH244213   3.044   4.969   4.508
14757TIP3    H144214   3.098   4.932   4.578
14757TIP3    H244215   3.048   5.064   4.523
14758TIP3   OH244216   3.845   5.254   1.473
14758TIP3    H144217   3.776   5.278   1.535
14758TIP3    H244218   3.889   5.180   1.514
14759TIP3   OH244219   0.612   1.123   6.196
14759TIP3    H144220   0.684   1.126   6.259
14759TIP3    H244221   0.611   1.033   6.164
14760TIP3   OH244222   1.428   6.831   6.592
14760TIP3    H144223   1.480   6.763   6.548
14760TIP3    H244224   1.375   6.869   6.522
14761TIP3   OH244225   5.582   1.174   4.422
14761TIP3    H144226   5.585   1.105   4.489
14761TIP3    H244227   5.492   1.207   4.426
14762TIP3   OH244228   1.568   2.188   5.711
14762TIP3    H144229   1.653   2.221   5.738
14762TIP3    H244230   1.587   2.125   5.641
14763TIP3   OH244231   4.578   2.103   6.166
14763TIP3    H144232   4.537   2.119   6.251
14763TIP3    H244233   4.645   2.171   6.158
14764TIP3   OH244234   2.754   2.147   4.613
14764TIP3    H144235   2.826   2.085   4.600
14764TIP3    H244236   2.711   2.152   4.528
14765TIP3   OH244237   2.933   0.453   3.969
14765TIP3    H144238   3.007   0.505   3.938
14765TIP3    H244239   2.869   0.517   3.999
14766TIP3   OH244240   2.729   6.954   1.743
14766TIP3    H144241   2.725   7.040   1.786
14766TIP3    H244242   2.645   6.948   1.697
14767TIP3   OH244243   1.498   0.886   6.573
14767TIP3    H144244   1.522   0.838   6.494
14767TIP3    H244245   1.402   0.889   6.570
14768TIP3   OH244246   7.171   6.394   4.283
14768TIP3    H144247   7.142   6.409   4.193
14768TIP3    H244248   7.139   6.469   4.332
14769TIP3   OH244249   2.662   6.701   1.032
14769TIP3    H144250   2.639   6.630   1.093
14769TIP3    H244251   2.755   6.718   1.050
14770TIP3   OH244252   1.043   6.934   2.668
14770TIP3    H144253   0.986   7.010   2.677
14770TIP3    H244254   1.012   6.890   2.589
14771TIP3   OH244255   4.614   5.685   3.233
14771TIP3    H144256   4.704   5.717   3.231
14771TIP3    H244257   4.562   5.756   3.197
14772TIP3   OH244258   5.870   5.686   4.448
14772TIP3    H144259   5.896   5.778   4.452
14772TIP3    H244260   5.953   5.639   4.442
14773TIP3   OH244261   2.040   6.234   6.044
14773TIP3    H144262   2.103   6.233   5.972
14773TIP3    H244263   1.986   6.312   6.029
14774TIP3   OH244264   3.301   7.563   0.122
14774TIP3    H144265   3.383   7.609   0.107
14774TIP3    H244266   3.266   7.601   0.203
14775TIP3   OH244267   4.096   4.071   3.207
14775TIP3    H144268   4.124   3.980   3.201
14775TIP3    H244269   4.171   4.121   3.174
14776TIP3   OH244270   4.974   5.344   0.008
14776TIP3    H144271   5.018   5.364  -0.074
14776TIP3    H244272   5.030   5.384   0.075
14777TIP3   OH244273   4.892   2.072   1.636
14777TIP3    H144274   4.980   2.102   1.658
14777TIP3    H244275   4.853   2.048   1.720
14778TIP3   OH244276   0.605   5.307   4.904
14778TIP3    H144277   0.662   5.295   4.828
14778TIP3    H244278   0.661   5.346   4.970
14779TIP3   OH244279   6.721   1.871   1.167
14779TIP3    H144280   6.783   1.809   1.205
14779TIP3    H244281   6.776   1.938   1.127
14780TIP3   OH244282   6.378   0.735   5.682
14780TIP3    H144283   6.357   0.760   5.592
14780TIP3    H244284   6.453   0.789   5.706
14781TIP3   OH244285   6.840   5.900   4.872
14781TIP3    H144286   6.807   5.989   4.887
14781TIP3    H244287   6.909   5.889   4.938
14782TIP3   OH244288   7.067   6.495   2.832
14782TIP3    H144289   7.138   6.530   2.887
14782TIP3    H244290   7.112   6.440   2.768
14783TIP3   OH244291   5.297   2.397   3.232
14783TIP3    H144292   5.328   2.307   3.243
14783TIP3    H244293   5.215   2.401   3.281
14784TIP3   OH244294   7.259   5.395   5.578
14784TIP3    H144295   7.343   5.392   5.623
14784TIP3    H244296   7.206   5.328   5.621
14785TIP3   OH244297   2.841   4.434   6.320
14785TIP3    H144298   2.821   4.527   6.329
14785TIP3    H244299   2.789   4.404   6.246
14786TIP3   OH244300   4.632   4.208   5.799
14786TIP3    H144301   4.694   4.260   5.748
14786TIP3    H244302   4.581   4.273   5.848
14787TIP3   OH244303   4.903   6.654   3.048
14787TIP3    H144304   4.924   6.582   2.989
14787TIP3    H244305   4.894   6.613   3.135
14788TIP3   OH244306   2.774   1.812   0.456
14788TIP3    H144307   2.760   1.737   0.398
14788TIP3    H244308   2.839   1.782   0.519
14789TIP3   OH244309   3.519   4.161   1.451
14789TIP3    H144310   3.429   4.130   1.454
14789TIP3    H244311   3.572   4.084   1.468
14790TIP3   OH244312   2.624   0.860   6.068
14790TIP3    H144313   2.715   0.834   6.061
14790TIP3    H244314   2.599   0.837   6.157
14791TIP3   OH244315   6.933   6.770   4.952
14791TIP3    H144316   6.988   6.753   4.875
14791TIP3    H244317   6.896   6.857   4.936
14792TIP3   OH244318   4.096   5.234   6.279
14792TIP3    H144319   4.152   5.304   6.246
14792TIP3    H244320   4.086   5.254   6.373
14793TIP3   OH244321   3.764   4.519   1.044
14793TIP3    H144322   3.808   4.470   1.113
14793TIP3    H244323   3.755   4.608   1.080
14794TIP3   OH244324   6.251   2.495   4.415
14794TIP3    H144325   6.300   2.578   4.416
14794TIP3    H244326   6.166   2.518   4.377
14795TIP3   OH244327   0.041   5.878   5.023
14795TIP3    H144328   0.038   5.964   4.982
14795TIP3    H244329  -0.007   5.888   5.105
14796TIP3   OH244330   5.552   5.219   2.109
14796TIP3    H144331   5.611   5.287   2.075
14796TIP3    H244332   5.546   5.155   2.038
14797TIP3   OH244333   5.495   7.496   0.769
14797TIP3    H144334   5.547   7.482   0.848
14797TIP3    H244335   5.410   7.457   0.789
14798TIP3   OH244336   5.578   6.571   2.070
14798TIP3    H144337   5.674   6.566   2.076
14798TIP3    H244338   5.550   6.481   2.060
14799TIP3   OH244339   1.126   2.765   1.566
14799TIP3    H144340   1.096   2.714   1.491
14799TIP3    H244341   1.187   2.829   1.528
14800TIP3   OH244342   1.987   7.376   4.697
14800TIP3    H144343   2.025   7.424   4.624
14800TIP3    H244344   1.935   7.442   4.744
14801TIP3   OH244345   5.468   3.988   0.247
14801TIP3    H144346   5.459   3.947   0.162
14801TIP3    H244347   5.386   3.968   0.292
14802TIP3   OH244348   4.540   0.170   0.516
14802TIP3    H144349   4.609   0.231   0.491
14802TIP3    H244350   4.568   0.135   0.601
14803TIP3   OH244351   3.073   2.733   1.265
14803TIP3    H144352   3.135   2.733   1.192
14803TIP3    H244353   3.065   2.640   1.289
14804TIP3   OH244354   1.877   7.166   5.701
14804TIP3    H144355   1.910   7.149   5.613
14804TIP3    H244356   1.880   7.082   5.745
14805TIP3   OH244357   4.279   7.773   0.088
14805TIP3    H144358   4.218   7.777   0.161
14805TIP3    H244359   4.365   7.784   0.128
14806TIP3   OH244360   5.187   6.749   3.097
14806TIP3    H144361   5.194   6.841   3.122
14806TIP3    H244362   5.115   6.747   3.034
14807TIP3   OH244363   0.651   1.291   4.853
14807TIP3    H144364   0.632   1.211   4.803
14807TIP3    H244365   0.602   1.359   4.808
14808TIP3   OH244366   7.456   4.627   0.276
14808TIP3    H144367   7.540   4.648   0.317
14808TIP3    H244368   7.394   4.687   0.317
14809TIP3   OH244369   5.151   6.671   4.385
14809TIP3    H144370   5.183   6.748   4.338
14809TIP3    H244371   5.065   6.653   4.346
14810TIP3   OH244372   4.906   3.521   0.613
14810TIP3    H144373   4.982   3.504   0.556
14810TIP3    H244374   4.927   3.476   0.695
14811TIP3   OH244375   5.393   4.869   1.748
14811TIP3    H144376   5.304   4.845   1.723
14811TIP3    H244377   5.448   4.834   1.678
14812TIP3   OH244378   7.773   6.010   0.505
14812TIP3    H144379   7.837   6.076   0.477
14812TIP3    H244380   7.792   5.996   0.598
14813TIP3   OH244381   5.033   1.578   2.086
14813TIP3    H144382   5.004   1.532   2.007
14813TIP3    H244383   5.109   1.528   2.116
14814TIP3   OH244384   6.237   5.980   6.600
14814TIP3    H144385   6.329   5.954   6.597
14814TIP3    H244386   6.190   5.897   6.614
14815TIP3   OH244387   4.881   0.658   2.374
14815TIP3    H144388   4.818   0.727   2.395
14815TIP3    H244389   4.851   0.582   2.424
   8.29640   7.82192   6.77398   0.00000   0.00000  -2.76547   0.00000  -2.76547  -3.91096
