Title t= 437.00000 step= 218500
19942
    1ASP      N    1   1.394   2.424   3.236
    1ASP    HT1    2   1.406   2.502   3.305
    1ASP    HT2    3   1.294   2.399   3.229
    1ASP    HT3    4   1.445   2.442   3.147
    1ASP     CA    5   1.459   2.305   3.289
    1ASP     HA    6   1.565   2.324   3.281
    1ASP     CB    7   1.391   2.283   3.436
    1ASP    HB1    8   1.282   2.302   3.444
    1ASP    HB2    9   1.428   2.362   3.504
    1ASP     CG   10   1.425   2.145   3.505
    1ASP    OD1   11   1.337   2.096   3.579
    1ASP    OD2   12   1.536   2.091   3.487
    1ASP      C   13   1.432   2.185   3.195
    1ASP      O   14   1.503   2.167   3.095
    2ALA      N   15   1.332   2.102   3.216
    2ALA     HN   16   1.272   2.115   3.294
    2ALA     CA   17   1.300   1.984   3.135
    2ALA     HA   18   1.396   1.935   3.138
    2ALA     CB   19   1.196   1.897   3.209
    2ALA    HB1   20   1.102   1.947   3.176
    2ALA    HB2   21   1.209   1.899   3.319
    2ALA    HB3   22   1.201   1.793   3.171
    2ALA      C   23   1.270   2.006   2.984
    2ALA      O   24   1.190   2.090   2.955
    3ASP      N   25   1.331   1.929   2.889
    3ASP     HN   26   1.400   1.862   2.914
    3ASP     CA   27   1.295   1.919   2.749
    3ASP     HA   28   1.299   2.016   2.701
    3ASP     CB   29   1.388   1.821   2.675
    3ASP    HB1   30   1.342   1.803   2.576
    3ASP    HB2   31   1.388   1.723   2.728
    3ASP     CG   32   1.536   1.868   2.668
    3ASP    OD1   33   1.618   1.782   2.633
    3ASP    OD2   34   1.567   1.991   2.682
    3ASP      C   35   1.152   1.875   2.740
    3ASP      O   36   1.099   1.810   2.829
    4GLY      N   37   1.087   1.910   2.621
    4GLY     HN   38   1.136   1.957   2.549
    4GLY     CA   39   0.951   1.854   2.590
    4GLY    HA1   40   0.916   1.888   2.494
    4GLY    HA2   41   0.879   1.887   2.663
    4GLY      C   42   0.936   1.711   2.581
    4GLY      O   43   1.035   1.640   2.597
    5PRO      N   44   0.818   1.659   2.553
    5PRO     CD   45   0.692   1.735   2.565
    5PRO    HD1   46   0.683   1.818   2.491
    5PRO    HD2   47   0.686   1.770   2.670
    5PRO     CA   48   0.784   1.522   2.510
    5PRO     HA   49   0.788   1.464   2.601
    5PRO     CB   50   0.648   1.539   2.444
    5PRO    HB1   51   0.583   1.450   2.429
    5PRO    HB2   52   0.664   1.593   2.348
    5PRO     CG   53   0.577   1.639   2.532
    5PRO    HG1   54   0.491   1.685   2.478
    5PRO    HG2   55   0.539   1.592   2.626
    5PRO      C   56   0.879   1.459   2.413
    5PRO      O   57   0.943   1.515   2.326
    6GLY      N   58   0.891   1.326   2.436
    6GLY     HN   59   0.847   1.289   2.517
    6GLY     CA   60   0.957   1.233   2.343
    6GLY    HA1   61   1.002   1.147   2.391
    6GLY    HA2   62   1.037   1.287   2.295
    6GLY      C   63   0.859   1.181   2.231
    6GLY      O   64   0.753   1.239   2.198
    7ASP      N   65   0.901   1.068   2.175
    7ASP     HN   66   0.991   1.033   2.199
    7ASP     CA   67   0.816   0.991   2.082
    7ASP     HA   68   0.800   1.047   1.991
    7ASP     CB   69   0.893   0.858   2.027
    7ASP    HB1   70   0.827   0.795   1.964
    7ASP    HB2   71   0.935   0.807   2.116
    7ASP     CG   72   1.010   0.903   1.932
    7ASP    OD1   73   1.121   0.851   1.954
    7ASP    OD2   74   0.996   0.997   1.849
    7ASP      C   75   0.671   0.954   2.128
    7ASP      O   76   0.650   0.923   2.245
    8PRO      N   77   0.570   0.949   2.046
    8PRO     CD   78   0.579   0.998   1.911
    8PRO    HD1   79   0.671   0.953   1.866
    8PRO    HD2   80   0.595   1.108   1.910
    8PRO     CA   81   0.432   0.925   2.079
    8PRO     HA   82   0.405   0.992   2.159
    8PRO     CB   83   0.353   0.961   1.956
    8PRO    HB1   84   0.305   1.062   1.961
    8PRO    HB2   85   0.262   0.900   1.940
    8PRO     CG   86   0.454   0.950   1.836
    8PRO    HG1   87   0.452   0.845   1.800
    8PRO    HG2   88   0.416   1.016   1.755
    8PRO      C   89   0.399   0.786   2.114
    8PRO      O   90   0.315   0.774   2.207
    9ASP      N   91   0.455   0.681   2.046
    9ASP     HN   92   0.520   0.700   1.972
    9ASP     CA   93   0.412   0.546   2.075
    9ASP     HA   94   0.308   0.546   2.107
    9ASP     CB   95   0.412   0.464   1.945
    9ASP    HB1   96   0.386   0.356   1.957
    9ASP    HB2   97   0.517   0.467   1.910
    9ASP     CG   98   0.330   0.522   1.828
    9ASP    OD1   99   0.379   0.505   1.712
    9ASP    OD2  100   0.216   0.567   1.853
    9ASP      C  101   0.499   0.479   2.179
    9ASP      O  102   0.463   0.365   2.203
   10ALA      N  103   0.599   0.545   2.239
   10ALA     HN  104   0.625   0.635   2.204
   10ALA     CA  105   0.667   0.499   2.361
   10ALA     HA  106   0.711   0.402   2.342
   10ALA     CB  107   0.783   0.596   2.382
   10ALA    HB1  108   0.843   0.612   2.289
   10ALA    HB2  109   0.856   0.564   2.459
   10ALA    HB3  110   0.752   0.697   2.417
   10ALA      C  111   0.587   0.485   2.495
   10ALA      O  112   0.475   0.546   2.519
   11GLY      N  113   0.634   0.391   2.578
   11GLY     HN  114   0.711   0.331   2.556
   11GLY     CA  115   0.574   0.356   2.702
   11GLY    HA1  116   0.478   0.313   2.679
   11GLY    HA2  117   0.564   0.447   2.759
   11GLY      C  118   0.662   0.263   2.787
   11GLY    OT1  119   0.775   0.296   2.828
   11GLY    OT2  120   0.614   0.150   2.804
   12LIT    LIT  121   2.211   2.104   0.960
   13LIT    LIT  122   2.569   2.831   2.165
   14LIT    LIT  123   5.431   5.877   3.757
   15LIT    LIT  124   2.358   2.245   2.002
   16LIT    LIT  125   4.558   5.399   2.435
   17LIT    LIT  126   0.866   4.355   1.418
   18LIT    LIT  127   6.255   5.396   2.212
   19LIT    LIT  128   6.234   0.205   0.440
   20LIT    LIT  129   2.835   0.975   4.978
   21LIT    LIT  130   3.154   3.970   3.988
   22LIT    LIT  131   4.002   3.388   1.289
   23LIT    LIT  132   2.368   2.401   3.592
   24LIT    LIT  133   2.720   5.162   3.938
   25LIT    LIT  134   5.376   0.750   1.429
   26LIT    LIT  135   3.884   4.167   0.129
   27LIT    LIT  136   4.596   5.945   3.564
   28LIT    LIT  137   1.488   1.960   3.632
   29LIT    LIT  138   2.220   4.691   3.205
   30LIT    LIT  139   1.360   1.399   2.394
   31LIT    LIT  140   4.904   1.715   5.011
   32LIT    LIT  141   3.935   3.465   1.739
   33LIT    LIT  142   5.308   2.078   2.122
   34CLA    CLA  143   5.571   3.188   1.898
   35CLA    CLA  144   2.253   5.648   5.132
   36CLA    CLA  145   5.368   4.194   0.287
   37CLA    CLA  146   1.549   0.970   3.048
   38CLA    CLA  147   2.183   3.670   4.580
   39CLA    CLA  148   0.999   3.399   1.751
   40CLA    CLA  149   1.085   1.071   4.398
   41CLA    CLA  150   1.338   2.613   2.251
   42CLA    CLA  151   2.102   3.270   0.574
   43CLA    CLA  152   1.834   3.568   2.079
   44CLA    CLA  153   4.545   3.977   4.499
   45CLA    CLA  154   2.926   0.254   2.624
   46CLA    CLA  155   5.128   0.350   2.092
   47CLA    CLA  156   3.778   3.965   0.082
   48CLA    CLA  157   3.157   4.060   3.275
   49CLA    CLA  158   5.350   5.201   0.630
   50CLA    CLA  159   3.569   2.538   3.365
   51CLA    CLA  160   1.193   1.257   1.520
   52TIP3   OH2  161   5.412   0.088   2.744
   52TIP3    H1  162   5.331   0.057   2.783
   52TIP3    H2  163   5.477   0.020   2.762
   53TIP3   OH2  164   0.352   0.799   0.422
   53TIP3    H1  165   0.320   0.830   0.507
   53TIP3    H2  166   0.436   0.844   0.410
   54TIP3   OH2  167   0.317   3.363   0.334
   54TIP3    H1  168   0.335   3.341   0.425
   54TIP3    H2  169   0.380   3.310   0.284
   55TIP3   OH2  170   0.458   0.038   4.576
   55TIP3    H1  171   0.546   0.073   4.561
   55TIP3    H2  172   0.405   0.114   4.599
   56TIP3   OH2  173   4.877   0.758   1.379
   56TIP3    H1  174   4.909   0.817   1.447
   56TIP3    H2  175   4.812   0.703   1.424
   57TIP3   OH2  176   0.936   3.558   2.564
   57TIP3    H1  177   0.915   3.634   2.509
   57TIP3    H2  178   0.955   3.488   2.501
   58TIP3   OH2  179   0.505   3.245   3.150
   58TIP3    H1  180   0.599   3.228   3.148
   58TIP3    H2  181   0.491   3.294   3.232
   59TIP3   OH2  182   5.362   2.150   4.920
   59TIP3    H1  183   5.359   2.054   4.917
   59TIP3    H2  184   5.411   2.170   5.000
   60TIP3   OH2  185   2.320   0.019   3.527
   60TIP3    H1  186   2.296   0.108   3.504
   60TIP3    H2  187   2.283  -0.035   3.457
   61TIP3   OH2  188   5.459   2.675   1.055
   61TIP3    H1  189   5.395   2.724   1.105
   61TIP3    H2  190   5.538   2.728   1.058
   62TIP3   OH2  191   4.395   3.680   2.192
   62TIP3    H1  192   4.412   3.761   2.145
   62TIP3    H2  193   4.428   3.695   2.280
   63TIP3   OH2  194   4.023   1.484   4.212
   63TIP3    H1  195   3.964   1.510   4.283
   63TIP3    H2  196   4.108   1.473   4.255
   64TIP3   OH2  197   1.564   4.088   1.520
   64TIP3    H1  198   1.559   4.018   1.456
   64TIP3    H2  199   1.566   4.044   1.605
   65TIP3   OH2  200   3.934   0.570   0.370
   65TIP3    H1  201   3.849   0.587   0.410
   65TIP3    H2  202   3.989   0.643   0.399
   66TIP3   OH2  203   2.812   2.238   2.915
   66TIP3    H1  204   2.899   2.278   2.909
   66TIP3    H2  205   2.814   2.168   2.849
   67TIP3   OH2  206   4.916   2.973   4.656
   67TIP3    H1  207   4.961   3.009   4.733
   67TIP3    H2  208   4.935   2.879   4.660
   68TIP3   OH2  209   3.426   2.699   2.029
   68TIP3    H1  210   3.364   2.627   2.038
   68TIP3    H2  211   3.376   2.777   2.055
   69TIP3   OH2  212   1.923   5.136   3.949
   69TIP3    H1  213   1.946   5.056   3.997
   69TIP3    H2  214   1.940   5.113   3.857
   70TIP3   OH2  215   3.024   5.888   3.231
   70TIP3    H1  216   3.014   5.965   3.176
   70TIP3    H2  217   2.951   5.831   3.206
   71TIP3   OH2  218   5.778   4.501   3.422
   71TIP3    H1  219   5.760   4.427   3.480
   71TIP3    H2  220   5.693   4.522   3.383
   72TIP3   OH2  221   6.296   1.784   0.162
   72TIP3    H1  222   6.379   1.824   0.138
   72TIP3    H2  223   6.248   1.777   0.079
   73TIP3   OH2  224   1.150   5.641   3.001
   73TIP3    H1  225   1.240   5.621   3.028
   73TIP3    H2  226   1.096   5.611   3.075
   74TIP3   OH2  227   0.078   5.397   0.021
   74TIP3    H1  228   0.084   5.485   0.059
   74TIP3    H2  229   0.091   5.338   0.096
   75TIP3   OH2  230   4.728   2.070   4.957
   75TIP3    H1  231   4.762   2.087   5.045
   75TIP3    H2  232   4.723   2.156   4.916
   76TIP3   OH2  233   1.326   0.942   1.768
   76TIP3    H1  234   1.341   0.894   1.687
   76TIP3    H2  235   1.241   0.911   1.799
   77TIP3   OH2  236   0.313   1.507   2.894
   77TIP3    H1  237   0.366   1.431   2.871
   77TIP3    H2  238   0.223   1.481   2.876
   78TIP3   OH2  239   1.111   3.596   4.100
   78TIP3    H1  240   1.121   3.678   4.148
   78TIP3    H2  241   1.118   3.621   4.008
   79TIP3   OH2  242   5.470   1.790   1.056
   79TIP3    H1  243   5.426   1.708   1.033
   79TIP3    H2  244   5.551   1.790   1.005
   80TIP3   OH2  245   4.667   0.833   5.048
   80TIP3    H1  246   4.582   0.805   5.015
   80TIP3    H2  247   4.711   0.871   4.972
   81TIP3   OH2  248   1.120   2.571   3.658
   81TIP3    H1  249   1.099   2.616   3.576
   81TIP3    H2  250   1.081   2.626   3.726
   82TIP3   OH2  251   1.445   0.535   3.182
   82TIP3    H1  252   1.389   0.604   3.218
   82TIP3    H2  253   1.405   0.512   3.099
   83TIP3   OH2  254   6.092   2.075   4.018
   83TIP3    H1  255   6.009   2.121   4.032
   83TIP3    H2  256   6.073   2.013   3.947
   84TIP3   OH2  257   4.130   1.345   4.669
   84TIP3    H1  258   4.105   1.433   4.640
   84TIP3    H2  259   4.226   1.346   4.669
   85TIP3   OH2  260   2.435   2.874   3.016
   85TIP3    H1  261   2.369   2.849   3.081
   85TIP3    H2  262   2.424   2.811   2.945
   86TIP3   OH2  263   6.135   3.350   0.244
   86TIP3    H1  264   6.198   3.384   0.309
   86TIP3    H2  265   6.189   3.330   0.167
   87TIP3   OH2  266   2.993   3.252   4.003
   87TIP3    H1  267   2.955   3.339   4.020
   87TIP3    H2  268   3.017   3.255   3.910
   88TIP3   OH2  269   0.391   1.976   1.245
   88TIP3    H1  270   0.408   1.908   1.309
   88TIP3    H2  271   0.457   2.043   1.262
   89TIP3   OH2  272   5.670   3.857   4.321
   89TIP3    H1  273   5.580   3.891   4.326
   89TIP3    H2  274   5.660   3.764   4.302
   90TIP3   OH2  275   3.933   5.247   2.399
   90TIP3    H1  276   4.006   5.190   2.422
   90TIP3    H2  277   3.886   5.261   2.481
   91TIP3   OH2  278   4.893   4.855   3.176
   91TIP3    H1  279   4.978   4.896   3.165
   91TIP3    H2  280   4.881   4.848   3.271
   92TIP3   OH2  281   5.775   3.036   0.658
   92TIP3    H1  282   5.800   3.096   0.588
   92TIP3    H2  283   5.771   2.950   0.616
   93TIP3   OH2  284   3.141   1.635   2.228
   93TIP3    H1  285   3.140   1.632   2.323
   93TIP3    H2  286   3.204   1.567   2.202
   94TIP3   OH2  287   4.408   4.491   3.045
   94TIP3    H1  288   4.465   4.512   2.971
   94TIP3    H2  289   4.321   4.518   3.018
   95TIP3   OH2  290   2.381   3.796   1.563
   95TIP3    H1  291   2.428   3.726   1.608
   95TIP3    H2  292   2.418   3.876   1.600
   96TIP3   OH2  293   0.365   5.935   4.154
   96TIP3    H1  294   0.439   5.994   4.146
   96TIP3    H2  295   0.317   5.965   4.231
   97TIP3   OH2  296   3.052   1.493   4.910
   97TIP3    H1  297   3.147   1.492   4.894
   97TIP3    H2  298   3.025   1.582   4.889
   98TIP3   OH2  299   2.240   1.199   4.987
   98TIP3    H1  300   2.249   1.244   5.071
   98TIP3    H2  301   2.324   1.156   4.974
   99TIP3   OH2  302   2.507   0.301   4.220
   99TIP3    H1  303   2.520   0.387   4.260
   99TIP3    H2  304   2.420   0.274   4.248
  100TIP3   OH2  305   4.323   1.445   3.824
  100TIP3    H1  306   4.259   1.385   3.787
  100TIP3    H2  307   4.290   1.462   3.913
  101TIP3   OH2  308   1.849   0.263   0.326
  101TIP3    H1  309   1.758   0.284   0.309
  101TIP3    H2  310   1.864   0.180   0.280
  102TIP3   OH2  311   2.575   4.611   0.526
  102TIP3    H1  312   2.505   4.675   0.515
  102TIP3    H2  313   2.537   4.545   0.584
  103TIP3   OH2  314   3.302   2.780   4.459
  103TIP3    H1  315   3.254   2.817   4.385
  103TIP3    H2  316   3.382   2.833   4.464
  104TIP3   OH2  317   3.569   1.451   3.136
  104TIP3    H1  318   3.482   1.443   3.177
  104TIP3    H2  319   3.552   1.446   3.042
  105TIP3   OH2  320   0.695   4.518   1.698
  105TIP3    H1  321   0.693   4.537   1.791
  105TIP3    H2  322   0.779   4.474   1.685
  106TIP3   OH2  323   1.302   4.941   2.088
  106TIP3    H1  324   1.358   4.922   2.012
  106TIP3    H2  325   1.213   4.944   2.053
  107TIP3   OH2  326   4.560   3.884   0.735
  107TIP3    H1  327   4.520   3.921   0.814
  107TIP3    H2  328   4.632   3.944   0.714
  108TIP3   OH2  329   0.381   3.887   2.892
  108TIP3    H1  330   0.429   3.935   2.824
  108TIP3    H2  331   0.391   3.795   2.869
  109TIP3   OH2  332   2.386   5.540   4.868
  109TIP3    H1  333   2.417   5.624   4.836
  109TIP3    H2  334   2.338   5.562   4.948
  110TIP3   OH2  335   2.333   0.706   1.488
  110TIP3    H1  336   2.348   0.656   1.408
  110TIP3    H2  337   2.237   0.712   1.495
  111TIP3   OH2  338   2.451   3.239   1.273
  111TIP3    H1  339   2.511   3.267   1.204
  111TIP3    H2  340   2.366   3.232   1.229
  112TIP3   OH2  341   1.592   1.042   2.607
  112TIP3    H1  342   1.616   0.950   2.615
  112TIP3    H2  343   1.496   1.042   2.600
  113TIP3   OH2  344   6.382   2.444   1.069
  113TIP3    H1  345   6.387   2.481   0.980
  113TIP3    H2  346   6.289   2.447   1.090
  114TIP3   OH2  347   1.353   3.682   0.761
  114TIP3    H1  348   1.325   3.728   0.840
  114TIP3    H2  349   1.334   3.590   0.778
  115TIP3   OH2  350   5.221   1.608   2.983
  115TIP3    H1  351   5.232   1.528   3.034
  115TIP3    H2  352   5.237   1.581   2.893
  116TIP3   OH2  353   5.483   5.899   0.734
  116TIP3    H1  354   5.501   5.991   0.717
  116TIP3    H2  355   5.393   5.886   0.706
  117TIP3   OH2  356   2.361   5.153   1.061
  117TIP3    H1  357   2.346   5.180   0.970
  117TIP3    H2  358   2.375   5.059   1.057
  118TIP3   OH2  359   3.321   3.123   3.168
  118TIP3    H1  360   3.292   3.213   3.186
  118TIP3    H2  361   3.294   3.073   3.245
  119TIP3   OH2  362   4.146   5.044   2.401
  119TIP3    H1  363   4.128   4.986   2.475
  119TIP3    H2  364   4.219   5.004   2.356
  120TIP3   OH2  365   0.195   1.868   0.051
  120TIP3    H1  366   0.242   1.951   0.057
  120TIP3    H2  367   0.248   1.816  -0.010
  121TIP3   OH2  368   5.991   1.881   3.854
  121TIP3    H1  369   5.992   1.791   3.888
  121TIP3    H2  370   5.990   1.871   3.759
  122TIP3   OH2  371   0.954   0.625   3.165
  122TIP3    H1  372   1.047   0.645   3.154
  122TIP3    H2  373   0.950   0.573   3.245
  123TIP3   OH2  374   4.392   0.311   1.508
  123TIP3    H1  375   4.326   0.254   1.547
  123TIP3    H2  376   4.476   0.276   1.539
  124TIP3   OH2  377   1.655   4.402   0.745
  124TIP3    H1  378   1.711   4.372   0.673
  124TIP3    H2  379   1.584   4.338   0.749
  125TIP3   OH2  380   3.916   4.010   2.070
  125TIP3    H1  381   3.978   4.081   2.090
  125TIP3    H2  382   3.904   4.015   1.976
  126TIP3   OH2  383   0.806   1.435   0.776
  126TIP3    H1  384   0.872   1.431   0.845
  126TIP3    H2  385   0.767   1.523   0.786
  127TIP3   OH2  386   2.335   3.616   3.575
  127TIP3    H1  387   2.398   3.610   3.504
  127TIP3    H2  388   2.346   3.705   3.609
  128TIP3   OH2  389   1.782   1.221   4.725
  128TIP3    H1  390   1.706   1.185   4.680
  128TIP3    H2  391   1.853   1.213   4.661
  129TIP3   OH2  392   1.452   1.466   1.263
  129TIP3    H1  393   1.469   1.560   1.252
  129TIP3    H2  394   1.473   1.428   1.178
  130TIP3   OH2  395   0.602   4.494   4.490
  130TIP3    H1  396   0.633   4.550   4.561
  130TIP3    H2  397   0.512   4.521   4.475
  131TIP3   OH2  398   0.377   4.859   4.746
  131TIP3    H1  399   0.433   4.782   4.756
  131TIP3    H2  400   0.320   4.858   4.823
  132TIP3   OH2  401   1.998   3.892   0.147
  132TIP3    H1  402   2.033   3.808   0.117
  132TIP3    H2  403   1.915   3.869   0.189
  133TIP3   OH2  404   1.313   0.783   3.456
  133TIP3    H1  405   1.326   0.751   3.545
  133TIP3    H2  406   1.329   0.877   3.462
  134TIP3   OH2  407   4.455   5.000   1.811
  134TIP3    H1  408   4.485   4.918   1.851
  134TIP3    H2  409   4.532   5.056   1.808
  135TIP3   OH2  410   0.355   2.922   3.242
  135TIP3    H1  411   0.407   2.963   3.311
  135TIP3    H2  412   0.419   2.902   3.173
  136TIP3   OH2  413   5.883   2.174   2.169
  136TIP3    H1  414   5.791   2.201   2.174
  136TIP3    H2  415   5.928   2.231   2.231
  137TIP3   OH2  416   4.682   2.750   0.029
  137TIP3    H1  417   4.662   2.816   0.095
  137TIP3    H2  418   4.700   2.670   0.079
  138TIP3   OH2  419   3.924   5.153   0.695
  138TIP3    H1  420   3.873   5.102   0.633
  138TIP3    H2  421   3.976   5.088   0.743
  139TIP3   OH2  422   5.281   3.132   2.011
  139TIP3    H1  423   5.253   3.045   1.984
  139TIP3    H2  424   5.368   3.143   1.974
  140TIP3   OH2  425   6.131   5.689   2.479
  140TIP3    H1  426   6.059   5.732   2.433
  140TIP3    H2  427   6.210   5.718   2.434
  141TIP3   OH2  428   4.908   2.755   2.449
  141TIP3    H1  429   4.898   2.685   2.384
  141TIP3    H2  430   4.909   2.709   2.533
  142TIP3   OH2  431   5.920   4.794   0.407
  142TIP3    H1  432   5.887   4.720   0.355
  142TIP3    H2  433   5.893   4.774   0.497
  143TIP3   OH2  434   0.253   1.534   2.342
  143TIP3    H1  435   0.168   1.522   2.301
  143TIP3    H2  436   0.243   1.612   2.397
  144TIP3   OH2  437   3.949   6.009   5.186
  144TIP3    H1  438   3.913   5.931   5.144
  144TIP3    H2  439   3.968   6.069   5.114
  145TIP3   OH2  440   0.290   3.936   2.112
  145TIP3    H1  441   0.337   3.986   2.179
  145TIP3    H2  442   0.202   3.974   2.110
  146TIP3   OH2  443   3.126   4.534   4.495
  146TIP3    H1  444   3.090   4.622   4.485
  146TIP3    H2  445   3.093   4.503   4.579
  147TIP3   OH2  446   0.913   0.231   5.016
  147TIP3    H1  447   0.894   0.308   4.962
  147TIP3    H2  448   0.830   0.184   5.020
  148TIP3   OH2  449   5.787   4.791   2.437
  148TIP3    H1  450   5.707   4.823   2.479
  148TIP3    H2  451   5.822   4.727   2.498
  149TIP3   OH2  452   1.710   0.490   2.590
  149TIP3    H1  453   1.633   0.461   2.638
  149TIP3    H2  454   1.782   0.439   2.627
  150TIP3   OH2  455   1.147   5.387   2.345
  150TIP3    H1  456   1.105   5.453   2.290
  150TIP3    H2  457   1.100   5.391   2.428
  151TIP3   OH2  458   5.002   0.836   1.641
  151TIP3    H1  459   4.970   0.922   1.669
  151TIP3    H2  460   5.049   0.802   1.718
  152TIP3   OH2  461   2.309   0.179   3.239
  152TIP3    H1  462   2.263   0.186   3.323
  152TIP3    H2  463   2.250   0.127   3.185
  153TIP3   OH2  464   1.301   0.342   3.712
  153TIP3    H1  465   1.292   0.315   3.804
  153TIP3    H2  466   1.394   0.334   3.693
  154TIP3   OH2  467   5.849   2.346   4.538
  154TIP3    H1  468   5.771   2.399   4.552
  154TIP3    H2  469   5.890   2.383   4.460
  155TIP3   OH2  470   6.150   5.390   2.375
  155TIP3    H1  471   6.163   5.318   2.436
  155TIP3    H2  472   6.125   5.464   2.430
  156TIP3   OH2  473   3.558   4.780   0.088
  156TIP3    H1  474   3.480   4.834   0.075
  156TIP3    H2  475   3.552   4.751   0.179
  157TIP3   OH2  476   5.735   0.125   1.712
  157TIP3    H1  477   5.655   0.177   1.703
  157TIP3    H2  478   5.765   0.112   1.622
  158TIP3   OH2  479   3.444   4.697   4.186
  158TIP3    H1  480   3.418   4.789   4.199
  158TIP3    H2  481   3.424   4.654   4.268
  159TIP3   OH2  482   3.217   4.233   1.850
  159TIP3    H1  483   3.194   4.326   1.852
  159TIP3    H2  484   3.295   4.226   1.905
  160TIP3   OH2  485   1.103   2.808   2.293
  160TIP3    H1  486   1.087   2.864   2.218
  160TIP3    H2  487   1.181   2.758   2.270
  161TIP3   OH2  488   3.080   5.029   1.371
  161TIP3    H1  489   3.041   4.942   1.379
  161TIP3    H2  490   3.037   5.081   1.438
  162TIP3   OH2  491   6.196   4.985   0.045
  162TIP3    H1  492   6.128   4.936   0.093
  162TIP3    H2  493   6.277   4.938   0.063
  163TIP3   OH2  494   4.069   4.576   4.838
  163TIP3    H1  495   4.070   4.631   4.915
  163TIP3    H2  496   4.151   4.596   4.792
  164TIP3   OH2  497   0.413   3.225   0.072
  164TIP3    H1  498   0.346   3.164   0.039
  164TIP3    H2  499   0.493   3.200   0.025
  165TIP3   OH2  500   2.374   2.758   3.867
  165TIP3    H1  501   2.281   2.762   3.886
  165TIP3    H2  502   2.411   2.836   3.909
  166TIP3   OH2  503   1.517   2.809   4.049
  166TIP3    H1  504   1.571   2.786   4.124
  166TIP3    H2  505   1.435   2.761   4.062
  167TIP3   OH2  506   5.385   2.775   1.737
  167TIP3    H1  507   5.338   2.731   1.667
  167TIP3    H2  508   5.453   2.714   1.764
  168TIP3   OH2  509   3.608   0.906   4.798
  168TIP3    H1  510   3.696   0.939   4.780
  168TIP3    H2  511   3.553   0.984   4.800
  169TIP3   OH2  512   4.093   1.208   3.913
  169TIP3    H1  513   4.028   1.279   3.909
  169TIP3    H2  514   4.099   1.185   4.005
  170TIP3   OH2  515   3.842   0.738   4.280
  170TIP3    H1  516   3.828   0.651   4.242
  170TIP3    H2  517   3.765   0.754   4.334
  171TIP3   OH2  518   2.156   3.554   0.425
  171TIP3    H1  519   2.114   3.482   0.473
  171TIP3    H2  520   2.235   3.574   0.476
  172TIP3   OH2  521   3.911   2.058   0.062
  172TIP3    H1  522   3.962   2.128   0.104
  172TIP3    H2  523   3.938   2.061  -0.030
  173TIP3   OH2  524   3.279   3.585   3.885
  173TIP3    H1  525   3.343   3.585   3.814
  173TIP3    H2  526   3.288   3.499   3.926
  174TIP3   OH2  527   3.592   2.700   4.984
  174TIP3    H1  528   3.616   2.677   4.894
  174TIP3    H2  529   3.591   2.795   4.986
  175TIP3   OH2  530   2.975   2.546   1.658
  175TIP3    H1  531   3.031   2.471   1.682
  175TIP3    H2  532   2.892   2.506   1.634
  176TIP3   OH2  533   1.974   2.180   2.167
  176TIP3    H1  534   1.930   2.168   2.082
  176TIP3    H2  535   1.944   2.266   2.197
  177TIP3   OH2  536   5.056   2.915   3.772
  177TIP3    H1  537   5.113   2.840   3.756
  177TIP3    H2  538   5.088   2.953   3.853
  178TIP3   OH2  539   5.504   2.294   0.520
  178TIP3    H1  540   5.512   2.344   0.602
  178TIP3    H2  541   5.594   2.276   0.494
  179TIP3   OH2  542   5.151   1.557   4.741
  179TIP3    H1  543   5.056   1.547   4.748
  179TIP3    H2  544   5.166   1.650   4.758
  180TIP3   OH2  545   5.632   0.675   5.118
  180TIP3    H1  546   5.592   0.736   5.180
  180TIP3    H2  547   5.725   0.676   5.140
  181TIP3   OH2  548   1.994   0.761   2.318
  181TIP3    H1  549   2.071   0.776   2.262
  181TIP3    H2  550   2.029   0.759   2.407
  182TIP3   OH2  551   6.205   5.578   0.970
  182TIP3    H1  552   6.193   5.653   0.911
  182TIP3    H2  553   6.127   5.524   0.957
  183TIP3   OH2  554   2.524   5.771   1.177
  183TIP3    H1  555   2.607   5.724   1.183
  183TIP3    H2  556   2.476   5.745   1.256
  184TIP3   OH2  557   0.358   5.578   0.237
  184TIP3    H1  558   0.374   5.546   0.148
  184TIP3    H2  559   0.288   5.642   0.227
  185TIP3   OH2  560   3.713   4.311   3.602
  185TIP3    H1  561   3.776   4.371   3.563
  185TIP3    H2  562   3.747   4.223   3.581
  186TIP3   OH2  563   4.301   5.520   3.382
  186TIP3    H1  564   4.378   5.543   3.329
  186TIP3    H2  565   4.238   5.488   3.317
  187TIP3   OH2  566   1.462   1.449   4.694
  187TIP3    H1  567   1.395   1.406   4.640
  187TIP3    H2  568   1.475   1.388   4.767
  188TIP3   OH2  569   0.773   0.093   3.041
  188TIP3    H1  570   0.744   0.163   3.099
  188TIP3    H2  571   0.744   0.120   2.954
  189TIP3   OH2  572   5.238   1.031   0.730
  189TIP3    H1  573   5.214   0.977   0.806
  189TIP3    H2  574   5.195   0.988   0.656
  190TIP3   OH2  575   2.341   4.737   0.532
  190TIP3    H1  576   2.294   4.745   0.615
  190TIP3    H2  577   2.282   4.686   0.476
  191TIP3   OH2  578   2.698   5.166   2.761
  191TIP3    H1  579   2.603   5.164   2.760
  191TIP3    H2  580   2.723   5.190   2.672
  192TIP3   OH2  581   5.640   5.181   5.021
  192TIP3    H1  582   5.607   5.096   4.994
  192TIP3    H2  583   5.584   5.206   5.095
  193TIP3   OH2  584   5.846   2.879   4.607
  193TIP3    H1  585   5.901   2.881   4.685
  193TIP3    H2  586   5.791   2.957   4.614
  194TIP3   OH2  587   6.211   0.593   0.074
  194TIP3    H1  588   6.271   0.560   0.007
  194TIP3    H2  589   6.126   0.595   0.031
  195TIP3   OH2  590   6.298   4.783   4.668
  195TIP3    H1  591   6.234   4.802   4.736
  195TIP3    H2  592   6.314   4.689   4.675
  196TIP3   OH2  593   4.782   0.741   1.123
  196TIP3    H1  594   4.834   0.742   1.204
  196TIP3    H2  595   4.716   0.808   1.136
  197TIP3   OH2  596   3.906   1.654   3.718
  197TIP3    H1  597   3.998   1.680   3.717
  197TIP3    H2  598   3.894   1.612   3.803
  198TIP3   OH2  599   0.520   4.926   4.317
  198TIP3    H1  600   0.491   4.937   4.226
  198TIP3    H2  601   0.444   4.946   4.370
  199TIP3   OH2  602   6.248   5.860   5.124
  199TIP3    H1  603   6.214   5.772   5.106
  199TIP3    H2  604   6.335   5.844   5.161
  200TIP3   OH2  605   1.185   3.732   4.856
  200TIP3    H1  606   1.242   3.737   4.779
  200TIP3    H2  607   1.220   3.658   4.906
  201TIP3   OH2  608   0.538   2.121   4.932
  201TIP3    H1  609   0.606   2.062   4.899
  201TIP3    H2  610   0.502   2.075   5.008
  202TIP3   OH2  611   1.517   4.994   1.844
  202TIP3    H1  612   1.444   4.969   1.786
  202TIP3    H2  613   1.596   4.976   1.793
  203TIP3   OH2  614   3.070   3.780   1.911
  203TIP3    H1  615   2.982   3.744   1.921
  203TIP3    H2  616   3.055   3.869   1.879
  204TIP3   OH2  617   2.556   1.836   4.387
  204TIP3    H1  618   2.630   1.777   4.403
  204TIP3    H2  619   2.596   1.917   4.356
  205TIP3   OH2  620   1.799   1.664   4.103
  205TIP3    H1  621   1.789   1.606   4.179
  205TIP3    H2  622   1.864   1.729   4.131
  206TIP3   OH2  623   2.327   5.708   2.940
  206TIP3    H1  624   2.339   5.727   3.033
  206TIP3    H2  625   2.233   5.695   2.931
  207TIP3   OH2  626   2.509   1.701   0.647
  207TIP3    H1  627   2.416   1.691   0.667
  207TIP3    H2  628   2.526   1.794   0.654
  208TIP3   OH2  629   3.896   1.453   0.486
  208TIP3    H1  630   3.816   1.504   0.501
  208TIP3    H2  631   3.865   1.370   0.449
  209TIP3   OH2  632   0.565   5.949   1.743
  209TIP3    H1  633   0.476   5.943   1.709
  209TIP3    H2  634   0.601   5.861   1.730
  210TIP3   OH2  635   3.160   5.897   1.092
  210TIP3    H1  636   3.120   5.912   1.006
  210TIP3    H2  637   3.183   5.804   1.092
  211TIP3   OH2  638   0.527   3.103   5.168
  211TIP3    H1  639   0.524   3.044   5.243
  211TIP3    H2  640   0.590   3.063   5.108
  212TIP3   OH2  641   5.022   4.915   2.845
  212TIP3    H1  642   5.053   4.919   2.755
  212TIP3    H2  643   5.067   4.839   2.882
  213TIP3   OH2  644   1.575   2.360   4.010
  213TIP3    H1  645   1.572   2.265   4.004
  213TIP3    H2  646   1.576   2.379   4.104
  214TIP3   OH2  647   5.318   0.119   2.006
  214TIP3    H1  648   5.392   0.105   2.064
  214TIP3    H2  649   5.273   0.196   2.041
  215TIP3   OH2  650   2.240   2.276   0.505
  215TIP3    H1  651   2.157   2.244   0.542
  215TIP3    H2  652   2.213   2.330   0.431
  216TIP3   OH2  653   4.670   5.801   4.435
  216TIP3    H1  654   4.758   5.779   4.404
  216TIP3    H2  655   4.682   5.879   4.489
  217TIP3   OH2  656   5.098   4.125   2.708
  217TIP3    H1  657   5.047   4.195   2.749
  217TIP3    H2  658   5.152   4.170   2.643
  218TIP3   OH2  659   3.987   2.531   4.906
  218TIP3    H1  660   3.965   2.579   4.827
  218TIP3    H2  661   4.077   2.556   4.925
  219TIP3   OH2  662   2.847   0.119   2.365
  219TIP3    H1  663   2.905   0.133   2.290
  219TIP3    H2  664   2.889   0.165   2.437
  220TIP3   OH2  665   0.264   3.259   4.321
  220TIP3    H1  666   0.254   3.312   4.242
  220TIP3    H2  667   0.177   3.258   4.361
  221TIP3   OH2  668   0.173   3.257   3.824
  221TIP3    H1  669   0.191   3.223   3.736
  221TIP3    H2  670   0.110   3.195   3.861
  222TIP3   OH2  671   0.039   3.044   3.957
  222TIP3    H1  672  -0.012   2.963   3.966
  222TIP3    H2  673  -0.019   3.105   3.913
  223TIP3   OH2  674   6.270   0.410   2.505
  223TIP3    H1  675   6.319   0.449   2.433
  223TIP3    H2  676   6.241   0.485   2.557
  224TIP3   OH2  677   4.658   1.788   2.004
  224TIP3    H1  678   4.604   1.726   2.053
  224TIP3    H2  679   4.725   1.816   2.067
  225TIP3   OH2  680   5.591   4.147   3.834
  225TIP3    H1  681   5.565   4.072   3.780
  225TIP3    H2  682   5.542   4.136   3.915
  226TIP3   OH2  683   2.244   2.295   3.469
  226TIP3    H1  684   2.318   2.247   3.432
  226TIP3    H2  685   2.182   2.303   3.396
  227TIP3   OH2  686   1.870   1.357   1.529
  227TIP3    H1  687   1.891   1.320   1.444
  227TIP3    H2  688   1.778   1.384   1.522
  228TIP3   OH2  689   0.561   1.153   4.308
  228TIP3    H1  690   0.475   1.111   4.311
  228TIP3    H2  691   0.624   1.081   4.310
  229TIP3   OH2  692   1.490   1.132   1.850
  229TIP3    H1  693   1.571   1.144   1.801
  229TIP3    H2  694   1.452   1.052   1.813
  230TIP3   OH2  695   2.824   4.691   3.431
  230TIP3    H1  696   2.744   4.674   3.383
  230TIP3    H2  697   2.857   4.774   3.396
  231TIP3   OH2  698   4.480   4.241   2.529
  231TIP3    H1  699   4.570   4.257   2.556
  231TIP3    H2  700   4.431   4.318   2.560
  232TIP3   OH2  701   0.650   3.451   2.474
  232TIP3    H1  702   0.735   3.422   2.443
  232TIP3    H2  703   0.666   3.540   2.506
  233TIP3   OH2  704   4.822   1.974   2.451
  233TIP3    H1  705   4.818   2.059   2.406
  233TIP3    H2  706   4.801   1.910   2.383
  234TIP3   OH2  707   3.408   4.549   4.481
  234TIP3    H1  708   3.450   4.468   4.509
  234TIP3    H2  709   3.316   4.525   4.470
  235TIP3   OH2  710   1.921   2.469   4.612
  235TIP3    H1  711   1.927   2.549   4.663
  235TIP3    H2  712   1.906   2.400   4.677
  236TIP3   OH2  713   1.319   3.802   4.173
  236TIP3    H1  714   1.346   3.735   4.236
  236TIP3    H2  715   1.388   3.802   4.107
  237TIP3   OH2  716   2.881   5.223   4.885
  237TIP3    H1  717   2.914   5.297   4.936
  237TIP3    H2  718   2.845   5.263   4.806
  238TIP3   OH2  719   0.331   3.555   2.880
  238TIP3    H1  720   0.268   3.536   2.810
  238TIP3    H2  721   0.414   3.522   2.846
  239TIP3   OH2  722   6.082   5.141   2.524
  239TIP3    H1  723   6.045   5.226   2.547
  239TIP3    H2  724   6.008   5.081   2.522
  240TIP3   OH2  725   2.004   5.476   1.570
  240TIP3    H1  726   1.936   5.470   1.637
  240TIP3    H2  727   2.076   5.522   1.614
  241TIP3   OH2  728   4.943   1.409   0.966
  241TIP3    H1  729   4.959   1.388   0.874
  241TIP3    H2  730   4.969   1.330   1.013
  242TIP3   OH2  731   5.215   5.005   2.603
  242TIP3    H1  732   5.191   4.957   2.524
  242TIP3    H2  733   5.264   5.081   2.571
  243TIP3   OH2  734   2.461   0.548   4.336
  243TIP3    H1  735   2.499   0.624   4.379
  243TIP3    H2  736   2.412   0.583   4.262
  244TIP3   OH2  737   0.026   3.450   4.930
  244TIP3    H1  738   0.045   3.358   4.910
  244TIP3    H2  739  -0.008   3.485   4.847
  245TIP3   OH2  740   2.543   2.542   4.969
  245TIP3    H1  741   2.485   2.496   4.908
  245TIP3    H2  742   2.489   2.612   5.004
  246TIP3   OH2  743   6.061   5.823   1.108
  246TIP3    H1  744   6.004   5.755   1.144
  246TIP3    H2  745   6.016   5.851   1.028
  247TIP3   OH2  746   1.907   1.339   4.964
  247TIP3    H1  747   1.927   1.269   4.902
  247TIP3    H2  748   1.811   1.344   4.965
  248TIP3   OH2  749   2.235   6.007   0.238
  248TIP3    H1  750   2.217   5.919   0.205
  248TIP3    H2  751   2.171   6.020   0.309
  249TIP3   OH2  752   4.826   1.680   0.970
  249TIP3    H1  753   4.879   1.717   0.899
  249TIP3    H2  754   4.862   1.593   0.983
  250TIP3   OH2  755   1.195   4.847   1.357
  250TIP3    H1  756   1.251   4.837   1.280
  250TIP3    H2  757   1.125   4.906   1.330
  251TIP3   OH2  758   3.141   2.745   1.133
  251TIP3    H1  759   3.167   2.688   1.205
  251TIP3    H2  760   3.214   2.807   1.124
  252TIP3   OH2  761   3.240   5.658   2.838
  252TIP3    H1  762   3.227   5.622   2.750
  252TIP3    H2  763   3.176   5.729   2.845
  253TIP3   OH2  764   2.348   2.225   1.230
  253TIP3    H1  765   2.389   2.223   1.316
  253TIP3    H2  766   2.265   2.270   1.244
  254TIP3   OH2  767   5.317   1.472   1.927
  254TIP3    H1  768   5.280   1.426   2.002
  254TIP3    H2  769   5.408   1.441   1.923
  255TIP3   OH2  770   1.243   2.937   3.603
  255TIP3    H1  771   1.295   3.015   3.620
  255TIP3    H2  772   1.304   2.864   3.614
  256TIP3   OH2  773   3.135   0.173   2.857
  256TIP3    H1  774   3.088   0.188   2.776
  256TIP3    H2  775   3.213   0.229   2.851
  257TIP3   OH2  776   1.099   3.908   3.613
  257TIP3    H1  777   1.187   3.904   3.576
  257TIP3    H2  778   1.113   3.913   3.708
  258TIP3   OH2  779   2.409   1.582   4.912
  258TIP3    H1  780   2.388   1.530   4.834
  258TIP3    H2  781   2.372   1.668   4.893
  259TIP3   OH2  782   4.476   4.287   1.803
  259TIP3    H1  783   4.427   4.206   1.813
  259TIP3    H2  784   4.450   4.340   1.878
  260TIP3   OH2  785   5.295   0.590   2.120
  260TIP3    H1  786   5.261   0.507   2.088
  260TIP3    H2  787   5.279   0.588   2.214
  261TIP3   OH2  788   4.184   1.702   1.441
  261TIP3    H1  789   4.260   1.674   1.389
  261TIP3    H2  790   4.110   1.658   1.399
  262TIP3   OH2  791   1.276   4.929   1.661
  262TIP3    H1  792   1.291   4.873   1.585
  262TIP3    H2  793   1.237   5.009   1.625
  263TIP3   OH2  794   2.806   1.612   3.425
  263TIP3    H1  795   2.793   1.653   3.511
  263TIP3    H2  796   2.811   1.686   3.364
  264TIP3   OH2  797   1.824   0.159   2.123
  264TIP3    H1  798   1.917   0.148   2.144
  264TIP3    H2  799   1.800   0.242   2.162
  265TIP3   OH2  800   1.542   5.984   0.149
  265TIP3    H1  801   1.578   5.900   0.120
  265TIP3    H2  802   1.549   5.982   0.244
  266TIP3   OH2  803   0.337   1.624   3.167
  266TIP3    H1  804   0.308   1.714   3.153
  266TIP3    H2  805   0.329   1.582   3.081
  267TIP3   OH2  806   0.512  -0.045   0.176
  267TIP3    H1  807   0.428  -0.069   0.138
  267TIP3    H2  808   0.512   0.051   0.177
  268TIP3   OH2  809   3.386   3.322   3.993
  268TIP3    H1  810   3.418   3.363   4.073
  268TIP3    H2  811   3.462   3.320   3.935
  269TIP3   OH2  812   1.437   4.730   3.724
  269TIP3    H1  813   1.393   4.811   3.748
  269TIP3    H2  814   1.451   4.685   3.808
  270TIP3   OH2  815   0.082   0.473   2.288
  270TIP3    H1  816   0.121   0.408   2.346
  270TIP3    H2  817   0.148   0.542   2.282
  271TIP3   OH2  818   2.593   5.617   3.867
  271TIP3    H1  819   2.562   5.707   3.859
  271TIP3    H2  820   2.667   5.623   3.928
  272TIP3   OH2  821   4.259   3.712   2.782
  272TIP3    H1  822   4.306   3.689   2.702
  272TIP3    H2  823   4.167   3.695   2.762
  273TIP3   OH2  824   5.993   4.488   1.814
  273TIP3    H1  825   5.930   4.459   1.880
  273TIP3    H2  826   6.046   4.555   1.858
  274TIP3   OH2  827   4.735   5.267   0.338
  274TIP3    H1  828   4.722   5.257   0.433
  274TIP3    H2  829   4.652   5.301   0.306
  275TIP3   OH2  830   2.837   0.812   1.832
  275TIP3    H1  831   2.828   0.804   1.927
  275TIP3    H2  832   2.795   0.733   1.797
  276TIP3   OH2  833   3.092   1.266   3.096
  276TIP3    H1  834   3.155   1.262   3.024
  276TIP3    H2  835   3.087   1.359   3.118
  277TIP3   OH2  836   5.837   5.564   1.484
  277TIP3    H1  837   5.892   5.505   1.432
  277TIP3    H2  838   5.748   5.531   1.472
  278TIP3   OH2  839   5.031   3.152   1.293
  278TIP3    H1  840   5.059   3.101   1.369
  278TIP3    H2  841   5.082   3.116   1.220
  279TIP3   OH2  842   6.046   5.421   1.373
  279TIP3    H1  843   6.055   5.327   1.387
  279TIP3    H2  844   6.135   5.452   1.354
  280TIP3   OH2  845   5.292   2.190   4.547
  280TIP3    H1  846   5.250   2.109   4.519
  280TIP3    H2  847   5.358   2.208   4.480
  281TIP3   OH2  848   1.902   5.078   4.552
  281TIP3    H1  849   1.880   5.109   4.465
  281TIP3    H2  850   1.895   5.155   4.608
  282TIP3   OH2  851   1.512   3.459   1.084
  282TIP3    H1  852   1.585   3.514   1.054
  282TIP3    H2  853   1.453   3.520   1.128
  283TIP3   OH2  854   4.381   0.295   2.917
  283TIP3    H1  855   4.342   0.316   2.832
  283TIP3    H2  856   4.408   0.203   2.909
  284TIP3   OH2  857   3.405   4.401   0.179
  284TIP3    H1  858   3.338   4.342   0.146
  284TIP3    H2  859   3.356   4.474   0.217
  285TIP3   OH2  860   6.003   2.820   0.216
  285TIP3    H1  861   5.909   2.802   0.217
  285TIP3    H2  862   6.042   2.739   0.182
  286TIP3   OH2  863   4.982   0.508   2.842
  286TIP3    H1  864   5.023   0.461   2.915
  286TIP3    H2  865   4.890   0.482   2.845
  287TIP3   OH2  866   1.732   4.715   0.353
  287TIP3    H1  867   1.793   4.721   0.426
  287TIP3    H2  868   1.657   4.769   0.380
  288TIP3   OH2  869   5.624   4.720   2.062
  288TIP3    H1  870   5.713   4.755   2.055
  288TIP3    H2  871   5.627   4.663   2.139
  289TIP3   OH2  872   6.086   4.033   2.585
  289TIP3    H1  873   6.117   4.011   2.497
  289TIP3    H2  874   6.035   3.956   2.613
  290TIP3   OH2  875   4.548   1.520   3.519
  290TIP3    H1  876   4.526   1.578   3.591
  290TIP3    H2  877   4.514   1.564   3.441
  291TIP3   OH2  878   0.492   2.855   2.778
  291TIP3    H1  879   0.563   2.833   2.838
  291TIP3    H2  880   0.524   2.930   2.729
  292TIP3   OH2  881   1.881   0.631   3.084
  292TIP3    H1  882   1.830   0.695   3.035
  292TIP3    H2  883   1.824   0.603   3.155
  293TIP3   OH2  884   3.351   1.887   0.523
  293TIP3    H1  885   3.350   1.835   0.603
  293TIP3    H2  886   3.416   1.844   0.467
  294TIP3   OH2  887   6.313   5.573   2.137
  294TIP3    H1  888   6.263   5.624   2.074
  294TIP3    H2  889   6.392   5.625   2.153
  295TIP3   OH2  890   5.690   0.814   3.016
  295TIP3    H1  891   5.738   0.751   3.070
  295TIP3    H2  892   5.719   0.900   3.048
  296TIP3   OH2  893   4.592   4.287   0.230
  296TIP3    H1  894   4.625   4.376   0.230
  296TIP3    H2  895   4.606   4.256   0.319
  297TIP3   OH2  896   4.430   5.555   1.310
  297TIP3    H1  897   4.364   5.624   1.304
  297TIP3    H2  898   4.499   5.592   1.365
  298TIP3   OH2  899   2.930   5.524   2.974
  298TIP3    H1  900   3.024   5.510   2.959
  298TIP3    H2  901   2.888   5.484   2.898
  299TIP3   OH2  902   0.835   1.628   1.809
  299TIP3    H1  903   0.826   1.549   1.862
  299TIP3    H2  904   0.888   1.601   1.734
  300TIP3   OH2  905   4.060   2.715   0.931
  300TIP3    H1  906   4.057   2.686   0.839
  300TIP3    H2  907   4.153   2.717   0.952
  301TIP3   OH2  908   0.182   4.285   3.076
  301TIP3    H1  909   0.123   4.350   3.039
  301TIP3    H2  910   0.174   4.209   3.019
  302TIP3   OH2  911   1.748   4.358   3.937
  302TIP3    H1  912   1.742   4.339   4.031
  302TIP3    H2  913   1.682   4.426   3.922
  303TIP3   OH2  914   6.055   1.595   3.982
  303TIP3    H1  915   6.124   1.658   3.959
  303TIP3    H2  916   6.101   1.523   4.024
  304TIP3   OH2  917   1.565   3.455   1.937
  304TIP3    H1  918   1.656   3.485   1.943
  304TIP3    H2  919   1.537   3.448   2.028
  305TIP3   OH2  920   0.965   0.976   0.201
  305TIP3    H1  921   1.036   1.023   0.243
  305TIP3    H2  922   0.888   1.031   0.214
  306TIP3   OH2  923   0.685   2.788   3.313
  306TIP3    H1  924   0.634   2.761   3.389
  306TIP3    H2  925   0.730   2.868   3.341
  307TIP3   OH2  926   5.550   0.427   2.175
  307TIP3    H1  927   5.505   0.497   2.130
  307TIP3    H2  928   5.481   0.375   2.215
  308TIP3   OH2  929   0.291   5.889   1.655
  308TIP3    H1  930   0.278   5.914   1.564
  308TIP3    H2  931   0.241   5.807   1.665
  309TIP3   OH2  932   2.060   5.633   2.874
  309TIP3    H1  933   1.970   5.639   2.843
  309TIP3    H2  934   2.054   5.586   2.957
  310TIP3   OH2  935   5.903   3.543   3.413
  310TIP3    H1  936   5.997   3.554   3.400
  310TIP3    H2  937   5.876   3.622   3.460
  311TIP3   OH2  938   0.366   5.643   4.123
  311TIP3    H1  939   0.381   5.735   4.144
  311TIP3    H2  940   0.451   5.601   4.137
  312TIP3   OH2  941   1.636   0.222   0.703
  312TIP3    H1  942   1.602   0.311   0.700
  312TIP3    H2  943   1.726   0.230   0.671
  313TIP3   OH2  944   3.294   4.878   1.492
  313TIP3    H1  945   3.211   4.834   1.511
  313TIP3    H2  946   3.269   4.969   1.475
  314TIP3   OH2  947   4.135   4.384   1.414
  314TIP3    H1  948   4.095   4.373   1.328
  314TIP3    H2  949   4.214   4.330   1.412
  315TIP3   OH2  950   5.129   3.548   1.281
  315TIP3    H1  951   5.119   3.488   1.208
  315TIP3    H2  952   5.065   3.519   1.346
  316TIP3   OH2  953   4.789   3.238   3.059
  316TIP3    H1  954   4.732   3.314   3.069
  316TIP3    H2  955   4.837   3.232   3.141
  317TIP3   OH2  956   2.237   5.654   0.954
  317TIP3    H1  957   2.296   5.682   0.884
  317TIP3    H2  958   2.157   5.704   0.939
  318TIP3   OH2  959   4.585   0.094   2.490
  318TIP3    H1  960   4.559   0.124   2.403
  318TIP3    H2  961   4.630   0.011   2.473
  319TIP3   OH2  962   3.491   2.767   0.722
  319TIP3    H1  963   3.434   2.795   0.650
  319TIP3    H2  964   3.436   2.708   0.773
  320TIP3   OH2  965   0.776   2.885   2.646
  320TIP3    H1  966   0.765   2.875   2.552
  320TIP3    H2  967   0.869   2.865   2.661
  321TIP3   OH2  968   4.684   3.534   3.033
  321TIP3    H1  969   4.713   3.598   2.969
  321TIP3    H2  970   4.617   3.483   2.987
  322TIP3   OH2  971   4.435   4.183   0.926
  322TIP3    H1  972   4.443   4.191   1.021
  322TIP3    H2  973   4.517   4.143   0.898
  323TIP3   OH2  974   5.472   3.933   2.949
  323TIP3    H1  975   5.484   3.859   3.008
  323TIP3    H2  976   5.400   3.907   2.891
  324TIP3   OH2  977   5.346   2.913   2.728
  324TIP3    H1  978   5.434   2.943   2.708
  324TIP3    H2  979   5.289   2.983   2.697
  325TIP3   OH2  980   5.043   4.968   1.427
  325TIP3    H1  981   5.078   5.057   1.430
  325TIP3    H2  982   5.109   4.918   1.379
  326TIP3   OH2  983   2.166   5.799   3.389
  326TIP3    H1  984   2.159   5.831   3.479
  326TIP3    H2  985   2.093   5.738   3.379
  327TIP3   OH2  986   4.536   4.657   0.190
  327TIP3    H1  987   4.460   4.712   0.213
  327TIP3    H2  988   4.604   4.720   0.167
  328TIP3   OH2  989   0.994   2.739   3.819
  328TIP3    H1  990   0.951   2.679   3.881
  328TIP3    H2  991   0.981   2.826   3.857
  329TIP3   OH2  992   3.148   3.776   0.640
  329TIP3    H1  993   3.151   3.866   0.672
  329TIP3    H2  994   3.239   3.757   0.616
  330TIP3   OH2  995   1.172   5.165   1.027
  330TIP3    H1  996   1.128   5.180   1.110
  330TIP3    H2  997   1.260   5.135   1.051
  331TIP3   OH2  998   3.948   1.015   2.026
  331TIP3    H1  999   3.913   1.102   2.006
  331TIP3    H2 1000   3.870   0.960   2.037
  332TIP3   OH2 1001   2.988  -0.052   2.967
  332TIP3    H1 1002   3.056  -0.015   2.911
  332TIP3    H2 1003   2.971   0.015   3.032
  333TIP3   OH2 1004   2.222   5.591   1.660
  333TIP3    H1 1005   2.228   5.681   1.692
  333TIP3    H2 1006   2.258   5.538   1.731
  334TIP3   OH2 1007   5.427   2.888   0.424
  334TIP3    H1 1008   5.414   2.915   0.514
  334TIP3    H2 1009   5.339   2.889   0.386
  335TIP3   OH2 1010   3.716   2.941   1.422
  335TIP3    H1 1011   3.802   2.898   1.422
  335TIP3    H2 1012   3.661   2.884   1.369
  336TIP3   OH2 1013   2.492   5.557   0.741
  336TIP3    H1 1014   2.527   5.491   0.801
  336TIP3    H2 1015   2.534   5.639   0.769
  337TIP3   OH2 1016   4.775   3.491   3.467
  337TIP3    H1 1017   4.815   3.492   3.380
  337TIP3    H2 1018   4.751   3.399   3.481
  338TIP3   OH2 1019   6.225   1.771   1.382
  338TIP3    H1 1020   6.314   1.788   1.351
  338TIP3    H2 1021   6.170   1.832   1.333
  339TIP3   OH2 1022   1.560   5.812   1.127
  339TIP3    H1 1023   1.546   5.824   1.221
  339TIP3    H2 1024   1.655   5.802   1.118
  340TIP3   OH2 1025   3.174   1.242   3.635
  340TIP3    H1 1026   3.154   1.261   3.544
  340TIP3    H2 1027   3.256   1.194   3.633
  341TIP3   OH2 1028   4.018   3.070   2.667
  341TIP3    H1 1029   3.980   3.036   2.748
  341TIP3    H2 1030   4.099   3.112   2.694
  342TIP3   OH2 1031   0.852   1.469   2.033
  342TIP3    H1 1032   0.788   1.450   2.102
  342TIP3    H2 1033   0.936   1.444   2.072
  343TIP3   OH2 1034   0.071   0.210   4.318
  343TIP3    H1 1035   0.040   0.286   4.366
  343TIP3    H2 1036   0.008   0.141   4.340
  344TIP3   OH2 1037   0.538   5.351   5.152
  344TIP3    H1 1038   0.580   5.265   5.152
  344TIP3    H2 1039   0.470   5.344   5.086
  345TIP3   OH2 1040   0.747   1.467   1.115
  345TIP3    H1 1041   0.665   1.443   1.158
  345TIP3    H2 1042   0.808   1.483   1.187
  346TIP3   OH2 1043   6.273   0.464   0.305
  346TIP3    H1 1044   6.237   0.531   0.363
  346TIP3    H2 1045   6.255   0.497   0.217
  347TIP3   OH2 1046   2.636   4.772   3.111
  347TIP3    H1 1047   2.704   4.839   3.096
  347TIP3    H2 1048   2.680   4.705   3.163
  348TIP3   OH2 1049   1.377   0.051   2.183
  348TIP3    H1 1050   1.357   0.144   2.193
  348TIP3    H2 1051   1.460   0.049   2.136
  349TIP3   OH2 1052   5.578   5.905   3.905
  349TIP3    H1 1053   5.665   5.944   3.917
  349TIP3    H2 1054   5.559   5.862   3.988
  350TIP3   OH2 1055   5.680   1.752   0.886
  350TIP3    H1 1056   5.668   1.753   0.791
  350TIP3    H2 1057   5.698   1.660   0.906
  351TIP3   OH2 1058   4.501   0.996   3.038
  351TIP3    H1 1059   4.405   0.999   3.044
  351TIP3    H2 1060   4.524   0.908   3.067
  352TIP3   OH2 1061   1.287   2.364   2.924
  352TIP3    H1 1062   1.212   2.404   2.881
  352TIP3    H2 1063   1.250   2.302   2.986
  353TIP3   OH2 1064   3.436   2.526   1.373
  353TIP3    H1 1065   3.399   2.466   1.309
  353TIP3    H2 1066   3.518   2.484   1.401
  354TIP3   OH2 1067   3.610   5.980   4.892
  354TIP3    H1 1068   3.681   6.044   4.903
  354TIP3    H2 1069   3.601   5.939   4.978
  355TIP3   OH2 1070   3.006   3.620   1.655
  355TIP3    H1 1071   2.940   3.683   1.627
  355TIP3    H2 1072   3.050   3.663   1.729
  356TIP3   OH2 1073   4.484   3.140   4.563
  356TIP3    H1 1074   4.455   3.227   4.537
  356TIP3    H2 1075   4.579   3.141   4.552
  357TIP3   OH2 1076   2.669   5.372   4.313
  357TIP3    H1 1077   2.625   5.301   4.360
  357TIP3    H2 1078   2.641   5.452   4.357
  358TIP3   OH2 1079   1.411   5.861   4.357
  358TIP3    H1 1080   1.423   5.804   4.281
  358TIP3    H2 1081   1.385   5.802   4.428
  359TIP3   OH2 1082   1.484   0.043   4.431
  359TIP3    H1 1083   1.467  -0.040   4.477
  359TIP3    H2 1084   1.561   0.024   4.377
  360TIP3   OH2 1085   0.740   2.635   4.817
  360TIP3    H1 1086   0.712   2.546   4.841
  360TIP3    H2 1087   0.806   2.657   4.883
  361TIP3   OH2 1088   3.907   3.080   3.935
  361TIP3    H1 1089   3.816   3.102   3.913
  361TIP3    H2 1090   3.953   3.084   3.852
  362TIP3   OH2 1091   2.978   4.890   1.080
  362TIP3    H1 1092   2.890   4.854   1.070
  362TIP3    H2 1093   3.035   4.813   1.087
  363TIP3   OH2 1094   4.466   4.909   3.169
  363TIP3    H1 1095   4.449   4.979   3.231
  363TIP3    H2 1096   4.556   4.923   3.140
  364TIP3   OH2 1097   1.071   4.060   2.493
  364TIP3    H1 1098   1.009   4.132   2.487
  364TIP3    H2 1099   1.151   4.094   2.452
  365TIP3   OH2 1100   2.840   2.948   0.113
  365TIP3    H1 1101   2.800   2.991   0.189
  365TIP3    H2 1102   2.830   2.855   0.131
  366TIP3   OH2 1103   3.969   3.568   1.336
  366TIP3    H1 1104   3.884   3.605   1.358
  366TIP3    H2 1105   4.025   3.643   1.319
  367TIP3   OH2 1106   2.832   3.880   4.787
  367TIP3    H1 1107   2.771   3.807   4.793
  367TIP3    H2 1108   2.913   3.841   4.755
  368TIP3   OH2 1109   3.330   3.626   2.306
  368TIP3    H1 1110   3.320   3.675   2.387
  368TIP3    H2 1111   3.382   3.684   2.249
  369TIP3   OH2 1112   2.557   3.606   0.285
  369TIP3    H1 1113   2.632   3.570   0.239
  369TIP3    H2 1114   2.489   3.614   0.218
  370TIP3   OH2 1115   3.379   2.121   1.347
  370TIP3    H1 1116   3.319   2.172   1.400
  370TIP3    H2 1117   3.466   2.148   1.376
  371TIP3   OH2 1118   3.492   5.548   4.110
  371TIP3    H1 1119   3.527   5.465   4.077
  371TIP3    H2 1120   3.569   5.602   4.126
  372TIP3   OH2 1121   4.217   3.332   0.743
  372TIP3    H1 1122   4.279   3.269   0.707
  372TIP3    H2 1123   4.133   3.308   0.705
  373TIP3   OH2 1124   1.037   5.451   2.787
  373TIP3    H1 1125   1.085   5.498   2.855
  373TIP3    H2 1126   0.947   5.450   2.818
  374TIP3   OH2 1127   4.278   3.698   0.241
  374TIP3    H1 1128   4.327   3.671   0.164
  374TIP3    H2 1129   4.194   3.729   0.207
  375TIP3   OH2 1130   3.751   2.751   4.513
  375TIP3    H1 1131   3.676   2.770   4.457
  375TIP3    H2 1132   3.825   2.793   4.470
  376TIP3   OH2 1133   6.240   1.821   2.256
  376TIP3    H1 1134   6.145   1.823   2.245
  376TIP3    H2 1135   6.271   1.894   2.203
  377TIP3   OH2 1136   3.902   4.262   4.039
  377TIP3    H1 1137   3.811   4.291   4.046
  377TIP3    H2 1138   3.927   4.242   4.129
  378TIP3   OH2 1139   3.657   0.381   1.465
  378TIP3    H1 1140   3.727   0.337   1.514
  378TIP3    H2 1141   3.584   0.319   1.467
  379TIP3   OH2 1142   4.023   4.393   1.176
  379TIP3    H1 1143   4.071   4.476   1.173
  379TIP3    H2 1144   3.931   4.417   1.165
  380TIP3   OH2 1145   5.490   3.982   3.363
  380TIP3    H1 1146   5.498   4.045   3.434
  380TIP3    H2 1147   5.458   4.034   3.289
  381TIP3   OH2 1148   4.439   3.951   2.103
  381TIP3    H1 1149   4.345   3.938   2.114
  381TIP3    H2 1150   4.455   4.040   2.135
  382TIP3   OH2 1151   2.567   1.833   3.058
  382TIP3    H1 1152   2.572   1.883   3.139
  382TIP3    H2 1153   2.612   1.750   3.078
  383TIP3   OH2 1154   0.602   5.678   1.351
  383TIP3    H1 1155   0.537   5.702   1.285
  383TIP3    H2 1156   0.578   5.589   1.377
  384TIP3   OH2 1157   3.074   2.314   3.166
  384TIP3    H1 1158   3.167   2.328   3.185
  384TIP3    H2 1159   3.069   2.321   3.070
  385TIP3   OH2 1160   1.064   1.431   3.523
  385TIP3    H1 1161   1.092   1.353   3.570
  385TIP3    H2 1162   1.045   1.400   3.434
  386TIP3   OH2 1163   4.052   5.984   0.067
  386TIP3    H1 1164   4.054   5.961  -0.026
  386TIP3    H2 1165   4.092   5.909   0.111
  387TIP3   OH2 1166   3.286   0.791   4.728
  387TIP3    H1 1167   3.304   0.878   4.691
  387TIP3    H2 1168   3.259   0.738   4.653
  388TIP3   OH2 1169   0.449   5.414   1.658
  388TIP3    H1 1170   0.401   5.406   1.576
  388TIP3    H2 1171   0.526   5.358   1.647
  389TIP3   OH2 1172   3.378   5.420   0.989
  389TIP3    H1 1173   3.420   5.432   1.074
  389TIP3    H2 1174   3.443   5.372   0.937
  390TIP3   OH2 1175   3.555   5.523   0.488
  390TIP3    H1 1176   3.461   5.538   0.479
  390TIP3    H2 1177   3.593   5.611   0.493
  391TIP3   OH2 1178   1.232   3.807   1.877
  391TIP3    H1 1179   1.230   3.817   1.782
  391TIP3    H2 1180   1.281   3.726   1.891
  392TIP3   OH2 1181   0.674   2.123   0.871
  392TIP3    H1 1182   0.667   2.105   0.778
  392TIP3    H2 1183   0.629   2.208   0.883
  393TIP3   OH2 1184   1.726   0.655   1.306
  393TIP3    H1 1185   1.745   0.659   1.400
  393TIP3    H2 1186   1.671   0.731   1.288
  394TIP3   OH2 1187   5.394   2.542   4.993
  394TIP3    H1 1188   5.479   2.548   4.949
  394TIP3    H2 1189   5.389   2.622   5.046
  395TIP3   OH2 1190   5.949   2.432   0.339
  395TIP3    H1 1191   5.925   2.369   0.407
  395TIP3    H2 1192   6.020   2.389   0.291
  396TIP3   OH2 1193   5.097   3.666   4.863
  396TIP3    H1 1194   5.114   3.750   4.821
  396TIP3    H2 1195   5.006   3.646   4.841
  397TIP3   OH2 1196   3.541   1.921   2.104
  397TIP3    H1 1197   3.456   1.917   2.148
  397TIP3    H2 1198   3.525   1.884   2.018
  398TIP3   OH2 1199   2.640   3.222   1.715
  398TIP3    H1 1200   2.584   3.253   1.644
  398TIP3    H2 1201   2.719   3.276   1.709
  399TIP3   OH2 1202   2.824   1.798   0.201
  399TIP3    H1 1203   2.824   1.708   0.232
  399TIP3    H2 1204   2.780   1.794   0.116
  400TIP3   OH2 1205   3.847   5.728   1.377
  400TIP3    H1 1206   3.762   5.755   1.342
  400TIP3    H2 1207   3.841   5.745   1.471
  401TIP3   OH2 1208   0.329   4.892   0.411
  401TIP3    H1 1209   0.297   4.823   0.468
  401TIP3    H2 1210   0.404   4.852   0.366
  402TIP3   OH2 1211   1.093   4.537   0.341
  402TIP3    H1 1212   1.050   4.467   0.292
  402TIP3    H2 1213   1.030   4.560   0.410
  403TIP3   OH2 1214   0.388   5.968   0.302
  403TIP3    H1 1215   0.406   5.892   0.358
  403TIP3    H2 1216   0.300   5.997   0.327
  404TIP3   OH2 1217   4.552   4.805   0.509
  404TIP3    H1 1218   4.634   4.805   0.559
  404TIP3    H2 1219   4.559   4.880   0.450
  405TIP3   OH2 1220   3.303  -0.004   2.673
  405TIP3    H1 1221   3.331   0.073   2.624
  405TIP3    H2 1222   3.208  -0.005   2.663
  406TIP3   OH2 1223   0.620   2.871   1.340
  406TIP3    H1 1224   0.570   2.925   1.279
  406TIP3    H2 1225   0.622   2.922   1.421
  407TIP3   OH2 1226   4.007   4.079   3.840
  407TIP3    H1 1227   3.979   4.141   3.907
  407TIP3    H2 1228   3.955   4.102   3.763
  408TIP3   OH2 1229   0.332   5.531   3.751
  408TIP3    H1 1230   0.396   5.460   3.741
  408TIP3    H2 1231   0.323   5.569   3.664
  409TIP3   OH2 1232   0.892   3.178   1.397
  409TIP3    H1 1233   0.912   3.272   1.398
  409TIP3    H2 1234   0.807   3.172   1.353
  410TIP3   OH2 1235   2.672   3.614   2.101
  410TIP3    H1 1236   2.760   3.592   2.132
  410TIP3    H2 1237   2.645   3.687   2.156
  411TIP3   OH2 1238   1.525   0.894   4.918
  411TIP3    H1 1239   1.450   0.949   4.896
  411TIP3    H2 1240   1.588   0.955   4.957
  412TIP3   OH2 1241   1.550   3.156   3.473
  412TIP3    H1 1242   1.590   3.238   3.445
  412TIP3    H2 1243   1.461   3.180   3.498
  413TIP3   OH2 1244   1.556   5.327   2.685
  413TIP3    H1 1245   1.487   5.310   2.620
  413TIP3    H2 1246   1.608   5.397   2.646
  414TIP3   OH2 1247   5.097   1.889   1.108
  414TIP3    H1 1248   5.047   1.836   1.171
  414TIP3    H2 1249   5.188   1.875   1.132
  415TIP3   OH2 1250   2.642   3.838   0.003
  415TIP3    H1 1251   2.656   3.872   0.092
  415TIP3    H2 1252   2.554   3.801   0.006
  416TIP3   OH2 1253   2.377   2.355   4.847
  416TIP3    H1 1254   2.299   2.386   4.894
  416TIP3    H2 1255   2.342   2.301   4.775
  417TIP3   OH2 1256   4.957   3.343   0.657
  417TIP3    H1 1257   4.919   3.427   0.631
  417TIP3    H2 1258   5.029   3.367   0.715
  418TIP3   OH2 1259   4.890   2.883   0.305
  418TIP3    H1 1260   4.824   2.816   0.326
  418TIP3    H2 1261   4.905   2.929   0.387
  419TIP3   OH2 1262   2.928   4.196   0.548
  419TIP3    H1 1263   2.934   4.120   0.490
  419TIP3    H2 1264   2.838   4.227   0.536
  420TIP3   OH2 1265   5.537   1.102   3.667
  420TIP3    H1 1266   5.476   1.033   3.641
  420TIP3    H2 1267   5.611   1.092   3.607
  421TIP3   OH2 1268   0.299   0.346   1.396
  421TIP3    H1 1269   0.381   0.297   1.399
  421TIP3    H2 1270   0.282   0.359   1.302
  422TIP3   OH2 1271   4.342   3.341   3.882
  422TIP3    H1 1272   4.371   3.432   3.887
  422TIP3    H2 1273   4.251   3.346   3.853
  423TIP3   OH2 1274   2.475   5.746   1.582
  423TIP3    H1 1275   2.417   5.823   1.582
  423TIP3    H2 1276   2.479   5.720   1.674
  424TIP3   OH2 1277   1.916   2.876   3.747
  424TIP3    H1 1278   1.836   2.877   3.695
  424TIP3    H2 1279   1.940   2.969   3.754
  425TIP3   OH2 1280   3.297   2.394   3.302
  425TIP3    H1 1281   3.393   2.391   3.296
  425TIP3    H2 1282   3.279   2.475   3.350
  426TIP3   OH2 1283   4.563   0.799   1.399
  426TIP3    H1 1284   4.543   0.710   1.369
  426TIP3    H2 1285   4.492   0.821   1.458
  427TIP3   OH2 1286   0.591   5.405   1.374
  427TIP3    H1 1287   0.580   5.314   1.345
  427TIP3    H2 1288   0.501   5.439   1.379
  428TIP3   OH2 1289   4.390   4.522   2.269
  428TIP3    H1 1290   4.345   4.450   2.226
  428TIP3    H2 1291   4.339   4.539   2.348
  429TIP3   OH2 1292   4.291   0.005   2.738
  429TIP3    H1 1293   4.255  -0.056   2.674
  429TIP3    H2 1294   4.243   0.086   2.724
  430TIP3   OH2 1295   3.604   4.514   2.226
  430TIP3    H1 1296   3.588   4.526   2.132
  430TIP3    H2 1297   3.649   4.594   2.253
  431TIP3   OH2 1298   2.942   0.132   0.979
  431TIP3    H1 1299   3.019   0.163   0.931
  431TIP3    H2 1300   2.903   0.211   1.016
  432TIP3   OH2 1301   1.747   5.892   1.947
  432TIP3    H1 1302   1.738   5.869   1.855
  432TIP3    H2 1303   1.694   5.971   1.958
  433TIP3   OH2 1304   5.561   4.040   0.494
  433TIP3    H1 1305   5.506   4.088   0.432
  433TIP3    H2 1306   5.546   4.084   0.577
  434TIP3   OH2 1307   1.948   2.104   0.355
  434TIP3    H1 1308   1.985   2.022   0.387
  434TIP3    H2 1309   1.964   2.167   0.425
  435TIP3   OH2 1310   5.141   0.336   5.145
  435TIP3    H1 1311   5.196   0.406   5.111
  435TIP3    H2 1312   5.054   0.375   5.150
  436TIP3   OH2 1313   1.506   3.524   2.854
  436TIP3    H1 1314   1.417   3.491   2.863
  436TIP3    H2 1315   1.513   3.548   2.761
  437TIP3   OH2 1316   6.068   3.449   3.687
  437TIP3    H1 1317   6.109   3.482   3.607
  437TIP3    H2 1318   6.068   3.354   3.675
  438TIP3   OH2 1319   3.870   0.982   1.613
  438TIP3    H1 1320   3.820   0.926   1.673
  438TIP3    H2 1321   3.837   1.071   1.631
  439TIP3   OH2 1322   4.620   0.219   4.191
  439TIP3    H1 1323   4.676   0.266   4.129
  439TIP3    H2 1324   4.607   0.133   4.151
  440TIP3   OH2 1325   1.037   4.353   5.150
  440TIP3    H1 1326   0.987   4.320   5.075
  440TIP3    H2 1327   1.124   4.373   5.115
  441TIP3   OH2 1328   3.003   3.548   1.391
  441TIP3    H1 1329   3.089   3.549   1.349
  441TIP3    H2 1330   3.022   3.561   1.484
  442TIP3   OH2 1331   2.489   5.024   2.554
  442TIP3    H1 1332   2.493   5.104   2.607
  442TIP3    H2 1333   2.400   5.024   2.518
  443TIP3   OH2 1334   6.333   1.353   0.181
  443TIP3    H1 1335   6.240   1.333   0.181
  443TIP3    H2 1336   6.342   1.424   0.244
  444TIP3   OH2 1337   1.720   3.082   2.169
  444TIP3    H1 1338   1.728   3.166   2.213
  444TIP3    H2 1339   1.759   3.019   2.229
  445TIP3   OH2 1340   1.184   2.755   3.182
  445TIP3    H1 1341   1.161   2.744   3.274
  445TIP3    H2 1342   1.115   2.708   3.134
  446TIP3   OH2 1343   0.233   0.795   1.176
  446TIP3    H1 1344   0.145   0.814   1.143
  446TIP3    H2 1345   0.225   0.800   1.271
  447TIP3   OH2 1346   2.257   5.909   4.698
  447TIP3    H1 1347   2.242   5.942   4.787
  447TIP3    H2 1348   2.180   5.938   4.649
  448TIP3   OH2 1349   3.315   1.494   4.288
  448TIP3    H1 1350   3.343   1.451   4.369
  448TIP3    H2 1351   3.223   1.470   4.280
  449TIP3   OH2 1352   4.285   2.939   2.442
  449TIP3    H1 1353   4.216   2.875   2.427
  449TIP3    H2 1354   4.339   2.901   2.512
  450TIP3   OH2 1355   3.664   0.455   3.566
  450TIP3    H1 1356   3.731   0.521   3.550
  450TIP3    H2 1357   3.707   0.388   3.618
  451TIP3   OH2 1358   4.875   5.397   3.613
  451TIP3    H1 1359   4.914   5.440   3.689
  451TIP3    H2 1360   4.937   5.328   3.590
  452TIP3   OH2 1361   5.154   1.830   4.785
  452TIP3    H1 1362   5.102   1.903   4.817
  452TIP3    H2 1363   5.245   1.856   4.803
  453TIP3   OH2 1364   4.172   1.121   1.305
  453TIP3    H1 1365   4.192   1.196   1.361
  453TIP3    H2 1366   4.205   1.146   1.219
  454TIP3   OH2 1367   5.553   3.258   4.478
  454TIP3    H1 1368   5.584   3.242   4.389
  454TIP3    H2 1369   5.489   3.328   4.469
  455TIP3   OH2 1370   0.041   5.248   1.805
  455TIP3    H1 1371   0.124   5.210   1.834
  455TIP3    H2 1372   0.062   5.338   1.781
  456TIP3   OH2 1373   2.094   4.040   4.680
  456TIP3    H1 1374   2.131   3.955   4.700
  456TIP3    H2 1375   2.094   4.087   4.763
  457TIP3   OH2 1376   2.161   1.748   2.306
  457TIP3    H1 1377   2.092   1.814   2.316
  457TIP3    H2 1378   2.234   1.796   2.268
  458TIP3   OH2 1379   0.886   5.197   3.607
  458TIP3    H1 1380   0.876   5.245   3.689
  458TIP3    H2 1381   0.807   5.143   3.601
  459TIP3   OH2 1382   5.493   5.145   2.559
  459TIP3    H1 1383   5.495   5.172   2.651
  459TIP3    H2 1384   5.491   5.227   2.511
  460TIP3   OH2 1385   5.902   2.516   4.300
  460TIP3    H1 1386   5.990   2.553   4.309
  460TIP3    H2 1387   5.898   2.488   4.209
  461TIP3   OH2 1388   1.750   3.548   5.112
  461TIP3    H1 1389   1.766   3.536   5.019
  461TIP3    H2 1390   1.729   3.641   5.122
  462TIP3   OH2 1391   4.957   3.901   2.781
  462TIP3    H1 1392   4.991   3.881   2.868
  462TIP3    H2 1393   5.011   3.973   2.750
  463TIP3   OH2 1394   4.900   5.717   4.841
  463TIP3    H1 1395   4.992   5.732   4.861
  463TIP3    H2 1396   4.869   5.660   4.911
  464TIP3   OH2 1397   4.930   1.880   2.084
  464TIP3    H1 1398   4.887   1.816   2.140
  464TIP3    H2 1399   5.010   1.836   2.055
  465TIP3   OH2 1400   5.061   0.012   1.944
  465TIP3    H1 1401   5.151   0.041   1.960
  465TIP3    H2 1402   5.038   0.052   1.860
  466TIP3   OH2 1403   1.297   5.418   3.301
  466TIP3    H1 1404   1.266   5.509   3.303
  466TIP3    H2 1405   1.230   5.369   3.349
  467TIP3   OH2 1406   3.544   1.553   0.673
  467TIP3    H1 1407   3.463   1.598   0.697
  467TIP3    H2 1408   3.612   1.620   0.677
  468TIP3   OH2 1409   5.039   4.087   0.486
  468TIP3    H1 1410   5.058   4.015   0.425
  468TIP3    H2 1411   5.001   4.156   0.431
  469TIP3   OH2 1412   4.248   4.532   0.325
  469TIP3    H1 1413   4.244   4.619   0.285
  469TIP3    H2 1414   4.304   4.543   0.401
  470TIP3   OH2 1415   5.760   2.011   1.000
  470TIP3    H1 1416   5.852   2.020   1.027
  470TIP3    H2 1417   5.746   1.917   0.994
  471TIP3   OH2 1418   1.516   1.460   1.797
  471TIP3    H1 1419   1.575   1.412   1.855
  471TIP3    H2 1420   1.432   1.416   1.807
  472TIP3   OH2 1421   3.958   4.604   4.380
  472TIP3    H1 1422   4.037   4.564   4.417
  472TIP3    H2 1423   3.889   4.582   4.442
  473TIP3   OH2 1424   1.514   5.883   2.260
  473TIP3    H1 1425   1.586   5.943   2.240
  473TIP3    H2 1426   1.501   5.891   2.354
  474TIP3   OH2 1427   4.642   1.098   3.433
  474TIP3    H1 1428   4.629   1.100   3.528
  474TIP3    H2 1429   4.617   1.009   3.407
  475TIP3   OH2 1430   2.929   5.580   1.026
  475TIP3    H1 1431   3.023   5.584   1.009
  475TIP3    H2 1432   2.888   5.592   0.941
  476TIP3   OH2 1433   3.087   1.571   3.034
  476TIP3    H1 1434   3.035   1.577   2.954
  476TIP3    H2 1435   3.113   1.661   3.053
  477TIP3   OH2 1436   2.173   2.684   5.146
  477TIP3    H1 1437   2.147   2.776   5.139
  477TIP3    H2 1438   2.154   2.662   5.237
  478TIP3   OH2 1439   4.889   3.111   3.335
  478TIP3    H1 1440   4.871   3.031   3.286
  478TIP3    H2 1441   4.875   3.087   3.426
  479TIP3   OH2 1442   0.315   3.651   2.246
  479TIP3    H1 1443   0.221   3.637   2.256
  479TIP3    H2 1444   0.323   3.719   2.180
  480TIP3   OH2 1445   3.813   4.627   0.674
  480TIP3    H1 1446   3.754   4.579   0.616
  480TIP3    H2 1447   3.854   4.693   0.618
  481TIP3   OH2 1448   1.063   3.228   4.841
  481TIP3    H1 1449   1.099   3.141   4.827
  481TIP3    H2 1450   1.032   3.256   4.755
  482TIP3   OH2 1451   6.311   0.146   1.322
  482TIP3    H1 1452   6.380   0.094   1.281
  482TIP3    H2 1453   6.351   0.182   1.401
  483TIP3   OH2 1454   3.781   3.497   1.634
  483TIP3    H1 1455   3.762   3.502   1.540
  483TIP3    H2 1456   3.695   3.502   1.676
  484TIP3   OH2 1457   6.318   2.196   4.755
  484TIP3    H1 1458   6.331   2.281   4.713
  484TIP3    H2 1459   6.397   2.182   4.807
  485TIP3   OH2 1460   2.411   1.091   0.903
  485TIP3    H1 1461   2.366   1.086   0.988
  485TIP3    H2 1462   2.494   1.046   0.917
  486TIP3   OH2 1463   2.380   1.533   3.004
  486TIP3    H1 1464   2.345   1.606   3.055
  486TIP3    H2 1465   2.321   1.460   3.024
  487TIP3   OH2 1466   5.285   5.260   3.371
  487TIP3    H1 1467   5.288   5.176   3.326
  487TIP3    H2 1468   5.285   5.325   3.300
  488TIP3   OH2 1469   0.085   5.472   0.860
  488TIP3    H1 1470   0.000   5.480   0.904
  488TIP3    H2 1471   0.090   5.548   0.802
  489TIP3   OH2 1472   1.494   5.222   4.146
  489TIP3    H1 1473   1.540   5.159   4.201
  489TIP3    H2 1474   1.555   5.240   4.074
  490TIP3   OH2 1475   2.747   2.073   2.116
  490TIP3    H1 1476   2.800   2.053   2.193
  490TIP3    H2 1477   2.811   2.081   2.045
  491TIP3   OH2 1478   1.404   5.382   1.846
  491TIP3    H1 1479   1.442   5.325   1.914
  491TIP3    H2 1480   1.333   5.428   1.891
  492TIP3   OH2 1481   4.156   5.305   2.684
  492TIP3    H1 1482   4.147   5.334   2.774
  492TIP3    H2 1483   4.088   5.353   2.637
  493TIP3   OH2 1484   5.072   1.983   1.474
  493TIP3    H1 1485   5.008   2.026   1.417
  493TIP3    H2 1486   5.070   2.034   1.555
  494TIP3   OH2 1487   0.994   4.329   2.177
  494TIP3    H1 1488   1.065   4.278   2.215
  494TIP3    H2 1489   0.938   4.264   2.134
  495TIP3   OH2 1490   3.964   3.630   2.219
  495TIP3    H1 1491   3.905   3.706   2.216
  495TIP3    H2 1492   4.031   3.654   2.283
  496TIP3   OH2 1493   1.233   2.965   1.760
  496TIP3    H1 1494   1.201   3.040   1.709
  496TIP3    H2 1495   1.244   3.000   1.849
  497TIP3   OH2 1496   5.352   2.235   3.760
  497TIP3    H1 1497   5.333   2.328   3.745
  497TIP3    H2 1498   5.268   2.198   3.788
  498TIP3   OH2 1499   2.141   2.735   0.097
  498TIP3    H1 1500   2.071   2.673   0.117
  498TIP3    H2 1501   2.163   2.718   0.006
  499TIP3   OH2 1502   4.358   0.763   1.165
  499TIP3    H1 1503   4.353   0.713   1.083
  499TIP3    H2 1504   4.284   0.824   1.161
  500TIP3   OH2 1505   3.102   5.246   0.286
  500TIP3    H1 1506   3.011   5.274   0.283
  500TIP3    H2 1507   3.124   5.243   0.379
  501TIP3   OH2 1508   2.498   1.549   2.275
  501TIP3    H1 1509   2.478   1.642   2.287
  501TIP3    H2 1510   2.421   1.503   2.311
  502TIP3   OH2 1511   3.364   1.026   4.108
  502TIP3    H1 1512   3.399   1.115   4.097
  502TIP3    H2 1513   3.315   1.011   4.027
  503TIP3   OH2 1514   0.554   3.211   0.885
  503TIP3    H1 1515   0.496   3.209   0.809
  503TIP3    H2 1516   0.641   3.228   0.848
  504TIP3   OH2 1517   0.144   5.478   1.700
  504TIP3    H1 1518   0.224   5.458   1.651
  504TIP3    H2 1519   0.173   5.534   1.772
  505TIP3   OH2 1520   2.141   3.958   4.348
  505TIP3    H1 1521   2.145   3.894   4.419
  505TIP3    H2 1522   2.179   4.037   4.385
  506TIP3   OH2 1523   4.029   0.257   4.035
  506TIP3    H1 1524   3.997   0.183   3.984
  506TIP3    H2 1525   4.121   0.236   4.052
  507TIP3   OH2 1526   3.236   2.042   1.128
  507TIP3    H1 1527   3.148   2.079   1.131
  507TIP3    H2 1528   3.274   2.064   1.213
  508TIP3   OH2 1529   4.481   1.255   4.148
  508TIP3    H1 1530   4.493   1.319   4.218
  508TIP3    H2 1531   4.386   1.245   4.141
  509TIP3   OH2 1532   1.729   2.769   2.151
  509TIP3    H1 1533   1.702   2.762   2.243
  509TIP3    H2 1534   1.647   2.783   2.103
  510TIP3   OH2 1535   2.655   2.484   0.943
  510TIP3    H1 1536   2.619   2.482   1.031
  510TIP3    H2 1537   2.583   2.517   0.889
  511TIP3   OH2 1538   2.163   1.760   1.356
  511TIP3    H1 1539   2.236   1.806   1.398
  511TIP3    H2 1540   2.092   1.765   1.420
  512TIP3   OH2 1541   1.619   2.651   1.767
  512TIP3    H1 1542   1.694   2.677   1.714
  512TIP3    H2 1543   1.630   2.557   1.779
  513TIP3   OH2 1544   2.050   5.068   3.679
  513TIP3    H1 1545   2.012   5.070   3.591
  513TIP3    H2 1546   2.069   4.975   3.694
  514TIP3   OH2 1547   3.239   2.670   3.763
  514TIP3    H1 1548   3.281   2.756   3.757
  514TIP3    H2 1549   3.264   2.637   3.849
  515TIP3   OH2 1550   1.777   1.690   2.180
  515TIP3    H1 1551   1.767   1.641   2.262
  515TIP3    H2 1552   1.822   1.770   2.205
  516TIP3   OH2 1553   1.951   0.296   1.272
  516TIP3    H1 1554   1.937   0.360   1.203
  516TIP3    H2 1555   1.876   0.237   1.266
  517TIP3   OH2 1556   4.069   1.653   2.840
  517TIP3    H1 1557   4.054   1.725   2.901
  517TIP3    H2 1558   4.066   1.574   2.895
  518TIP3   OH2 1559   4.972   5.318   1.467
  518TIP3    H1 1560   4.971   5.289   1.376
  518TIP3    H2 1561   4.894   5.278   1.505
  519TIP3   OH2 1562   2.022   2.674   2.739
  519TIP3    H1 1563   1.927   2.668   2.728
  519TIP3    H2 1564   2.034   2.724   2.820
  520TIP3   OH2 1565   5.821   3.745   3.638
  520TIP3    H1 1566   5.817   3.724   3.731
  520TIP3    H2 1567   5.846   3.838   3.636
  521TIP3   OH2 1568   4.469   0.800   0.338
  521TIP3    H1 1569   4.443   0.720   0.383
  521TIP3    H2 1570   4.461   0.780   0.245
  522TIP3   OH2 1571   4.229   5.040   5.092
  522TIP3    H1 1572   4.287   5.112   5.069
  522TIP3    H2 1573   4.188   5.068   5.174
  523TIP3   OH2 1574   4.097   5.979   0.472
  523TIP3    H1 1575   4.048   5.907   0.433
  523TIP3    H2 1576   4.101   5.957   0.565
  524TIP3   OH2 1577   2.596   4.322   3.537
  524TIP3    H1 1578   2.631   4.246   3.584
  524TIP3    H2 1579   2.507   4.332   3.571
  525TIP3   OH2 1580   5.686   0.477   4.739
  525TIP3    H1 1581   5.776   0.499   4.715
  525TIP3    H2 1582   5.647   0.443   4.658
  526TIP3   OH2 1583   1.641   0.371   3.776
  526TIP3    H1 1584   1.694   0.303   3.816
  526TIP3    H2 1585   1.693   0.401   3.702
  527TIP3   OH2 1586   2.972   2.389   4.505
  527TIP3    H1 1587   3.065   2.411   4.500
  527TIP3    H2 1588   2.927   2.473   4.509
  528TIP3   OH2 1589   0.224   5.092   0.763
  528TIP3    H1 1590   0.145   5.138   0.733
  528TIP3    H2 1591   0.274   5.075   0.683
  529TIP3   OH2 1592   3.278   3.815   4.027
  529TIP3    H1 1593   3.364   3.819   4.067
  529TIP3    H2 1594   3.280   3.735   3.974
  530TIP3   OH2 1595   5.445   0.099   4.148
  530TIP3    H1 1596   5.500   0.051   4.086
  530TIP3    H2 1597   5.429   0.037   4.219
  531TIP3   OH2 1598   1.869   0.066   0.903
  531TIP3    H1 1599   1.882   0.068   0.998
  531TIP3    H2 1600   1.948   0.023   0.868
  532TIP3   OH2 1601   3.582   2.663   1.643
  532TIP3    H1 1602   3.510   2.703   1.594
  532TIP3    H2 1603   3.549   2.577   1.668
  533TIP3   OH2 1604   2.667   0.237   0.125
  533TIP3    H1 1605   2.641   0.172   0.059
  533TIP3    H2 1606   2.675   0.187   0.206
  534TIP3   OH2 1607   6.195   5.090   1.782
  534TIP3    H1 1608   6.273   5.143   1.798
  534TIP3    H2 1609   6.177   5.047   1.866
  535TIP3   OH2 1610   1.855   4.805   2.993
  535TIP3    H1 1611   1.775   4.796   3.044
  535TIP3    H2 1612   1.833   4.868   2.924
  536TIP3   OH2 1613   0.791   3.957   1.504
  536TIP3    H1 1614   0.730   3.974   1.575
  536TIP3    H2 1615   0.742   3.904   1.442
  537TIP3   OH2 1616   1.294   2.127   2.493
  537TIP3    H1 1617   1.317   2.180   2.417
  537TIP3    H2 1618   1.364   2.145   2.556
  538TIP3   OH2 1619   5.588   0.827   1.424
  538TIP3    H1 1620   5.641   0.866   1.355
  538TIP3    H2 1621   5.593   0.889   1.496
  539TIP3   OH2 1622   5.591   2.660   2.623
  539TIP3    H1 1623   5.564   2.651   2.531
  539TIP3    H2 1624   5.513   2.640   2.673
  540TIP3   OH2 1625   4.676   1.255   1.085
  540TIP3    H1 1626   4.585   1.226   1.096
  540TIP3    H2 1627   4.675   1.307   1.005
  541TIP3   OH2 1628   4.074   3.161   4.142
  541TIP3    H1 1629   3.998   3.150   4.085
  541TIP3    H2 1630   4.137   3.096   4.113
  542TIP3   OH2 1631   5.669   3.273   5.097
  542TIP3    H1 1632   5.754   3.229   5.094
  542TIP3    H2 1633   5.620   3.226   5.165
  543TIP3   OH2 1634   0.816   4.814   2.999
  543TIP3    H1 1635   0.822   4.814   3.095
  543TIP3    H2 1636   0.734   4.769   2.981
  544TIP3   OH2 1637   0.043   4.081   2.134
  544TIP3    H1 1638   0.005   4.150   2.188
  544TIP3    H2 1639   0.005   4.000   2.168
  545TIP3   OH2 1640   4.654   2.974   3.869
  545TIP3    H1 1641   4.606   2.974   3.952
  545TIP3    H2 1642   4.701   3.057   3.868
  546TIP3   OH2 1643   0.534   4.397   3.684
  546TIP3    H1 1644   0.439   4.394   3.694
  546TIP3    H2 1645   0.566   4.323   3.736
  547TIP3   OH2 1646   2.074   3.801   3.838
  547TIP3    H1 1647   2.108   3.819   3.926
  547TIP3    H2 1648   2.091   3.707   3.825
  548TIP3   OH2 1649   1.345   3.143   4.335
  548TIP3    H1 1650   1.323   3.105   4.250
  548TIP3    H2 1651   1.276   3.206   4.352
  549TIP3   OH2 1652   0.869   4.515   3.918
  549TIP3    H1 1653   0.921   4.450   3.966
  549TIP3    H2 1654   0.926   4.592   3.914
  550TIP3   OH2 1655   4.192   0.259   2.415
  550TIP3    H1 1656   4.206   0.353   2.415
  550TIP3    H2 1657   4.098   0.249   2.430
  551TIP3   OH2 1658   1.982   1.769   1.556
  551TIP3    H1 1659   1.896   1.727   1.560
  551TIP3    H2 1660   1.992   1.812   1.641
  552TIP3   OH2 1661   1.118   2.952   3.019
  552TIP3    H1 1662   1.158   2.906   3.093
  552TIP3    H2 1663   1.028   2.920   3.018
  553TIP3   OH2 1664   0.667   4.579   4.747
  553TIP3    H1 1665   0.733   4.639   4.782
  553TIP3    H2 1666   0.594   4.585   4.809
  554TIP3   OH2 1667   0.708   4.058   2.382
  554TIP3    H1 1668   0.698   4.003   2.304
  554TIP3    H2 1669   0.648   4.131   2.367
  555TIP3   OH2 1670   6.135   5.520   4.339
  555TIP3    H1 1671   6.218   5.477   4.359
  555TIP3    H2 1672   6.113   5.492   4.251
  556TIP3   OH2 1673   0.511   5.532   3.036
  556TIP3    H1 1674   0.454   5.504   3.108
  556TIP3    H2 1675   0.486   5.476   2.962
  557TIP3   OH2 1676   4.658   3.018   1.447
  557TIP3    H1 1677   4.675   3.082   1.377
  557TIP3    H2 1678   4.610   2.948   1.404
  558TIP3   OH2 1679   4.589   0.118   2.211
  558TIP3    H1 1680   4.576   0.208   2.183
  558TIP3    H2 1681   4.682   0.101   2.195
  559TIP3   OH2 1682   2.022   0.270   2.493
  559TIP3    H1 1683   1.989   0.286   2.581
  559TIP3    H2 1684   1.999   0.179   2.475
  560TIP3   OH2 1685   0.075   5.400   3.088
  560TIP3    H1 1686   0.124   5.354   3.156
  560TIP3    H2 1687   0.071   5.338   3.015
  561TIP3   OH2 1688   4.968   3.934   1.471
  561TIP3    H1 1689   5.018   3.950   1.551
  561TIP3    H2 1690   5.024   3.965   1.401
  562TIP3   OH2 1691   1.200   3.845   2.662
  562TIP3    H1 1692   1.211   3.936   2.633
  562TIP3    H2 1693   1.224   3.793   2.585
  563TIP3   OH2 1694  -0.017   5.250   0.730
  563TIP3    H1 1695  -0.011   5.260   0.635
  563TIP3    H2 1696   0.019   5.331   0.765
  564TIP3   OH2 1697   2.314   1.313   1.591
  564TIP3    H1 1698   2.320   1.295   1.685
  564TIP3    H2 1699   2.273   1.399   1.585
  565TIP3   OH2 1700   0.531   0.962   2.477
  565TIP3    H1 1701   0.579   0.908   2.414
  565TIP3    H2 1702   0.442   0.927   2.476
  566TIP3   OH2 1703   4.568   3.557   5.160
  566TIP3    H1 1704   4.541   3.500   5.088
  566TIP3    H2 1705   4.530   3.642   5.138
  567TIP3   OH2 1706   3.954   4.990   0.201
  567TIP3    H1 1707   3.934   5.078   0.168
  567TIP3    H2 1708   4.023   4.958   0.143
  568TIP3   OH2 1709   6.303   3.912   3.939
  568TIP3    H1 1710   6.288   3.818   3.945
  568TIP3    H2 1711   6.322   3.939   4.029
  569TIP3   OH2 1712   2.936   2.169   1.685
  569TIP3    H1 1713   2.917   2.092   1.630
  569TIP3    H2 1714   2.955   2.132   1.771
  570TIP3   OH2 1715   4.998   5.145   5.119
  570TIP3    H1 1716   5.044   5.189   5.189
  570TIP3    H2 1717   5.015   5.198   5.041
  571TIP3   OH2 1718   3.035   3.294   4.836
  571TIP3    H1 1719   3.092   3.218   4.822
  571TIP3    H2 1720   3.076   3.365   4.786
  572TIP3   OH2 1721   2.012   1.948   4.997
  572TIP3    H1 1722   2.072   1.955   5.071
  572TIP3    H2 1723   1.967   1.865   5.011
  573TIP3   OH2 1724   5.234   2.158   0.608
  573TIP3    H1 1725   5.285   2.191   0.534
  573TIP3    H2 1726   5.280   2.191   0.685
  574TIP3   OH2 1727   1.767   5.262   5.013
  574TIP3    H1 1728   1.845   5.238   5.063
  574TIP3    H2 1729   1.801   5.288   4.927
  575TIP3   OH2 1730   5.474   2.448   0.207
  575TIP3    H1 1731   5.402   2.386   0.197
  575TIP3    H2 1732   5.440   2.513   0.270
  576TIP3   OH2 1733   0.087   0.758   3.017
  576TIP3    H1 1734   0.149   0.710   3.072
  576TIP3    H2 1735   0.099   0.850   3.041
  577TIP3   OH2 1736   0.686   2.713   0.748
  577TIP3    H1 1737   0.685   2.632   0.799
  577TIP3    H2 1738   0.593   2.728   0.726
  578TIP3   OH2 1739   5.620   1.153   1.841
  578TIP3    H1 1740   5.617   1.234   1.891
  578TIP3    H2 1741   5.691   1.103   1.882
  579TIP3   OH2 1742   5.409   5.757   2.536
  579TIP3    H1 1743   5.405   5.851   2.515
  579TIP3    H2 1744   5.400   5.754   2.631
  580TIP3   OH2 1745   1.142   4.616   3.862
  580TIP3    H1 1746   1.186   4.612   3.947
  580TIP3    H2 1747   1.137   4.709   3.842
  581TIP3   OH2 1748   5.721   4.181   3.230
  581TIP3    H1 1749   5.663   4.111   3.200
  581TIP3    H2 1750   5.682   4.261   3.195
  582TIP3   OH2 1751   1.367   0.308   2.554
  582TIP3    H1 1752   1.437   0.343   2.608
  582TIP3    H2 1753   1.342   0.226   2.598
  583TIP3   OH2 1754   0.888   3.328   0.414
  583TIP3    H1 1755   0.877   3.402   0.355
  583TIP3    H2 1756   0.962   3.278   0.377
  584TIP3   OH2 1757   6.269   0.583   3.438
  584TIP3    H1 1758   6.177   0.568   3.416
  584TIP3    H2 1759   6.270   0.669   3.479
  585TIP3   OH2 1760   0.734   1.962   4.418
  585TIP3    H1 1761   0.696   2.012   4.490
  585TIP3    H2 1762   0.665   1.958   4.352
  586TIP3   OH2 1763   6.146   1.959   4.727
  586TIP3    H1 1764   6.217   2.021   4.741
  586TIP3    H2 1765   6.068   2.003   4.762
  587TIP3   OH2 1766   3.166   4.059   3.596
  587TIP3    H1 1767   3.164   4.142   3.644
  587TIP3    H2 1768   3.165   4.084   3.504
  588TIP3   OH2 1769   4.385   0.652   2.834
  588TIP3    H1 1770   4.397   0.588   2.904
  588TIP3    H2 1771   4.473   0.670   2.803
  589TIP3   OH2 1772   5.932   0.282   3.617
  589TIP3    H1 1773   5.955   0.338   3.543
  589TIP3    H2 1774   5.952   0.335   3.695
  590TIP3   OH2 1775   2.575   2.623   0.422
  590TIP3    H1 1776   2.602   2.554   0.482
  590TIP3    H2 1777   2.482   2.635   0.440
  591TIP3   OH2 1778   2.397   4.647   4.659
  591TIP3    H1 1779   2.304   4.653   4.678
  591TIP3    H2 1780   2.436   4.722   4.704
  592TIP3   OH2 1781   0.309   0.078   1.914
  592TIP3    H1 1782   0.260  -0.003   1.903
  592TIP3    H2 1783   0.307   0.120   1.828
  593TIP3   OH2 1784   5.579   2.435   4.169
  593TIP3    H1 1785   5.537   2.392   4.094
  593TIP3    H2 1786   5.558   2.528   4.157
  594TIP3   OH2 1787   0.472   0.795   4.539
  594TIP3    H1 1788   0.502   0.734   4.605
  594TIP3    H2 1789   0.484   0.882   4.579
  595TIP3   OH2 1790   5.275   2.536   3.103
  595TIP3    H1 1791   5.208   2.470   3.085
  595TIP3    H2 1792   5.358   2.492   3.082
  596TIP3   OH2 1793   5.104   5.975   2.098
  596TIP3    H1 1794   5.086   5.935   2.013
  596TIP3    H2 1795   5.079   6.067   2.087
  597TIP3   OH2 1796   3.758   4.092   4.652
  597TIP3    H1 1797   3.829   4.058   4.708
  597TIP3    H2 1798   3.791   4.176   4.620
  598TIP3   OH2 1799   5.877   3.081   2.810
  598TIP3    H1 1800   5.897   3.174   2.803
  598TIP3    H2 1801   5.900   3.045   2.724
  599TIP3   OH2 1802   2.311   4.871   2.211
  599TIP3    H1 1803   2.277   4.783   2.196
  599TIP3    H2 1804   2.233   4.927   2.209
  600TIP3   OH2 1805   2.576   0.493   0.243
  600TIP3    H1 1806   2.625   0.411   0.234
  600TIP3    H2 1807   2.533   0.504   0.158
  601TIP3   OH2 1808   1.421   5.517   5.150
  601TIP3    H1 1809   1.378   5.501   5.234
  601TIP3    H2 1810   1.512   5.491   5.165
  602TIP3   OH2 1811   1.844   4.588   1.212
  602TIP3    H1 1812   1.878   4.563   1.126
  602TIP3    H2 1813   1.914   4.641   1.251
  603TIP3   OH2 1814   3.003   2.406   1.106
  603TIP3    H1 1815   2.985   2.494   1.073
  603TIP3    H2 1816   3.072   2.373   1.049
  604TIP3   OH2 1817   0.871   0.265   0.030
  604TIP3    H1 1818   0.828   0.291   0.112
  604TIP3    H2 1819   0.902   0.176   0.047
  605TIP3   OH2 1820   5.219   1.082   0.076
  605TIP3    H1 1821   5.227   1.178   0.075
  605TIP3    H2 1822   5.292   1.052   0.023
  606TIP3   OH2 1823   0.742   1.148   0.777
  606TIP3    H1 1824   0.770   1.239   0.776
  606TIP3    H2 1825   0.799   1.104   0.714
  607TIP3   OH2 1826   5.638   1.724   3.700
  607TIP3    H1 1827   5.707   1.765   3.751
  607TIP3    H2 1828   5.582   1.681   3.765
  608TIP3   OH2 1829   2.046   3.205   1.875
  608TIP3    H1 1830   2.066   3.274   1.938
  608TIP3    H2 1831   2.018   3.251   1.796
  609TIP3   OH2 1832   1.583   0.317   0.322
  609TIP3    H1 1833   1.547   0.242   0.369
  609TIP3    H2 1834   1.547   0.309   0.234
  610TIP3   OH2 1835   3.758   5.870   2.245
  610TIP3    H1 1836   3.741   5.962   2.262
  610TIP3    H2 1837   3.822   5.870   2.173
  611TIP3   OH2 1838   2.785   5.385   1.543
  611TIP3    H1 1839   2.700   5.387   1.498
  611TIP3    H2 1840   2.767   5.422   1.629
  612TIP3   OH2 1841   4.373   0.430   1.981
  612TIP3    H1 1842   4.434   0.405   2.050
  612TIP3    H2 1843   4.428   0.435   1.902
  613TIP3   OH2 1844   5.816   3.726   0.987
  613TIP3    H1 1845   5.747   3.670   0.952
  613TIP3    H2 1846   5.897   3.679   0.970
  614TIP3   OH2 1847   5.280   4.383   0.516
  614TIP3    H1 1848   5.286   4.318   0.446
  614TIP3    H2 1849   5.242   4.336   0.590
  615TIP3   OH2 1850   1.911   1.757   3.101
  615TIP3    H1 1851   1.960   1.839   3.107
  615TIP3    H2 1852   1.881   1.754   3.010
  616TIP3   OH2 1853   2.693   0.592   2.342
  616TIP3    H1 1854   2.648   0.510   2.323
  616TIP3    H2 1855   2.764   0.566   2.401
  617TIP3   OH2 1856   5.531   1.919   0.574
  617TIP3    H1 1857   5.451   1.913   0.628
  617TIP3    H2 1858   5.599   1.948   0.635
  618TIP3   OH2 1859   4.982   4.725   0.215
  618TIP3    H1 1860   4.966   4.766   0.300
  618TIP3    H2 1861   5.050   4.660   0.232
  619TIP3   OH2 1862   2.429   3.183   0.464
  619TIP3    H1 1863   2.336   3.200   0.450
  619TIP3    H2 1864   2.432   3.113   0.529
  620TIP3   OH2 1865   1.663   0.793   3.718
  620TIP3    H1 1866   1.635   0.873   3.673
  620TIP3    H2 1867   1.754   0.809   3.741
  621TIP3   OH2 1868   5.297   4.751   4.362
  621TIP3    H1 1869   5.326   4.711   4.445
  621TIP3    H2 1870   5.237   4.686   4.325
  622TIP3   OH2 1871   5.555   2.313   0.776
  622TIP3    H1 1872   5.501   2.315   0.855
  622TIP3    H2 1873   5.616   2.385   0.787
  623TIP3   OH2 1874   1.054   4.174   0.427
  623TIP3    H1 1875   1.000   4.099   0.399
  623TIP3    H2 1876   1.042   4.239   0.358
  624TIP3   OH2 1877   3.443   5.142   0.358
  624TIP3    H1 1878   3.511   5.099   0.307
  624TIP3    H2 1879   3.378   5.073   0.375
  625TIP3   OH2 1880   2.746   3.499   0.124
  625TIP3    H1 1881   2.797   3.537   0.052
  625TIP3    H2 1882   2.806   3.500   0.198
  626TIP3   OH2 1883   2.044   4.781   1.279
  626TIP3    H1 1884   2.128   4.757   1.241
  626TIP3    H2 1885   2.034   4.874   1.260
  627TIP3   OH2 1886   0.992   1.990   5.087
  627TIP3    H1 1887   0.989   2.010   4.993
  627TIP3    H2 1888   1.008   2.075   5.129
  628TIP3   OH2 1889   6.122   0.297   0.571
  628TIP3    H1 1890   6.028   0.290   0.550
  628TIP3    H2 1891   6.125   0.355   0.647
  629TIP3   OH2 1892   2.105   2.440   3.006
  629TIP3    H1 1893   2.115   2.439   2.911
  629TIP3    H2 1894   2.011   2.448   3.020
  630TIP3   OH2 1895   3.524   4.779   1.567
  630TIP3    H1 1896   3.454   4.833   1.532
  630TIP3    H2 1897   3.479   4.708   1.613
  631TIP3   OH2 1898   1.215   4.191   3.412
  631TIP3    H1 1899   1.249   4.210   3.325
  631TIP3    H2 1900   1.256   4.108   3.436
  632TIP3   OH2 1901   0.354   0.780   2.578
  632TIP3    H1 1902   0.351   0.749   2.669
  632TIP3    H2 1903   0.400   0.711   2.530
  633TIP3   OH2 1904   2.320   3.175   3.770
  633TIP3    H1 1905   2.386   3.116   3.806
  633TIP3    H2 1906   2.371   3.250   3.738
  634TIP3   OH2 1907   0.623   0.987   3.903
  634TIP3    H1 1908   0.535   0.993   3.940
  634TIP3    H2 1909   0.681   0.988   3.979
  635TIP3   OH2 1910   4.021   3.219   0.538
  635TIP3    H1 1911   4.020   3.125   0.518
  635TIP3    H2 1912   3.939   3.251   0.499
  636TIP3   OH2 1913   3.438   3.063   4.651
  636TIP3    H1 1914   3.512   3.085   4.708
  636TIP3    H2 1915   3.468   3.086   4.563
  637TIP3   OH2 1916   5.300   0.579   2.399
  637TIP3    H1 1917   5.396   0.578   2.400
  637TIP3    H2 1918   5.275   0.551   2.487
  638TIP3   OH2 1919   0.359   4.824   1.234
  638TIP3    H1 1920   0.312   4.780   1.163
  638TIP3    H2 1921   0.294   4.879   1.275
  639TIP3   OH2 1922   3.965   2.243   3.214
  639TIP3    H1 1923   3.979   2.148   3.217
  639TIP3    H2 1924   3.875   2.254   3.184
  640TIP3   OH2 1925   2.557   3.315   4.914
  640TIP3    H1 1926   2.602   3.282   4.992
  640TIP3    H2 1927   2.604   3.275   4.841
  641TIP3   OH2 1928   3.917   2.698   2.792
  641TIP3    H1 1929   3.921   2.615   2.746
  641TIP3    H2 1930   4.007   2.732   2.790
  642TIP3   OH2 1931   1.793   5.368   1.413
  642TIP3    H1 1932   1.887   5.382   1.426
  642TIP3    H2 1933   1.759   5.353   1.501
  643TIP3   OH2 1934   1.351   5.422   0.971
  643TIP3    H1 1935   1.290   5.495   0.986
  643TIP3    H2 1936   1.302   5.362   0.915
  644TIP3   OH2 1937   3.096   5.092   4.247
  644TIP3    H1 1938   3.166   5.062   4.305
  644TIP3    H2 1939   3.049   5.157   4.298
  645TIP3   OH2 1940   3.413   1.067   2.583
  645TIP3    H1 1941   3.441   1.099   2.498
  645TIP3    H2 1942   3.472   1.110   2.645
  646TIP3   OH2 1943   6.102   3.212   1.850
  646TIP3    H1 1944   6.117   3.306   1.861
  646TIP3    H2 1945   6.154   3.170   1.918
  647TIP3   OH2 1946   5.630   4.114   1.155
  647TIP3    H1 1947   5.694   4.050   1.186
  647TIP3    H2 1948   5.634   4.185   1.220
  648TIP3   OH2 1949   5.866   4.326   5.089
  648TIP3    H1 1950   5.826   4.329   5.176
  648TIP3    H2 1951   5.958   4.348   5.104
  649TIP3   OH2 1952   0.774   0.747   3.607
  649TIP3    H1 1953   0.704   0.715   3.664
  649TIP3    H2 1954   0.735   0.749   3.520
  650TIP3   OH2 1955   4.518   3.362   2.884
  650TIP3    H1 1956   4.511   3.269   2.861
  650TIP3    H2 1957   4.430   3.397   2.867
  651TIP3   OH2 1958   3.461   2.827   0.151
  651TIP3    H1 1959   3.535   2.821   0.091
  651TIP3    H2 1960   3.467   2.916   0.187
  652TIP3   OH2 1961   0.185   4.073   2.869
  652TIP3    H1 1962   0.104   4.055   2.821
  652TIP3    H2 1963   0.233   3.991   2.866
  653TIP3   OH2 1964   0.063   4.865   1.740
  653TIP3    H1 1965   0.000   4.910   1.683
  653TIP3    H2 1966   0.146   4.909   1.723
  654TIP3   OH2 1967   0.668   4.009   3.257
  654TIP3    H1 1968   0.576   4.004   3.234
  654TIP3    H2 1969   0.712   4.029   3.174
  655TIP3   OH2 1970   3.558   1.214   2.369
  655TIP3    H1 1971   3.534   1.229   2.278
  655TIP3    H2 1972   3.606   1.131   2.368
  656TIP3   OH2 1973   3.478   5.021   2.574
  656TIP3    H1 1974   3.386   5.039   2.592
  656TIP3    H2 1975   3.514   4.990   2.657
  657TIP3   OH2 1976   3.574   0.555   0.733
  657TIP3    H1 1977   3.633   0.582   0.663
  657TIP3    H2 1978   3.523   0.633   0.753
  658TIP3   OH2 1979   5.012   3.571   3.021
  658TIP3    H1 1980   5.080   3.507   3.000
  658TIP3    H2 1981   4.947   3.560   2.951
  659TIP3   OH2 1982   1.365   1.207   0.777
  659TIP3    H1 1983   1.343   1.155   0.700
  659TIP3    H2 1984   1.319   1.290   0.765
  660TIP3   OH2 1985   1.849   0.666   0.461
  660TIP3    H1 1986   1.908   0.691   0.532
  660TIP3    H2 1987   1.791   0.741   0.450
  661TIP3   OH2 1988   2.712   4.356   2.276
  661TIP3    H1 1989   2.790   4.312   2.242
  661TIP3    H2 1990   2.644   4.289   2.276
  662TIP3   OH2 1991   5.574   1.501   2.281
  662TIP3    H1 1992   5.669   1.500   2.266
  662TIP3    H2 1993   5.565   1.504   2.376
  663TIP3   OH2 1994   1.978   5.652   4.702
  663TIP3    H1 1995   1.889   5.621   4.685
  663TIP3    H2 1996   2.003   5.608   4.784
  664TIP3   OH2 1997   3.227   0.349   3.858
  664TIP3    H1 1998   3.252   0.301   3.779
  664TIP3    H2 1999   3.150   0.399   3.832
  665TIP3   OH2 2000   4.422   1.979   1.674
  665TIP3    H1 2001   4.357   1.983   1.744
  665TIP3    H2 2002   4.471   1.898   1.691
  666TIP3   OH2 2003   6.201   3.852   1.747
  666TIP3    H1 2004   6.287   3.812   1.733
  666TIP3    H2 2005   6.199   3.926   1.686
  667TIP3   OH2 2006   2.711   5.544   4.876
  667TIP3    H1 2007   2.647   5.610   4.902
  667TIP3    H2 2008   2.778   5.548   4.945
  668TIP3   OH2 2009   1.564   2.888   2.841
  668TIP3    H1 2010   1.490   2.917   2.788
  668TIP3    H2 2011   1.527   2.878   2.929
  669TIP3   OH2 2012   1.282   1.213   2.446
  669TIP3    H1 2013   1.306   1.124   2.421
  669TIP3    H2 2014   1.230   1.203   2.525
  670TIP3   OH2 2015   3.029   1.415   4.274
  670TIP3    H1 2016   2.942   1.449   4.294
  670TIP3    H2 2017   3.032   1.330   4.318
  671TIP3   OH2 2018   0.998   5.322   0.467
  671TIP3    H1 2019   1.011   5.234   0.432
  671TIP3    H2 2020   0.959   5.307   0.554
  672TIP3   OH2 2021   0.363   4.687   4.165
  672TIP3    H1 2022   0.350   4.606   4.214
  672TIP3    H2 2023   0.454   4.683   4.135
  673TIP3   OH2 2024   3.981   5.480   4.194
  673TIP3    H1 2025   3.932   5.401   4.220
  673TIP3    H2 2026   4.061   5.476   4.247
  674TIP3   OH2 2027   5.349   2.513   1.924
  674TIP3    H1 2028   5.353   2.423   1.956
  674TIP3    H2 2029   5.430   2.524   1.875
  675TIP3   OH2 2030   6.092   3.850   0.970
  675TIP3    H1 2031   6.135   3.922   0.924
  675TIP3    H2 2032   6.051   3.891   1.046
  676TIP3   OH2 2033   2.248   3.250   1.102
  676TIP3    H1 2034   2.195   3.329   1.097
  676TIP3    H2 2035   2.186   3.179   1.118
  677TIP3   OH2 2036   6.272   2.472   1.374
  677TIP3    H1 2037   6.265   2.387   1.418
  677TIP3    H2 2038   6.366   2.483   1.357
  678TIP3   OH2 2039   6.111   1.312   4.435
  678TIP3    H1 2040   6.195   1.316   4.480
  678TIP3    H2 2041   6.123   1.247   4.366
  679TIP3   OH2 2042   0.323   2.966   1.653
  679TIP3    H1 2043   0.276   2.893   1.615
  679TIP3    H2 2044   0.407   2.929   1.682
  680TIP3   OH2 2045   0.257   0.940   0.631
  680TIP3    H1 2046   0.338   0.985   0.654
  680TIP3    H2 2047   0.212   0.928   0.715
  681TIP3   OH2 2048   6.170   1.289   4.939
  681TIP3    H1 2049   6.224   1.229   4.990
  681TIP3    H2 2050   6.082   1.251   4.940
  682TIP3   OH2 2051   4.941   5.685   3.478
  682TIP3    H1 2052   4.924   5.612   3.539
  682TIP3    H2 2053   5.028   5.716   3.502
  683TIP3   OH2 2054   4.654   4.507   2.276
  683TIP3    H1 2055   4.559   4.519   2.276
  683TIP3    H2 2056   4.687   4.576   2.219
  684TIP3   OH2 2057   4.564   4.568   2.564
  684TIP3    H1 2058   4.608   4.590   2.482
  684TIP3    H2 2059   4.522   4.650   2.591
  685TIP3   OH2 2060   3.289   1.295   3.956
  685TIP3    H1 2061   3.253   1.316   3.870
  685TIP3    H2 2062   3.236   1.346   4.018
  686TIP3   OH2 2063   5.826   1.556   5.026
  686TIP3    H1 2064   5.858   1.572   5.115
  686TIP3    H2 2065   5.891   1.496   4.988
  687TIP3   OH2 2066   0.631   4.519   0.927
  687TIP3    H1 2067   0.722   4.544   0.909
  687TIP3    H2 2068   0.625   4.520   1.023
  688TIP3   OH2 2069   5.835   4.954   3.452
  688TIP3    H1 2070   5.752   4.999   3.434
  688TIP3    H2 2071   5.902   5.011   3.416
  689TIP3   OH2 2072   5.738   0.803   0.757
  689TIP3    H1 2073   5.748   0.787   0.851
  689TIP3    H2 2074   5.646   0.781   0.739
  690TIP3   OH2 2075   0.571   3.707   4.292
  690TIP3    H1 2076   0.570   3.632   4.233
  690TIP3    H2 2077   0.586   3.783   4.236
  691TIP3   OH2 2078   4.121   2.055   2.967
  691TIP3    H1 2079   4.107   2.148   2.949
  691TIP3    H2 2080   4.081   2.040   3.053
  692TIP3   OH2 2081   3.431   1.308   0.576
  692TIP3    H1 2082   3.504   1.253   0.605
  692TIP3    H2 2083   3.466   1.398   0.581
  693TIP3   OH2 2084   3.821   2.456   1.015
  693TIP3    H1 2085   3.904   2.502   0.998
  693TIP3    H2 2086   3.847   2.365   1.029
  694TIP3   OH2 2087   5.128   4.208   5.171
  694TIP3    H1 2088   5.150   4.132   5.225
  694TIP3    H2 2089   5.132   4.175   5.081
  695TIP3   OH2 2090   4.495   2.335   3.007
  695TIP3    H1 2091   4.558   2.271   3.040
  695TIP3    H2 2092   4.423   2.334   3.070
  696TIP3   OH2 2093   5.812   2.108   2.571
  696TIP3    H1 2094   5.737   2.109   2.630
  696TIP3    H2 2095   5.786   2.164   2.498
  697TIP3   OH2 2096   2.969   4.409   4.977
  697TIP3    H1 2097   2.988   4.410   4.883
  697TIP3    H2 2098   2.898   4.346   4.987
  698TIP3   OH2 2099   4.465   5.673   3.205
  698TIP3    H1 2100   4.454   5.625   3.123
  698TIP3    H2 2101   4.560   5.685   3.213
  699TIP3   OH2 2102   6.108   4.908   4.487
  699TIP3    H1 2103   6.097   4.841   4.419
  699TIP3    H2 2104   6.155   4.863   4.557
  700TIP3   OH2 2105   2.666   2.548   4.398
  700TIP3    H1 2106   2.723   2.575   4.470
  700TIP3    H2 2107   2.669   2.621   4.336
  701TIP3   OH2 2108   2.293   0.770   1.096
  701TIP3    H1 2109   2.350   0.710   1.144
  701TIP3    H2 2110   2.207   0.758   1.136
  702TIP3   OH2 2111   2.800   5.146   1.930
  702TIP3    H1 2112   2.765   5.164   2.017
  702TIP3    H2 2113   2.888   5.112   1.946
  703TIP3   OH2 2114   4.841   1.628   3.393
  703TIP3    H1 2115   4.904   1.557   3.379
  703TIP3    H2 2116   4.784   1.595   3.462
  704TIP3   OH2 2117   0.266   0.498   1.156
  704TIP3    H1 2118   0.279   0.592   1.159
  704TIP3    H2 2119   0.245   0.479   1.065
  705TIP3   OH2 2120   4.888   5.936   1.605
  705TIP3    H1 2121   4.905   6.027   1.630
  705TIP3    H2 2122   4.910   5.932   1.512
  706TIP3   OH2 2123   1.826   3.105   1.236
  706TIP3    H1 2124   1.738   3.134   1.259
  706TIP3    H2 2125   1.847   3.036   1.299
  707TIP3   OH2 2126   3.952   0.735   1.826
  707TIP3    H1 2127   3.995   0.810   1.865
  707TIP3    H2 2128   3.859   0.755   1.831
  708TIP3   OH2 2129   1.628   1.938   3.255
  708TIP3    H1 2130   1.632   1.997   3.331
  708TIP3    H2 2131   1.634   1.997   3.180
  709TIP3   OH2 2132   4.748   0.464   4.883
  709TIP3    H1 2133   4.693   0.386   4.883
  709TIP3    H2 2134   4.693   0.533   4.846
  710TIP3   OH2 2135   3.426   1.657   3.775
  710TIP3    H1 2136   3.506   1.636   3.727
  710TIP3    H2 2137   3.416   1.586   3.838
  711TIP3   OH2 2138   5.641   0.577   0.412
  711TIP3    H1 2139   5.686   0.626   0.480
  711TIP3    H2 2140   5.570   0.532   0.458
  712TIP3   OH2 2141   0.972   0.273   0.688
  712TIP3    H1 2142   0.887   0.253   0.648
  712TIP3    H2 2143   0.975   0.369   0.688
  713TIP3   OH2 2144   6.197   3.950   4.594
  713TIP3    H1 2145   6.189   3.886   4.665
  713TIP3    H2 2146   6.235   4.027   4.635
  714TIP3   OH2 2147   0.020   4.229   3.628
  714TIP3    H1 2148  -0.006   4.315   3.593
  714TIP3    H2 2149   0.075   4.191   3.560
  715TIP3   OH2 2150   5.955   0.804   3.625
  715TIP3    H1 2151   5.925   0.717   3.598
  715TIP3    H2 2152   5.925   0.862   3.555
  716TIP3   OH2 2153   2.583   4.836   4.498
  716TIP3    H1 2154   2.610   4.903   4.436
  716TIP3    H2 2155   2.515   4.877   4.551
  717TIP3   OH2 2156   2.624   4.875   0.359
  717TIP3    H1 2157   2.630   4.957   0.309
  717TIP3    H2 2158   2.569   4.819   0.305
  718TIP3   OH2 2159   0.012   5.982   4.844
  718TIP3    H1 2160   0.089   5.947   4.889
  718TIP3    H2 2161  -0.033   5.906   4.810
  719TIP3   OH2 2162   5.272   2.788   3.227
  719TIP3    H1 2163   5.276   2.704   3.181
  719TIP3    H2 2164   5.354   2.792   3.276
  720TIP3   OH2 2165   5.890   5.049   1.839
  720TIP3    H1 2166   5.889   5.128   1.894
  720TIP3    H2 2167   5.943   5.073   1.763
  721TIP3   OH2 2168   6.252   2.721   2.903
  721TIP3    H1 2169   6.289   2.686   2.984
  721TIP3    H2 2170   6.245   2.646   2.845
  722TIP3   OH2 2171   1.720   5.422   1.995
  722TIP3    H1 2172   1.655   5.352   2.005
  722TIP3    H2 2173   1.670   5.503   2.005
  723TIP3   OH2 2174   4.022   3.288   1.690
  723TIP3    H1 2175   4.007   3.194   1.691
  723TIP3    H2 2176   4.101   3.299   1.637
  724TIP3   OH2 2177   5.710   2.050   4.700
  724TIP3    H1 2178   5.660   1.987   4.648
  724TIP3    H2 2179   5.645   2.115   4.727
  725TIP3   OH2 2180   2.372   4.065   0.168
  725TIP3    H1 2181   2.290   4.114   0.164
  725TIP3    H2 2182   2.362   4.007   0.243
  726TIP3   OH2 2183   0.356   4.618   4.502
  726TIP3    H1 2184   0.324   4.706   4.482
  726TIP3    H2 2185   0.329   4.564   4.428
  727TIP3   OH2 2186   3.587   1.506   4.182
  727TIP3    H1 2187   3.496   1.491   4.208
  727TIP3    H2 2188   3.603   1.598   4.201
  728TIP3   OH2 2189   3.291   5.530   3.108
  728TIP3    H1 2190   3.298   5.555   3.016
  728TIP3    H2 2191   3.266   5.437   3.106
  729TIP3   OH2 2192   3.613   2.796   3.960
  729TIP3    H1 2193   3.561   2.740   4.017
  729TIP3    H2 2194   3.703   2.765   3.970
  730TIP3   OH2 2195   5.603   5.177   3.887
  730TIP3    H1 2196   5.575   5.086   3.895
  730TIP3    H2 2197   5.538   5.217   3.830
  731TIP3   OH2 2198   5.282   1.811   4.065
  731TIP3    H1 2199   5.209   1.871   4.082
  731TIP3    H2 2200   5.351   1.841   4.124
  732TIP3   OH2 2201   2.988   4.065   0.045
  732TIP3    H1 2202   3.009   3.979   0.007
  732TIP3    H2 2203   2.932   4.044   0.120
  733TIP3   OH2 2204   0.880   3.791   3.486
  733TIP3    H1 2205   0.927   3.710   3.502
  733TIP3    H2 2206   0.937   3.860   3.520
  734TIP3   OH2 2207   6.327   5.816   4.333
  734TIP3    H1 2208   6.366   5.740   4.291
  734TIP3    H2 2209   6.366   5.891   4.287
  735TIP3   OH2 2210   0.535   0.727   3.782
  735TIP3    H1 2211   0.581   0.692   3.859
  735TIP3    H2 2212   0.529   0.821   3.800
  736TIP3   OH2 2213   2.496   5.658   4.237
  736TIP3    H1 2214   2.523   5.620   4.321
  736TIP3    H2 2215   2.572   5.709   4.209
  737TIP3   OH2 2216   3.240   2.267   3.736
  737TIP3    H1 2217   3.227   2.202   3.805
  737TIP3    H2 2218   3.166   2.327   3.746
  738TIP3   OH2 2219   3.358   2.232   4.034
  738TIP3    H1 2220   3.438   2.210   4.081
  738TIP3    H2 2221   3.306   2.283   4.096
  739TIP3   OH2 2222   1.010   1.451   2.797
  739TIP3    H1 2223   0.915   1.460   2.795
  739TIP3    H2 2224   1.041   1.514   2.732
  740TIP3   OH2 2225   2.063   5.053   0.915
  740TIP3    H1 2226   2.090   5.052   0.823
  740TIP3    H2 2227   2.082   5.142   0.944
  741TIP3   OH2 2228   2.615   1.327   1.047
  741TIP3    H1 2229   2.544   1.335   1.110
  741TIP3    H2 2230   2.645   1.236   1.055
  742TIP3   OH2 2231   1.679   3.797   2.859
  742TIP3    H1 2232   1.670   3.822   2.767
  742TIP3    H2 2233   1.725   3.713   2.857
  743TIP3   OH2 2234   1.087   2.268   2.638
  743TIP3    H1 2235   1.168   2.229   2.604
  743TIP3    H2 2236   1.101   2.362   2.630
  744TIP3   OH2 2237   5.483   0.944   4.004
  744TIP3    H1 2238   5.466   1.032   4.036
  744TIP3    H2 2239   5.575   0.944   3.980
  745TIP3   OH2 2240   5.506   4.966   0.779
  745TIP3    H1 2241   5.457   5.040   0.742
  745TIP3    H2 2242   5.567   4.940   0.710
  746TIP3   OH2 2243   4.173   4.023   2.213
  746TIP3    H1 2244   4.132   3.949   2.168
  746TIP3    H2 2245   4.230   3.983   2.278
  747TIP3   OH2 2246   2.556   5.300   1.893
  747TIP3    H1 2247   2.574   5.210   1.866
  747TIP3    H2 2248   2.643   5.342   1.893
  748TIP3   OH2 2249   3.382   2.341   4.737
  748TIP3    H1 2250   3.425   2.334   4.652
  748TIP3    H2 2251   3.452   2.328   4.801
  749TIP3   OH2 2252   3.203   1.378   0.427
  749TIP3    H1 2253   3.268   1.333   0.479
  749TIP3    H2 2254   3.248   1.455   0.392
  750TIP3   OH2 2255   0.290   2.688   2.894
  750TIP3    H1 2256   0.201   2.723   2.902
  750TIP3    H2 2257   0.339   2.758   2.851
  751TIP3   OH2 2258   0.668   4.138   0.778
  751TIP3    H1 2259   0.634   4.138   0.689
  751TIP3    H2 2260   0.590   4.145   0.833
  752TIP3   OH2 2261   4.100   3.553   4.228
  752TIP3    H1 2262   4.189   3.517   4.228
  752TIP3    H2 2263   4.107   3.636   4.181
  753TIP3   OH2 2264   4.940   4.193   2.325
  753TIP3    H1 2265   4.920   4.277   2.366
  753TIP3    H2 2266   4.912   4.128   2.390
  754TIP3   OH2 2267   2.773   2.578   4.676
  754TIP3    H1 2268   2.801   2.559   4.766
  754TIP3    H2 2269   2.696   2.523   4.662
  755TIP3   OH2 2270   0.351   0.257   1.678
  755TIP3    H1 2271   0.351   0.257   1.582
  755TIP3    H2 2272   0.366   0.348   1.701
  756TIP3   OH2 2273   4.150   0.881   2.152
  756TIP3    H1 2274   4.108   0.819   2.211
  756TIP3    H2 2275   4.078   0.920   2.102
  757TIP3   OH2 2276   1.582   2.707   3.274
  757TIP3    H1 2277   1.655   2.734   3.218
  757TIP3    H2 2278   1.518   2.779   3.266
  758TIP3   OH2 2279   3.685   2.260   0.336
  758TIP3    H1 2280   3.694   2.187   0.276
  758TIP3    H2 2281   3.687   2.220   0.423
  759TIP3   OH2 2282   0.342   3.877   4.661
  759TIP3    H1 2283   0.387   3.796   4.638
  759TIP3    H2 2284   0.380   3.903   4.745
  760TIP3   OH2 2285   1.529   1.526   2.686
  760TIP3    H1 2286   1.590   1.463   2.723
  760TIP3    H2 2287   1.576   1.609   2.689
  761TIP3   OH2 2288   3.050   1.061   2.752
  761TIP3    H1 2289   3.116   1.120   2.789
  761TIP3    H2 2290   3.099   0.983   2.727
  762TIP3   OH2 2291   4.873   2.630   1.891
  762TIP3    H1 2292   4.865   2.683   1.811
  762TIP3    H2 2293   4.956   2.658   1.930
  763TIP3   OH2 2294   2.853   1.999   0.397
  763TIP3    H1 2295   2.835   1.907   0.377
  763TIP3    H2 2296   2.874   2.039   0.313
  764TIP3   OH2 2297   1.321   1.517   3.581
  764TIP3    H1 2298   1.367   1.578   3.523
  764TIP3    H2 2299   1.244   1.490   3.531
  765TIP3   OH2 2300   5.296   1.006   4.393
  765TIP3    H1 2301   5.338   1.038   4.473
  765TIP3    H2 2302   5.281   0.913   4.410
  766TIP3   OH2 2303   5.685   5.586   1.868
  766TIP3    H1 2304   5.628   5.597   1.791
  766TIP3    H2 2305   5.653   5.650   1.931
  767TIP3   OH2 2306   5.289   1.814   1.501
  767TIP3    H1 2307   5.203   1.854   1.491
  767TIP3    H2 2308   5.345   1.863   1.441
  768TIP3   OH2 2309   3.814   5.690   2.711
  768TIP3    H1 2310   3.827   5.685   2.617
  768TIP3    H2 2311   3.901   5.677   2.749
  769TIP3   OH2 2312   3.370   4.331   2.958
  769TIP3    H1 2313   3.354   4.237   2.957
  769TIP3    H2 2314   3.396   4.350   3.049
  770TIP3   OH2 2315   4.202   0.520   1.513
  770TIP3    H1 2316   4.248   0.436   1.516
  770TIP3    H2 2317   4.180   0.533   1.421
  771TIP3   OH2 2318   4.809   5.907   4.115
  771TIP3    H1 2319   4.746   5.911   4.044
  771TIP3    H2 2320   4.876   5.972   4.092
  772TIP3   OH2 2321   2.105   2.531   1.008
  772TIP3    H1 2322   2.132   2.618   0.976
  772TIP3    H2 2323   2.079   2.546   1.099
  773TIP3   OH2 2324   4.649   3.835   1.970
  773TIP3    H1 2325   4.584   3.892   2.011
  773TIP3    H2 2326   4.641   3.853   1.877
  774TIP3   OH2 2327   0.381   1.509   4.036
  774TIP3    H1 2328   0.344   1.447   4.099
  774TIP3    H2 2329   0.376   1.463   3.952
  775TIP3   OH2 2330   2.346   5.045   2.879
  775TIP3    H1 2331   2.348   5.119   2.819
  775TIP3    H2 2332   2.279   4.986   2.843
  776TIP3   OH2 2333   1.423   0.589   1.875
  776TIP3    H1 2334   1.347   0.615   1.824
  776TIP3    H2 2335   1.429   0.654   1.945
  777TIP3   OH2 2336   5.801   1.441   0.018
  777TIP3    H1 2337   5.846   1.486  -0.054
  777TIP3    H2 2338   5.823   1.492   0.096
  778TIP3   OH2 2339   5.016   3.165   5.078
  778TIP3    H1 2340   5.083   3.223   5.113
  778TIP3    H2 2341   4.944   3.223   5.053
  779TIP3   OH2 2342   5.261   3.686   2.749
  779TIP3    H1 2343   5.271   3.681   2.844
  779TIP3    H2 2344   5.313   3.762   2.723
  780TIP3   OH2 2345   1.912   1.764   5.163
  780TIP3    H1 2346   1.835   1.742   5.216
  780TIP3    H2 2347   1.891   1.730   5.076
  781TIP3   OH2 2348   1.298   0.918   1.328
  781TIP3    H1 2349   1.339   0.996   1.367
  781TIP3    H2 2350   1.314   0.848   1.391
  782TIP3   OH2 2351   5.818   3.002   1.526
  782TIP3    H1 2352   5.800   3.029   1.616
  782TIP3    H2 2353   5.763   3.059   1.473
  783TIP3   OH2 2354   2.950   3.183   3.677
  783TIP3    H1 2355   3.045   3.183   3.688
  783TIP3    H2 2356   2.929   3.272   3.648
  784TIP3   OH2 2357   4.591   2.414   3.278
  784TIP3    H1 2358   4.508   2.422   3.324
  784TIP3    H2 2359   4.581   2.335   3.225
  785TIP3   OH2 2360   4.321   5.437   3.640
  785TIP3    H1 2361   4.267   5.360   3.622
  785TIP3    H2 2362   4.330   5.480   3.555
  786TIP3   OH2 2363   5.544   4.483   3.815
  786TIP3    H1 2364   5.454   4.450   3.810
  786TIP3    H2 2365   5.559   4.498   3.909
  787TIP3   OH2 2366   4.704   0.918   3.925
  787TIP3    H1 2367   4.692   0.827   3.951
  787TIP3    H2 2368   4.798   0.925   3.907
  788TIP3   OH2 2369   0.033   0.592   2.775
  788TIP3    H1 2370  -0.037   0.623   2.718
  788TIP3    H2 2371   0.018   0.637   2.859
  789TIP3   OH2 2372   2.519   5.789   4.781
  789TIP3    H1 2373   2.526   5.758   4.871
  789TIP3    H2 2374   2.609   5.808   4.755
  790TIP3   OH2 2375   0.099   2.541   5.136
  790TIP3    H1 2376   0.029   2.555   5.072
  790TIP3    H2 2377   0.116   2.628   5.172
  791TIP3   OH2 2378   0.142   2.350   4.190
  791TIP3    H1 2379   0.177   2.436   4.165
  791TIP3    H2 2380   0.120   2.359   4.282
  792TIP3   OH2 2381   1.623   3.786   0.730
  792TIP3    H1 2382   1.536   3.758   0.757
  792TIP3    H2 2383   1.669   3.705   0.710
  793TIP3   OH2 2384   2.727   2.753   3.429
  793TIP3    H1 2385   2.700   2.790   3.513
  793TIP3    H2 2386   2.662   2.685   3.411
  794TIP3   OH2 2387   4.845   2.346   1.943
  794TIP3    H1 2388   4.853   2.301   1.858
  794TIP3    H2 2389   4.837   2.439   1.920
  795TIP3   OH2 2390   5.953   5.262   1.629
  795TIP3    H1 2391   5.982   5.344   1.668
  795TIP3    H2 2392   5.895   5.289   1.558
  796TIP3   OH2 2393   6.295   4.623   4.090
  796TIP3    H1 2394   6.328   4.661   4.171
  796TIP3    H2 2395   6.323   4.531   4.093
  797TIP3   OH2 2396   0.311   1.841   1.641
  797TIP3    H1 2397   0.241   1.784   1.610
  797TIP3    H2 2398   0.386   1.818   1.586
  798TIP3   OH2 2399   0.982   0.069   4.804
  798TIP3    H1 2400   1.075   0.047   4.811
  798TIP3    H2 2401   0.966   0.130   4.876
  799TIP3   OH2 2402   5.940   4.702   1.601
  799TIP3    H1 2403   5.980   4.616   1.595
  799TIP3    H2 2404   5.896   4.714   1.517
  800TIP3   OH2 2405   0.733   3.703   0.722
  800TIP3    H1 2406   0.795   3.776   0.712
  800TIP3    H2 2407   0.762   3.639   0.657
  801TIP3   OH2 2408   0.937   1.223   4.149
  801TIP3    H1 2409   0.970   1.190   4.233
  801TIP3    H2 2410   0.869   1.286   4.174
  802TIP3   OH2 2411   0.713   4.820   1.712
  802TIP3    H1 2412   0.687   4.747   1.657
  802TIP3    H2 2413   0.631   4.856   1.746
  803TIP3   OH2 2414   3.259   2.139   3.473
  803TIP3    H1 2415   3.264   2.209   3.408
  803TIP3    H2 2416   3.255   2.185   3.557
  804TIP3   OH2 2417   0.799   3.653   3.261
  804TIP3    H1 2418   0.827   3.707   3.188
  804TIP3    H2 2419   0.806   3.710   3.338
  805TIP3   OH2 2420   6.124   1.536   5.102
  805TIP3    H1 2421   6.196   1.479   5.075
  805TIP3    H2 2422   6.145   1.621   5.064
  806TIP3   OH2 2423   2.702   5.254   1.250
  806TIP3    H1 2424   2.638   5.313   1.290
  806TIP3    H2 2425   2.781   5.307   1.240
  807TIP3   OH2 2426   3.519   5.394   3.223
  807TIP3    H1 2427   3.470   5.467   3.185
  807TIP3    H2 2428   3.504   5.320   3.164
  808TIP3   OH2 2429   3.204   5.442   1.646
  808TIP3    H1 2430   3.124   5.473   1.604
  808TIP3    H2 2431   3.184   5.352   1.673
  809TIP3   OH2 2432   4.431   5.305   4.597
  809TIP3    H1 2433   4.382   5.223   4.589
  809TIP3    H2 2434   4.511   5.290   4.547
  810TIP3   OH2 2435   5.709   2.818   0.489
  810TIP3    H1 2436   5.662   2.859   0.416
  810TIP3    H2 2437   5.642   2.800   0.554
  811TIP3   OH2 2438   6.312   1.105   5.087
  811TIP3    H1 2439   6.400   1.072   5.103
  811TIP3    H2 2440   6.259   1.068   5.157
  812TIP3   OH2 2441   0.110   3.183   0.170
  812TIP3    H1 2442   0.109   3.095   0.207
  812TIP3    H2 2443   0.202   3.208   0.170
  813TIP3   OH2 2444   3.920   1.246   3.138
  813TIP3    H1 2445   3.918   1.157   3.173
  813TIP3    H2 2446   3.920   1.302   3.216
  814TIP3   OH2 2447   4.926   4.420   2.994
  814TIP3    H1 2448   4.885   4.334   2.985
  814TIP3    H2 2449   4.856   4.478   3.023
  815TIP3   OH2 2450   0.065   4.769   4.367
  815TIP3    H1 2451   0.118   4.848   4.356
  815TIP3    H2 2452   0.038   4.770   4.459
  816TIP3   OH2 2453   2.897   2.638   2.927
  816TIP3    H1 2454   2.916   2.710   2.867
  816TIP3    H2 2455   2.882   2.680   3.011
  817TIP3   OH2 2456   0.916   1.876   0.645
  817TIP3    H1 2457   0.912   1.817   0.720
  817TIP3    H2 2458   0.846   1.846   0.586
  818TIP3   OH2 2459   6.300   4.523   2.521
  818TIP3    H1 2460   6.283   4.580   2.597
  818TIP3    H2 2461   6.348   4.449   2.558
  819TIP3   OH2 2462   0.831   5.730   1.571
  819TIP3    H1 2463   0.873   5.648   1.543
  819TIP3    H2 2464   0.741   5.723   1.540
  820TIP3   OH2 2465   5.129   3.697   2.248
  820TIP3    H1 2466   5.066   3.673   2.180
  820TIP3    H2 2467   5.080   3.757   2.305
  821TIP3   OH2 2468   5.314   5.199   4.940
  821TIP3    H1 2469   5.266   5.130   4.894
  821TIP3    H2 2470   5.323   5.166   5.029
  822TIP3   OH2 2471   5.931   0.686   2.552
  822TIP3    H1 2472   5.976   0.737   2.485
  822TIP3    H2 2473   5.840   0.683   2.523
  823TIP3   OH2 2474   0.458   1.309   3.548
  823TIP3    H1 2475   0.552   1.328   3.549
  823TIP3    H2 2476   0.448   1.242   3.481
  824TIP3   OH2 2477   3.360   5.113   4.463
  824TIP3    H1 2478   3.394   5.200   4.484
  824TIP3    H2 2479   3.423   5.053   4.503
  825TIP3   OH2 2480   3.317   2.531   4.004
  825TIP3    H1 2481   3.391   2.479   3.974
  825TIP3    H2 2482   3.270   2.474   4.064
  826TIP3   OH2 2483   1.227   3.492   3.013
  826TIP3    H1 2484   1.237   3.525   3.102
  826TIP3    H2 2485   1.169   3.416   3.022
  827TIP3   OH2 2486   0.492   5.572   0.695
  827TIP3    H1 2487   0.524   5.494   0.741
  827TIP3    H2 2488   0.543   5.644   0.731
  828TIP3   OH2 2489   3.788   3.353   2.149
  828TIP3    H1 2490   3.703   3.363   2.192
  828TIP3    H2 2491   3.842   3.423   2.187
  829TIP3   OH2 2492   3.012   4.970   4.953
  829TIP3    H1 2493   2.984   5.050   4.907
  829TIP3    H2 2494   3.088   4.940   4.903
  830TIP3   OH2 2495   5.224   4.255   2.499
  830TIP3    H1 2496   5.262   4.185   2.446
  830TIP3    H2 2497   5.170   4.305   2.437
  831TIP3   OH2 2498   4.217   5.151   4.440
  831TIP3    H1 2499   4.293   5.180   4.389
  831TIP3    H2 2500   4.220   5.055   4.434
  832TIP3   OH2 2501   5.439   5.777   3.587
  832TIP3    H1 2502   5.389   5.696   3.578
  832TIP3    H2 2503   5.493   5.781   3.508
  833TIP3   OH2 2504   5.137   2.091   2.042
  833TIP3    H1 2505   5.109   2.178   2.014
  833TIP3    H2 2506   5.067   2.033   2.014
  834TIP3   OH2 2507   5.702   3.358   1.661
  834TIP3    H1 2508   5.668   3.296   1.725
  834TIP3    H2 2509   5.682   3.319   1.576
  835TIP3   OH2 2510   5.557   2.572   2.338
  835TIP3    H1 2511   5.526   2.538   2.254
  835TIP3    H2 2512   5.520   2.659   2.344
  836TIP3   OH2 2513   1.580   1.274   1.133
  836TIP3    H1 2514   1.664   1.247   1.168
  836TIP3    H2 2515   1.516   1.245   1.198
  837TIP3   OH2 2516   1.632   3.847   4.244
  837TIP3    H1 2517   1.664   3.781   4.305
  837TIP3    H2 2518   1.688   3.923   4.259
  838TIP3   OH2 2519   3.058   0.494   2.750
  838TIP3    H1 2520   3.031   0.484   2.841
  838TIP3    H2 2521   3.015   0.422   2.704
  839TIP3   OH2 2522   2.861   0.468   2.135
  839TIP3    H1 2523   2.932   0.531   2.141
  839TIP3    H2 2524   2.846   0.439   2.225
  840TIP3   OH2 2525   3.297   1.179   4.752
  840TIP3    H1 2526   3.360   1.139   4.812
  840TIP3    H2 2527   3.304   1.273   4.768
  841TIP3   OH2 2528   3.877   0.532   3.746
  841TIP3    H1 2529   3.950   0.554   3.803
  841TIP3    H2 2530   3.878   0.599   3.677
  842TIP3   OH2 2531   4.490   0.037   2.917
  842TIP3    H1 2532   4.505  -0.050   2.954
  842TIP3    H2 2533   4.417   0.025   2.856
  843TIP3   OH2 2534   2.910   5.561   0.512
  843TIP3    H1 2535   2.851   5.621   0.467
  843TIP3    H2 2536   2.991   5.611   0.525
  844TIP3   OH2 2537   3.287   0.385   0.989
  844TIP3    H1 2538   3.225   0.455   0.968
  844TIP3    H2 2539   3.234   0.317   1.028
  845TIP3   OH2 2540   4.791   4.884   1.360
  845TIP3    H1 2541   4.864   4.938   1.393
  845TIP3    H2 2542   4.728   4.884   1.432
  846TIP3   OH2 2543   2.190   4.521   0.026
  846TIP3    H1 2544   2.201   4.551   0.116
  846TIP3    H2 2545   2.222   4.594  -0.027
  847TIP3   OH2 2546   4.869   5.091   4.787
  847TIP3    H1 2547   4.954   5.095   4.745
  847TIP3    H2 2548   4.861   5.173   4.836
  848TIP3   OH2 2549   3.150   1.815   2.789
  848TIP3    H1 2550   3.137   1.898   2.834
  848TIP3    H2 2551   3.063   1.776   2.784
  849TIP3   OH2 2552   2.737   2.776   4.215
  849TIP3    H1 2553   2.766   2.859   4.176
  849TIP3    H2 2554   2.709   2.724   4.140
  850TIP3   OH2 2555   1.575   5.941   0.438
  850TIP3    H1 2556   1.509   5.872   0.438
  850TIP3    H2 2557   1.615   5.937   0.524
  851TIP3   OH2 2558   6.168   4.403   0.961
  851TIP3    H1 2559   6.167   4.466   1.034
  851TIP3    H2 2560   6.091   4.425   0.909
  852TIP3   OH2 2561   0.287   2.339   0.813
  852TIP3    H1 2562   0.324   2.409   0.866
  852TIP3    H2 2563   0.332   2.345   0.729
  853TIP3   OH2 2564   6.293   2.619   4.930
  853TIP3    H1 2565   6.340   2.703   4.928
  853TIP3    H2 2566   6.201   2.643   4.935
  854TIP3   OH2 2567   2.494   3.396   2.139
  854TIP3    H1 2568   2.579   3.436   2.158
  854TIP3    H2 2569   2.442   3.467   2.099
  855TIP3   OH2 2570   4.218   2.280   4.343
  855TIP3    H1 2571   4.307   2.280   4.379
  855TIP3    H2 2572   4.202   2.189   4.319
  856TIP3   OH2 2573   0.106   5.178   4.538
  856TIP3    H1 2574   0.012   5.177   4.526
  856TIP3    H2 2575   0.135   5.261   4.502
  857TIP3   OH2 2576   2.071   5.118   0.296
  857TIP3    H1 2577   2.141   5.183   0.285
  857TIP3    H2 2578   2.089   5.079   0.382
  858TIP3   OH2 2579   2.970   2.089   1.094
  858TIP3    H1 2580   2.980   2.173   1.050
  858TIP3    H2 2581   2.934   2.031   1.027
  859TIP3   OH2 2582   1.914   2.653   2.008
  859TIP3    H1 2583   1.907   2.657   1.912
  859TIP3    H2 2584   1.835   2.698   2.039
  860TIP3   OH2 2585   5.728   4.982   1.267
  860TIP3    H1 2586   5.793   4.972   1.198
  860TIP3    H2 2587   5.668   5.049   1.235
  861TIP3   OH2 2588   4.985   1.751   1.329
  861TIP3    H1 2589   5.007   1.802   1.407
  861TIP3    H2 2590   5.024   1.665   1.344
  862TIP3   OH2 2591   2.270   5.012   0.502
  862TIP3    H1 2592   2.307   5.026   0.589
  862TIP3    H2 2593   2.287   4.919   0.484
  863TIP3   OH2 2594   5.408   0.593   1.325
  863TIP3    H1 2595   5.327   0.542   1.323
  863TIP3    H2 2596   5.478   0.528   1.334
  864TIP3   OH2 2597   5.285   1.357   0.243
  864TIP3    H1 2598   5.367   1.400   0.268
  864TIP3    H2 2599   5.280   1.369   0.148
  865TIP3   OH2 2600   4.910   3.150   2.199
  865TIP3    H1 2601   4.851   3.092   2.246
  865TIP3    H2 2602   4.854   3.219   2.164
  866TIP3   OH2 2603   2.225   5.405   2.455
  866TIP3    H1 2604   2.203   5.424   2.364
  866TIP3    H2 2605   2.199   5.483   2.503
  867TIP3   OH2 2606   3.605   0.932   4.221
  867TIP3    H1 2607   3.522   0.949   4.175
  867TIP3    H2 2608   3.673   0.963   4.161
  868TIP3   OH2 2609   2.274   3.310   3.436
  868TIP3    H1 2610   2.340   3.348   3.494
  868TIP3    H2 2611   2.320   3.299   3.352
  869TIP3   OH2 2612   5.265   5.534   4.600
  869TIP3    H1 2613   5.187   5.587   4.615
  869TIP3    H2 2614   5.333   5.598   4.578
  870TIP3   OH2 2615   4.713   2.329   4.603
  870TIP3    H1 2616   4.743   2.418   4.588
  870TIP3    H2 2617   4.794   2.277   4.605
  871TIP3   OH2 2618   0.978   0.304   0.389
  871TIP3    H1 2619   0.888   0.334   0.376
  871TIP3    H2 2620   1.009   0.354   0.464
  872TIP3   OH2 2621   3.020   2.990   1.962
  872TIP3    H1 2622   2.990   3.063   2.016
  872TIP3    H2 2623   3.105   3.019   1.928
  873TIP3   OH2 2624   1.195   4.416   1.612
  873TIP3    H1 2625   1.245   4.363   1.551
  873TIP3    H2 2626   1.238   4.502   1.611
  874TIP3   OH2 2627   4.575   4.864   4.396
  874TIP3    H1 2628   4.545   4.861   4.487
  874TIP3    H2 2629   4.504   4.823   4.346
  875TIP3   OH2 2630   2.471   1.647   4.580
  875TIP3    H1 2631   2.404   1.691   4.632
  875TIP3    H2 2632   2.502   1.713   4.519
  876TIP3   OH2 2633   3.845   2.643   2.289
  876TIP3    H1 2634   3.872   2.567   2.341
  876TIP3    H2 2635   3.759   2.667   2.324
  877TIP3   OH2 2636   1.789   3.815   1.525
  877TIP3    H1 2637   1.824   3.775   1.605
  877TIP3    H2 2638   1.811   3.753   1.455
  878TIP3   OH2 2639   4.237   5.011   0.059
  878TIP3    H1 2640   4.213   5.094   0.018
  878TIP3    H2 2641   4.322   5.028   0.098
  879TIP3   OH2 2642   1.275   5.545   2.658
  879TIP3    H1 2643   1.232   5.462   2.677
  879TIP3    H2 2644   1.206   5.600   2.621
  880TIP3   OH2 2645   3.566   4.824   3.542
  880TIP3    H1 2646   3.503   4.752   3.543
  880TIP3    H2 2647   3.512   4.904   3.540
  881TIP3   OH2 2648   6.219   1.072   4.701
  881TIP3    H1 2649   6.141   1.025   4.671
  881TIP3    H2 2650   6.286   1.005   4.710
  882TIP3   OH2 2651   2.457   2.359   0.732
  882TIP3    H1 2652   2.397   2.349   0.658
  882TIP3    H2 2653   2.541   2.381   0.692
  883TIP3   OH2 2654   1.201   1.037   4.111
  883TIP3    H1 2655   1.160   1.018   4.195
  883TIP3    H2 2656   1.246   1.120   4.124
  884TIP3   OH2 2657   0.181   2.645   3.937
  884TIP3    H1 2658   0.240   2.570   3.927
  884TIP3    H2 2659   0.237   2.716   3.969
  885TIP3   OH2 2660   1.945   0.440   2.043
  885TIP3    H1 2661   1.972   0.416   1.954
  885TIP3    H2 2662   2.023   0.426   2.096
  886TIP3   OH2 2663   0.109   3.443   2.673
  886TIP3    H1 2664   0.173   3.464   2.605
  886TIP3    H2 2665   0.042   3.391   2.628
  887TIP3   OH2 2666   5.157   4.506   4.261
  887TIP3    H1 2667   5.091   4.528   4.194
  887TIP3    H2 2668   5.232   4.476   4.211
  888TIP3   OH2 2669   2.218   3.202   3.039
  888TIP3    H1 2670   2.304   3.198   2.997
  888TIP3    H2 2671   2.166   3.135   2.996
  889TIP3   OH2 2672   4.225   4.834   3.512
  889TIP3    H1 2673   4.150   4.835   3.453
  889TIP3    H2 2674   4.240   4.926   3.534
  890TIP3   OH2 2675   0.697   4.188   0.217
  890TIP3    H1 2676   0.748   4.224   0.145
  890TIP3    H2 2677   0.689   4.095   0.196
  891TIP3   OH2 2678   6.232   3.220   4.273
  891TIP3    H1 2679   6.176   3.226   4.350
  891TIP3    H2 2680   6.269   3.132   4.277
  892TIP3   OH2 2681   3.633   1.993   2.787
  892TIP3    H1 2682   3.703   1.933   2.763
  892TIP3    H2 2683   3.553   1.940   2.787
  893TIP3   OH2 2684   1.283   1.320   4.118
  893TIP3    H1 2685   1.315   1.372   4.192
  893TIP3    H2 2686   1.359   1.309   4.062
  894TIP3   OH2 2687   0.287   3.354   2.251
  894TIP3    H1 2688   0.207   3.325   2.207
  894TIP3    H2 2689   0.287   3.449   2.241
  895TIP3   OH2 2690   5.268   4.103   1.871
  895TIP3    H1 2691   5.222   4.082   1.952
  895TIP3    H2 2692   5.346   4.048   1.873
  896TIP3   OH2 2693   2.794   0.784   2.116
  896TIP3    H1 2694   2.744   0.722   2.170
  896TIP3    H2 2695   2.835   0.843   2.179
  897TIP3   OH2 2696   5.684   5.132   4.280
  897TIP3    H1 2697   5.698   5.226   4.296
  897TIP3    H2 2698   5.600   5.114   4.320
  898TIP3   OH2 2699   2.707   2.232   2.347
  898TIP3    H1 2700   2.678   2.155   2.395
  898TIP3    H2 2701   2.637   2.248   2.283
  899TIP3   OH2 2702   5.674   2.853   3.845
  899TIP3    H1 2703   5.614   2.780   3.831
  899TIP3    H2 2704   5.705   2.842   3.934
  900TIP3   OH2 2705   1.132   2.879   2.538
  900TIP3    H1 2706   1.093   2.966   2.528
  900TIP3    H2 2707   1.136   2.844   2.449
  901TIP3   OH2 2708   4.044   5.215   1.212
  901TIP3    H1 2709   4.131   5.178   1.196
  901TIP3    H2 2710   4.061   5.305   1.239
  902TIP3   OH2 2711   5.242   2.300   0.053
  902TIP3    H1 2712   5.260   2.273   0.143
  902TIP3    H2 2713   5.156   2.342   0.058
  903TIP3   OH2 2714   3.278   4.349   0.460
  903TIP3    H1 2715   3.188   4.367   0.486
  903TIP3    H2 2716   3.327   4.427   0.489
  904TIP3   OH2 2717   3.546   2.784   1.276
  904TIP3    H1 2718   3.517   2.700   1.313
  904TIP3    H2 2719   3.604   2.760   1.204
  905TIP3   OH2 2720   4.858   5.061   3.934
  905TIP3    H1 2721   4.814   4.993   3.883
  905TIP3    H2 2722   4.812   5.141   3.911
  906TIP3   OH2 2723   1.369   0.086   3.180
  906TIP3    H1 2724   1.348   0.162   3.126
  906TIP3    H2 2725   1.425   0.032   3.123
  907TIP3   OH2 2726   6.324   0.671   4.371
  907TIP3    H1 2727   6.411   0.689   4.406
  907TIP3    H2 2728   6.305   0.582   4.399
  908TIP3   OH2 2729   0.966   1.631   4.821
  908TIP3    H1 2730   1.008   1.550   4.794
  908TIP3    H2 2731   0.963   1.626   4.917
  909TIP3   OH2 2732   3.260   2.946   3.899
  909TIP3    H1 2733   3.198   2.956   3.971
  909TIP3    H2 2734   3.320   2.878   3.929
  910TIP3   OH2 2735   4.009   3.832   1.520
  910TIP3    H1 2736   3.967   3.817   1.435
  910TIP3    H2 2737   4.081   3.891   1.501
  911TIP3   OH2 2738   0.953   1.284   3.011
  911TIP3    H1 2739   0.966   1.362   2.958
  911TIP3    H2 2740   0.943   1.213   2.948
  912TIP3   OH2 2741   1.360   1.519   3.847
  912TIP3    H1 2742   1.338   1.521   3.754
  912TIP3    H2 2743   1.278   1.495   3.890
  913TIP3   OH2 2744   4.531   1.464   0.102
  913TIP3    H1 2745   4.544   1.379   0.143
  913TIP3    H2 2746   4.619   1.500   0.092
  914TIP3   OH2 2747   6.229   1.969   4.468
  914TIP3    H1 2748   6.177   1.947   4.546
  914TIP3    H2 2749   6.179   1.931   4.395
  915TIP3   OH2 2750   1.537   2.065   0.258
  915TIP3    H1 2751   1.478   1.990   0.267
  915TIP3    H2 2752   1.479   2.139   0.242
  916TIP3   OH2 2753   3.285   3.057   1.883
  916TIP3    H1 2754   3.262   3.133   1.829
  916TIP3    H2 2755   3.350   3.010   1.831
  917TIP3   OH2 2756   2.569   5.389   0.442
  917TIP3    H1 2757   2.511   5.340   0.384
  917TIP3    H2 2758   2.524   5.389   0.527
  918TIP3   OH2 2759   1.059   2.484   2.200
  918TIP3    H1 2760   0.992   2.519   2.258
  918TIP3    H2 2761   1.130   2.549   2.203
  919TIP3   OH2 2762   4.898   5.558   0.709
  919TIP3    H1 2763   4.832   5.490   0.693
  919TIP3    H2 2764   4.980   5.509   0.719
  920TIP3   OH2 2765   3.466   3.447   0.171
  920TIP3    H1 2766   3.532   3.387   0.137
  920TIP3    H2 2767   3.422   3.481   0.092
  921TIP3   OH2 2768   3.728   4.910   3.316
  921TIP3    H1 2769   3.700   4.881   3.403
  921TIP3    H2 2770   3.742   5.004   3.326
  922TIP3   OH2 2771   6.096   5.161   3.941
  922TIP3    H1 2772   6.015   5.139   3.894
  922TIP3    H2 2773   6.114   5.252   3.918
  923TIP3   OH2 2774   1.243   4.090   4.250
  923TIP3    H1 2775   1.313   4.104   4.313
  923TIP3    H2 2776   1.247   3.996   4.230
  924TIP3   OH2 2777   4.122   1.720   2.323
  924TIP3    H1 2778   4.209   1.756   2.304
  924TIP3    H2 2779   4.062   1.792   2.303
  925TIP3   OH2 2780   5.667   3.429   2.051
  925TIP3    H1 2781   5.630   3.359   1.996
  925TIP3    H2 2782   5.727   3.476   1.994
  926TIP3   OH2 2783   3.295   0.352   0.276
  926TIP3    H1 2784   3.207   0.358   0.315
  926TIP3    H2 2785   3.351   0.325   0.348
  927TIP3   OH2 2786   1.656   5.515   3.485
  927TIP3    H1 2787   1.634   5.511   3.392
  927TIP3    H2 2788   1.591   5.459   3.528
  928TIP3   OH2 2789   4.789   2.365   3.463
  928TIP3    H1 2790   4.826   2.281   3.436
  928TIP3    H2 2791   4.724   2.385   3.395
  929TIP3   OH2 2792   1.341   0.420   0.553
  929TIP3    H1 2793   1.304   0.440   0.467
  929TIP3    H2 2794   1.433   0.448   0.546
  930TIP3   OH2 2795   1.446   1.067   4.362
  930TIP3    H1 2796   1.375   1.034   4.307
  930TIP3    H2 2797   1.511   0.997   4.362
  931TIP3   OH2 2798   2.747   0.203   1.663
  931TIP3    H1 2799   2.768   0.110   1.672
  931TIP3    H2 2800   2.768   0.241   1.748
  932TIP3   OH2 2801   5.139   4.095   4.903
  932TIP3    H1 2802   5.184   4.161   4.850
  932TIP3    H2 2803   5.113   4.028   4.840
  933TIP3   OH2 2804   5.474   5.432   2.510
  933TIP3    H1 2805   5.433   5.465   2.431
  933TIP3    H2 2806   5.565   5.416   2.485
  934TIP3   OH2 2807   2.099   1.404   1.280
  934TIP3    H1 2808   2.121   1.456   1.357
  934TIP3    H2 2809   2.112   1.313   1.307
  935TIP3   OH2 2810   1.396   4.426   0.120
  935TIP3    H1 2811   1.391   4.427   0.215
  935TIP3    H2 2812   1.489   4.442   0.100
  936TIP3   OH2 2813   3.346   2.772   1.528
  936TIP3    H1 2814   3.381   2.850   1.484
  936TIP3    H2 2815   3.251   2.785   1.526
  937TIP3   OH2 2816   2.262   4.202   4.053
  937TIP3    H1 2817   2.257   4.252   4.134
  937TIP3    H2 2818   2.354   4.178   4.045
  938TIP3   OH2 2819   0.537   4.745   0.301
  938TIP3    H1 2820   0.565   4.666   0.346
  938TIP3    H2 2821   0.612   4.771   0.249
  939TIP3   OH2 2822   0.154   1.490   3.846
  939TIP3    H1 2823   0.186   1.490   3.756
  939TIP3    H2 2824   0.221   1.538   3.895
  940TIP3   OH2 2825   4.770   0.661   3.458
  940TIP3    H1 2826   4.841   0.669   3.395
  940TIP3    H2 2827   4.773   0.742   3.509
  941TIP3   OH2 2828   0.703   0.486   3.010
  941TIP3    H1 2829   0.762   0.557   2.984
  941TIP3    H2 2830   0.729   0.412   2.956
  942TIP3   OH2 2831   2.343   0.754   4.806
  942TIP3    H1 2832   2.357   0.755   4.900
  942TIP3    H2 2833   2.247   0.756   4.796
  943TIP3   OH2 2834   3.027   2.321   3.451
  943TIP3    H1 2835   2.993   2.397   3.500
  943TIP3    H2 2836   3.054   2.357   3.367
  944TIP3   OH2 2837   2.418   1.297   0.712
  944TIP3    H1 2838   2.419   1.229   0.779
  944TIP3    H2 2839   2.510   1.322   0.702
  945TIP3   OH2 2840   2.189   3.764   4.877
  945TIP3    H1 2841   2.190   3.762   4.781
  945TIP3    H2 2842   2.280   3.784   4.901
  946TIP3   OH2 2843   0.414   4.113   4.292
  946TIP3    H1 2844   0.376   4.031   4.324
  946TIP3    H2 2845   0.428   4.099   4.199
  947TIP3   OH2 2846   1.898   0.846   3.814
  947TIP3    H1 2847   1.893   0.933   3.855
  947TIP3    H2 2848   1.948   0.794   3.876
  948TIP3   OH2 2849   2.970   0.117   5.012
  948TIP3    H1 2850   2.879   0.096   5.034
  948TIP3    H2 2851   2.972   0.118   4.917
  949TIP3   OH2 2852   4.185   4.130   0.866
  949TIP3    H1 2853   4.267   4.178   0.878
  949TIP3    H2 2854   4.154   4.158   0.779
  950TIP3   OH2 2855   4.716   1.028   1.417
  950TIP3    H1 2856   4.673   0.946   1.394
  950TIP3    H2 2857   4.719   1.028   1.513
  951TIP3   OH2 2858   1.741   2.512   0.652
  951TIP3    H1 2859   1.666   2.464   0.688
  951TIP3    H2 2860   1.807   2.508   0.721
  952TIP3   OH2 2861   3.732   0.234   3.159
  952TIP3    H1 2862   3.675   0.310   3.168
  952TIP3    H2 2863   3.780   0.230   3.242
  953TIP3   OH2 2864   0.646   1.201   1.023
  953TIP3    H1 2865   0.675   1.292   1.019
  953TIP3    H2 2866   0.664   1.166   0.936
  954TIP3   OH2 2867   5.201   3.515   3.551
  954TIP3    H1 2868   5.212   3.498   3.645
  954TIP3    H2 2869   5.143   3.446   3.520
  955TIP3   OH2 2870   3.912   1.900   4.715
  955TIP3    H1 2871   3.975   1.971   4.720
  955TIP3    H2 2872   3.878   1.904   4.626
  956TIP3   OH2 2873   2.190   2.453   0.285
  956TIP3    H1 2874   2.249   2.452   0.210
  956TIP3    H2 2875   2.223   2.523   0.341
  957TIP3   OH2 2876   1.601   5.487   3.213
  957TIP3    H1 2877   1.689   5.474   3.177
  957TIP3    H2 2878   1.557   5.403   3.201
  958TIP3   OH2 2879   4.508   3.908   3.962
  958TIP3    H1 2880   4.439   3.930   3.899
  958TIP3    H2 2881   4.586   3.893   3.909
  959TIP3   OH2 2882   2.538   5.736   5.062
  959TIP3    H1 2883   2.458   5.713   5.110
  959TIP3    H2 2884   2.590   5.786   5.125
  960TIP3   OH2 2885   1.449   4.930   4.986
  960TIP3    H1 2886   1.438   4.884   4.903
  960TIP3    H2 2887   1.389   4.886   5.046
  961TIP3   OH2 2888   1.907   4.565   2.331
  961TIP3    H1 2889   1.894   4.660   2.330
  961TIP3    H2 2890   1.998   4.553   2.305
  962TIP3   OH2 2891   1.143   3.794   4.559
  962TIP3    H1 2892   1.237   3.778   4.546
  962TIP3    H2 2893   1.136   3.888   4.575
  963TIP3   OH2 2894   5.814   3.034   1.141
  963TIP3    H1 2895   5.819   3.111   1.198
  963TIP3    H2 2896   5.886   2.978   1.170
  964TIP3   OH2 2897   4.016   3.933   4.949
  964TIP3    H1 2898   4.002   4.024   4.924
  964TIP3    H2 2899   4.080   3.900   4.886
  965TIP3   OH2 2900   2.056   1.803   0.216
  965TIP3    H1 2901   2.098   1.717   0.214
  965TIP3    H2 2902   2.042   1.821   0.309
  966TIP3   OH2 2903   2.720   2.011   5.027
  966TIP3    H1 2904   2.707   1.924   4.991
  966TIP3    H2 2905   2.811   2.012   5.057
  967TIP3   OH2 2906   2.570   5.580   4.492
  967TIP3    H1 2907   2.581   5.518   4.564
  967TIP3    H2 2908   2.499   5.638   4.521
  968TIP3   OH2 2909   5.270   0.111   3.731
  968TIP3    H1 2910   5.350   0.060   3.720
  968TIP3    H2 2911   5.236   0.084   3.816
  969TIP3   OH2 2912   4.921   3.905   3.669
  969TIP3    H1 2913   4.961   3.927   3.585
  969TIP3    H2 2914   4.981   3.842   3.709
  970TIP3   OH2 2915   6.224   0.215   3.079
  970TIP3    H1 2916   6.269   0.269   3.014
  970TIP3    H2 2917   6.207   0.132   3.035
  971TIP3   OH2 2918   4.547   1.382   4.390
  971TIP3    H1 2919   4.528   1.319   4.459
  971TIP3    H2 2920   4.622   1.432   4.422
  972TIP3   OH2 2921   5.570   0.339   4.936
  972TIP3    H1 2922   5.599   0.407   4.875
  972TIP3    H2 2923   5.582   0.257   4.888
  973TIP3   OH2 2924   5.951   5.908   1.815
  973TIP3    H1 2925   5.979   5.854   1.741
  973TIP3    H2 2926   5.973   5.997   1.789
  974TIP3   OH2 2927   5.170   1.125   1.498
  974TIP3    H1 2928   5.228   1.192   1.533
  974TIP3    H2 2929   5.097   1.174   1.460
  975TIP3   OH2 2930   3.806   3.497   2.457
  975TIP3    H1 2931   3.778   3.584   2.429
  975TIP3    H2 2932   3.735   3.439   2.431
  976TIP3   OH2 2933   3.338   2.953   2.140
  976TIP3    H1 2934   3.341   2.985   2.050
  976TIP3    H2 2935   3.357   3.030   2.194
  977TIP3   OH2 2936   5.621   3.074   3.991
  977TIP3    H1 2937   5.648   3.006   3.929
  977TIP3    H2 2938   5.695   3.134   3.994
  978TIP3   OH2 2939   1.029   0.283   2.260
  978TIP3    H1 2940   0.963   0.238   2.208
  978TIP3    H2 2941   0.991   0.370   2.277
  979TIP3   OH2 2942   0.573   2.798   4.960
  979TIP3    H1 2943   0.519   2.834   4.889
  979TIP3    H2 2944   0.626   2.731   4.917
  980TIP3   OH2 2945   5.447   4.080   5.130
  980TIP3    H1 2946   5.507   4.070   5.204
  980TIP3    H2 2947   5.368   4.032   5.157
  981TIP3   OH2 2948   4.543   2.741   4.543
  981TIP3    H1 2949   4.486   2.750   4.466
  981TIP3    H2 2950   4.500   2.675   4.597
  982TIP3   OH2 2951   0.323   3.615   1.337
  982TIP3    H1 2952   0.323   3.663   1.254
  982TIP3    H2 2953   0.281   3.531   1.315
  983TIP3   OH2 2954   1.436   4.340   3.819
  983TIP3    H1 2955   1.355   4.306   3.781
  983TIP3    H2 2956   1.494   4.353   3.744
  984TIP3   OH2 2957   1.626   2.087   2.180
  984TIP3    H1 2958   1.677   2.126   2.108
  984TIP3    H2 2959   1.537   2.117   2.165
  985TIP3   OH2 2960   1.938   4.726   0.099
  985TIP3    H1 2961   1.913   4.655   0.040
  985TIP3    H2 2962   1.871   4.725   0.167
  986TIP3   OH2 2963   3.869   5.773   0.954
  986TIP3    H1 2964   3.802   5.716   0.916
  986TIP3    H2 2965   3.841   5.862   0.932
  987TIP3   OH2 2966   1.239   3.517   4.617
  987TIP3    H1 2967   1.295   3.456   4.665
  987TIP3    H2 2968   1.298   3.587   4.589
  988TIP3   OH2 2969   2.101   5.616   2.574
  988TIP3    H1 2970   2.023   5.669   2.555
  988TIP3    H2 2971   2.085   5.580   2.661
  989TIP3   OH2 2972   2.787   4.761   2.491
  989TIP3    H1 2973   2.704   4.732   2.453
  989TIP3    H2 2974   2.802   4.700   2.563
  990TIP3   OH2 2975   1.261   5.717   0.767
  990TIP3    H1 2976   1.217   5.675   0.692
  990TIP3    H2 2977   1.225   5.672   0.843
  991TIP3   OH2 2978   2.995   0.496   1.864
  991TIP3    H1 2979   3.038   0.417   1.895
  991TIP3    H2 2980   2.919   0.465   1.815
  992TIP3   OH2 2981   1.908   3.673   1.746
  992TIP3    H1 2982   1.918   3.599   1.806
  992TIP3    H2 2983   1.998   3.706   1.734
  993TIP3   OH2 2984   5.631   4.510   3.039
  993TIP3    H1 2985   5.544   4.547   3.024
  993TIP3    H2 2986   5.670   4.566   3.106
  994TIP3   OH2 2987   5.120   5.289   0.989
  994TIP3    H1 2988   5.060   5.295   0.914
  994TIP3    H2 2989   5.107   5.372   1.035
  995TIP3   OH2 2990   2.774   1.762   4.554
  995TIP3    H1 2991   2.761   1.694   4.620
  995TIP3    H2 2992   2.845   1.816   4.589
  996TIP3   OH2 2993   0.476   0.255   0.155
  996TIP3    H1 2994   0.497   0.321   0.090
  996TIP3    H2 2995   0.380   0.251   0.154
  997TIP3   OH2 2996   4.910   2.409   4.847
  997TIP3    H1 2997   4.952   2.428   4.931
  997TIP3    H2 2998   4.940   2.321   4.825
  998TIP3   OH2 2999   3.027   1.491   3.756
  998TIP3    H1 3000   3.069   1.562   3.804
  998TIP3    H2 3001   3.050   1.506   3.665
  999TIP3   OH2 3002   5.646   3.593   0.830
  999TIP3    H1 3003   5.598   3.656   0.776
  999TIP3    H2 3004   5.655   3.516   0.774
 1000TIP3   OH2 3005   3.121   2.066   2.888
 1000TIP3    H1 3006   3.104   2.151   2.848
 1000TIP3    H2 3007   3.211   2.073   2.922
 1001TIP3   OH2 3008   1.693   0.950   4.355
 1001TIP3    H1 3009   1.786   0.939   4.375
 1001TIP3    H2 3010   1.683   0.915   4.266
 1002TIP3   OH2 3011   1.605   0.705   1.718
 1002TIP3    H1 3012   1.671   0.642   1.691
 1002TIP3    H2 3013   1.555   0.660   1.787
 1003TIP3   OH2 3014   4.913   5.778   4.322
 1003TIP3    H1 3015   4.868   5.811   4.243
 1003TIP3    H2 3016   4.976   5.846   4.344
 1004TIP3   OH2 3017   5.103   2.718   4.319
 1004TIP3    H1 3018   5.071   2.629   4.311
 1004TIP3    H2 3019   5.152   2.720   4.401
 1005TIP3   OH2 3020   3.752   1.484   1.998
 1005TIP3    H1 3021   3.744   1.538   2.077
 1005TIP3    H2 3022   3.681   1.513   1.941
 1006TIP3   OH2 3023   2.986   1.055   1.102
 1006TIP3    H1 3024   3.018   1.090   1.185
 1006TIP3    H2 3025   2.891   1.066   1.106
 1007TIP3   OH2 3026   2.816   1.308   3.804
 1007TIP3    H1 3027   2.756   1.360   3.750
 1007TIP3    H2 3028   2.900   1.353   3.798
 1008TIP3   OH2 3029   3.466   3.734   2.555
 1008TIP3    H1 3030   3.477   3.639   2.561
 1008TIP3    H2 3031   3.401   3.755   2.623
 1009TIP3   OH2 3032   3.269   3.522   0.341
 1009TIP3    H1 3033   3.298   3.609   0.366
 1009TIP3    H2 3034   3.326   3.497   0.268
 1010TIP3   OH2 3035   1.788   0.185   1.827
 1010TIP3    H1 3036   1.774   0.202   1.920
 1010TIP3    H2 3037   1.846   0.256   1.799
 1011TIP3   OH2 3038   1.157   0.591   0.098
 1011TIP3    H1 3039   1.073   0.600   0.143
 1011TIP3    H2 3040   1.135   0.593   0.005
 1012TIP3   OH2 3041   1.555   2.473   3.005
 1012TIP3    H1 3042   1.536   2.435   2.920
 1012TIP3    H2 3043   1.546   2.568   2.992
 1013TIP3   OH2 3044   6.128   5.632   5.020
 1013TIP3    H1 3045   6.135   5.581   5.101
 1013TIP3    H2 3046   6.109   5.567   4.953
 1014TIP3   OH2 3047   2.571   1.991   0.357
 1014TIP3    H1 3048   2.532   1.905   0.344
 1014TIP3    H2 3049   2.662   1.980   0.330
 1015TIP3   OH2 3050   5.835   4.278   3.882
 1015TIP3    H1 3051   5.752   4.233   3.899
 1015TIP3    H2 3052   5.809   4.366   3.854
 1016TIP3   OH2 3053   4.013   4.370   3.809
 1016TIP3    H1 3054   3.972   4.328   3.885
 1016TIP3    H2 3055   3.968   4.454   3.801
 1017TIP3   OH2 3056   1.399   3.069   0.165
 1017TIP3    H1 3057   1.420   3.160   0.144
 1017TIP3    H2 3058   1.463   3.043   0.232
 1018TIP3   OH2 3059   1.787   0.565   2.313
 1018TIP3    H1 3060   1.877   0.569   2.281
 1018TIP3    H2 3061   1.795   0.541   2.405
 1019TIP3   OH2 3062   3.758   3.750   4.292
 1019TIP3    H1 3063   3.846   3.785   4.276
 1019TIP3    H2 3064   3.768   3.693   4.368
 1020TIP3   OH2 3065   5.409   5.498   3.493
 1020TIP3    H1 3066   5.404   5.455   3.407
 1020TIP3    H2 3067   5.502   5.499   3.513
 1021TIP3   OH2 3068   4.182   5.199   3.747
 1021TIP3    H1 3069   4.191   5.105   3.764
 1021TIP3    H2 3070   4.128   5.232   3.818
 1022TIP3   OH2 3071   3.096   3.137   1.431
 1022TIP3    H1 3072   3.134   3.049   1.424
 1022TIP3    H2 3073   3.129   3.183   1.354
 1023TIP3   OH2 3074   2.531   3.859   3.133
 1023TIP3    H1 3075   2.589   3.935   3.135
 1023TIP3    H2 3076   2.443   3.895   3.123
 1024TIP3   OH2 3077   5.631   0.813   2.744
 1024TIP3    H1 3078   5.672   0.778   2.823
 1024TIP3    H2 3079   5.627   0.907   2.758
 1025TIP3   OH2 3080   0.356   4.017   0.781
 1025TIP3    H1 3081   0.389   4.006   0.870
 1025TIP3    H2 3082   0.343   3.927   0.749
 1026TIP3   OH2 3083   3.870   2.889   4.310
 1026TIP3    H1 3084   3.797   2.916   4.255
 1026TIP3    H2 3085   3.919   2.969   4.326
 1027TIP3   OH2 3086   1.115   2.424   0.208
 1027TIP3    H1 3087   1.145   2.494   0.265
 1027TIP3    H2 3088   1.177   2.352   0.224
 1028TIP3   OH2 3089   4.571   2.144   2.731
 1028TIP3    H1 3090   4.527   2.224   2.758
 1028TIP3    H2 3091   4.596   2.159   2.640
 1029TIP3   OH2 3092   3.138   1.074   3.288
 1029TIP3    H1 3093   3.111   1.114   3.206
 1029TIP3    H2 3094   3.060   1.078   3.344
 1030TIP3   OH2 3095   5.483   1.106   3.289
 1030TIP3    H1 3096   5.557   1.131   3.344
 1030TIP3    H2 3097   5.505   1.018   3.258
 1031TIP3   OH2 3098   6.231   3.867   0.653
 1031TIP3    H1 3099   6.278   3.818   0.720
 1031TIP3    H2 3100   6.140   3.864   0.679
 1032TIP3   OH2 3101   5.826   4.712   1.331
 1032TIP3    H1 3102   5.839   4.673   1.245
 1032TIP3    H2 3103   5.774   4.791   1.314
 1033TIP3   OH2 3104   4.647   2.327   4.860
 1033TIP3    H1 3105   4.672   2.389   4.928
 1033TIP3    H2 3106   4.680   2.367   4.779
 1034TIP3   OH2 3107   5.898   0.560   1.384
 1034TIP3    H1 3108   5.903   0.465   1.390
 1034TIP3    H2 3109   5.988   0.588   1.369
 1035TIP3   OH2 3110   6.125   3.691   4.705
 1035TIP3    H1 3111   6.207   3.676   4.752
 1035TIP3    H2 3112   6.138   3.648   4.620
 1036TIP3   OH2 3113   5.223   1.032   2.377
 1036TIP3    H1 3114   5.271   1.113   2.363
 1036TIP3    H2 3115   5.281   0.963   2.345
 1037TIP3   OH2 3116   6.130   5.694   1.960
 1037TIP3    H1 3117   6.047   5.674   1.918
 1037TIP3    H2 3118   6.109   5.760   2.026
 1038TIP3   OH2 3119   4.782   2.963   1.882
 1038TIP3    H1 3120   4.706   2.984   1.937
 1038TIP3    H2 3121   4.822   3.048   1.865
 1039TIP3   OH2 3122   3.401   4.088   3.087
 1039TIP3    H1 3123   3.319   4.054   3.121
 1039TIP3    H2 3124   3.441   4.132   3.162
 1040TIP3   OH2 3125   4.715   4.746   0.990
 1040TIP3    H1 3126   4.801   4.788   0.983
 1040TIP3    H2 3127   4.660   4.811   1.034
 1041TIP3   OH2 3128   0.455   1.320   0.677
 1041TIP3    H1 3129   0.496   1.290   0.596
 1041TIP3    H2 3130   0.362   1.303   0.665
 1042TIP3   OH2 3131   3.345   1.493   1.581
 1042TIP3    H1 3132   3.296   1.500   1.499
 1042TIP3    H2 3133   3.282   1.462   1.645
 1043TIP3   OH2 3134   2.547   3.061   1.467
 1043TIP3    H1 3135   2.504   3.134   1.423
 1043TIP3    H2 3136   2.630   3.049   1.420
 1044TIP3   OH2 3137   5.879   4.838   3.699
 1044TIP3    H1 3138   5.886   4.902   3.770
 1044TIP3    H2 3139   5.863   4.891   3.620
 1045TIP3   OH2 3140   5.253   3.732   5.095
 1045TIP3    H1 3141   5.262   3.643   5.129
 1045TIP3    H2 3142   5.208   3.722   5.011
 1046TIP3   OH2 3143   3.676   2.709   1.915
 1046TIP3    H1 3144   3.592   2.693   1.957
 1046TIP3    H2 3145   3.664   2.678   1.825
 1047TIP3   OH2 3146   4.011   1.964   3.215
 1047TIP3    H1 3147   3.945   1.921   3.269
 1047TIP3    H2 3148   4.062   1.892   3.177
 1048TIP3   OH2 3149   4.858   4.326   5.152
 1048TIP3    H1 3150   4.851   4.289   5.064
 1048TIP3    H2 3151   4.943   4.296   5.184
 1049TIP3   OH2 3152   5.284   4.230   4.703
 1049TIP3    H1 3153   5.297   4.309   4.651
 1049TIP3    H2 3154   5.351   4.234   4.771
 1050TIP3   OH2 3155   4.589   0.748   3.119
 1050TIP3    H1 3156   4.521   0.691   3.084
 1050TIP3    H2 3157   4.661   0.689   3.140
 1051TIP3   OH2 3158   4.315   1.546   4.077
 1051TIP3    H1 3159   4.297   1.517   4.166
 1051TIP3    H2 3160   4.246   1.610   4.058
 1052TIP3   OH2 3161   4.045   0.518   4.120
 1052TIP3    H1 3162   3.955   0.522   4.155
 1052TIP3    H2 3163   4.048   0.436   4.071
 1053TIP3   OH2 3164   3.242   4.603   2.081
 1053TIP3    H1 3165   3.260   4.513   2.108
 1053TIP3    H2 3166   3.163   4.628   2.129
 1054TIP3   OH2 3167   3.988   5.201   4.730
 1054TIP3    H1 3168   3.975   5.253   4.651
 1054TIP3    H2 3169   3.909   5.215   4.782
 1055TIP3   OH2 3170   1.570   4.290   2.444
 1055TIP3    H1 3171   1.629   4.325   2.510
 1055TIP3    H2 3172   1.601   4.328   2.362
 1056TIP3   OH2 3173   5.137   2.927   4.924
 1056TIP3    H1 3174   5.093   3.006   4.956
 1056TIP3    H2 3175   5.075   2.856   4.941
 1057TIP3   OH2 3176   1.736   4.238   4.489
 1057TIP3    H1 3177   1.829   4.235   4.512
 1057TIP3    H2 3178   1.710   4.146   4.482
 1058TIP3   OH2 3179   2.997   4.621   0.517
 1058TIP3    H1 3180   2.904   4.607   0.501
 1058TIP3    H2 3181   3.016   4.705   0.477
 1059TIP3   OH2 3182   5.543   2.919   4.231
 1059TIP3    H1 3183   5.552   2.955   4.143
 1059TIP3    H2 3184   5.494   2.837   4.219
 1060TIP3   OH2 3185   2.129   3.173   4.539
 1060TIP3    H1 3186   2.183   3.243   4.504
 1060TIP3    H2 3187   2.173   3.092   4.512
 1061TIP3   OH2 3188   1.837   2.869   1.370
 1061TIP3    H1 3189   1.914   2.823   1.402
 1061TIP3    H2 3190   1.769   2.802   1.367
 1062TIP3   OH2 3191   0.279   4.450   2.481
 1062TIP3    H1 3192   0.222   4.436   2.557
 1062TIP3    H2 3193   0.219   4.451   2.407
 1063TIP3   OH2 3194   4.206   4.868   4.481
 1063TIP3    H1 3195   4.244   4.784   4.507
 1063TIP3    H2 3196   4.201   4.918   4.562
 1064TIP3   OH2 3197   1.384   5.140   2.280
 1064TIP3    H1 3198   1.304   5.143   2.332
 1064TIP3    H2 3199   1.372   5.065   2.221
 1065TIP3   OH2 3200   5.175   5.959   0.084
 1065TIP3    H1 3201   5.204   5.884   0.032
 1065TIP3    H2 3202   5.158   5.924   0.171
 1066TIP3   OH2 3203   4.729   2.045   4.185
 1066TIP3    H1 3204   4.667   2.084   4.247
 1066TIP3    H2 3205   4.712   2.090   4.103
 1067TIP3   OH2 3206   0.060   3.182   4.629
 1067TIP3    H1 3207   0.014   3.108   4.590
 1067TIP3    H2 3208  -0.010   3.243   4.653
 1068TIP3   OH2 3209   3.145   0.675   0.315
 1068TIP3    H1 3210   3.111   0.597   0.360
 1068TIP3    H2 3211   3.066   0.721   0.285
 1069TIP3   OH2 3212   3.003   2.863   4.370
 1069TIP3    H1 3213   2.984   2.881   4.462
 1069TIP3    H2 3214   2.921   2.832   4.334
 1070TIP3   OH2 3215   4.511   1.844   3.972
 1070TIP3    H1 3216   4.562   1.921   3.947
 1070TIP3    H2 3217   4.577   1.780   4.000
 1071TIP3   OH2 3218   5.851   1.921   2.907
 1071TIP3    H1 3219   5.805   2.005   2.898
 1071TIP3    H2 3220   5.850   1.884   2.818
 1072TIP3   OH2 3221   0.054   2.498   3.690
 1072TIP3    H1 3222   0.067   2.546   3.771
 1072TIP3    H2 3223   0.141   2.468   3.664
 1073TIP3   OH2 3224   0.401   2.490   3.966
 1073TIP3    H1 3225   0.459   2.443   3.907
 1073TIP3    H2 3226   0.446   2.491   4.050
 1074TIP3   OH2 3227   5.377   3.955   3.900
 1074TIP3    H1 3228   5.302   3.909   3.937
 1074TIP3    H2 3229   5.392   3.914   3.814
 1075TIP3   OH2 3230   2.331   3.924   2.821
 1075TIP3    H1 3231   2.311   3.854   2.758
 1075TIP3    H2 3232   2.310   3.886   2.906
 1076TIP3   OH2 3233   3.366   5.159   1.972
 1076TIP3    H1 3234   3.291   5.140   2.028
 1076TIP3    H2 3235   3.365   5.254   1.962
 1077TIP3   OH2 3236   1.977   1.607   0.564
 1077TIP3    H1 3237   1.906   1.595   0.628
 1077TIP3    H2 3238   1.932   1.608   0.480
 1078TIP3   OH2 3239   3.928   0.219   2.509
 1078TIP3    H1 3240   3.878   0.295   2.541
 1078TIP3    H2 3241   3.997   0.207   2.574
 1079TIP3   OH2 3242   1.053   4.888   2.004
 1079TIP3    H1 3243   1.043   4.798   1.974
 1079TIP3    H2 3244   0.985   4.899   2.070
 1080TIP3   OH2 3245   5.762   1.688   0.629
 1080TIP3    H1 3246   5.836   1.645   0.585
 1080TIP3    H2 3247   5.703   1.617   0.651
 1081TIP3   OH2 3248   4.227   2.361   4.065
 1081TIP3    H1 3249   4.166   2.428   4.033
 1081TIP3    H2 3250   4.236   2.380   4.159
 1082TIP3   OH2 3251   1.601   2.329   2.049
 1082TIP3    H1 3252   1.510   2.350   2.030
 1082TIP3    H2 3253   1.614   2.356   2.140
 1083TIP3   OH2 3254   3.664   2.325   4.750
 1083TIP3    H1 3255   3.759   2.322   4.760
 1083TIP3    H2 3256   3.644   2.416   4.728
 1084TIP3   OH2 3257   2.032   5.989   3.201
 1084TIP3    H1 3258   2.094   5.945   3.259
 1084TIP3    H2 3259   2.033   5.937   3.121
 1085TIP3   OH2 3260   1.351   2.417   2.007
 1085TIP3    H1 3261   1.360   2.505   2.044
 1085TIP3    H2 3262   1.280   2.425   1.943
 1086TIP3   OH2 3263   4.063   5.232   3.436
 1086TIP3    H1 3264   4.094   5.146   3.465
 1086TIP3    H2 3265   4.128   5.261   3.372
 1087TIP3   OH2 3266   6.071   4.303   2.541
 1087TIP3    H1 3267   6.082   4.214   2.574
 1087TIP3    H2 3268   6.109   4.359   2.609
 1088TIP3   OH2 3269   5.903   1.562   0.251
 1088TIP3    H1 3270   5.947   1.646   0.239
 1088TIP3    H2 3271   5.884   1.557   0.345
 1089TIP3   OH2 3272   5.430   0.835   0.908
 1089TIP3    H1 3273   5.480   0.916   0.909
 1089TIP3    H2 3274   5.449   0.796   0.823
 1090TIP3   OH2 3275   0.754   5.228   2.726
 1090TIP3    H1 3276   0.844   5.207   2.704
 1090TIP3    H2 3277   0.723   5.153   2.777
 1091TIP3   OH2 3278   2.525   5.591   3.202
 1091TIP3    H1 3279   2.487   5.676   3.224
 1091TIP3    H2 3280   2.596   5.611   3.141
 1092TIP3   OH2 3281   0.445   1.547   3.741
 1092TIP3    H1 3282   0.447   1.562   3.647
 1092TIP3    H2 3283   0.522   1.592   3.775
 1093TIP3   OH2 3284   4.275   0.921   3.662
 1093TIP3    H1 3285   4.367   0.927   3.684
 1093TIP3    H2 3286   4.238   0.863   3.729
 1094TIP3   OH2 3287   3.242   0.465   4.792
 1094TIP3    H1 3288   3.263   0.479   4.699
 1094TIP3    H2 3289   3.295   0.389   4.817
 1095TIP3   OH2 3290   5.478   1.300   3.857
 1095TIP3    H1 3291   5.498   1.237   3.788
 1095TIP3    H2 3292   5.476   1.249   3.937
 1096TIP3   OH2 3293   0.153   1.190   2.627
 1096TIP3    H1 3294   0.226   1.249   2.610
 1096TIP3    H2 3295   0.165   1.118   2.565
 1097TIP3   OH2 3296   1.588   4.164   5.103
 1097TIP3    H1 3297   1.577   4.242   5.157
 1097TIP3    H2 3298   1.527   4.100   5.140
 1098TIP3   OH2 3299   4.759   4.945   3.448
 1098TIP3    H1 3300   4.781   5.026   3.403
 1098TIP3    H2 3301   4.664   4.937   3.439
 1099TIP3   OH2 3302   1.710   0.067   5.115
 1099TIP3    H1 3303   1.740   0.018   5.038
 1099TIP3    H2 3304   1.718   0.005   5.188
 1100TIP3   OH2 3305   1.513   2.426   2.539
 1100TIP3    H1 3306   1.494   2.350   2.594
 1100TIP3    H2 3307   1.498   2.501   2.596
 1101TIP3   OH2 3308   4.305   4.634   1.462
 1101TIP3    H1 3309   4.296   4.540   1.445
 1101TIP3    H2 3310   4.216   4.668   1.458
 1102TIP3   OH2 3311   4.499   4.550   0.445
 1102TIP3    H1 3312   4.500   4.644   0.460
 1102TIP3    H2 3313   4.500   4.541   0.349
 1103TIP3   OH2 3314   2.747   1.526   1.467
 1103TIP3    H1 3315   2.723   1.522   1.560
 1103TIP3    H2 3316   2.842   1.512   1.467
 1104TIP3   OH2 3317   5.410   0.156   0.461
 1104TIP3    H1 3318   5.401   0.153   0.556
 1104TIP3    H2 3319   5.494   0.198   0.446
 1105TIP3   OH2 3320   2.267   3.693   0.856
 1105TIP3    H1 3321   2.345   3.748   0.868
 1105TIP3    H2 3322   2.212   3.713   0.931
 1106TIP3   OH2 3323   0.608   3.125   4.024
 1106TIP3    H1 3324   0.692   3.142   4.067
 1106TIP3    H2 3325   0.629   3.064   3.953
 1107TIP3   OH2 3326   4.786   3.227   1.805
 1107TIP3    H1 3327   4.859   3.287   1.822
 1107TIP3    H2 3328   4.800   3.197   1.715
 1108TIP3   OH2 3329   2.852   4.901   2.996
 1108TIP3    H1 3330   2.855   4.924   2.903
 1108TIP3    H2 3331   2.934   4.855   3.012
 1109TIP3   OH2 3332   2.692   5.244   2.491
 1109TIP3    H1 3333   2.753   5.315   2.469
 1109TIP3    H2 3334   2.663   5.210   2.407
 1110TIP3   OH2 3335   2.861   1.356   2.975
 1110TIP3    H1 3336   2.840   1.316   2.890
 1110TIP3    H2 3337   2.943   1.314   3.001
 1111TIP3   OH2 3338   0.710   3.199   0.543
 1111TIP3    H1 3339   0.734   3.252   0.619
 1111TIP3    H2 3340   0.780   3.214   0.480
 1112TIP3   OH2 3341   1.029   1.061   4.700
 1112TIP3    H1 3342   1.061   0.971   4.692
 1112TIP3    H2 3343   1.049   1.101   4.615
 1113TIP3   OH2 3344   3.088   5.026   3.614
 1113TIP3    H1 3345   3.072   4.948   3.668
 1113TIP3    H2 3346   3.042   5.008   3.532
 1114TIP3   OH2 3347   2.293   5.065   1.897
 1114TIP3    H1 3348   2.372   5.072   1.950
 1114TIP3    H2 3349   2.303   4.983   1.848
 1115TIP3   OH2 3350   3.257   3.533   1.288
 1115TIP3    H1 3351   3.344   3.565   1.264
 1115TIP3    H2 3352   3.230   3.479   1.214
 1116TIP3   OH2 3353   4.085   1.454   3.039
 1116TIP3    H1 3354   4.177   1.461   3.064
 1116TIP3    H2 3355   4.062   1.363   3.056
 1117TIP3   OH2 3356   2.137   3.112   4.801
 1117TIP3    H1 3357   2.199   3.043   4.781
 1117TIP3    H2 3358   2.105   3.141   4.715
 1118TIP3   OH2 3359   0.600   2.160   3.959
 1118TIP3    H1 3360   0.688   2.193   3.974
 1118TIP3    H2 3361   0.561   2.221   3.897
 1119TIP3   OH2 3362   4.752   4.904   3.730
 1119TIP3    H1 3363   4.798   4.821   3.719
 1119TIP3    H2 3364   4.756   4.945   3.644
 1120TIP3   OH2 3365   0.320   5.140   1.858
 1120TIP3    H1 3366   0.326   5.235   1.870
 1120TIP3    H2 3367   0.398   5.106   1.901
 1121TIP3   OH2 3368   0.361   2.041   4.422
 1121TIP3    H1 3369   0.272   2.033   4.456
 1121TIP3    H2 3370   0.360   1.992   4.340
 1122TIP3   OH2 3371   4.275   5.808   2.203
 1122TIP3    H1 3372   4.226   5.888   2.185
 1122TIP3    H2 3373   4.210   5.738   2.198
 1123TIP3   OH2 3374   5.493   4.982   2.934
 1123TIP3    H1 3375   5.531   4.939   3.011
 1123TIP3    H2 3376   5.568   5.025   2.892
 1124TIP3   OH2 3377   2.696   2.555   2.708
 1124TIP3    H1 3378   2.745   2.497   2.649
 1124TIP3    H2 3379   2.737   2.540   2.794
 1125TIP3   OH2 3380   3.374   5.907   0.324
 1125TIP3    H1 3381   3.287   5.874   0.300
 1125TIP3    H2 3382   3.356   5.982   0.381
 1126TIP3   OH2 3383   3.386   5.188   1.483
 1126TIP3    H1 3384   3.390   5.257   1.550
 1126TIP3    H2 3385   3.343   5.230   1.408
 1127TIP3   OH2 3386   4.701   2.361   1.272
 1127TIP3    H1 3387   4.692   2.415   1.193
 1127TIP3    H2 3388   4.692   2.423   1.344
 1128TIP3   OH2 3389   3.664   5.460   4.422
 1128TIP3    H1 3390   3.668   5.555   4.408
 1128TIP3    H2 3391   3.713   5.446   4.503
 1129TIP3   OH2 3392   1.022   1.810   2.265
 1129TIP3    H1 3393   1.016   1.725   2.310
 1129TIP3    H2 3394   0.980   1.795   2.180
 1130TIP3   OH2 3395   2.204   1.416   5.172
 1130TIP3    H1 3396   2.163   1.486   5.121
 1130TIP3    H2 3397   2.249   1.461   5.243
 1131TIP3   OH2 3398   6.240   5.643   3.520
 1131TIP3    H1 3399   6.293   5.695   3.580
 1131TIP3    H2 3400   6.188   5.707   3.471
 1132TIP3   OH2 3401   0.415   0.477   2.997
 1132TIP3    H1 3402   0.507   0.489   3.021
 1132TIP3    H2 3403   0.386   0.402   3.049
 1133TIP3   OH2 3404   5.989   1.250   2.077
 1133TIP3    H1 3405   6.000   1.333   2.123
 1133TIP3    H2 3406   6.079   1.218   2.064
 1134TIP3   OH2 3407   3.193   4.982   0.323
 1134TIP3    H1 3408   3.109   4.938   0.334
 1134TIP3    H2 3409   3.171   5.075   0.319
 1135TIP3   OH2 3410   6.080   0.042   4.110
 1135TIP3    H1 3411   6.119   0.002   4.032
 1135TIP3    H2 3412   5.989   0.010   4.111
 1136TIP3   OH2 3413   3.185   2.094   0.006
 1136TIP3    H1 3414   3.111   2.132   0.054
 1136TIP3    H2 3415   3.163   2.001  -0.004
 1137TIP3   OH2 3416   2.681   4.266   0.862
 1137TIP3    H1 3417   2.660   4.211   0.938
 1137TIP3    H2 3418   2.636   4.348   0.878
 1138TIP3   OH2 3419   0.846   5.366   1.001
 1138TIP3    H1 3420   0.842   5.271   1.008
 1138TIP3    H2 3421   0.838   5.397   1.092
 1139TIP3   OH2 3422   5.591   2.679   3.626
 1139TIP3    H1 3423   5.625   2.618   3.561
 1139TIP3    H2 3424   5.649   2.755   3.620
 1140TIP3   OH2 3425   5.201   4.363   1.408
 1140TIP3    H1 3426   5.276   4.303   1.405
 1140TIP3    H2 3427   5.161   4.346   1.493
 1141TIP3   OH2 3428   0.494   5.958   1.435
 1141TIP3    H1 3429   0.587   5.963   1.459
 1141TIP3    H2 3430   0.485   5.871   1.396
 1142TIP3   OH2 3431   5.423   0.030   1.764
 1142TIP3    H1 3432   5.470   0.105   1.728
 1142TIP3    H2 3433   5.381   0.064   1.843
 1143TIP3   OH2 3434   1.384   5.759   5.022
 1143TIP3    H1 3435   1.412   5.675   5.059
 1143TIP3    H2 3436   1.342   5.805   5.095
 1144TIP3   OH2 3437   4.036   4.869   1.083
 1144TIP3    H1 3438   3.959   4.869   1.140
 1144TIP3    H2 3439   4.107   4.901   1.139
 1145TIP3   OH2 3440   1.896   2.937   2.421
 1145TIP3    H1 3441   1.936   2.912   2.338
 1145TIP3    H2 3442   1.943   3.016   2.448
 1146TIP3   OH2 3443   1.899   3.711   2.376
 1146TIP3    H1 3444   1.852   3.690   2.296
 1146TIP3    H2 3445   1.981   3.750   2.347
 1147TIP3   OH2 3446   0.066   2.250   5.150
 1147TIP3    H1 3447  -0.024   2.245   5.118
 1147TIP3    H2 3448   0.103   2.326   5.105
 1148TIP3   OH2 3449   4.138   5.844   2.711
 1148TIP3    H1 3450   4.217   5.895   2.728
 1148TIP3    H2 3451   4.102   5.883   2.631
 1149TIP3   OH2 3452   3.623   1.368   4.680
 1149TIP3    H1 3453   3.650   1.288   4.634
 1149TIP3    H2 3454   3.689   1.378   4.749
 1150TIP3   OH2 3455   1.564   2.266   1.538
 1150TIP3    H1 3456   1.531   2.214   1.611
 1150TIP3    H2 3457   1.486   2.287   1.487
 1151TIP3   OH2 3458   3.100   0.975   0.047
 1151TIP3    H1 3459   3.088   0.903  -0.015
 1151TIP3    H2 3460   3.131   0.933   0.127
 1152TIP3   OH2 3461   1.529   5.045   0.427
 1152TIP3    H1 3462   1.546   5.139   0.441
 1152TIP3    H2 3463   1.546   5.004   0.511
 1153TIP3   OH2 3464   4.827   0.406   1.571
 1153TIP3    H1 3465   4.788   0.492   1.587
 1153TIP3    H2 3466   4.906   0.405   1.624
 1154TIP3   OH2 3467   3.489   0.185   0.445
 1154TIP3    H1 3468   3.579   0.211   0.463
 1154TIP3    H2 3469   3.438   0.226   0.516
 1155TIP3   OH2 3470   3.866   4.974   1.804
 1155TIP3    H1 3471   3.943   4.938   1.847
 1155TIP3    H2 3472   3.884   5.067   1.795
 1156TIP3   OH2 3473   4.732   0.280   1.312
 1156TIP3    H1 3474   4.716   0.347   1.245
 1156TIP3    H2 3475   4.802   0.317   1.366
 1157TIP3   OH2 3476   0.840   2.347   3.109
 1157TIP3    H1 3477   0.822   2.371   3.018
 1157TIP3    H2 3478   0.794   2.264   3.121
 1158TIP3   OH2 3479   4.621   2.974   3.518
 1158TIP3    H1 3480   4.667   2.892   3.529
 1158TIP3    H2 3481   4.688   3.042   3.531
 1159TIP3   OH2 3482   5.376   0.861   2.186
 1159TIP3    H1 3483   5.417   0.898   2.108
 1159TIP3    H2 3484   5.326   0.786   2.153
 1160TIP3   OH2 3485   0.093   2.852   0.186
 1160TIP3    H1 3486   0.020   2.832   0.244
 1160TIP3    H2 3487   0.084   2.790   0.114
 1161TIP3   OH2 3488   5.011   0.234   3.998
 1161TIP3    H1 3489   5.005   0.273   4.085
 1161TIP3    H2 3490   4.998   0.140   4.012
 1162TIP3   OH2 3491   2.864   1.961   2.383
 1162TIP3    H1 3492   2.924   1.992   2.450
 1162TIP3    H2 3493   2.787   1.931   2.431
 1163TIP3   OH2 3494   3.142   2.234   5.144
 1163TIP3    H1 3495   3.231   2.264   5.162
 1163TIP3    H2 3496   3.137   2.229   5.049
 1164TIP3   OH2 3497   2.711   2.712   2.137
 1164TIP3    H1 3498   2.776   2.678   2.076
 1164TIP3    H2 3499   2.735   2.674   2.222
 1165TIP3   OH2 3500   1.141   1.186   3.625
 1165TIP3    H1 3501   1.096   1.177   3.708
 1165TIP3    H2 3502   1.234   1.191   3.648
 1166TIP3   OH2 3503   6.218   0.558   2.126
 1166TIP3    H1 3504   6.202   0.633   2.184
 1166TIP3    H2 3505   6.293   0.513   2.165
 1167TIP3   OH2 3506   3.296   0.892   4.401
 1167TIP3    H1 3507   3.234   0.948   4.448
 1167TIP3    H2 3508   3.344   0.952   4.345
 1168TIP3   OH2 3509   3.561   5.201   1.721
 1168TIP3    H1 3510   3.490   5.184   1.783
 1168TIP3    H2 3511   3.606   5.117   1.713
 1169TIP3   OH2 3512   0.732   0.344   0.251
 1169TIP3    H1 3513   0.651   0.300   0.225
 1169TIP3    H2 3514   0.711   0.438   0.244
 1170TIP3   OH2 3515   4.275   2.722   4.353
 1170TIP3    H1 3516   4.271   2.815   4.374
 1170TIP3    H2 3517   4.185   2.697   4.336
 1171TIP3   OH2 3518   3.767   2.023   2.245
 1171TIP3    H1 3519   3.711   1.999   2.171
 1171TIP3    H2 3520   3.773   2.118   2.241
 1172TIP3   OH2 3521   2.319   5.286   0.490
 1172TIP3    H1 3522   2.297   5.194   0.481
 1172TIP3    H2 3523   2.251   5.332   0.441
 1173TIP3   OH2 3524   3.470   5.725   0.724
 1173TIP3    H1 3525   3.531   5.692   0.790
 1173TIP3    H2 3526   3.526   5.756   0.653
 1174TIP3   OH2 3527   1.090   4.086   0.903
 1174TIP3    H1 3528   1.085   3.992   0.925
 1174TIP3    H2 3529   1.017   4.101   0.843
 1175TIP3   OH2 3530   2.526   0.415   3.713
 1175TIP3    H1 3531   2.610   0.459   3.705
 1175TIP3    H2 3532   2.500   0.430   3.804
 1176TIP3   OH2 3533   5.430   4.764   4.097
 1176TIP3    H1 3534   5.391   4.802   4.175
 1176TIP3    H2 3535   5.504   4.712   4.129
 1177TIP3   OH2 3536   6.203   0.697   2.634
 1177TIP3    H1 3537   6.219   0.791   2.625
 1177TIP3    H2 3538   6.108   0.690   2.646
 1178TIP3   OH2 3539   4.448   4.973   1.445
 1178TIP3    H1 3540   4.483   4.935   1.526
 1178TIP3    H2 3541   4.463   5.067   1.454
 1179TIP3   OH2 3542   0.563   2.803   3.061
 1179TIP3    H1 3543   0.576   2.722   3.011
 1179TIP3    H2 3544   0.598   2.784   3.147
 1180TIP3   OH2 3545   4.467   2.251   1.596
 1180TIP3    H1 3546   4.462   2.277   1.687
 1180TIP3    H2 3547   4.476   2.156   1.598
 1181TIP3   OH2 3548   1.655   0.929   0.117
 1181TIP3    H1 3549   1.618   0.858   0.066
 1181TIP3    H2 3550   1.749   0.921   0.105
 1182TIP3   OH2 3551   3.460   0.972   1.123
 1182TIP3    H1 3552   3.507   0.896   1.090
 1182TIP3    H2 3553   3.379   0.974   1.071
 1183TIP3   OH2 3554   2.499   1.565   1.305
 1183TIP3    H1 3555   2.572   1.557   1.366
 1183TIP3    H2 3556   2.464   1.476   1.298
 1184TIP3   OH2 3557   5.617   3.078   3.218
 1184TIP3    H1 3558   5.573   3.162   3.228
 1184TIP3    H2 3559   5.619   3.063   3.124
 1185TIP3   OH2 3560   3.071   5.708   0.160
 1185TIP3    H1 3561   3.151   5.656   0.158
 1185TIP3    H2 3562   3.063   5.738   0.251
 1186TIP3   OH2 3563   6.294   3.382   3.033
 1186TIP3    H1 3564   6.233   3.335   3.090
 1186TIP3    H2 3565   6.371   3.397   3.088
 1187TIP3   OH2 3566   0.823   4.404   1.237
 1187TIP3    H1 3567   0.752   4.461   1.209
 1187TIP3    H2 3568   0.814   4.326   1.181
 1188TIP3   OH2 3569   2.494   5.267   0.086
 1188TIP3    H1 3570   2.402   5.274   0.059
 1188TIP3    H2 3571   2.533   5.350   0.060
 1189TIP3   OH2 3572   2.402   3.361   2.427
 1189TIP3    H1 3573   2.464   3.321   2.366
 1189TIP3    H2 3574   2.453   3.372   2.508
 1190TIP3   OH2 3575   2.469   1.036   4.954
 1190TIP3    H1 3576   2.498   1.056   5.043
 1190TIP3    H2 3577   2.448   0.943   4.956
 1191TIP3   OH2 3578   0.246   2.322   0.214
 1191TIP3    H1 3579   0.159   2.282   0.222
 1191TIP3    H2 3580   0.305   2.249   0.196
 1192TIP3   OH2 3581   5.623  -0.010   3.952
 1192TIP3    H1 3582   5.561  -0.040   3.885
 1192TIP3    H2 3583   5.662   0.069   3.915
 1193TIP3   OH2 3584   4.714   5.289   3.859
 1193TIP3    H1 3585   4.748   5.324   3.776
 1193TIP3    H2 3586   4.620   5.280   3.845
 1194TIP3   OH2 3587   3.547   2.842   4.377
 1194TIP3    H1 3588   3.514   2.809   4.294
 1194TIP3    H2 3589   3.553   2.937   4.365
 1195TIP3   OH2 3590   1.003   4.671   2.474
 1195TIP3    H1 3591   1.004   4.767   2.476
 1195TIP3    H2 3592   1.021   4.649   2.383
 1196TIP3   OH2 3593   1.055   4.796   3.364
 1196TIP3    H1 3594   1.130   4.790   3.423
 1196TIP3    H2 3595   0.985   4.833   3.417
 1197TIP3   OH2 3596   4.456   2.459   1.808
 1197TIP3    H1 3597   4.369   2.449   1.846
 1197TIP3    H2 3598   4.481   2.550   1.829
 1198TIP3   OH2 3599   3.412   3.428   4.492
 1198TIP3    H1 3600   3.341   3.365   4.502
 1198TIP3    H2 3601   3.481   3.394   4.549
 1199TIP3   OH2 3602   3.306   5.829   3.191
 1199TIP3    H1 3603   3.221   5.873   3.186
 1199TIP3    H2 3604   3.288   5.739   3.165
 1200TIP3   OH2 3605   4.043   4.902   2.097
 1200TIP3    H1 3606   3.977   4.834   2.110
 1200TIP3    H2 3607   4.004   4.982   2.133
 1201TIP3   OH2 3608   3.154   5.088   2.238
 1201TIP3    H1 3609   3.217   5.016   2.245
 1201TIP3    H2 3610   3.085   5.065   2.301
 1202TIP3   OH2 3611   2.626   0.663   1.521
 1202TIP3    H1 3612   2.645   0.599   1.589
 1202TIP3    H2 3613   2.538   0.642   1.492
 1203TIP3   OH2 3614   0.758   2.650   1.683
 1203TIP3    H1 3615   0.781   2.643   1.591
 1203TIP3    H2 3616   0.810   2.581   1.726
 1204TIP3   OH2 3617   1.371   3.658   1.229
 1204TIP3    H1 3618   1.323   3.586   1.268
 1204TIP3    H2 3619   1.405   3.708   1.303
 1205TIP3   OH2 3620   0.620   5.027   3.566
 1205TIP3    H1 3621   0.624   4.949   3.510
 1205TIP3    H2 3622   0.600   4.993   3.653
 1206TIP3   OH2 3623   5.800   2.738   1.027
 1206TIP3    H1 3624   5.775   2.697   1.109
 1206TIP3    H2 3625   5.750   2.820   1.025
 1207TIP3   OH2 3626   2.589   5.967   0.996
 1207TIP3    H1 3627   2.598   5.905   1.068
 1207TIP3    H2 3628   2.517   6.024   1.022
 1208TIP3   OH2 3629   1.373   5.659   3.866
 1208TIP3    H1 3630   1.315   5.637   3.793
 1208TIP3    H2 3631   1.454   5.611   3.848
 1209TIP3   OH2 3632   4.763   1.297   1.652
 1209TIP3    H1 3633   4.739   1.204   1.649
 1209TIP3    H2 3634   4.798   1.309   1.740
 1210TIP3   OH2 3635   2.685   4.898   0.957
 1210TIP3    H1 3636   2.694   4.816   0.909
 1210TIP3    H2 3637   2.694   4.966   0.889
 1211TIP3   OH2 3638   5.015   3.986   3.429
 1211TIP3    H1 3639   5.038   3.913   3.371
 1211TIP3    H2 3640   5.074   4.057   3.402
 1212TIP3   OH2 3641   2.933   5.295   4.323
 1212TIP3    H1 3642   2.969   5.327   4.405
 1212TIP3    H2 3643   2.840   5.318   4.327
 1213TIP3   OH2 3644   5.273   4.730   0.957
 1213TIP3    H1 3645   5.254   4.670   1.030
 1213TIP3    H2 3646   5.234   4.813   0.984
 1214TIP3   OH2 3647   0.379   3.498   3.649
 1214TIP3    H1 3648   0.392   3.423   3.706
 1214TIP3    H2 3649   0.466   3.515   3.612
 1215TIP3   OH2 3650   2.156   3.900   1.374
 1215TIP3    H1 3651   2.235   3.893   1.428
 1215TIP3    H2 3652   2.092   3.941   1.431
 1216TIP3   OH2 3653   0.925   4.118   2.002
 1216TIP3    H1 3654   1.020   4.103   2.011
 1216TIP3    H2 3655   0.906   4.091   1.912
 1217TIP3   OH2 3656   0.623   5.757   3.828
 1217TIP3    H1 3657   0.608   5.849   3.851
 1217TIP3    H2 3658   0.610   5.754   3.734
 1218TIP3   OH2 3659   0.334   1.813   3.951
 1218TIP3    H1 3660   0.306   1.753   4.020
 1218TIP3    H2 3661   0.325   1.900   3.989
 1219TIP3   OH2 3662   1.701   4.330   1.140
 1219TIP3    H1 3663   1.741   4.317   1.054
 1219TIP3    H2 3664   1.742   4.410   1.173
 1220TIP3   OH2 3665   4.787   0.638   4.446
 1220TIP3    H1 3666   4.768   0.730   4.423
 1220TIP3    H2 3667   4.851   0.644   4.516
 1221TIP3   OH2 3668   4.307   1.033   0.874
 1221TIP3    H1 3669   4.258   1.098   0.824
 1221TIP3    H2 3670   4.246   0.959   0.884
 1222TIP3   OH2 3671   0.203   0.051   0.764
 1222TIP3    H1 3672   0.232  -0.036   0.737
 1222TIP3    H2 3673   0.172   0.040   0.854
 1223TIP3   OH2 3674   4.824   3.162   3.972
 1223TIP3    H1 3675   4.888   3.101   4.011
 1223TIP3    H2 3676   4.785   3.206   4.047
 1224TIP3   OH2 3677   2.916   5.956   4.083
 1224TIP3    H1 3678   2.925   5.897   4.007
 1224TIP3    H2 3679   3.003   5.958   4.122
 1225TIP3   OH2 3680   6.169   1.230   0.877
 1225TIP3    H1 3681   6.262   1.210   0.868
 1225TIP3    H2 3682   6.166   1.312   0.927
 1226TIP3   OH2 3683   4.603   5.912   3.926
 1226TIP3    H1 3684   4.668   5.845   3.905
 1226TIP3    H2 3685   4.613   5.978   3.858
 1227TIP3   OH2 3686   5.558   4.549   1.181
 1227TIP3    H1 3687   5.594   4.523   1.096
 1227TIP3    H2 3688   5.464   4.554   1.167
 1228TIP3   OH2 3689   5.082   3.505   0.846
 1228TIP3    H1 3690   5.052   3.593   0.866
 1228TIP3    H2 3691   5.082   3.460   0.930
 1229TIP3   OH2 3692   1.320   2.622   4.316
 1229TIP3    H1 3693   1.362   2.708   4.322
 1229TIP3    H2 3694   1.262   2.629   4.241
 1230TIP3   OH2 3695   2.352   0.936   2.525
 1230TIP3    H1 3696   2.412   0.862   2.535
 1230TIP3    H2 3697   2.265   0.897   2.528
 1231TIP3   OH2 3698   3.050   0.820   2.921
 1231TIP3    H1 3699   3.123   0.779   2.968
 1231TIP3    H2 3700   3.088   0.898   2.882
 1232TIP3   OH2 3701   3.554   3.997   3.923
 1232TIP3    H1 3702   3.567   3.921   3.980
 1232TIP3    H2 3703   3.597   4.070   3.969
 1233TIP3   OH2 3704   5.233   5.395   4.212
 1233TIP3    H1 3705   5.189   5.319   4.251
 1233TIP3    H2 3706   5.324   5.367   4.201
 1234TIP3   OH2 3707   3.278   0.892   2.736
 1234TIP3    H1 3708   3.328   0.952   2.680
 1234TIP3    H2 3709   3.317   0.901   2.822
 1235TIP3   OH2 3710   0.910   2.869   1.792
 1235TIP3    H1 3711   0.902   2.790   1.738
 1235TIP3    H2 3712   0.899   2.941   1.730
 1236TIP3   OH2 3713   4.941   4.591   0.873
 1236TIP3    H1 3714   5.003   4.655   0.835
 1236TIP3    H2 3715   4.879   4.645   0.922
 1237TIP3   OH2 3716   3.494   0.123   4.093
 1237TIP3    H1 3717   3.477   0.096   4.183
 1237TIP3    H2 3718   3.413   0.104   4.046
 1238TIP3   OH2 3719   5.661   2.754   2.046
 1238TIP3    H1 3720   5.688   2.662   2.046
 1238TIP3    H2 3721   5.703   2.791   1.968
 1239TIP3   OH2 3722   2.031   5.548   4.937
 1239TIP3    H1 3723   1.967   5.584   4.999
 1239TIP3    H2 3724   2.115   5.585   4.965
 1240TIP3   OH2 3725   2.771   0.303   1.917
 1240TIP3    H1 3726   2.806   0.343   1.996
 1240TIP3    H2 3727   2.726   0.225   1.947
 1241TIP3   OH2 3728   4.194   0.281   3.757
 1241TIP3    H1 3729   4.114   0.228   3.750
 1241TIP3    H2 3730   4.241   0.242   3.831
 1242TIP3   OH2 3731   5.974   2.332   2.377
 1242TIP3    H1 3732   5.961   2.418   2.417
 1242TIP3    H2 3733   6.014   2.280   2.447
 1243TIP3   OH2 3734   2.614   0.271   2.591
 1243TIP3    H1 3735   2.708   0.268   2.609
 1243TIP3    H2 3736   2.582   0.342   2.647
 1244TIP3   OH2 3737   2.836   0.254   3.541
 1244TIP3    H1 3738   2.925   0.280   3.518
 1244TIP3    H2 3739   2.807   0.320   3.604
 1245TIP3   OH2 3740   1.560   4.371   1.410
 1245TIP3    H1 3741   1.484   4.312   1.411
 1245TIP3    H2 3742   1.531   4.447   1.359
 1246TIP3   OH2 3743   0.525   0.072   2.141
 1246TIP3    H1 3744   0.478   0.106   2.065
 1246TIP3    H2 3745   0.610   0.116   2.138
 1247TIP3   OH2 3746   4.194   3.871   1.985
 1247TIP3    H1 3747   4.242   3.792   1.960
 1247TIP3    H2 3748   4.123   3.877   1.922
 1248TIP3   OH2 3749   1.525   5.209   2.019
 1248TIP3    H1 3750   1.495   5.180   2.105
 1248TIP3    H2 3751   1.542   5.128   1.971
 1249TIP3   OH2 3752   0.475   4.322   2.925
 1249TIP3    H1 3753   0.381   4.335   2.933
 1249TIP3    H2 3754   0.486   4.231   2.901
 1250TIP3   OH2 3755   2.324   2.588   0.538
 1250TIP3    H1 3756   2.238   2.548   0.529
 1250TIP3    H2 3757   2.308   2.682   0.541
 1251TIP3   OH2 3758   6.141   1.210   0.413
 1251TIP3    H1 3759   6.090   1.193   0.493
 1251TIP3    H2 3760   6.209   1.271   0.441
 1252TIP3   OH2 3761   5.294   5.737   1.103
 1252TIP3    H1 3762   5.293   5.832   1.099
 1252TIP3    H2 3763   5.380   5.716   1.140
 1253TIP3   OH2 3764   4.242   2.796   2.750
 1253TIP3    H1 3765   4.309   2.788   2.682
 1253TIP3    H2 3766   4.232   2.708   2.785
 1254TIP3   OH2 3767   0.166   4.126   1.718
 1254TIP3    H1 3768   0.109   4.178   1.661
 1254TIP3    H2 3769   0.183   4.046   1.668
 1255TIP3   OH2 3770   5.540   2.521   2.964
 1255TIP3    H1 3771   5.551   2.561   3.051
 1255TIP3    H2 3772   5.630   2.506   2.934
 1256TIP3   OH2 3773   4.533   2.911   4.271
 1256TIP3    H1 3774   4.612   2.959   4.296
 1256TIP3    H2 3775   4.464   2.946   4.327
 1257TIP3   OH2 3776   3.208   2.799   2.314
 1257TIP3    H1 3777   3.228   2.859   2.385
 1257TIP3    H2 3778   3.272   2.819   2.246
 1258TIP3   OH2 3779   2.839   2.958   4.595
 1258TIP3    H1 3780   2.839   2.916   4.681
 1258TIP3    H2 3781   2.748   2.954   4.566
 1259TIP3   OH2 3782   4.552   5.644   1.792
 1259TIP3    H1 3783   4.580   5.559   1.828
 1259TIP3    H2 3784   4.531   5.696   1.869
 1260TIP3   OH2 3785   6.113   3.879   4.204
 1260TIP3    H1 3786   6.064   3.914   4.279
 1260TIP3    H2 3787   6.092   3.939   4.132
 1261TIP3   OH2 3788   2.597   3.902   2.784
 1261TIP3    H1 3789   2.504   3.922   2.797
 1261TIP3    H2 3790   2.606   3.889   2.690
 1262TIP3   OH2 3791   0.055   3.485   3.357
 1262TIP3    H1 3792   0.064   3.407   3.411
 1262TIP3    H2 3793   0.122   3.475   3.289
 1263TIP3   OH2 3794   1.801   3.537   2.855
 1263TIP3    H1 3795   1.837   3.461   2.809
 1263TIP3    H2 3796   1.718   3.505   2.891
 1264TIP3   OH2 3797   3.889   5.813   4.986
 1264TIP3    H1 3798   3.839   5.802   4.905
 1264TIP3    H2 3799   3.875   5.731   5.034
 1265TIP3   OH2 3800   3.570   5.334   3.949
 1265TIP3    H1 3801   3.649   5.297   3.910
 1265TIP3    H2 3802   3.523   5.373   3.875
 1266TIP3   OH2 3803   4.888   2.155   1.333
 1266TIP3    H1 3804   4.837   2.082   1.297
 1266TIP3    H2 3805   4.828   2.229   1.331
 1267TIP3   OH2 3806   0.646   3.548   1.455
 1267TIP3    H1 3807   0.575   3.486   1.439
 1267TIP3    H2 3808   0.636   3.573   1.547
 1268TIP3   OH2 3809   5.153   1.575   2.702
 1268TIP3    H1 3810   5.119   1.486   2.692
 1268TIP3    H2 3811   5.088   1.619   2.758
 1269TIP3   OH2 3812   1.127   1.314   2.034
 1269TIP3    H1 3813   1.191   1.301   1.964
 1269TIP3    H2 3814   1.136   1.235   2.088
 1270TIP3   OH2 3815   1.156   3.205   3.103
 1270TIP3    H1 3816   1.235   3.178   3.149
 1270TIP3    H2 3817   1.121   3.124   3.066
 1271TIP3   OH2 3818   5.159   3.848   4.034
 1271TIP3    H1 3819   5.168   3.779   4.099
 1271TIP3    H2 3820   5.108   3.916   4.077
 1272TIP3   OH2 3821   2.891   3.450   4.470
 1272TIP3    H1 3822   2.799   3.460   4.492
 1272TIP3    H2 3823   2.901   3.357   4.449
 1273TIP3   OH2 3824   3.828   3.520   3.592
 1273TIP3    H1 3825   3.807   3.431   3.562
 1273TIP3    H2 3826   3.754   3.545   3.647
 1274TIP3   OH2 3827   5.587   5.062   3.369
 1274TIP3    H1 3828   5.494   5.046   3.360
 1274TIP3    H2 3829   5.596   5.157   3.368
 1275TIP3   OH2 3830   2.773   3.392   1.389
 1275TIP3    H1 3831   2.779   3.333   1.314
 1275TIP3    H2 3832   2.847   3.451   1.379
 1276TIP3   OH2 3833   5.096   3.341   4.727
 1276TIP3    H1 3834   5.008   3.306   4.716
 1276TIP3    H2 3835   5.084   3.417   4.785
 1277TIP3   OH2 3836   1.662   3.936   0.979
 1277TIP3    H1 3837   1.702   3.875   1.041
 1277TIP3    H2 3838   1.646   3.882   0.901
 1278TIP3   OH2 3839   2.611   2.515   3.214
 1278TIP3    H1 3840   2.594   2.547   3.125
 1278TIP3    H2 3841   2.671   2.441   3.202
 1279TIP3   OH2 3842   2.500   2.981   1.713
 1279TIP3    H1 3843   2.519   3.071   1.742
 1279TIP3    H2 3844   2.510   2.984   1.618
 1280TIP3   OH2 3845   0.959   4.465   3.632
 1280TIP3    H1 3846   0.990   4.520   3.704
 1280TIP3    H2 3847   0.971   4.376   3.663
 1281TIP3   OH2 3848   1.631   0.895   1.058
 1281TIP3    H1 3849   1.717   0.859   1.037
 1281TIP3    H2 3850   1.583   0.892   0.975
 1282TIP3   OH2 3851   1.353   0.938   2.395
 1282TIP3    H1 3852   1.429   0.896   2.355
 1282TIP3    H2 3853   1.328   0.878   2.466
 1283TIP3   OH2 3854   5.232   5.780   4.880
 1283TIP3    H1 3855   5.280   5.824   4.950
 1283TIP3    H2 3856   5.299   5.727   4.835
 1284TIP3   OH2 3857   6.104   2.937   1.818
 1284TIP3    H1 3858   6.141   2.940   1.906
 1284TIP3    H2 3859   6.027   2.994   1.822
 1285TIP3   OH2 3860   1.459   1.031   3.353
 1285TIP3    H1 3861   1.453   1.122   3.323
 1285TIP3    H2 3862   1.442   0.979   3.274
 1286TIP3   OH2 3863   3.940   4.476   5.128
 1286TIP3    H1 3864   4.003   4.535   5.086
 1286TIP3    H2 3865   3.918   4.412   5.061
 1287TIP3   OH2 3866   6.322   0.833   4.151
 1287TIP3    H1 3867   6.316   0.790   4.237
 1287TIP3    H2 3868   6.412   0.863   4.146
 1288TIP3   OH2 3869   2.908   4.932   2.726
 1288TIP3    H1 3870   2.978   4.867   2.732
 1288TIP3    H2 3871   2.873   4.922   2.638
 1289TIP3   OH2 3872   5.343   5.233   3.657
 1289TIP3    H1 3873   5.333   5.233   3.562
 1289TIP3    H2 3874   5.345   5.140   3.680
 1290TIP3   OH2 3875   0.108   4.523   1.114
 1290TIP3    H1 3876   0.120   4.617   1.105
 1290TIP3    H2 3877   0.014   4.511   1.126
 1291TIP3   OH2 3878   3.883   0.620   0.644
 1291TIP3    H1 3879   3.847   0.685   0.703
 1291TIP3    H2 3880   3.959   0.663   0.604
 1292TIP3   OH2 3881   3.662   4.414   1.442
 1292TIP3    H1 3882   3.698   4.328   1.422
 1292TIP3    H2 3883   3.574   4.413   1.403
 1293TIP3   OH2 3884   5.635   1.113   2.798
 1293TIP3    H1 3885   5.706   1.158   2.844
 1293TIP3    H2 3886   5.640   1.147   2.708
 1294TIP3   OH2 3887   1.975   1.799   3.768
 1294TIP3    H1 3888   1.893   1.808   3.815
 1294TIP3    H2 3889   2.043   1.801   3.836
 1295TIP3   OH2 3890   3.460   1.768   1.906
 1295TIP3    H1 3891   3.507   1.791   1.826
 1295TIP3    H2 3892   3.401   1.697   1.880
 1296TIP3   OH2 3893   0.525   3.340   1.650
 1296TIP3    H1 3894   0.570   3.408   1.700
 1296TIP3    H2 3895   0.488   3.282   1.718
 1297TIP3   OH2 3896   4.414   3.449   4.720
 1297TIP3    H1 3897   4.323   3.439   4.693
 1297TIP3    H2 3898   4.456   3.495   4.648
 1298TIP3   OH2 3899   0.751   3.123   4.680
 1298TIP3    H1 3900   0.665   3.140   4.717
 1298TIP3    H2 3901   0.793   3.064   4.742
 1299TIP3   OH2 3902   1.381   4.366   3.096
 1299TIP3    H1 3903   1.401   4.438   3.156
 1299TIP3    H2 3904   1.292   4.385   3.065
 1300TIP3   OH2 3905   3.353   0.058   4.366
 1300TIP3    H1 3906   3.418  -0.013   4.372
 1300TIP3    H2 3907   3.390   0.129   4.419
 1301TIP3   OH2 3908   3.429   3.980   3.623
 1301TIP3    H1 3909   3.469   3.925   3.690
 1301TIP3    H2 3910   3.340   3.997   3.655
 1302TIP3   OH2 3911   1.225   2.664   5.019
 1302TIP3    H1 3912   1.244   2.582   5.063
 1302TIP3    H2 3913   1.311   2.702   5.001
 1303TIP3   OH2 3914   0.826   5.510   3.381
 1303TIP3    H1 3915   0.808   5.524   3.474
 1303TIP3    H2 3916   0.915   5.541   3.369
 1304TIP3   OH2 3917   2.656   3.314   0.777
 1304TIP3    H1 3918   2.667   3.350   0.689
 1304TIP3    H2 3919   2.662   3.219   0.766
 1305TIP3   OH2 3920   1.144   1.903   3.610
 1305TIP3    H1 3921   1.077   1.884   3.545
 1305TIP3    H2 3922   1.194   1.976   3.574
 1306TIP3   OH2 3923   2.412   4.727   2.678
 1306TIP3    H1 3924   2.446   4.767   2.599
 1306TIP3    H2 3925   2.468   4.761   2.748
 1307TIP3   OH2 3926   1.445   2.107   0.906
 1307TIP3    H1 3927   1.437   2.104   0.811
 1307TIP3    H2 3928   1.500   2.184   0.923
 1308TIP3   OH2 3929   0.185   5.109   2.876
 1308TIP3    H1 3930   0.227   5.108   2.961
 1308TIP3    H2 3931   0.257   5.103   2.813
 1309TIP3   OH2 3932   4.741   2.246   0.918
 1309TIP3    H1 3933   4.682   2.173   0.933
 1309TIP3    H2 3934   4.691   2.308   0.864
 1310TIP3   OH2 3935   2.514   4.064   2.043
 1310TIP3    H1 3936   2.476   4.133   1.988
 1310TIP3    H2 3937   2.440   4.008   2.065
 1311TIP3   OH2 3938   1.823   3.352   0.423
 1311TIP3    H1 3939   1.907   3.323   0.458
 1311TIP3    H2 3940   1.810   3.301   0.343
 1312TIP3   OH2 3941   2.354   1.328   1.204
 1312TIP3    H1 3942   2.281   1.374   1.163
 1312TIP3    H2 3943   2.336   1.236   1.187
 1313TIP3   OH2 3944   3.083   0.321   3.427
 1313TIP3    H1 3945   3.024   0.299   3.355
 1313TIP3    H2 3946   3.170   0.324   3.386
 1314TIP3   OH2 3947   0.946   5.441   2.516
 1314TIP3    H1 3948   0.964   5.532   2.494
 1314TIP3    H2 3949   0.924   5.442   2.609
 1315TIP3   OH2 3950   4.862   3.886   4.587
 1315TIP3    H1 3951   4.820   3.935   4.516
 1315TIP3    H2 3952   4.789   3.849   4.636
 1316TIP3   OH2 3953   4.554   1.707   0.431
 1316TIP3    H1 3954   4.614   1.634   0.417
 1316TIP3    H2 3955   4.600   1.782   0.392
 1317TIP3   OH2 3956   6.268   1.786   3.986
 1317TIP3    H1 3957   6.280   1.719   4.054
 1317TIP3    H2 3958   6.271   1.869   4.033
 1318TIP3   OH2 3959   4.696   5.203   4.538
 1318TIP3    H1 3960   4.723   5.145   4.609
 1318TIP3    H2 3961   4.707   5.151   4.459
 1319TIP3   OH2 3962   1.237   1.467   0.482
 1319TIP3    H1 3963   1.265   1.452   0.572
 1319TIP3    H2 3964   1.302   1.528   0.446
 1320TIP3   OH2 3965   4.314   2.543   3.694
 1320TIP3    H1 3966   4.279   2.615   3.745
 1320TIP3    H2 3967   4.409   2.552   3.702
 1321TIP3   OH2 3968   5.112   0.327   4.688
 1321TIP3    H1 3969   5.099   0.288   4.774
 1321TIP3    H2 3970   5.199   0.297   4.661
 1322TIP3   OH2 3971   5.435   0.375   0.963
 1322TIP3    H1 3972   5.424   0.468   0.944
 1322TIP3    H2 3973   5.530   0.363   0.968
 1323TIP3   OH2 3974   3.407   2.362   0.999
 1323TIP3    H1 3975   3.464   2.288   0.975
 1323TIP3    H2 3976   3.320   2.335   0.969
 1324TIP3   OH2 3977   4.015   0.014   4.489
 1324TIP3    H1 3978   3.926  -0.013   4.511
 1324TIP3    H2 3979   4.004   0.098   4.444
 1325TIP3   OH2 3980   5.504   3.968   1.833
 1325TIP3    H1 3981   5.510   3.993   1.740
 1325TIP3    H2 3982   5.582   3.915   1.848
 1326TIP3   OH2 3983   5.142   2.293   4.231
 1326TIP3    H1 3984   5.066   2.330   4.276
 1326TIP3    H2 3985   5.212   2.356   4.244
 1327TIP3   OH2 3986   3.519   3.317   0.401
 1327TIP3    H1 3987   3.498   3.341   0.311
 1327TIP3    H2 3988   3.486   3.390   0.454
 1328TIP3   OH2 3989   5.980   0.508   3.374
 1328TIP3    H1 3990   5.991   0.442   3.306
 1328TIP3    H2 3991   5.939   0.583   3.330
 1329TIP3   OH2 3992   0.382   2.430   2.910
 1329TIP3    H1 3993   0.345   2.518   2.916
 1329TIP3    H2 3994   0.307   2.372   2.910
 1330TIP3   OH2 3995   1.928   1.173   3.302
 1330TIP3    H1 3996   1.981   1.100   3.270
 1330TIP3    H2 3997   1.978   1.209   3.375
 1331TIP3   OH2 3998   1.251   3.117   3.368
 1331TIP3    H1 3999   1.236   3.200   3.413
 1331TIP3    H2 4000   1.218   3.050   3.428
 1332TIP3   OH2 4001  -0.007   1.284   4.613
 1332TIP3    H1 4002  -0.060   1.222   4.661
 1332TIP3    H2 4003   0.077   1.285   4.659
 1333TIP3   OH2 4004   6.219   3.101   0.948
 1333TIP3    H1 4005   6.236   3.015   0.988
 1333TIP3    H2 4006   6.204   3.159   1.023
 1334TIP3   OH2 4007   4.017   4.986   1.422
 1334TIP3    H1 4008   4.076   4.988   1.346
 1334TIP3    H2 4009   4.031   4.900   1.461
 1335TIP3   OH2 4010   5.374   5.617   0.802
 1335TIP3    H1 4011   5.308   5.676   0.839
 1335TIP3    H2 4012   5.456   5.646   0.840
 1336TIP3   OH2 4013   5.804   4.826   4.353
 1336TIP3    H1 4014   5.860   4.757   4.317
 1336TIP3    H2 4015   5.793   4.888   4.282
 1337TIP3   OH2 4016   6.129   0.187   0.261
 1337TIP3    H1 4017   6.064   0.244   0.217
 1337TIP3    H2 4018   6.130   0.108   0.207
 1338TIP3   OH2 4019   0.996   2.575   3.088
 1338TIP3    H1 4020   0.951   2.660   3.088
 1338TIP3    H2 4021   0.930   2.513   3.119
 1339TIP3   OH2 4022   0.998   0.717   4.389
 1339TIP3    H1 4023   0.965   0.806   4.406
 1339TIP3    H2 4024   1.093   0.727   4.384
 1340TIP3   OH2 4025   2.269   2.209   4.659
 1340TIP3    H1 4026   2.188   2.160   4.671
 1340TIP3    H2 4027   2.311   2.168   4.583
 1341TIP3   OH2 4028   4.703   5.626   0.116
 1341TIP3    H1 4029   4.660   5.541   0.104
 1341TIP3    H2 4030   4.674   5.678   0.041
 1342TIP3   OH2 4031   0.297   0.282   2.405
 1342TIP3    H1 4032   0.356   0.265   2.331
 1342TIP3    H2 4033   0.335   0.360   2.447
 1343TIP3   OH2 4034   1.754   3.220   0.948
 1343TIP3    H1 4035   1.753   3.148   1.011
 1343TIP3    H2 4036   1.696   3.286   0.986
 1344TIP3   OH2 4037   2.673   2.122   3.705
 1344TIP3    H1 4038   2.691   2.104   3.612
 1344TIP3    H2 4039   2.656   2.035   3.743
 1345TIP3   OH2 4040   1.593   1.428   1.526
 1345TIP3    H1 4041   1.560   1.439   1.616
 1345TIP3    H2 4042   1.517   1.446   1.471
 1346TIP3   OH2 4043   5.080   2.491   5.081
 1346TIP3    H1 4044   5.169   2.457   5.086
 1346TIP3    H2 4045   5.037   2.460   5.161
 1347TIP3   OH2 4046   5.319   4.738   0.677
 1347TIP3    H1 4047   5.316   4.691   0.761
 1347TIP3    H2 4048   5.356   4.823   0.699
 1348TIP3   OH2 4049   1.770   2.031   4.354
 1348TIP3    H1 4050   1.799   2.045   4.263
 1348TIP3    H2 4051   1.833   2.079   4.407
 1349TIP3   OH2 4052   4.165   0.201   1.607
 1349TIP3    H1 4053   4.151   0.220   1.699
 1349TIP3    H2 4054   4.078   0.212   1.567
 1350TIP3   OH2 4055   4.390   2.832   0.051
 1350TIP3    H1 4056   4.466   2.798   0.004
 1350TIP3    H2 4057   4.428   2.884   0.122
 1351TIP3   OH2 4058   1.340   0.712   3.725
 1351TIP3    H1 4059   1.435   0.716   3.738
 1351TIP3    H2 4060   1.303   0.740   3.808
 1352TIP3   OH2 4061   4.583   2.891   0.247
 1352TIP3    H1 4062   4.618   2.966   0.294
 1352TIP3    H2 4063   4.601   2.816   0.303
 1353TIP3   OH2 4064   2.792   1.247   4.075
 1353TIP3    H1 4065   2.777   1.290   3.991
 1353TIP3    H2 4066   2.881   1.214   4.070
 1354TIP3   OH2 4067   6.281   3.642   2.709
 1354TIP3    H1 4068   6.343   3.571   2.690
 1354TIP3    H2 4069   6.326   3.695   2.776
 1355TIP3   OH2 4070   1.454   5.915   2.516
 1355TIP3    H1 4071   1.362   5.929   2.541
 1355TIP3    H2 4072   1.504   5.964   2.582
 1356TIP3   OH2 4073   1.570   2.786   2.369
 1356TIP3    H1 4074   1.500   2.725   2.348
 1356TIP3    H2 4075   1.526   2.869   2.389
 1357TIP3   OH2 4076   2.744   1.347   5.196
 1357TIP3    H1 4077   2.823   1.398   5.214
 1357TIP3    H2 4078   2.672   1.405   5.220
 1358TIP3   OH2 4079   5.883   3.105   3.322
 1358TIP3    H1 4080   5.898   3.011   3.335
 1358TIP3    H2 4081   5.788   3.112   3.308
 1359TIP3   OH2 4082   0.145   2.198   1.428
 1359TIP3    H1 4083   0.217   2.154   1.475
 1359TIP3    H2 4084   0.067   2.148   1.452
 1360TIP3   OH2 4085   2.211   0.481   4.992
 1360TIP3    H1 4086   2.166   0.462   5.075
 1360TIP3    H2 4087   2.262   0.560   5.010
 1361TIP3   OH2 4088   4.470   1.764   3.687
 1361TIP3    H1 4089   4.448   1.738   3.776
 1361TIP3    H2 4090   4.390   1.808   3.655
 1362TIP3   OH2 4091   0.886   3.816   4.770
 1362TIP3    H1 4092   0.862   3.833   4.679
 1362TIP3    H2 4093   0.978   3.844   4.776
 1363TIP3   OH2 4094   5.125   0.373   2.570
 1363TIP3    H1 4095   5.090   0.323   2.497
 1363TIP3    H2 4096   5.049   0.418   2.607
 1364TIP3   OH2 4097   4.376   2.229   4.842
 1364TIP3    H1 4098   4.470   2.245   4.846
 1364TIP3    H2 4099   4.350   2.219   4.934
 1365TIP3   OH2 4100   3.594   4.866   2.297
 1365TIP3    H1 4101   3.608   4.879   2.391
 1365TIP3    H2 4102   3.680   4.841   2.263
 1366TIP3   OH2 4103   1.686   3.779   4.695
 1366TIP3    H1 4104   1.770   3.766   4.651
 1366TIP3    H2 4105   1.700   3.749   4.785
 1367TIP3   OH2 4106   0.216   4.640   2.165
 1367TIP3    H1 4107   0.190   4.549   2.178
 1367TIP3    H2 4108   0.158   4.673   2.097
 1368TIP3   OH2 4109   4.221   4.929   3.842
 1368TIP3    H1 4110   4.276   4.852   3.828
 1368TIP3    H2 4111   4.190   4.921   3.932
 1369TIP3   OH2 4112   1.824   4.435   3.044
 1369TIP3    H1 4113   1.804   4.484   3.124
 1369TIP3    H2 4114   1.834   4.345   3.074
 1370TIP3   OH2 4115   5.828   2.283   1.060
 1370TIP3    H1 4116   5.863   2.198   1.034
 1370TIP3    H2 4117   5.826   2.334   0.978
 1371TIP3   OH2 4118   0.689   0.096   5.066
 1371TIP3    H1 4119   0.705   0.050   5.148
 1371TIP3    H2 4120   0.643   0.033   5.011
 1372TIP3   OH2 4121   6.356   0.931   1.068
 1372TIP3    H1 4122   6.327   0.842   1.086
 1372TIP3    H2 4123   6.295   0.987   1.116
 1373TIP3   OH2 4124   6.204   1.118   3.081
 1373TIP3    H1 4125   6.284   1.129   3.030
 1373TIP3    H2 4126   6.140   1.084   3.019
 1374TIP3   OH2 4127   2.962   1.978   4.641
 1374TIP3    H1 4128   2.939   2.070   4.648
 1374TIP3    H2 4129   3.044   1.977   4.593
 1375TIP3   OH2 4130   4.292   0.659   3.956
 1375TIP3    H1 4131   4.335   0.589   4.004
 1375TIP3    H2 4132   4.358   0.691   3.894
 1376TIP3   OH2 4133   2.448   2.681   1.764
 1376TIP3    H1 4134   2.363   2.678   1.809
 1376TIP3    H2 4135   2.469   2.774   1.759
 1377TIP3   OH2 4136   0.974   2.239   4.500
 1377TIP3    H1 4137   0.978   2.147   4.527
 1377TIP3    H2 4138   0.959   2.235   4.405
 1378TIP3   OH2 4139   3.471   2.293   4.993
 1378TIP3    H1 4140   3.462   2.306   5.088
 1378TIP3    H2 4141   3.534   2.221   4.985
 1379TIP3   OH2 4142   0.111   3.833   1.877
 1379TIP3    H1 4143   0.071   3.856   1.961
 1379TIP3    H2 4144   0.205   3.831   1.894
 1380TIP3   OH2 4145   3.873   5.803   0.328
 1380TIP3    H1 4146   3.849   5.752   0.405
 1380TIP3    H2 4147   3.819   5.882   0.334
 1381TIP3   OH2 4148   6.125   2.272   3.327
 1381TIP3    H1 4149   6.138   2.190   3.376
 1381TIP3    H2 4150   6.180   2.336   3.371
 1382TIP3   OH2 4151   3.067   3.870   2.934
 1382TIP3    H1 4152   2.992   3.838   2.885
 1382TIP3    H2 4153   3.058   3.966   2.933
 1383TIP3   OH2 4154   1.631   4.748   2.256
 1383TIP3    H1 4155   1.557   4.714   2.306
 1383TIP3    H2 4156   1.611   4.726   2.165
 1384TIP3   OH2 4157   2.469   1.383   3.881
 1384TIP3    H1 4158   2.395   1.415   3.932
 1384TIP3    H2 4159   2.485   1.294   3.915
 1385TIP3   OH2 4160   3.369   5.986   0.851
 1385TIP3    H1 4161   3.299   5.922   0.842
 1385TIP3    H2 4162   3.331   6.068   0.817
 1386TIP3   OH2 4163   5.310   1.286   0.821
 1386TIP3    H1 4164   5.355   1.264   0.902
 1386TIP3    H2 4165   5.307   1.204   0.772
 1387TIP3   OH2 4166   2.051   2.091   1.082
 1387TIP3    H1 4167   1.960   2.120   1.089
 1387TIP3    H2 4168   2.065   2.035   1.158
 1388TIP3   OH2 4169   1.431   0.607   5.064
 1388TIP3    H1 4170   1.520   0.618   5.099
 1388TIP3    H2 4171   1.374   0.645   5.130
 1389TIP3   OH2 4172   3.109   1.591   4.045
 1389TIP3    H1 4173   3.058   1.670   4.063
 1389TIP3    H2 4174   3.130   1.556   4.132
 1390TIP3   OH2 4175   4.075   3.424   2.382
 1390TIP3    H1 4176   4.112   3.446   2.296
 1390TIP3    H2 4177   3.986   3.459   2.378
 1391TIP3   OH2 4178   3.346   2.479   0.746
 1391TIP3    H1 4179   3.372   2.476   0.654
 1391TIP3    H2 4180   3.427   2.463   0.795
 1392TIP3   OH2 4181   1.961   3.768   3.105
 1392TIP3    H1 4182   1.992   3.810   3.185
 1392TIP3    H2 4183   1.905   3.697   3.135
 1393TIP3   OH2 4184   3.109   3.005   0.144
 1393TIP3    H1 4185   3.022   2.972   0.122
 1393TIP3    H2 4186   3.095   3.063   0.219
 1394TIP3   OH2 4187   2.755   5.956   2.291
 1394TIP3    H1 4188   2.841   5.918   2.272
 1394TIP3    H2 4189   2.714   5.894   2.351
 1395TIP3   OH2 4190   3.725   1.515   2.692
 1395TIP3    H1 4191   3.791   1.561   2.641
 1395TIP3    H2 4192   3.666   1.478   2.627
 1396TIP3   OH2 4193   5.431   3.355   0.534
 1396TIP3    H1 4194   5.338   3.352   0.515
 1396TIP3    H2 4195   5.436   3.378   0.627
 1397TIP3   OH2 4196   6.283   0.975   2.652
 1397TIP3    H1 4197   6.260   1.068   2.655
 1397TIP3    H2 4198   6.368   0.973   2.608
 1398TIP3   OH2 4199   4.918   4.449   4.797
 1398TIP3    H1 4200   4.940   4.489   4.713
 1398TIP3    H2 4201   4.925   4.355   4.781
 1399TIP3   OH2 4202   4.893   0.332   3.211
 1399TIP3    H1 4203   4.924   0.354   3.298
 1399TIP3    H2 4204   4.943   0.254   3.187
 1400TIP3   OH2 4205   4.386   2.629   3.190
 1400TIP3    H1 4206   4.457   2.570   3.165
 1400TIP3    H2 4207   4.337   2.582   3.257
 1401TIP3   OH2 4208   1.988   5.072   4.830
 1401TIP3    H1 4209   1.900   5.092   4.863
 1401TIP3    H2 4210   2.024   5.157   4.804
 1402TIP3   OH2 4211   5.893   4.951   2.649
 1402TIP3    H1 4212   5.869   4.894   2.576
 1402TIP3    H2 4213   5.935   4.893   2.712
 1403TIP3   OH2 4214   3.634   0.525   1.754
 1403TIP3    H1 4215   3.712   0.522   1.698
 1403TIP3    H2 4216   3.566   0.563   1.699
 1404TIP3   OH2 4217   4.560   0.222   3.645
 1404TIP3    H1 4218   4.486   0.195   3.591
 1404TIP3    H2 4219   4.578   0.312   3.617
 1405TIP3   OH2 4220   5.894   5.216   0.575
 1405TIP3    H1 4221   5.964   5.191   0.514
 1405TIP3    H2 4222   5.815   5.174   0.540
 1406TIP3   OH2 4223   0.847   0.498   5.140
 1406TIP3    H1 4224   0.848   0.412   5.098
 1406TIP3    H2 4225   0.804   0.555   5.076
 1407TIP3   OH2 4226   2.848   1.864   3.626
 1407TIP3    H1 4227   2.918   1.838   3.686
 1407TIP3    H2 4228   2.878   1.945   3.587
 1408TIP3   OH2 4229   5.222   2.712   1.285
 1408TIP3    H1 4230   5.163   2.706   1.209
 1408TIP3    H2 4231   5.283   2.783   1.262
 1409TIP3   OH2 4232   5.681   0.049   3.054
 1409TIP3    H1 4233   5.744   0.080   3.118
 1409TIP3    H2 4234   5.679  -0.046   3.067
 1410TIP3   OH2 4235   2.421   2.636   2.855
 1410TIP3    H1 4236   2.487   2.567   2.862
 1410TIP3    H2 4237   2.340   2.590   2.833
 1411TIP3   OH2 4238   4.875   4.392   0.693
 1411TIP3    H1 4239   4.880   4.467   0.753
 1411TIP3    H2 4240   4.952   4.339   0.715
 1412TIP3   OH2 4241   0.799   4.904   4.648
 1412TIP3    H1 4242   0.822   4.996   4.631
 1412TIP3    H2 4243   0.719   4.890   4.598
 1413TIP3   OH2 4244   6.121   4.672   2.016
 1413TIP3    H1 4245   6.117   4.665   2.111
 1413TIP3    H2 4246   6.214   4.662   1.996
 1414TIP3   OH2 4247   3.892   2.943   0.635
 1414TIP3    H1 4248   3.818   2.905   0.682
 1414TIP3    H2 4249   3.943   2.987   0.703
 1415TIP3   OH2 4250   6.065   3.524   3.075
 1415TIP3    H1 4251   6.156   3.502   3.057
 1415TIP3    H2 4252   6.026   3.443   3.107
 1416TIP3   OH2 4253   4.898   1.328   1.887
 1416TIP3    H1 4254   4.819   1.358   1.931
 1416TIP3    H2 4255   4.969   1.355   1.945
 1417TIP3   OH2 4256   3.249   1.744   1.208
 1417TIP3    H1 4257   3.237   1.838   1.192
 1417TIP3    H2 4258   3.341   1.728   1.185
 1418TIP3   OH2 4259   0.882   2.338   4.904
 1418TIP3    H1 4260   0.959   2.394   4.895
 1418TIP3    H2 4261   0.831   2.353   4.825
 1419TIP3   OH2 4262   0.673   4.503   3.033
 1419TIP3    H1 4263   0.750   4.479   2.980
 1419TIP3    H2 4264   0.602   4.449   2.997
 1420TIP3   OH2 4265   0.528   2.443   4.207
 1420TIP3    H1 4266   0.559   2.511   4.267
 1420TIP3    H2 4267   0.544   2.361   4.254
 1421TIP3   OH2 4268   1.022   5.903   0.716
 1421TIP3    H1 4269   1.101   5.859   0.686
 1421TIP3    H2 4270   0.955   5.876   0.653
 1422TIP3   OH2 4271   0.162   1.332   1.513
 1422TIP3    H1 4272   0.134   1.297   1.597
 1422TIP3    H2 4273   0.082   1.337   1.461
 1423TIP3   OH2 4274   5.651   0.974   1.165
 1423TIP3    H1 4275   5.653   1.006   1.075
 1423TIP3    H2 4276   5.598   1.038   1.212
 1424TIP3   OH2 4277   3.798   3.839   3.434
 1424TIP3    H1 4278   3.846   3.854   3.353
 1424TIP3    H2 4279   3.711   3.814   3.406
 1425TIP3   OH2 4280   5.777   1.058   3.102
 1425TIP3    H1 4281   5.764   1.120   3.174
 1425TIP3    H2 4282   5.775   1.113   3.023
 1426TIP3   OH2 4283   3.015   4.439   1.604
 1426TIP3    H1 4284   3.023   4.375   1.533
 1426TIP3    H2 4285   3.084   4.415   1.666
 1427TIP3   OH2 4286   4.281   2.970   4.088
 1427TIP3    H1 4287   4.312   2.920   4.164
 1427TIP3    H2 4288   4.337   3.048   4.086
 1428TIP3   OH2 4289   5.519   2.146   2.492
 1428TIP3    H1 4290   5.558   2.228   2.520
 1428TIP3    H2 4291   5.490   2.104   2.574
 1429TIP3   OH2 4292   6.208   3.851   2.426
 1429TIP3    H1 4293   6.146   3.779   2.422
 1429TIP3    H2 4294   6.268   3.827   2.496
 1430TIP3   OH2 4295   5.842   4.304   4.329
 1430TIP3    H1 4296   5.817   4.237   4.265
 1430TIP3    H2 4297   5.844   4.386   4.278
 1431TIP3   OH2 4298   1.141   0.555   2.513
 1431TIP3    H1 4299   1.223   0.512   2.536
 1431TIP3    H2 4300   1.116   0.513   2.430
 1432TIP3   OH2 4301   4.003   0.493   2.948
 1432TIP3    H1 4302   3.911   0.465   2.944
 1432TIP3    H2 4303   4.027   0.483   3.040
 1433TIP3   OH2 4304   2.047   4.144   3.326
 1433TIP3    H1 4305   1.987   4.153   3.252
 1433TIP3    H2 4306   2.031   4.056   3.359
 1434TIP3   OH2 4307   0.185   1.071   4.439
 1434TIP3    H1 4308   0.247   1.032   4.500
 1434TIP3    H2 4309   0.107   1.089   4.492
 1435TIP3   OH2 4310   4.028   4.159   4.742
 1435TIP3    H1 4311   4.108   4.181   4.790
 1435TIP3    H2 4312   4.046   4.189   4.653
 1436TIP3   OH2 4313   4.507   3.356   4.972
 1436TIP3    H1 4314   4.477   3.364   4.881
 1436TIP3    H2 4315   4.434   3.315   5.018
 1437TIP3   OH2 4316   2.497   3.772   5.215
 1437TIP3    H1 4317   2.447   3.733   5.143
 1437TIP3    H2 4318   2.582   3.792   5.178
 1438TIP3   OH2 4319   4.230   2.799   3.874
 1438TIP3    H1 4320   4.233   2.866   3.942
 1438TIP3    H2 4321   4.262   2.844   3.796
 1439TIP3   OH2 4322   0.277   5.148   3.845
 1439TIP3    H1 4323   0.242   5.158   3.756
 1439TIP3    H2 4324   0.215   5.195   3.901
 1440TIP3   OH2 4325   0.560   3.689   3.890
 1440TIP3    H1 4326   0.591   3.674   3.801
 1440TIP3    H2 4327   0.470   3.720   3.879
 1441TIP3   OH2 4328   2.452   3.767   2.259
 1441TIP3    H1 4329   2.382   3.782   2.196
 1441TIP3    H2 4330   2.432   3.824   2.333
 1442TIP3   OH2 4331   4.623   0.093   4.710
 1442TIP3    H1 4332   4.628   0.096   4.615
 1442TIP3    H2 4333   4.585   0.007   4.729
 1443TIP3   OH2 4334   3.193   2.535   2.247
 1443TIP3    H1 4335   3.177   2.577   2.162
 1443TIP3    H2 4336   3.205   2.608   2.308
 1444TIP3   OH2 4337   5.438   4.574   1.919
 1444TIP3    H1 4338   5.480   4.493   1.948
 1444TIP3    H2 4339   5.489   4.643   1.960
 1445TIP3   OH2 4340   1.533   1.008   3.620
 1445TIP3    H1 4341   1.492   1.021   3.535
 1445TIP3    H2 4342   1.466   1.032   3.684
 1446TIP3   OH2 4343   5.512   0.374   3.251
 1446TIP3    H1 4344   5.476   0.312   3.188
 1446TIP3    H2 4345   5.592   0.407   3.209
 1447TIP3   OH2 4346   3.711   3.908   3.139
 1447TIP3    H1 4347   3.772   3.929   3.068
 1447TIP3    H2 4348   3.696   3.992   3.183
 1448TIP3   OH2 4349   0.786   3.701   2.785
 1448TIP3    H1 4350   0.718   3.633   2.784
 1448TIP3    H2 4351   0.868   3.653   2.788
 1449TIP3   OH2 4352   3.457   4.372   3.589
 1449TIP3    H1 4353   3.549   4.375   3.615
 1449TIP3    H2 4354   3.446   4.286   3.549
 1450TIP3   OH2 4355   0.098   5.295   0.476
 1450TIP3    H1 4356   0.175   5.293   0.532
 1450TIP3    H2 4357   0.121   5.242   0.400
 1451TIP3   OH2 4358   1.443   3.040   2.162
 1451TIP3    H1 4359   1.449   2.952   2.126
 1451TIP3    H2 4360   1.532   3.074   2.157
 1452TIP3   OH2 4361   3.179   5.274   3.311
 1452TIP3    H1 4362   3.107   5.262   3.372
 1452TIP3    H2 4363   3.196   5.369   3.312
 1453TIP3   OH2 4364   3.018   4.077   2.017
 1453TIP3    H1 4365   3.061   4.133   1.953
 1453TIP3    H2 4366   2.926   4.101   2.012
 1454TIP3   OH2 4367   0.083   5.828   1.095
 1454TIP3    H1 4368   0.025   5.860   1.026
 1454TIP3    H2 4369   0.062   5.883   1.171
 1455TIP3   OH2 4370   1.003   1.119   4.969
 1455TIP3    H1 4371   1.005   1.103   4.875
 1455TIP3    H2 4372   1.084   1.080   5.002
 1456TIP3   OH2 4373   6.030   3.758   3.190
 1456TIP3    H1 4374   6.108   3.785   3.239
 1456TIP3    H2 4375   6.054   3.674   3.152
 1457TIP3   OH2 4376   0.709   4.738   2.511
 1457TIP3    H1 4377   0.756   4.656   2.524
 1457TIP3    H2 4378   0.626   4.713   2.470
 1458TIP3   OH2 4379   5.181   2.723   2.832
 1458TIP3    H1 4380   5.231   2.651   2.871
 1458TIP3    H2 4381   5.247   2.775   2.785
 1459TIP3   OH2 4382   2.981   4.180   0.910
 1459TIP3    H1 4383   2.892   4.209   0.890
 1459TIP3    H2 4384   2.971   4.088   0.933
 1460TIP3   OH2 4385   6.184   4.709   0.704
 1460TIP3    H1 4386   6.191   4.803   0.684
 1460TIP3    H2 4387   6.131   4.673   0.634
 1461TIP3   OH2 4388   3.666   3.503   5.114
 1461TIP3    H1 4389   3.750   3.481   5.073
 1461TIP3    H2 4390   3.643   3.423   5.163
 1462TIP3   OH2 4391   1.002   4.930   3.744
 1462TIP3    H1 4392   0.959   4.882   3.673
 1462TIP3    H2 4393   0.976   5.021   3.730
 1463TIP3   OH2 4394   5.719   3.697   3.145
 1463TIP3    H1 4395   5.813   3.712   3.155
 1463TIP3    H2 4396   5.710   3.602   3.141
 1464TIP3   OH2 4397   3.946   2.311   3.844
 1464TIP3    H1 4398   3.992   2.289   3.925
 1464TIP3    H2 4399   3.868   2.256   3.845
 1465TIP3   OH2 4400   1.554   1.838   2.087
 1465TIP3    H1 4401   1.584   1.926   2.110
 1465TIP3    H2 4402   1.618   1.779   2.126
 1466TIP3   OH2 4403   4.241   5.941   0.993
 1466TIP3    H1 4404   4.300   5.974   1.060
 1466TIP3    H2 4405   4.170   5.899   1.042
 1467TIP3   OH2 4406   0.447   4.043   0.379
 1467TIP3    H1 4407   0.378   3.990   0.419
 1467TIP3    H2 4408   0.474   3.995   0.302
 1468TIP3   OH2 4409   1.683   3.291   0.647
 1468TIP3    H1 4410   1.717   3.315   0.561
 1468TIP3    H2 4411   1.754   3.241   0.688
 1469TIP3   OH2 4412   5.620   3.012   4.939
 1469TIP3    H1 4413   5.588   2.951   4.872
 1469TIP3    H2 4414   5.547   3.022   4.999
 1470TIP3   OH2 4415   1.585   1.554   0.075
 1470TIP3    H1 4416   1.573   1.466   0.040
 1470TIP3    H2 4417   1.668   1.583   0.037
 1471TIP3   OH2 4418   1.863   4.825   3.799
 1471TIP3    H1 4419   1.901   4.741   3.774
 1471TIP3    H2 4420   1.894   4.840   3.888
 1472TIP3   OH2 4421   3.543   4.711   0.350
 1472TIP3    H1 4422   3.453   4.679   0.347
 1472TIP3    H2 4423   3.561   4.723   0.443
 1473TIP3   OH2 4424   1.934   1.894   2.288
 1473TIP3    H1 4425   1.961   1.985   2.276
 1473TIP3    H2 4426   1.851   1.900   2.337
 1474TIP3   OH2 4427   0.456   3.875   0.141
 1474TIP3    H1 4428   0.442   3.840   0.054
 1474TIP3    H2 4429   0.370   3.909   0.168
 1475TIP3   OH2 4430   2.580   3.769   0.508
 1475TIP3    H1 4431   2.580   3.708   0.434
 1475TIP3    H2 4432   2.664   3.752   0.552
 1476TIP3   OH2 4433   2.696   1.191   2.438
 1476TIP3    H1 4434   2.715   1.114   2.492
 1476TIP3    H2 4435   2.741   1.263   2.483
 1477TIP3   OH2 4436   5.360   1.346   2.818
 1477TIP3    H1 4437   5.429   1.375   2.878
 1477TIP3    H2 4438   5.341   1.256   2.844
 1478TIP3   OH2 4439   2.269   4.997   4.295
 1478TIP3    H1 4440   2.274   4.949   4.377
 1478TIP3    H2 4441   2.277   4.929   4.227
 1479TIP3   OH2 4442   0.562   1.187   3.088
 1479TIP3    H1 4443   0.565   1.276   3.124
 1479TIP3    H2 4444   0.517   1.196   3.004
 1480TIP3   OH2 4445   0.859   3.838   3.026
 1480TIP3    H1 4446   0.812   3.794   2.955
 1480TIP3    H2 4447   0.944   3.861   2.987
 1481TIP3   OH2 4448   3.460   0.275   4.497
 1481TIP3    H1 4449   3.469   0.262   4.591
 1481TIP3    H2 4450   3.548   0.297   4.467
 1482TIP3   OH2 4451   4.619   1.390   2.449
 1482TIP3    H1 4452   4.674   1.438   2.511
 1482TIP3    H2 4453   4.551   1.452   2.423
 1483TIP3   OH2 4454   3.301   4.325   4.118
 1483TIP3    H1 4455   3.258   4.388   4.059
 1483TIP3    H2 4456   3.241   4.316   4.191
 1484TIP3   OH2 4457   3.333   0.803   2.344
 1484TIP3    H1 4458   3.355   0.802   2.437
 1484TIP3    H2 4459   3.401   0.751   2.302
 1485TIP3   OH2 4460   6.199   4.789   0.382
 1485TIP3    H1 4461   6.106   4.790   0.405
 1485TIP3    H2 4462   6.210   4.712   0.327
 1486TIP3   OH2 4463   1.753   3.859   3.819
 1486TIP3    H1 4464   1.772   3.766   3.808
 1486TIP3    H2 4465   1.702   3.864   3.900
 1487TIP3   OH2 4466   3.714   1.174   2.738
 1487TIP3    H1 4467   3.758   1.243   2.788
 1487TIP3    H2 4468   3.761   1.172   2.655
 1488TIP3   OH2 4469   3.676   2.336   0.040
 1488TIP3    H1 4470   3.593   2.300   0.008
 1488TIP3    H2 4471   3.669   2.331   0.136
 1489TIP3   OH2 4472   0.060   3.653   1.364
 1489TIP3    H1 4473   0.149   3.684   1.382
 1489TIP3    H2 4474   0.068   3.558   1.360
 1490TIP3   OH2 4475   1.658   4.622   5.042
 1490TIP3    H1 4476   1.684   4.700   5.090
 1490TIP3    H2 4477   1.618   4.657   4.961
 1491TIP3   OH2 4478   1.851   3.865   2.606
 1491TIP3    H1 4479   1.901   3.805   2.661
 1491TIP3    H2 4480   1.844   3.820   2.522
 1492TIP3   OH2 4481   4.352   5.381   1.887
 1492TIP3    H1 4482   4.375   5.311   1.827
 1492TIP3    H2 4483   4.258   5.397   1.872
 1493TIP3   OH2 4484   4.876   2.702   4.023
 1493TIP3    H1 4485   4.853   2.702   3.930
 1493TIP3    H2 4486   4.967   2.672   4.025
 1494TIP3   OH2 4487   2.750   2.870   5.147
 1494TIP3    H1 4488   2.813   2.799   5.134
 1494TIP3    H2 4489   2.744   2.879   5.242
 1495TIP3   OH2 4490   5.657   3.631   2.526
 1495TIP3    H1 4491   5.685   3.564   2.589
 1495TIP3    H2 4492   5.569   3.604   2.500
 1496TIP3   OH2 4493   1.334   4.396   5.106
 1496TIP3    H1 4494   1.384   4.381   5.027
 1496TIP3    H2 4495   1.399   4.412   5.174
 1497TIP3   OH2 4496   1.592   4.938   0.673
 1497TIP3    H1 4497   1.637   4.982   0.745
 1497TIP3    H2 4498   1.611   4.845   0.687
 1498TIP3   OH2 4499   5.100   2.112   3.861
 1498TIP3    H1 4500   5.037   2.167   3.814
 1498TIP3    H2 4501   5.067   2.023   3.848
 1499TIP3   OH2 4502   5.593   1.785   4.641
 1499TIP3    H1 4503   5.687   1.787   4.622
 1499TIP3    H2 4504   5.562   1.705   4.598
 1500TIP3   OH2 4505   1.501   2.770   4.920
 1500TIP3    H1 4506   1.566   2.775   4.851
 1500TIP3    H2 4507   1.473   2.861   4.934
 1501TIP3   OH2 4508   4.590   5.504   0.566
 1501TIP3    H1 4509   4.633   5.564   0.505
 1501TIP3    H2 4510   4.511   5.476   0.521
 1502TIP3   OH2 4511   0.201   3.974   0.230
 1502TIP3    H1 4512   0.157   3.892   0.207
 1502TIP3    H2 4513   0.134   4.026   0.275
 1503TIP3   OH2 4514   5.643   0.167   0.087
 1503TIP3    H1 4515   5.708   0.159   0.018
 1503TIP3    H2 4516   5.560   0.179   0.041
 1504TIP3   OH2 4517   1.403   3.740   4.612
 1504TIP3    H1 4518   1.482   3.717   4.662
 1504TIP3    H2 4519   1.434   3.801   4.545
 1505TIP3   OH2 4520   6.211   2.365   4.007
 1505TIP3    H1 4521   6.121   2.390   4.024
 1505TIP3    H2 4522   6.263   2.440   4.037
 1506TIP3   OH2 4523   4.905   0.677   4.782
 1506TIP3    H1 4524   4.952   0.736   4.841
 1506TIP3    H2 4525   4.880   0.603   4.837
 1507TIP3   OH2 4526   2.920   0.271   0.611
 1507TIP3    H1 4527   2.976   0.242   0.683
 1507TIP3    H2 4528   2.845   0.312   0.655
 1508TIP3   OH2 4529   4.007   2.318   2.155
 1508TIP3    H1 4530   3.962   2.395   2.119
 1508TIP3    H2 4531   3.979   2.246   2.100
 1509TIP3   OH2 4532   4.923   3.462   3.253
 1509TIP3    H1 4533   4.966   3.377   3.253
 1509TIP3    H2 4534   4.952   3.504   3.172
 1510TIP3   OH2 4535   1.294   2.842   2.028
 1510TIP3    H1 4536   1.300   2.762   2.079
 1510TIP3    H2 4537   1.374   2.844   1.976
 1511TIP3   OH2 4538   3.346   5.923   3.732
 1511TIP3    H1 4539   3.334   5.831   3.756
 1511TIP3    H2 4540   3.371   5.921   3.640
 1512TIP3   OH2 4541   1.819   3.056   1.927
 1512TIP3    H1 4542   1.783   3.058   2.016
 1512TIP3    H2 4543   1.895   3.114   1.931
 1513TIP3   OH2 4544   1.223   3.351   2.177
 1513TIP3    H1 4545   1.309   3.384   2.150
 1513TIP3    H2 4546   1.230   3.341   2.272
 1514TIP3   OH2 4547   3.839   2.736   5.149
 1514TIP3    H1 4548   3.789   2.713   5.071
 1514TIP3    H2 4549   3.774   2.769   5.211
 1515TIP3   OH2 4550   5.463   2.371   1.050
 1515TIP3    H1 4551   5.428   2.346   1.135
 1515TIP3    H2 4552   5.478   2.466   1.056
 1516TIP3   OH2 4553   4.621   0.072   3.338
 1516TIP3    H1 4554   4.699   0.061   3.393
 1516TIP3    H2 4555   4.553   0.100   3.400
 1517TIP3   OH2 4556   5.189   5.047   0.866
 1517TIP3    H1 4557   5.241   5.076   0.792
 1517TIP3    H2 4558   5.166   5.127   0.913
 1518TIP3   OH2 4559   0.506   1.346   4.790
 1518TIP3    H1 4560   0.572   1.414   4.791
 1518TIP3    H2 4561   0.504   1.312   4.879
 1519TIP3   OH2 4562   1.176   1.885   1.859
 1519TIP3    H1 4563   1.094   1.849   1.892
 1519TIP3    H2 4564   1.212   1.815   1.804
 1520TIP3   OH2 4565   6.162   2.217   4.989
 1520TIP3    H1 4566   6.215   2.225   4.910
 1520TIP3    H2 4567   6.122   2.130   4.983
 1521TIP3   OH2 4568   0.482   0.419   0.511
 1521TIP3    H1 4569   0.481   0.349   0.575
 1521TIP3    H2 4570   0.568   0.459   0.519
 1522TIP3   OH2 4571   0.593   0.293   1.085
 1522TIP3    H1 4572   0.603   0.343   1.166
 1522TIP3    H2 4573   0.573   0.359   1.019
 1523TIP3   OH2 4574   4.101   2.618   4.009
 1523TIP3    H1 4575   4.161   2.677   3.963
 1523TIP3    H2 4576   4.021   2.619   3.957
 1524TIP3   OH2 4577   6.063   0.633   1.911
 1524TIP3    H1 4578   6.120   0.620   1.986
 1524TIP3    H2 4579   5.986   0.580   1.930
 1525TIP3   OH2 4580   1.656   5.735   0.185
 1525TIP3    H1 4581   1.736   5.782   0.210
 1525TIP3    H2 4582   1.658   5.655   0.237
 1526TIP3   OH2 4583   3.827   2.376   0.652
 1526TIP3    H1 4584   3.814   2.423   0.570
 1526TIP3    H2 4585   3.797   2.287   0.634
 1527TIP3   OH2 4586   3.459   0.320   3.447
 1527TIP3    H1 4587   3.458   0.230   3.480
 1527TIP3    H2 4588   3.528   0.363   3.497
 1528TIP3   OH2 4589   4.640   2.388   2.261
 1528TIP3    H1 4590   4.704   2.460   2.261
 1528TIP3    H2 4591   4.619   2.375   2.169
 1529TIP3   OH2 4592   3.183   4.718   2.423
 1529TIP3    H1 4593   3.166   4.704   2.516
 1529TIP3    H2 4594   3.159   4.636   2.382
 1530TIP3   OH2 4595   3.260   1.586   1.878
 1530TIP3    H1 4596   3.264   1.559   1.970
 1530TIP3    H2 4597   3.198   1.525   1.839
 1531TIP3   OH2 4598   0.966   3.456   3.154
 1531TIP3    H1 4599   0.898   3.523   3.162
 1531TIP3    H2 4600   0.937   3.400   3.081
 1532TIP3   OH2 4601   2.787   4.526   4.225
 1532TIP3    H1 4602   2.846   4.594   4.194
 1532TIP3    H2 4603   2.794   4.531   4.321
 1533TIP3   OH2 4604   5.682   3.193   1.410
 1533TIP3    H1 4605   5.591   3.190   1.381
 1533TIP3    H2 4606   5.720   3.268   1.365
 1534TIP3   OH2 4607   1.344   2.592   3.443
 1534TIP3    H1 4608   1.393   2.640   3.510
 1534TIP3    H2 4609   1.252   2.609   3.465
 1535TIP3   OH2 4610   0.942   2.156   2.866
 1535TIP3    H1 4611   0.969   2.165   2.774
 1535TIP3    H2 4612   1.022   2.134   2.913
 1536TIP3   OH2 4613   5.460   1.178   1.252
 1536TIP3    H1 4614   5.414   1.170   1.335
 1536TIP3    H2 4615   5.456   1.272   1.232
 1537TIP3   OH2 4616   3.328   1.971   4.950
 1537TIP3    H1 4617   3.245   2.009   4.977
 1537TIP3    H2 4618   3.373   1.949   5.031
 1538TIP3   OH2 4619   4.923   1.265   5.122
 1538TIP3    H1 4620   4.997   1.270   5.061
 1538TIP3    H2 4621   4.859   1.209   5.078
 1539TIP3   OH2 4622   1.586   4.344   1.686
 1539TIP3    H1 4623   1.592   4.287   1.609
 1539TIP3    H2 4624   1.676   4.353   1.717
 1540TIP3   OH2 4625   5.488   0.072   4.809
 1540TIP3    H1 4626   5.424   0.033   4.869
 1540TIP3    H2 4627   5.573   0.040   4.841
 1541TIP3   OH2 4628   2.557   5.322   5.022
 1541TIP3    H1 4629   2.551   5.416   5.005
 1541TIP3    H2 4630   2.469   5.289   5.005
 1542TIP3   OH2 4631   5.708   3.527   2.919
 1542TIP3    H1 4632   5.800   3.501   2.927
 1542TIP3    H2 4633   5.707   3.619   2.945
 1543TIP3   OH2 4634   0.967   0.098   1.772
 1543TIP3    H1 4635   0.915   0.053   1.839
 1543TIP3    H2 4636   1.058   0.085   1.800
 1544TIP3   OH2 4637   5.420   5.021   4.368
 1544TIP3    H1 4638   5.333   5.061   4.366
 1544TIP3    H2 4639   5.411   4.946   4.426
 1545TIP3   OH2 4640   0.255   2.655   4.237
 1545TIP3    H1 4641   0.348   2.674   4.248
 1545TIP3    H2 4642   0.213   2.693   4.314
 1546TIP3   OH2 4643   1.288   0.041   2.645
 1546TIP3    H1 4644   1.233   0.052   2.567
 1546TIP3    H2 4645   1.230   0.001   2.709
 1547TIP3   OH2 4646   4.562   2.631   0.597
 1547TIP3    H1 4647   4.573   2.635   0.502
 1547TIP3    H2 4648   4.470   2.608   0.609
 1548TIP3   OH2 4649   1.778   2.844   3.112
 1548TIP3    H1 4650   1.825   2.846   3.195
 1548TIP3    H2 4651   1.747   2.934   3.100
 1549TIP3   OH2 4652   0.614   2.604   2.359
 1549TIP3    H1 4653   0.594   2.574   2.448
 1549TIP3    H2 4654   0.612   2.524   2.306
 1550TIP3   OH2 4655   1.558   4.895   2.802
 1550TIP3    H1 4656   1.498   4.902   2.727
 1550TIP3    H2 4657   1.561   4.802   2.822
 1551TIP3   OH2 4658   6.008   3.265   4.488
 1551TIP3    H1 4659   5.946   3.206   4.531
 1551TIP3    H2 4660   5.956   3.343   4.467
 1552TIP3   OH2 4661   3.187   4.310   3.693
 1552TIP3    H1 4662   3.117   4.374   3.707
 1552TIP3    H2 4663   3.262   4.345   3.740
 1553TIP3   OH2 4664   4.552   0.456   2.601
 1553TIP3    H1 4665   4.565   0.438   2.508
 1553TIP3    H2 4666   4.485   0.394   2.629
 1554TIP3   OH2 4667   3.046   3.775   0.301
 1554TIP3    H1 4668   3.089   3.703   0.347
 1554TIP3    H2 4669   3.054   3.752   0.209
 1555TIP3   OH2 4670   1.537   4.004   0.329
 1555TIP3    H1 4671   1.456   4.023   0.282
 1555TIP3    H2 4672   1.514   4.010   0.422
 1556TIP3   OH2 4673   6.023   1.236   0.670
 1556TIP3    H1 4674   5.970   1.157   0.669
 1556TIP3    H2 4675   6.085   1.223   0.741
 1557TIP3   OH2 4676   1.435   1.833   0.757
 1557TIP3    H1 4677   1.343   1.848   0.779
 1557TIP3    H2 4678   1.482   1.841   0.840
 1558TIP3   OH2 4679   0.870   4.848   3.963
 1558TIP3    H1 4680   0.799   4.910   3.943
 1558TIP3    H2 4681   0.936   4.865   3.896
 1559TIP3   OH2 4682   2.403   0.439   3.147
 1559TIP3    H1 4683   2.386   0.346   3.164
 1559TIP3    H2 4684   2.421   0.476   3.234
 1560TIP3   OH2 4685   1.458   1.987   4.026
 1560TIP3    H1 4686   1.375   2.034   4.021
 1560TIP3    H2 4687   1.434   1.895   4.036
 1561TIP3   OH2 4688   0.499   2.907   4.367
 1561TIP3    H1 4689   0.504   2.969   4.440
 1561TIP3    H2 4690   0.442   2.949   4.304
 1562TIP3   OH2 4691   3.883   1.514   4.444
 1562TIP3    H1 4692   3.809   1.575   4.444
 1562TIP3    H2 4693   3.847   1.432   4.477
 1563TIP3   OH2 4694   4.464   2.102   0.133
 1563TIP3    H1 4695   4.527   2.059   0.191
 1563TIP3    H2 4696   4.503   2.097   0.046
 1564TIP3   OH2 4697   0.803   1.154   2.634
 1564TIP3    H1 4698   0.820   1.068   2.596
 1564TIP3    H2 4699   0.884   1.175   2.681
 1565TIP3   OH2 4700   1.020   5.586   2.198
 1565TIP3    H1 4701   1.003   5.538   2.117
 1565TIP3    H2 4702   1.075   5.659   2.171
 1566TIP3   OH2 4703   4.066   5.908   0.736
 1566TIP3    H1 4704   4.017   5.841   0.784
 1566TIP3    H2 4705   4.047   5.990   0.782
 1567TIP3   OH2 4706   4.760   0.110   2.897
 1567TIP3    H1 4707   4.764   0.150   2.810
 1567TIP3    H2 4708   4.666   0.103   2.916
 1568TIP3   OH2 4709   1.463   0.482   4.519
 1568TIP3    H1 4710   1.483   0.467   4.612
 1568TIP3    H2 4711   1.545   0.512   4.481
 1569TIP3   OH2 4712   3.583   4.010   4.909
 1569TIP3    H1 4713   3.513   4.031   4.848
 1569TIP3    H2 4714   3.585   3.914   4.912
 1570TIP3   OH2 4715   1.182   4.322   4.129
 1570TIP3    H1 4716   1.091   4.298   4.109
 1570TIP3    H2 4717   1.221   4.242   4.163
 1571TIP3   OH2 4718   4.998   2.468   0.058
 1571TIP3    H1 4719   5.040   2.526  -0.006
 1571TIP3    H2 4720   4.913   2.447   0.020
 1572TIP3   OH2 4721   4.718   3.987   3.061
 1572TIP3    H1 4722   4.670   4.059   3.102
 1572TIP3    H2 4723   4.810   4.007   3.077
 1573TIP3   OH2 4724   2.919   5.545   2.203
 1573TIP3    H1 4725   2.939   5.454   2.178
 1573TIP3    H2 4726   2.911   5.591   2.120
 1574TIP3   OH2 4727   6.310   0.653   4.775
 1574TIP3    H1 4728   6.335   0.620   4.862
 1574TIP3    H2 4729   6.390   0.693   4.741
 1575TIP3   OH2 4730   1.378   3.026   1.337
 1575TIP3    H1 4731   1.288   3.013   1.307
 1575TIP3    H2 4732   1.371   3.091   1.408
 1576TIP3   OH2 4733   3.204   5.625   1.037
 1576TIP3    H1 4734   3.229   5.602   1.127
 1576TIP3    H2 4735   3.264   5.575   0.982
 1577TIP3   OH2 4736   4.717   5.054   1.982
 1577TIP3    H1 4737   4.655   5.112   2.025
 1577TIP3    H2 4738   4.800   5.069   2.028
 1578TIP3   OH2 4739   5.500   1.400   2.573
 1578TIP3    H1 4740   5.449   1.378   2.651
 1578TIP3    H2 4741   5.536   1.317   2.544
 1579TIP3   OH2 4742   6.281   3.628   3.950
 1579TIP3    H1 4743   6.366   3.596   3.918
 1579TIP3    H2 4744   6.222   3.618   3.876
 1580TIP3   OH2 4745   2.592   3.646   3.918
 1580TIP3    H1 4746   2.623   3.642   4.009
 1580TIP3    H2 4747   2.509   3.598   3.918
 1581TIP3   OH2 4748   5.377   2.477   1.322
 1581TIP3    H1 4749   5.308   2.539   1.295
 1581TIP3    H2 4750   5.330   2.409   1.370
 1582TIP3   OH2 4751   1.485   2.366   0.725
 1582TIP3    H1 4752   1.392   2.347   0.717
 1582TIP3    H2 4753   1.488   2.452   0.767
 1583TIP3   OH2 4754   6.156   3.701   1.413
 1583TIP3    H1 4755   6.249   3.681   1.405
 1583TIP3    H2 4756   6.140   3.706   1.507
 1584TIP3   OH2 4757   3.367   3.421   1.637
 1584TIP3    H1 4758   3.347   3.511   1.614
 1584TIP3    H2 4759   3.281   3.379   1.643
 1585TIP3   OH2 4760   0.558   3.294   2.231
 1585TIP3    H1 4761   0.464   3.303   2.240
 1585TIP3    H2 4762   0.594   3.329   2.313
 1586TIP3   OH2 4763   1.417   2.075   0.643
 1586TIP3    H1 4764   1.383   2.147   0.590
 1586TIP3    H2 4765   1.348   2.009   0.640
 1587TIP3   OH2 4766   2.670   3.626   0.770
 1587TIP3    H1 4767   2.646   3.672   0.850
 1587TIP3    H2 4768   2.641   3.536   0.786
 1588TIP3   OH2 4769   4.141   4.147   0.595
 1588TIP3    H1 4770   4.180   4.161   0.509
 1588TIP3    H2 4771   4.054   4.112   0.576
 1589TIP3   OH2 4772   1.193   2.049   3.931
 1589TIP3    H1 4773   1.185   2.066   3.837
 1589TIP3    H2 4774   1.159   1.959   3.941
 1590TIP3   OH2 4775   1.849   4.161   3.124
 1590TIP3    H1 4776   1.791   4.101   3.172
 1590TIP3    H2 4777   1.841   4.135   3.033
 1591TIP3   OH2 4778   1.179   0.373   4.527
 1591TIP3    H1 4779   1.269   0.404   4.533
 1591TIP3    H2 4780   1.126   0.452   4.527
 1592TIP3   OH2 4781   5.940   1.624   4.251
 1592TIP3    H1 4782   5.939   1.598   4.158
 1592TIP3    H2 4783   5.974   1.713   4.250
 1593TIP3   OH2 4784   3.901   5.046   2.795
 1593TIP3    H1 4785   3.920   4.989   2.870
 1593TIP3    H2 4786   3.933   5.132   2.822
 1594TIP3   OH2 4787   4.393   4.327   0.634
 1594TIP3    H1 4788   4.376   4.283   0.550
 1594TIP3    H2 4789   4.367   4.263   0.700
 1595TIP3   OH2 4790   5.291   5.246   4.586
 1595TIP3    H1 4791   5.226   5.311   4.560
 1595TIP3    H2 4792   5.373   5.295   4.593
 1596TIP3   OH2 4793   0.563   0.634   1.493
 1596TIP3    H1 4794   0.530   0.720   1.467
 1596TIP3    H2 4795   0.491   0.594   1.541
 1597TIP3   OH2 4796   3.215   5.342   1.338
 1597TIP3    H1 4797   3.224   5.437   1.339
 1597TIP3    H2 4798   3.140   5.326   1.281
 1598TIP3   OH2 4799   6.124   2.172   0.766
 1598TIP3    H1 4800   6.213   2.178   0.802
 1598TIP3    H2 4801   6.131   2.215   0.680
 1599TIP3   OH2 4802   1.757   1.175   3.531
 1599TIP3    H1 4803   1.698   1.102   3.515
 1599TIP3    H2 4804   1.831   1.160   3.471
 1600TIP3   OH2 4805   4.030   0.405   1.032
 1600TIP3    H1 4806   4.087   0.344   1.079
 1600TIP3    H2 4807   4.081   0.431   0.955
 1601TIP3   OH2 4808   5.504   0.277   1.634
 1601TIP3    H1 4809   5.545   0.344   1.578
 1601TIP3    H2 4810   5.412   0.278   1.607
 1602TIP3   OH2 4811   4.585   5.959   1.446
 1602TIP3    H1 4812   4.610   5.868   1.428
 1602TIP3    H2 4813   4.519   5.953   1.515
 1603TIP3   OH2 4814   3.699   0.106   1.684
 1603TIP3    H1 4815   3.630   0.164   1.715
 1603TIP3    H2 4816   3.664   0.018   1.698
 1604TIP3   OH2 4817   4.067   2.582   3.305
 1604TIP3    H1 4818   4.050   2.597   3.398
 1604TIP3    H2 4819   3.981   2.585   3.264
 1605TIP3   OH2 4820   2.582   5.036   3.904
 1605TIP3    H1 4821   2.605   4.943   3.901
 1605TIP3    H2 4822   2.487   5.037   3.919
 1606TIP3   OH2 4823   0.296   5.127   1.009
 1606TIP3    H1 4824   0.241   5.073   1.066
 1606TIP3    H2 4825   0.274   5.099   0.920
 1607TIP3   OH2 4826   1.420   0.326   1.930
 1607TIP3    H1 4827   1.489   0.346   1.993
 1607TIP3    H2 4828   1.392   0.411   1.896
 1608TIP3   OH2 4829   5.998   0.460   3.838
 1608TIP3    H1 4830   6.075   0.511   3.862
 1608TIP3    H2 4831   5.925   0.520   3.846
 1609TIP3   OH2 4832   6.245   4.413   4.933
 1609TIP3    H1 4833   6.238   4.321   4.959
 1609TIP3    H2 4834   6.155   4.441   4.917
 1610TIP3   OH2 4835   1.484   5.199   4.982
 1610TIP3    H1 4836   1.473   5.104   4.989
 1610TIP3    H2 4837   1.569   5.217   5.021
 1611TIP3   OH2 4838   0.844   5.761   1.229
 1611TIP3    H1 4839   0.864   5.682   1.180
 1611TIP3    H2 4840   0.764   5.740   1.278
 1612TIP3   OH2 4841   3.505   4.325   5.126
 1612TIP3    H1 4842   3.527   4.264   5.195
 1612TIP3    H2 4843   3.433   4.378   5.162
 1613TIP3   OH2 4844   4.024   5.549   4.572
 1613TIP3    H1 4845   4.033   5.478   4.507
 1613TIP3    H2 4846   4.043   5.628   4.522
 1614TIP3   OH2 4847   2.461   0.789   2.831
 1614TIP3    H1 4848   2.467   0.704   2.874
 1614TIP3    H2 4849   2.466   0.852   2.903
 1615TIP3   OH2 4850   4.537   5.285   3.634
 1615TIP3    H1 4851   4.581   5.350   3.580
 1615TIP3    H2 4852   4.470   5.334   3.681
 1616TIP3   OH2 4853   3.894   2.437   2.682
 1616TIP3    H1 4854   3.876   2.416   2.590
 1616TIP3    H2 4855   3.811   2.423   2.727
 1617TIP3   OH2 4856   6.044   1.440   2.789
 1617TIP3    H1 4857   6.104   1.511   2.812
 1617TIP3    H2 4858   5.991   1.477   2.718
 1618TIP3   OH2 4859   1.285   0.561   4.856
 1618TIP3    H1 4860   1.215   0.507   4.891
 1618TIP3    H2 4861   1.349   0.567   4.928
 1619TIP3   OH2 4862   3.157   2.532   4.745
 1619TIP3    H1 4863   3.208   2.475   4.687
 1619TIP3    H2 4864   3.205   2.531   4.828
 1620TIP3   OH2 4865   4.014   1.375  -0.003
 1620TIP3    H1 4866   3.980   1.382   0.087
 1620TIP3    H2 4867   4.092   1.430  -0.004
 1621TIP3   OH2 4868   4.244   4.045   0.074
 1621TIP3    H1 4869   4.299   4.026   0.151
 1621TIP3    H2 4870   4.307   4.062   0.004
 1622TIP3   OH2 4871   0.943   1.859   3.439
 1622TIP3    H1 4872   0.899   1.791   3.490
 1622TIP3    H2 4873   0.973   1.815   3.360
 1623TIP3   OH2 4874   5.400   4.768   2.733
 1623TIP3    H1 4875   5.444   4.760   2.649
 1623TIP3    H2 4876   5.458   4.824   2.785
 1624TIP3   OH2 4877   2.006   3.379   4.115
 1624TIP3    H1 4878   2.011   3.308   4.178
 1624TIP3    H2 4879   2.088   3.427   4.126
 1625TIP3   OH2 4880   1.398   4.141   4.479
 1625TIP3    H1 4881   1.425   4.072   4.539
 1625TIP3    H2 4882   1.374   4.214   4.535
 1626TIP3   OH2 4883   0.685   1.656   3.340
 1626TIP3    H1 4884   0.732   1.648   3.423
 1626TIP3    H2 4885   0.749   1.696   3.280
 1627TIP3   OH2 4886   0.126   5.001   4.134
 1627TIP3    H1 4887   0.043   5.044   4.153
 1627TIP3    H2 4888   0.193   5.065   4.158
 1628TIP3   OH2 4889  -0.009   4.400   0.541
 1628TIP3    H1 4890  -0.007   4.397   0.637
 1628TIP3    H2 4891   0.080   4.377   0.515
 1629TIP3   OH2 4892   2.904   2.326   4.101
 1629TIP3    H1 4893   2.876   2.278   4.179
 1629TIP3    H2 4894   2.903   2.260   4.031
 1630TIP3   OH2 4895   3.066   2.016   3.181
 1630TIP3    H1 4896   3.097   2.105   3.197
 1630TIP3    H2 4897   3.053   2.011   3.086
 1631TIP3   OH2 4898   0.047   2.838   1.281
 1631TIP3    H1 4899   0.100   2.767   1.246
 1631TIP3    H2 4900   0.003   2.875   1.205
 1632TIP3   OH2 4901   5.637   0.312   0.354
 1632TIP3    H1 4902   5.651   0.282   0.264
 1632TIP3    H2 4903   5.628   0.407   0.346
 1633TIP3   OH2 4904   1.927   5.015   0.542
 1633TIP3    H1 4905   1.893   5.045   0.458
 1633TIP3    H2 4906   1.960   5.094   0.584
 1634TIP3   OH2 4907   0.179   1.397   3.578
 1634TIP3    H1 4908   0.258   1.372   3.531
 1634TIP3    H2 4909   0.168   1.490   3.560
 1635TIP3   OH2 4910   1.108   3.829   2.910
 1635TIP3    H1 4911   1.140   3.854   2.823
 1635TIP3    H2 4912   1.097   3.734   2.904
 1636TIP3   OH2 4913   5.817   5.406   1.168
 1636TIP3    H1 4914   5.724   5.410   1.146
 1636TIP3    H2 4915   5.823   5.341   1.238
 1637TIP3   OH2 4916   5.311   1.533   0.729
 1637TIP3    H1 4917   5.240   1.538   0.665
 1637TIP3    H2 4918   5.310   1.442   0.759
 1638TIP3   OH2 4919   2.126   0.721   5.125
 1638TIP3    H1 4920   2.059   0.680   5.179
 1638TIP3    H2 4921   2.079   0.787   5.074
 1639TIP3   OH2 4922   3.280   5.526   0.458
 1639TIP3    H1 4923   3.260   5.432   0.457
 1639TIP3    H2 4924   3.272   5.552   0.366
 1640TIP3   OH2 4925   1.701   2.766   4.254
 1640TIP3    H1 4926   1.723   2.680   4.290
 1640TIP3    H2 4927   1.775   2.788   4.198
 1641TIP3   OH2 4928   4.101   5.883   3.891
 1641TIP3    H1 4929   4.046   5.885   3.813
 1641TIP3    H2 4930   4.097   5.792   3.921
 1642TIP3   OH2 4931   4.724   1.091   5.060
 1642TIP3    H1 4932   4.680   1.129   5.136
 1642TIP3    H2 4933   4.685   1.004   5.051
 1643TIP3   OH2 4934   4.013   2.508   5.206
 1643TIP3    H1 4935   4.008   2.465   5.120
 1643TIP3    H2 4936   3.955   2.584   5.198
 1644TIP3   OH2 4937   3.862   1.859   2.717
 1644TIP3    H1 4938   3.823   1.847   2.630
 1644TIP3    H2 4939   3.947   1.815   2.710
 1645TIP3   OH2 4940   4.600   1.760   1.730
 1645TIP3    H1 4941   4.662   1.698   1.691
 1645TIP3    H2 4942   4.609   1.747   1.824
 1646TIP3   OH2 4943   2.838   2.970   2.614
 1646TIP3    H1 4944   2.767   2.973   2.678
 1646TIP3    H2 4945   2.825   2.887   2.568
 1647TIP3   OH2 4946   1.265   0.107   1.826
 1647TIP3    H1 4947   1.314   0.181   1.862
 1647TIP3    H2 4948   1.306   0.030   1.863
 1648TIP3   OH2 4949   2.286   5.935   1.571
 1648TIP3    H1 4950   2.277   6.025   1.603
 1648TIP3    H2 4951   2.199   5.914   1.536
 1649TIP3   OH2 4952   5.248   0.879   1.375
 1649TIP3    H1 4953   5.237   0.899   1.283
 1649TIP3    H2 4954   5.187   0.937   1.420
 1650TIP3   OH2 4955   4.140   1.687   4.946
 1650TIP3    H1 4956   4.086   1.661   5.021
 1650TIP3    H2 4957   4.155   1.781   4.959
 1651TIP3   OH2 4958   2.265   4.373   4.267
 1651TIP3    H1 4959   2.350   4.416   4.271
 1651TIP3    H2 4960   2.203   4.438   4.300
 1652TIP3   OH2 4961   5.867   0.350   0.489
 1652TIP3    H1 4962   5.838   0.439   0.510
 1652TIP3    H2 4963   5.799   0.315   0.433
 1653TIP3   OH2 4964   0.964   4.373   1.756
 1653TIP3    H1 4965   0.961   4.279   1.774
 1653TIP3    H2 4966   1.042   4.385   1.702
 1654TIP3   OH2 4967   2.698   4.557   0.146
 1654TIP3    H1 4968   2.657   4.631   0.191
 1654TIP3    H2 4969   2.699   4.487   0.211
 1655TIP3   OH2 4970   5.976   2.718   3.292
 1655TIP3    H1 4971   6.066   2.748   3.280
 1655TIP3    H2 4972   5.934   2.732   3.207
 1656TIP3   OH2 4973   0.133   4.822   1.047
 1656TIP3    H1 4974   0.106   4.782   0.964
 1656TIP3    H2 4975   0.068   4.890   1.063
 1657TIP3   OH2 4976   0.377   2.359   4.613
 1657TIP3    H1 4977   0.320   2.323   4.545
 1657TIP3    H2 4978   0.341   2.446   4.632
 1658TIP3   OH2 4979   2.199   0.483   0.314
 1658TIP3    H1 4980   2.112   0.474   0.275
 1658TIP3    H2 4981   2.236   0.395   0.310
 1659TIP3   OH2 4982   0.312   3.474   4.799
 1659TIP3    H1 4983   0.285   3.551   4.849
 1659TIP3    H2 4984   0.245   3.466   4.731
 1660TIP3   OH2 4985   4.741   3.747   3.206
 1660TIP3    H1 4986   4.719   3.833   3.171
 1660TIP3    H2 4987   4.704   3.685   3.142
 1661TIP3   OH2 4988   1.596   4.580   2.908
 1661TIP3    H1 4989   1.650   4.502   2.919
 1661TIP3    H2 4990   1.573   4.606   2.997
 1662TIP3   OH2 4991   3.914   3.929   2.940
 1662TIP3    H1 4992   4.005   3.957   2.950
 1662TIP3    H2 4993   3.919   3.844   2.897
 1663TIP3   OH2 4994   3.345   5.715   2.158
 1663TIP3    H1 4995   3.367   5.806   2.136
 1663TIP3    H2 4996   3.429   5.676   2.182
 1664TIP3   OH2 4997   0.722   3.550   1.763
 1664TIP3    H1 4998   0.812   3.519   1.765
 1664TIP3    H2 4999   0.683   3.517   1.844
 1665TIP3   OH2 5000   2.574   3.055   2.458
 1665TIP3    H1 5001   2.512   3.003   2.510
 1665TIP3    H2 5002   2.625   3.103   2.522
 1666TIP3   OH2 5003   6.111   3.245   3.209
 1666TIP3    H1 5004   6.094   3.190   3.133
 1666TIP3    H2 5005   6.027   3.249   3.255
 1667TIP3   OH2 5006   3.396   5.226   4.127
 1667TIP3    H1 5007   3.324   5.289   4.130
 1667TIP3    H2 5008   3.449   5.252   4.052
 1668TIP3   OH2 5009   3.501   1.906   3.605
 1668TIP3    H1 5010   3.483   1.841   3.673
 1668TIP3    H2 5011   3.425   1.964   3.607
 1669TIP3   OH2 5012   1.387   0.142   0.475
 1669TIP3    H1 5013   1.304   0.116   0.435
 1669TIP3    H2 5014   1.362   0.193   0.552
 1670TIP3   OH2 5015   2.095   1.070   4.798
 1670TIP3    H1 5016   2.075   1.134   4.730
 1670TIP3    H2 5017   2.157   1.115   4.856
 1671TIP3   OH2 5018   4.125   0.219   3.399
 1671TIP3    H1 5019   4.059   0.199   3.466
 1671TIP3    H2 5020   4.123   0.143   3.341
 1672TIP3   OH2 5021   6.173   1.020   3.996
 1672TIP3    H1 5022   6.217   0.953   4.048
 1672TIP3    H2 5023   6.223   1.023   3.914
 1673TIP3   OH2 5024   5.153   3.102   1.005
 1673TIP3    H1 5025   5.221   3.164   1.030
 1673TIP3    H2 5026   5.154   3.102   0.909
 1674TIP3   OH2 5027   1.713   2.921   3.554
 1674TIP3    H1 5028   1.763   2.893   3.477
 1674TIP3    H2 5029   1.675   3.005   3.528
 1675TIP3   OH2 5030   4.377   0.248   2.618
 1675TIP3    H1 5031   4.432   0.170   2.612
 1675TIP3    H2 5032   4.314   0.239   2.547
 1676TIP3   OH2 5033   5.200   2.851   2.263
 1676TIP3    H1 5034   5.123   2.850   2.206
 1676TIP3    H2 5035   5.183   2.921   2.325
 1677TIP3   OH2 5036   0.446   2.651   0.193
 1677TIP3    H1 5037   0.446   2.573   0.138
 1677TIP3    H2 5038   0.355   2.660   0.221
 1678TIP3   OH2 5039   4.722   2.421   4.148
 1678TIP3    H1 5040   4.727   2.425   4.053
 1678TIP3    H2 5041   4.678   2.502   4.173
 1679TIP3   OH2 5042   1.987   0.984   1.837
 1679TIP3    H1 5043   1.898   1.014   1.852
 1679TIP3    H2 5044   2.039   1.030   1.904
 1680TIP3   OH2 5045   0.571   3.463   1.972
 1680TIP3    H1 5046   0.553   3.390   2.032
 1680TIP3    H2 5047   0.551   3.542   2.023
 1681TIP3   OH2 5048   0.835   2.575   0.167
 1681TIP3    H1 5049   0.870   2.654   0.125
 1681TIP3    H2 5050   0.912   2.533   0.205
 1682TIP3   OH2 5051   3.135   5.834   4.257
 1682TIP3    H1 5052   3.230   5.832   4.253
 1682TIP3    H2 5053   3.114   5.899   4.324
 1683TIP3   OH2 5054   5.354   2.879   1.962
 1683TIP3    H1 5055   5.388   2.829   2.036
 1683TIP3    H2 5056   5.398   2.842   1.886
 1684TIP3   OH2 5057   5.334   5.886   2.813
 1684TIP3    H1 5058   5.247   5.895   2.775
 1684TIP3    H2 5059   5.330   5.935   2.895
 1685TIP3   OH2 5060   2.817   1.771   2.770
 1685TIP3    H1 5061   2.736   1.820   2.764
 1685TIP3    H2 5062   2.803   1.709   2.842
 1686TIP3   OH2 5063   2.957   5.625   2.546
 1686TIP3    H1 5064   2.977   5.533   2.565
 1686TIP3    H2 5065   2.952   5.628   2.450
 1687TIP3   OH2 5066   2.748   0.040   3.845
 1687TIP3    H1 5067   2.717   0.052   3.935
 1687TIP3    H2 5068   2.683   0.085   3.791
 1688TIP3   OH2 5069   3.039   2.841   4.069
 1688TIP3    H1 5070   2.962   2.894   4.092
 1688TIP3    H2 5071   3.003   2.754   4.049
 1689TIP3   OH2 5072   4.604   2.683   1.920
 1689TIP3    H1 5073   4.602   2.774   1.889
 1689TIP3    H2 5074   4.696   2.659   1.916
 1690TIP3   OH2 5075   5.049   4.038   4.218
 1690TIP3    H1 5076   5.080   4.124   4.245
 1690TIP3    H2 5077   4.982   4.015   4.282
 1691TIP3   OH2 5078   0.415   2.748   2.088
 1691TIP3    H1 5079   0.507   2.767   2.110
 1691TIP3    H2 5080   0.414   2.741   1.993
 1692TIP3   OH2 5081   1.669   3.736   1.857
 1692TIP3    H1 5082   1.748   3.718   1.807
 1692TIP3    H2 5083   1.669   3.671   1.927
 1693TIP3   OH2 5084   3.621   4.409   0.339
 1693TIP3    H1 5085   3.639   4.496   0.374
 1693TIP3    H2 5086   3.545   4.421   0.282
 1694TIP3   OH2 5087   5.636   3.553   5.042
 1694TIP3    H1 5088   5.645   3.459   5.024
 1694TIP3    H2 5089   5.559   3.558   5.099
 1695TIP3   OH2 5090   2.515   4.151   3.130
 1695TIP3    H1 5091   2.534   4.227   3.185
 1695TIP3    H2 5092   2.422   4.132   3.147
 1696TIP3   OH2 5093   1.852   0.550   5.182
 1696TIP3    H1 5094   1.855   0.488   5.109
 1696TIP3    H2 5095   1.785   0.614   5.156
 1697TIP3   OH2 5096   4.274   3.307   5.104
 1697TIP3    H1 5097   4.193   3.261   5.083
 1697TIP3    H2 5098   4.301   3.270   5.188
 1698TIP3   OH2 5099   2.297   3.948   0.631
 1698TIP3    H1 5100   2.218   3.900   0.607
 1698TIP3    H2 5101   2.350   3.948   0.551
 1699TIP3   OH2 5102   6.073   4.796   4.828
 1699TIP3    H1 5103   5.990   4.838   4.803
 1699TIP3    H2 5104   6.055   4.702   4.820
 1700TIP3   OH2 5105   1.488   4.043   2.339
 1700TIP3    H1 5106   1.457   3.996   2.416
 1700TIP3    H2 5107   1.545   4.111   2.374
 1701TIP3   OH2 5108   0.174   2.210   2.822
 1701TIP3    H1 5109   0.102   2.263   2.857
 1701TIP3    H2 5110   0.132   2.158   2.753
 1702TIP3   OH2 5111   5.010   1.273   0.729
 1702TIP3    H1 5112   4.972   1.191   0.760
 1702TIP3    H2 5113   5.100   1.271   0.762
 1703TIP3   OH2 5114   2.330   4.323   3.661
 1703TIP3    H1 5115   2.296   4.313   3.572
 1703TIP3    H2 5116   2.290   4.250   3.710
 1704TIP3   OH2 5117   2.055   2.551   0.561
 1704TIP3    H1 5118   2.007   2.513   0.635
 1704TIP3    H2 5119   2.014   2.636   0.547
 1705TIP3   OH2 5120   5.675   1.824   1.897
 1705TIP3    H1 5121   5.674   1.733   1.869
 1705TIP3    H2 5122   5.749   1.863   1.851
 1706TIP3   OH2 5123   2.208   0.423   2.170
 1706TIP3    H1 5124   2.277   0.363   2.138
 1706TIP3    H2 5125   2.254   0.506   2.184
 1707TIP3   OH2 5126   6.033   2.034   1.002
 1707TIP3    H1 5127   6.070   2.071   0.922
 1707TIP3    H2 5128   6.110   2.016   1.057
 1708TIP3   OH2 5129   4.384   3.785   1.543
 1708TIP3    H1 5130   4.423   3.700   1.521
 1708TIP3    H2 5131   4.325   3.805   1.471
 1709TIP3   OH2 5132   0.182   5.535   2.658
 1709TIP3    H1 5133   0.171   5.629   2.644
 1709TIP3    H2 5134   0.200   5.499   2.571
 1710TIP3   OH2 5135   4.519   3.778   2.966
 1710TIP3    H1 5136   4.431   3.805   2.990
 1710TIP3    H2 5137   4.576   3.851   2.993
 1711TIP3   OH2 5138   0.364   1.352   3.256
 1711TIP3    H1 5139   0.434   1.338   3.320
 1711TIP3    H2 5140   0.346   1.446   3.260
 1712TIP3   OH2 5141   1.615   3.694   2.258
 1712TIP3    H1 5142   1.565   3.755   2.204
 1712TIP3    H2 5143   1.692   3.673   2.205
 1713TIP3   OH2 5144   1.896   0.445   2.776
 1713TIP3    H1 5145   1.909   0.354   2.800
 1713TIP3    H2 5146   1.902   0.493   2.859
 1714TIP3   OH2 5147   4.219   2.829   3.354
 1714TIP3    H1 5148   4.283   2.852   3.286
 1714TIP3    H2 5149   4.192   2.740   3.331
 1715TIP3   OH2 5150   3.221   5.237   0.547
 1715TIP3    H1 5151   3.312   5.208   0.555
 1715TIP3    H2 5152   3.196   5.266   0.635
 1716TIP3   OH2 5153   1.415   4.490   4.365
 1716TIP3    H1 5154   1.375   4.562   4.317
 1716TIP3    H2 5155   1.441   4.427   4.298
 1717TIP3   OH2 5156   5.518   5.508   1.375
 1717TIP3    H1 5157   5.516   5.522   1.280
 1717TIP3    H2 5158   5.446   5.448   1.392
 1718TIP3   OH2 5159   5.340   3.266   4.682
 1718TIP3    H1 5160   5.245   3.267   4.691
 1718TIP3    H2 5161   5.365   3.175   4.701
 1719TIP3   OH2 5162   4.082   0.345   4.791
 1719TIP3    H1 5163   4.095   0.399   4.868
 1719TIP3    H2 5164   4.008   0.386   4.746
 1720TIP3   OH2 5165   0.824   5.277   1.890
 1720TIP3    H1 5166   0.912   5.298   1.857
 1720TIP3    H2 5167   0.831   5.285   1.985
 1721TIP3   OH2 5168   2.323   3.465   3.111
 1721TIP3    H1 5169   2.411   3.428   3.116
 1721TIP3    H2 5170   2.265   3.394   3.140
 1722TIP3   OH2 5171   5.192   5.588   3.649
 1722TIP3    H1 5172   5.229   5.543   3.725
 1722TIP3    H2 5173   5.237   5.549   3.574
 1723TIP3   OH2 5174   2.106   3.004   3.406
 1723TIP3    H1 5175   2.168   2.966   3.467
 1723TIP3    H2 5176   2.155   3.012   3.324
 1724TIP3   OH2 5177   4.527   1.622   2.179
 1724TIP3    H1 5178   4.471   1.548   2.157
 1724TIP3    H2 5179   4.467   1.688   2.214
 1725TIP3   OH2 5180   4.186   1.209   3.655
 1725TIP3    H1 5181   4.147   1.203   3.742
 1725TIP3    H2 5182   4.232   1.126   3.643
 1726TIP3   OH2 5183   4.690   4.069   0.935
 1726TIP3    H1 5184   4.727   4.076   0.847
 1726TIP3    H2 5185   4.724   4.145   0.982
 1727TIP3   OH2 5186   1.021   3.526   4.905
 1727TIP3    H1 5187   1.003   3.595   4.840
 1727TIP3    H2 5188   1.029   3.447   4.852
 1728TIP3   OH2 5189   3.545   4.853   0.622
 1728TIP3    H1 5190   3.452   4.861   0.597
 1728TIP3    H2 5191   3.543   4.837   0.716
 1729TIP3   OH2 5192   5.259   3.175   2.671
 1729TIP3    H1 5193   5.320   3.240   2.637
 1729TIP3    H2 5194   5.179   3.188   2.620
 1730TIP3   OH2 5195   0.937   2.689   5.014
 1730TIP3    H1 5196   0.928   2.657   5.104
 1730TIP3    H2 5197   1.031   2.698   5.001
 1731TIP3   OH2 5198   1.667   4.264   0.212
 1731TIP3    H1 5199   1.604   4.285   0.281
 1731TIP3    H2 5200   1.682   4.170   0.221
 1732TIP3   OH2 5201   0.327   0.691   2.846
 1732TIP3    H1 5202   0.243   0.708   2.889
 1732TIP3    H2 5203   0.362   0.615   2.892
 1733TIP3   OH2 5204   0.286   2.297   1.195
 1733TIP3    H1 5205   0.217   2.297   1.129
 1733TIP3    H2 5206   0.255   2.236   1.262
 1734TIP3   OH2 5207   0.273   4.928   0.140
 1734TIP3    H1 5208   0.263   4.944   0.234
 1734TIP3    H2 5209   0.320   5.004   0.107
 1735TIP3   OH2 5210   5.677   0.559   3.941
 1735TIP3    H1 5211   5.744   0.628   3.941
 1735TIP3    H2 5212   5.612   0.589   4.004
 1736TIP3   OH2 5213   5.223   2.239   0.906
 1736TIP3    H1 5214   5.133   2.206   0.894
 1736TIP3    H2 5215   5.253   2.195   0.985
 1737TIP3   OH2 5216   6.194   0.247   3.452
 1737TIP3    H1 5217   6.153   0.291   3.378
 1737TIP3    H2 5218   6.192   0.311   3.523
 1738TIP3   OH2 5219   6.145   5.960   4.080
 1738TIP3    H1 5220   6.217   5.944   4.141
 1738TIP3    H2 5221   6.178   6.029   4.022
 1739TIP3   OH2 5222   4.421   0.751   4.907
 1739TIP3    H1 5223   4.442   0.681   4.844
 1739TIP3    H2 5224   4.328   0.738   4.927
 1740TIP3   OH2 5225   1.800   0.767   4.784
 1740TIP3    H1 5226   1.720   0.792   4.739
 1740TIP3    H2 5227   1.786   0.676   4.809
 1741TIP3   OH2 5228   0.201   3.380   1.849
 1741TIP3    H1 5229   0.277   3.331   1.881
 1741TIP3    H2 5230   0.128   3.319   1.858
 1742TIP3   OH2 5231   4.778   1.768   5.150
 1742TIP3    H1 5232   4.757   1.845   5.203
 1742TIP3    H2 5233   4.710   1.704   5.172
 1743TIP3   OH2 5234   5.071   3.982   1.212
 1743TIP3    H1 5235   5.078   3.912   1.147
 1743TIP3    H2 5236   5.159   4.021   1.214
 1744TIP3   OH2 5237   6.184   5.296   2.059
 1744TIP3    H1 5238   6.172   5.335   1.973
 1744TIP3    H2 5239   6.161   5.204   2.046
 1745TIP3   OH2 5240   2.092   2.291   3.244
 1745TIP3    H1 5241   1.997   2.295   3.257
 1745TIP3    H2 5242   2.104   2.314   3.152
 1746TIP3   OH2 5243   2.677   0.041   3.435
 1746TIP3    H1 5244   2.703   0.070   3.523
 1746TIP3    H2 5245   2.677   0.121   3.382
 1747TIP3   OH2 5246   0.707   4.255   1.469
 1747TIP3    H1 5247   0.643   4.272   1.538
 1747TIP3    H2 5248   0.658   4.209   1.401
 1748TIP3   OH2 5249   2.410   2.962   0.946
 1748TIP3    H1 5250   2.485   2.963   1.005
 1748TIP3    H2 5251   2.396   3.053   0.922
 1749TIP3   OH2 5252   1.144   2.343   3.175
 1749TIP3    H1 5253   1.073   2.290   3.211
 1749TIP3    H2 5254   1.104   2.427   3.153
 1750TIP3   OH2 5255   4.006   3.104   0.860
 1750TIP3    H1 5256   4.061   3.168   0.905
 1750TIP3    H2 5257   4.008   3.027   0.916
 1751TIP3   OH2 5258   4.519   3.248   1.073
 1751TIP3    H1 5259   4.497   3.331   1.030
 1751TIP3    H2 5260   4.434   3.204   1.084
 1752TIP3   OH2 5261   6.131   3.537   4.180
 1752TIP3    H1 5262   6.069   3.482   4.132
 1752TIP3    H2 5263   6.170   3.594   4.113
 1753TIP3   OH2 5264   2.508   1.826   1.171
 1753TIP3    H1 5265   2.464   1.741   1.179
 1753TIP3    H2 5266   2.549   1.840   1.256
 1754TIP3   OH2 5267   0.824   4.520   0.222
 1754TIP3    H1 5268   0.770   4.499   0.298
 1754TIP3    H2 5269   0.804   4.611   0.202
 1755TIP3   OH2 5270   1.581   1.799   1.445
 1755TIP3    H1 5271   1.652   1.760   1.394
 1755TIP3    H2 5272   1.579   1.749   1.526
 1756TIP3   OH2 5273   6.145   4.878   1.586
 1756TIP3    H1 5274   6.133   4.951   1.647
 1756TIP3    H2 5275   6.070   4.821   1.603
 1757TIP3   OH2 5276   2.672   0.910   4.169
 1757TIP3    H1 5277   2.756   0.931   4.128
 1757TIP3    H2 5278   2.624   0.863   4.101
 1758TIP3   OH2 5279   5.767   5.251   3.590
 1758TIP3    H1 5280   5.699   5.294   3.539
 1758TIP3    H2 5281   5.843   5.247   3.532
 1759TIP3   OH2 5282   1.234   2.539   1.793
 1759TIP3    H1 5283   1.269   2.492   1.717
 1759TIP3    H2 5284   1.223   2.629   1.762
 1760TIP3   OH2 5285   4.812   1.642   3.110
 1760TIP3    H1 5286   4.822   1.646   3.205
 1760TIP3    H2 5287   4.741   1.580   3.096
 1761TIP3   OH2 5288   3.998   4.438   0.425
 1761TIP3    H1 5289   4.052   4.479   0.357
 1761TIP3    H2 5290   4.043   4.459   0.507
 1762TIP3   OH2 5291   1.868   1.155   2.608
 1762TIP3    H1 5292   1.783   1.117   2.583
 1762TIP3    H2 5293   1.858   1.176   2.701
 1763TIP3   OH2 5294   1.529   5.897   4.771
 1763TIP3    H1 5295   1.609   5.854   4.801
 1763TIP3    H2 5296   1.473   5.899   4.848
 1764TIP3   OH2 5297   4.697   0.470   2.895
 1764TIP3    H1 5298   4.714   0.409   2.967
 1764TIP3    H2 5299   4.645   0.419   2.833
 1765TIP3   OH2 5300   0.115   0.060   3.836
 1765TIP3    H1 5301   0.021   0.044   3.831
 1765TIP3    H2 5302   0.145   0.006   3.909
 1766TIP3   OH2 5303   1.631   5.985   4.489
 1766TIP3    H1 5304   1.582   5.913   4.449
 1766TIP3    H2 5305   1.606   5.983   4.581
 1767TIP3   OH2 5306   5.441   0.039   2.422
 1767TIP3    H1 5307   5.401   0.044   2.509
 1767TIP3    H2 5308   5.466  -0.053   2.412
 1768TIP3   OH2 5309   2.225   4.093   0.989
 1768TIP3    H1 5310   2.170   4.081   1.066
 1768TIP3    H2 5311   2.258   4.005   0.970
 1769TIP3   OH2 5312   1.389   5.456   4.245
 1769TIP3    H1 5313   1.428   5.375   4.212
 1769TIP3    H2 5314   1.453   5.524   4.222
 1770TIP3   OH2 5315   2.576   1.519   0.037
 1770TIP3    H1 5316   2.627   1.448  -0.002
 1770TIP3    H2 5317   2.584   1.591  -0.026
 1771TIP3   OH2 5318   0.890   4.525   1.499
 1771TIP3    H1 5319   0.963   4.583   1.522
 1771TIP3    H2 5320   0.824   4.584   1.462
 1772TIP3   OH2 5321   1.552   0.289   1.653
 1772TIP3    H1 5322   1.484   0.270   1.717
 1772TIP3    H2 5323   1.634   0.282   1.702
 1773TIP3   OH2 5324   3.023   1.456   5.203
 1773TIP3    H1 5325   3.004   1.476   5.111
 1773TIP3    H2 5326   3.037   1.362   5.205
 1774TIP3   OH2 5327   5.151   3.697   4.292
 1774TIP3    H1 5328   5.143   3.612   4.333
 1774TIP3    H2 5329   5.066   3.712   4.251
 1775TIP3   OH2 5330   5.421   5.616   4.339
 1775TIP3    H1 5331   5.348   5.556   4.326
 1775TIP3    H2 5332   5.384   5.689   4.389
 1776TIP3   OH2 5333   2.392   3.579   5.014
 1776TIP3    H1 5334   2.462   3.524   4.979
 1776TIP3    H2 5335   2.364   3.534   5.094
 1777TIP3   OH2 5336   2.613   0.364   0.936
 1777TIP3    H1 5337   2.633   0.302   0.865
 1777TIP3    H2 5338   2.524   0.394   0.916
 1778TIP3   OH2 5339   0.659   2.309   3.366
 1778TIP3    H1 5340   0.649   2.308   3.270
 1778TIP3    H2 5341   0.570   2.319   3.399
 1779TIP3   OH2 5342   3.361   4.785   2.871
 1779TIP3    H1 5343   3.287   4.725   2.872
 1779TIP3    H2 5344   3.342   4.846   2.800
 1780TIP3   OH2 5345   6.024   5.183   3.137
 1780TIP3    H1 5346   5.953   5.119   3.127
 1780TIP3    H2 5347   6.097   5.144   3.090
 1781TIP3   OH2 5348   0.609   1.384   0.155
 1781TIP3    H1 5349   0.627   1.447   0.085
 1781TIP3    H2 5350   0.526   1.343   0.131
 1782TIP3   OH2 5351   4.934   0.355   1.811
 1782TIP3    H1 5352   5.002   0.379   1.876
 1782TIP3    H2 5353   4.861   0.413   1.831
 1783TIP3   OH2 5354   5.356   4.404   2.238
 1783TIP3    H1 5355   5.431   4.423   2.294
 1783TIP3    H2 5356   5.395   4.366   2.159
 1784TIP3   OH2 5357   3.562   5.003   4.590
 1784TIP3    H1 5358   3.637   4.956   4.553
 1784TIP3    H2 5359   3.584   5.013   4.683
 1785TIP3   OH2 5360   0.818  -0.015   2.736
 1785TIP3    H1 5361   0.741   0.040   2.747
 1785TIP3    H2 5362   0.892   0.038   2.767
 1786TIP3   OH2 5363   2.452   3.133   2.051
 1786TIP3    H1 5364   2.462   3.217   2.096
 1786TIP3    H2 5365   2.513   3.074   2.095
 1787TIP3   OH2 5366   5.956   0.377   0.143
 1787TIP3    H1 5367   5.968   0.423   0.060
 1787TIP3    H2 5368   5.917   0.442   0.202
 1788TIP3   OH2 5369   4.795   2.765   3.744
 1788TIP3    H1 5370   4.885   2.796   3.729
 1788TIP3    H2 5371   4.749   2.842   3.777
 1789TIP3   OH2 5372   3.792   1.175   5.114
 1789TIP3    H1 5373   3.800   1.120   5.036
 1789TIP3    H2 5374   3.855   1.246   5.100
 1790TIP3   OH2 5375   0.059   0.313   0.749
 1790TIP3    H1 5376   0.066   0.258   0.671
 1790TIP3    H2 5377  -0.017   0.278   0.796
 1791TIP3   OH2 5378   0.099   4.972   2.564
 1791TIP3    H1 5379   0.157   4.899   2.586
 1791TIP3    H2 5380   0.150   5.050   2.585
 1792TIP3   OH2 5381   3.021   0.964   5.014
 1792TIP3    H1 5382   3.088   0.897   5.030
 1792TIP3    H2 5383   3.070   1.046   5.011
 1793TIP3   OH2 5384   1.692   0.591   3.287
 1793TIP3    H1 5385   1.690   0.681   3.321
 1793TIP3    H2 5386   1.605   0.579   3.248
 1794TIP3   OH2 5387   5.273   1.253   3.541
 1794TIP3    H1 5388   5.239   1.215   3.622
 1794TIP3    H2 5389   5.243   1.193   3.472
 1795TIP3   OH2 5390   2.084   5.373   3.984
 1795TIP3    H1 5391   2.057   5.287   3.950
 1795TIP3    H2 5392   2.103   5.356   4.077
 1796TIP3   OH2 5393   2.898   2.214   3.839
 1796TIP3    H1 5394   2.925   2.299   3.805
 1796TIP3    H2 5395   2.817   2.194   3.791
 1797TIP3   OH2 5396   3.179   4.056   0.707
 1797TIP3    H1 5397   3.204   4.066   0.615
 1797TIP3    H2 5398   3.103   4.113   0.717
 1798TIP3   OH2 5399   4.742   1.548   2.732
 1798TIP3    H1 5400   4.735   1.462   2.773
 1798TIP3    H2 5401   4.668   1.597   2.769
 1799TIP3   OH2 5402   4.784   0.455   0.397
 1799TIP3    H1 5403   4.727   0.429   0.325
 1799TIP3    H2 5404   4.829   0.533   0.364
 1800TIP3   OH2 5405   5.402   1.460   1.226
 1800TIP3    H1 5406   5.355   1.493   1.149
 1800TIP3    H2 5407   5.341   1.476   1.299
 1801TIP3   OH2 5408   2.365   5.476   4.081
 1801TIP3    H1 5409   2.409   5.513   4.157
 1801TIP3    H2 5410   2.281   5.521   4.077
 1802TIP3   OH2 5411   3.213   2.459   1.775
 1802TIP3    H1 5412   3.219   2.554   1.790
 1802TIP3    H2 5413   3.287   2.440   1.716
 1803TIP3   OH2 5414   4.911   1.440   4.723
 1803TIP3    H1 5415   4.863   1.495   4.660
 1803TIP3    H2 5416   4.937   1.363   4.672
 1804TIP3   OH2 5417   4.104   0.907   2.865
 1804TIP3    H1 5418   4.132   0.881   2.952
 1804TIP3    H2 5419   4.116   1.002   2.863
 1805TIP3   OH2 5420   1.317   0.718   0.659
 1805TIP3    H1 5421   1.347   0.631   0.634
 1805TIP3    H2 5422   1.345   0.728   0.750
 1806TIP3   OH2 5423   1.336   4.395   0.388
 1806TIP3    H1 5424   1.334   4.360   0.478
 1806TIP3    H2 5425   1.301   4.484   0.396
 1807TIP3   OH2 5426   0.494   0.908   1.401
 1807TIP3    H1 5427   0.446   0.989   1.421
 1807TIP3    H2 5428   0.554   0.933   1.330
 1808TIP3   OH2 5429   6.210   4.789   1.334
 1808TIP3    H1 5430   6.161   4.855   1.285
 1808TIP3    H2 5431   6.201   4.815   1.425
 1809TIP3   OH2 5432   4.152   0.424   0.277
 1809TIP3    H1 5433   4.178   0.496   0.219
 1809TIP3    H2 5434   4.073   0.456   0.321
 1810TIP3   OH2 5435   0.715   2.094   2.349
 1810TIP3    H1 5436   0.807   2.112   2.335
 1810TIP3    H2 5437   0.683   2.062   2.265
 1811TIP3   OH2 5438   4.894   3.365   0.314
 1811TIP3    H1 5439   4.985   3.374   0.286
 1811TIP3    H2 5440   4.856   3.304   0.251
 1812TIP3   OH2 5441   3.275   3.903   4.968
 1812TIP3    H1 5442   3.370   3.898   4.970
 1812TIP3    H2 5443   3.255   3.996   4.980
 1813TIP3   OH2 5444   6.101   4.949   4.126
 1813TIP3    H1 5445   6.099   5.012   4.197
 1813TIP3    H2 5446   6.075   4.999   4.049
 1814TIP3   OH2 5447   2.554   1.777   3.588
 1814TIP3    H1 5448   2.619   1.812   3.649
 1814TIP3    H2 5449   2.537   1.688   3.619
 1815TIP3   OH2 5450   4.532   3.614   4.512
 1815TIP3    H1 5451   4.533   3.710   4.517
 1815TIP3    H2 5452   4.495   3.596   4.425
 1816TIP3   OH2 5453   0.556   5.195   3.014
 1816TIP3    H1 5454   0.475   5.172   3.059
 1816TIP3    H2 5455   0.615   5.225   3.083
 1817TIP3   OH2 5456   3.841   3.351   2.683
 1817TIP3    H1 5457   3.838   3.390   2.596
 1817TIP3    H2 5458   3.771   3.286   2.683
 1818TIP3   OH2 5459   0.144   3.061   1.421
 1818TIP3    H1 5460   0.051   3.068   1.401
 1818TIP3    H2 5461   0.163   2.967   1.416
 1819TIP3   OH2 5462   5.586   3.887   1.563
 1819TIP3    H1 5463   5.502   3.869   1.520
 1819TIP3    H2 5464   5.596   3.982   1.556
 1820TIP3   OH2 5465   5.884   1.375   0.886
 1820TIP3    H1 5466   5.932   1.357   0.805
 1820TIP3    H2 5467   5.916   1.460   0.915
 1821TIP3   OH2 5468   2.331   5.056   4.012
 1821TIP3    H1 5469   2.322   5.043   4.107
 1821TIP3    H2 5470   2.333   5.151   4.001
 1822TIP3   OH2 5471   2.837   0.949   0.579
 1822TIP3    H1 5472   2.888   1.016   0.626
 1822TIP3    H2 5473   2.853   0.968   0.487
 1823TIP3   OH2 5474   0.403   4.962   4.047
 1823TIP3    H1 5475   0.317   4.929   4.072
 1823TIP3    H2 5476   0.388   5.004   3.962
 1824TIP3   OH2 5477   2.755   1.544   0.232
 1824TIP3    H1 5478   2.822   1.476   0.234
 1824TIP3    H2 5479   2.709   1.529   0.149
 1825TIP3   OH2 5480   2.281   1.802   4.746
 1825TIP3    H1 5481   2.193   1.817   4.712
 1825TIP3    H2 5482   2.292   1.867   4.815
 1826TIP3   OH2 5483   5.155   0.384   3.792
 1826TIP3    H1 5484   5.172   0.298   3.753
 1826TIP3    H2 5485   5.126   0.364   3.881
 1827TIP3   OH2 5486   2.884   2.812   1.189
 1827TIP3    H1 5487   2.971   2.775   1.173
 1827TIP3    H2 5488   2.828   2.736   1.205
 1828TIP3   OH2 5489   5.255   3.822   3.655
 1828TIP3    H1 5490   5.312   3.758   3.696
 1828TIP3    H2 5491   5.172   3.775   3.642
 1829TIP3   OH2 5492   2.771   3.205   1.185
 1829TIP3    H1 5493   2.706   3.162   1.129
 1829TIP3    H2 5494   2.855   3.171   1.155
 1830TIP3   OH2 5495   4.928   1.178   4.634
 1830TIP3    H1 5496   4.901   1.183   4.542
 1830TIP3    H2 5497   4.976   1.095   4.640
 1831TIP3   OH2 5498   3.863   2.481   0.344
 1831TIP3    H1 5499   3.812   2.559   0.320
 1831TIP3    H2 5500   3.804   2.408   0.324
 1832TIP3   OH2 5501   0.206   5.694   0.716
 1832TIP3    H1 5502   0.298   5.673   0.701
 1832TIP3    H2 5503   0.167   5.695   0.629
 1833TIP3   OH2 5504   0.772   2.581   1.127
 1833TIP3    H1 5505   0.680   2.573   1.151
 1833TIP3    H2 5506   0.777   2.664   1.078
 1834TIP3   OH2 5507   2.926   0.284   0.198
 1834TIP3    H1 5508   2.831   0.290   0.199
 1834TIP3    H2 5509   2.944   0.191   0.204
 1835TIP3   OH2 5510   4.176   5.615   0.503
 1835TIP3    H1 5511   4.093   5.578   0.533
 1835TIP3    H2 5512   4.221   5.640   0.584
 1836TIP3   OH2 5513   3.451   3.989   4.655
 1836TIP3    H1 5514   3.442   4.076   4.695
 1836TIP3    H2 5515   3.535   3.992   4.610
 1837TIP3   OH2 5516   2.314   4.317   3.365
 1837TIP3    H1 5517   2.273   4.231   3.360
 1837TIP3    H2 5518   2.340   4.338   3.276
 1838TIP3   OH2 5519   0.212   0.130   4.087
 1838TIP3    H1 5520   0.162   0.155   4.165
 1838TIP3    H2 5521   0.272   0.062   4.119
 1839TIP3   OH2 5522   3.635   0.685   4.972
 1839TIP3    H1 5523   3.653   0.745   4.899
 1839TIP3    H2 5524   3.540   0.676   4.973
 1840TIP3   OH2 5525   0.384   5.398   3.245
 1840TIP3    H1 5526   0.399   5.348   3.325
 1840TIP3    H2 5527   0.350   5.482   3.274
 1841TIP3   OH2 5528   4.723   5.466   1.922
 1841TIP3    H1 5529   4.765   5.538   1.969
 1841TIP3    H2 5530   4.792   5.432   1.864
 1842TIP3   OH2 5531   0.977   3.784   2.140
 1842TIP3    H1 5532   0.974   3.689   2.139
 1842TIP3    H2 5533   1.053   3.806   2.086
 1843TIP3   OH2 5534   1.569   2.866   1.928
 1843TIP3    H1 5535   1.593   2.794   1.869
 1843TIP3    H2 5536   1.599   2.945   1.882
 1844TIP3   OH2 5537   1.859   4.975   2.712
 1844TIP3    H1 5538   1.810   4.953   2.633
 1844TIP3    H2 5539   1.821   5.058   2.741
 1845TIP3   OH2 5540   0.332   4.114   2.520
 1845TIP3    H1 5541   0.399   4.162   2.472
 1845TIP3    H2 5542   0.333   4.026   2.481
 1846TIP3   OH2 5543   4.189   1.977   2.713
 1846TIP3    H1 5544   4.158   1.993   2.802
 1846TIP3    H2 5545   4.248   1.902   2.721
 1847TIP3   OH2 5546   3.201   0.678   1.998
 1847TIP3    H1 5547   3.184   0.680   2.092
 1847TIP3    H2 5548   3.117   0.701   1.958
 1848TIP3   OH2 5549   5.882   4.982   2.272
 1848TIP3    H1 5550   5.900   4.936   2.190
 1848TIP3    H2 5551   5.853   4.913   2.332
 1849TIP3   OH2 5552   1.340   2.294   0.491
 1849TIP3    H1 5553   1.418   2.346   0.472
 1849TIP3    H2 5554   1.292   2.293   0.408
 1850TIP3   OH2 5555   3.977   1.775   0.107
 1850TIP3    H1 5556   4.072   1.772   0.117
 1850TIP3    H2 5557   3.958   1.860   0.069
 1851TIP3   OH2 5558   1.043   3.576   2.825
 1851TIP3    H1 5559   1.113   3.527   2.869
 1851TIP3    H2 5560   1.067   3.572   2.732
 1852TIP3   OH2 5561   1.931   4.045   3.705
 1852TIP3    H1 5562   1.908   3.962   3.745
 1852TIP3    H2 5563   2.027   4.048   3.708
 1853TIP3   OH2 5564   6.273   2.474   4.659
 1853TIP3    H1 5565   6.275   2.514   4.747
 1853TIP3    H2 5566   6.228   2.539   4.605
 1854TIP3   OH2 5567   2.381   5.120   1.634
 1854TIP3    H1 5568   2.435   5.114   1.555
 1854TIP3    H2 5569   2.441   5.100   1.706
 1855TIP3   OH2 5570   5.932   1.487   0.556
 1855TIP3    H1 5571   6.018   1.519   0.585
 1855TIP3    H2 5572   5.934   1.393   0.574
 1856TIP3   OH2 5573   0.142   0.963   2.507
 1856TIP3    H1 5574   0.216   0.906   2.528
 1856TIP3    H2 5575   0.105   0.925   2.427
 1857TIP3   OH2 5576   3.626   3.094   3.798
 1857TIP3    H1 5577   3.561   3.024   3.809
 1857TIP3    H2 5578   3.675   3.068   3.720
 1858TIP3   OH2 5579   5.221   0.909   3.899
 1858TIP3    H1 5580   5.306   0.948   3.879
 1858TIP3    H2 5581   5.224   0.823   3.859
 1859TIP3   OH2 5582   0.865   1.695   3.813
 1859TIP3    H1 5583   0.886   1.616   3.863
 1859TIP3    H2 5584   0.780   1.723   3.848
 1860TIP3   OH2 5585   2.277   4.007   3.152
 1860TIP3    H1 5586   2.190   4.044   3.140
 1860TIP3    H2 5587   2.274   3.964   3.237
 1861TIP3   OH2 5588   0.456   3.520   0.087
 1861TIP3    H1 5589   0.434   3.428   0.100
 1861TIP3    H2 5590   0.373   3.562   0.062
 1862TIP3   OH2 5591   1.383   1.934   4.810
 1862TIP3    H1 5592   1.376   1.838   4.807
 1862TIP3    H2 5593   1.453   1.950   4.873
 1863TIP3   OH2 5594   5.995   5.405   4.540
 1863TIP3    H1 5595   5.901   5.412   4.523
 1863TIP3    H2 5596   6.035   5.467   4.478
 1864TIP3   OH2 5597   3.764   4.865   0.929
 1864TIP3    H1 5598   3.793   4.835   1.015
 1864TIP3    H2 5599   3.761   4.961   0.937
 1865TIP3   OH2 5600   4.292   2.044   3.643
 1865TIP3    H1 5601   4.200   2.061   3.665
 1865TIP3    H2 5602   4.334   2.129   3.649
 1866TIP3   OH2 5603   0.292   0.520   0.314
 1866TIP3    H1 5604   0.348   0.460   0.361
 1866TIP3    H2 5605   0.298   0.602   0.363
 1867TIP3   OH2 5606   3.324   3.690   1.519
 1867TIP3    H1 5607   3.315   3.783   1.497
 1867TIP3    H2 5608   3.320   3.645   1.435
 1868TIP3   OH2 5609   6.221   5.254   1.062
 1868TIP3    H1 5610   6.174   5.294   0.989
 1868TIP3    H2 5611   6.159   5.253   1.134
 1869TIP3   OH2 5612   4.994   5.658   4.582
 1869TIP3    H1 5613   4.968   5.690   4.496
 1869TIP3    H2 5614   4.937   5.705   4.643
 1870TIP3   OH2 5615   5.394   2.193   3.011
 1870TIP3    H1 5616   5.327   2.211   3.077
 1870TIP3    H2 5617   5.438   2.114   3.044
 1871TIP3   OH2 5618   4.534   2.274   2.008
 1871TIP3    H1 5619   4.568   2.204   1.953
 1871TIP3    H2 5620   4.517   2.346   1.947
 1872TIP3   OH2 5621   4.920   4.800   1.757
 1872TIP3    H1 5622   5.003   4.847   1.753
 1872TIP3    H2 5623   4.945   4.708   1.765
 1873TIP3   OH2 5624   2.501   4.105   4.034
 1873TIP3    H1 5625   2.494   4.017   3.997
 1873TIP3    H2 5626   2.533   4.091   4.123
 1874TIP3   OH2 5627   5.385   2.409   1.656
 1874TIP3    H1 5628   5.361   2.500   1.638
 1874TIP3    H2 5629   5.480   2.412   1.668
 1875TIP3   OH2 5630   3.686   5.621   3.831
 1875TIP3    H1 5631   3.722   5.684   3.768
 1875TIP3    H2 5632   3.596   5.605   3.800
 1876TIP3   OH2 5633   2.528   4.438   4.173
 1876TIP3    H1 5634   2.471   4.439   4.096
 1876TIP3    H2 5635   2.564   4.527   4.177
 1877TIP3   OH2 5636   4.600   1.411   0.889
 1877TIP3    H1 5637   4.514   1.433   0.854
 1877TIP3    H2 5638   4.653   1.389   0.813
 1878TIP3   OH2 5639   2.279   3.326   4.926
 1878TIP3    H1 5640   2.375   3.326   4.922
 1878TIP3    H2 5641   2.255   3.234   4.913
 1879TIP3   OH2 5642   0.309   5.461   1.428
 1879TIP3    H1 5643   0.241   5.414   1.379
 1879TIP3    H2 5644   0.271   5.548   1.444
 1880TIP3   OH2 5645   0.566   0.301   3.641
 1880TIP3    H1 5646   0.570   0.375   3.580
 1880TIP3    H2 5647   0.512   0.236   3.597
 1881TIP3   OH2 5648   3.393   1.389   2.168
 1881TIP3    H1 5649   3.318   1.357   2.218
 1881TIP3    H2 5650   3.378   1.357   2.079
 1882TIP3   OH2 5651   4.666   4.903   4.848
 1882TIP3    H1 5652   4.727   4.972   4.822
 1882TIP3    H2 5653   4.655   4.914   4.942
 1883TIP3   OH2 5654   4.581   0.350   0.867
 1883TIP3    H1 5655   4.496   0.357   0.823
 1883TIP3    H2 5656   4.645   0.370   0.799
 1884TIP3   OH2 5657   5.059   0.954   4.571
 1884TIP3    H1 5658   5.071   0.866   4.535
 1884TIP3    H2 5659   5.143   0.998   4.556
 1885TIP3   OH2 5660   4.717   5.925   0.805
 1885TIP3    H1 5661   4.688   5.903   0.716
 1885TIP3    H2 5662   4.797   5.873   0.817
 1886TIP3   OH2 5663   3.450   0.640   2.921
 1886TIP3    H1 5664   3.502   0.700   2.868
 1886TIP3    H2 5665   3.410   0.696   2.988
 1887TIP3   OH2 5666   3.343   0.885   3.595
 1887TIP3    H1 5667   3.294   0.867   3.515
 1887TIP3    H2 5668   3.368   0.799   3.628
 1888TIP3   OH2 5669   5.714   1.615   4.393
 1888TIP3    H1 5670   5.795   1.623   4.342
 1888TIP3    H2 5671   5.658   1.685   4.359
 1889TIP3   OH2 5672   5.088   4.874   4.983
 1889TIP3    H1 5673   5.016   4.936   4.998
 1889TIP3    H2 5674   5.115   4.847   5.070
 1890TIP3   OH2 5675   1.984   5.066   2.264
 1890TIP3    H1 5676   1.978   5.034   2.174
 1890TIP3    H2 5677   1.936   5.148   2.264
 1891TIP3   OH2 5678   0.681   5.200   4.165
 1891TIP3    H1 5679   0.621   5.199   4.240
 1891TIP3    H2 5680   0.761   5.241   4.199
 1892TIP3   OH2 5681   5.781   3.892   1.209
 1892TIP3    H1 5682   5.793   3.829   1.139
 1892TIP3    H2 5683   5.869   3.927   1.226
 1893TIP3   OH2 5684   5.899   4.560   3.792
 1893TIP3    H1 5685   5.875   4.606   3.711
 1893TIP3    H2 5686   5.955   4.623   3.839
 1894TIP3   OH2 5687   1.463   5.639   4.502
 1894TIP3    H1 5688   1.424   5.559   4.467
 1894TIP3    H2 5689   1.503   5.611   4.585
 1895TIP3   OH2 5690   0.332   5.794   2.349
 1895TIP3    H1 5691   0.389   5.871   2.362
 1895TIP3    H2 5692   0.389   5.719   2.368
 1896TIP3   OH2 5693   4.297   5.927   4.439
 1896TIP3    H1 5694   4.363   5.930   4.370
 1896TIP3    H2 5695   4.341   5.962   4.516
 1897TIP3   OH2 5696   3.978   4.175   4.309
 1897TIP3    H1 5697   4.072   4.190   4.318
 1897TIP3    H2 5698   3.971   4.085   4.275
 1898TIP3   OH2 5699   4.259   3.402   1.879
 1898TIP3    H1 5700   4.205   3.349   1.937
 1898TIP3    H2 5701   4.345   3.361   1.883
 1899TIP3   OH2 5702   4.292   4.526   3.976
 1899TIP3    H1 5703   4.286   4.593   4.044
 1899TIP3    H2 5704   4.314   4.575   3.896
 1900TIP3   OH2 5705   2.222   5.328   3.270
 1900TIP3    H1 5706   2.212   5.370   3.356
 1900TIP3    H2 5707   2.151   5.366   3.217
 1901TIP3   OH2 5708   3.110   5.871   0.823
 1901TIP3    H1 5709   3.143   5.790   0.784
 1901TIP3    H2 5710   3.019   5.875   0.795
 1902TIP3   OH2 5711   0.009   5.403   3.478
 1902TIP3    H1 5712  -0.049   5.479   3.489
 1902TIP3    H2 5713   0.042   5.411   3.388
 1903TIP3   OH2 5714   1.851   2.409   4.927
 1903TIP3    H1 5715   1.774   2.383   4.876
 1903TIP3    H2 5716   1.816   2.468   4.994
 1904TIP3   OH2 5717   1.369   2.260   1.314
 1904TIP3    H1 5718   1.348   2.240   1.222
 1904TIP3    H2 5719   1.286   2.251   1.360
 1905TIP3   OH2 5720   4.520   1.265   3.887
 1905TIP3    H1 5721   4.450   1.326   3.862
 1905TIP3    H2 5722   4.516   1.263   3.983
 1906TIP3   OH2 5723   4.426   3.444   3.446
 1906TIP3    H1 5724   4.430   3.396   3.363
 1906TIP3    H2 5725   4.461   3.531   3.425
 1907TIP3   OH2 5726   2.324   5.656   1.359
 1907TIP3    H1 5727   2.241   5.645   1.404
 1907TIP3    H2 5728   2.389   5.663   1.429
 1908TIP3   OH2 5729   5.576   4.692   0.356
 1908TIP3    H1 5730   5.546   4.609   0.321
 1908TIP3    H2 5731   5.667   4.699   0.327
 1909TIP3   OH2 5732   0.756   4.425   2.306
 1909TIP3    H1 5733   0.706   4.348   2.279
 1909TIP3    H2 5734   0.845   4.406   2.277
 1910TIP3   OH2 5735   2.236   4.098   3.784
 1910TIP3    H1 5736   2.232   4.126   3.875
 1910TIP3    H2 5737   2.283   4.014   3.786
 1911TIP3   OH2 5738   0.657   3.174   1.224
 1911TIP3    H1 5739   0.603   3.161   1.302
 1911TIP3    H2 5740   0.620   3.114   1.159
 1912TIP3   OH2 5741   5.657   2.379   2.512
 1912TIP3    H1 5742   5.624   2.390   2.601
 1912TIP3    H2 5743   5.613   2.447   2.462
 1913TIP3   OH2 5744   5.035   3.367   1.085
 1913TIP3    H1 5745   4.971   3.340   1.151
 1913TIP3    H2 5746   5.052   3.287   1.034
 1914TIP3   OH2 5747   0.385   0.254   3.169
 1914TIP3    H1 5748   0.432   0.223   3.246
 1914TIP3    H2 5749   0.388   0.180   3.108
 1915TIP3   OH2 5750   5.031   4.543   4.527
 1915TIP3    H1 5751   4.982   4.604   4.471
 1915TIP3    H2 5752   5.095   4.503   4.468
 1916TIP3   OH2 5753   0.943   2.332   0.006
 1916TIP3    H1 5754   1.009   2.368   0.067
 1916TIP3    H2 5755   0.944   2.238   0.024
 1917TIP3   OH2 5756   5.918   2.598   3.791
 1917TIP3    H1 5757   5.937   2.572   3.701
 1917TIP3    H2 5758   5.846   2.660   3.783
 1918TIP3   OH2 5759   4.974   1.426   4.334
 1918TIP3    H1 5760   5.057   1.404   4.377
 1918TIP3    H2 5761   4.988   1.403   4.242
 1919TIP3   OH2 5762   2.774   0.614   0.470
 1919TIP3    H1 5763   2.688   0.597   0.432
 1919TIP3    H2 5764   2.778   0.709   0.480
 1920TIP3   OH2 5765   1.821   4.211   2.832
 1920TIP3    H1 5766   1.743   4.265   2.845
 1920TIP3    H2 5767   1.894   4.273   2.829
 1921TIP3   OH2 5768   4.266   2.134   2.272
 1921TIP3    H1 5769   4.181   2.090   2.264
 1921TIP3    H2 5770   4.323   2.088   2.211
 1922TIP3   OH2 5771   3.798   5.436   4.679
 1922TIP3    H1 5772   3.889   5.455   4.657
 1922TIP3    H2 5773   3.773   5.503   4.742
 1923TIP3   OH2 5774   4.013   2.449   2.419
 1923TIP3    H1 5775   4.104   2.471   2.437
 1923TIP3    H2 5776   4.017   2.387   2.346
 1924TIP3   OH2 5777   5.608   4.653   4.300
 1924TIP3    H1 5778   5.683   4.710   4.315
 1924TIP3    H2 5779   5.565   4.648   4.386
 1925TIP3   OH2 5780   3.753   2.121   0.592
 1925TIP3    H1 5781   3.748   2.087   0.681
 1925TIP3    H2 5782   3.813   2.063   0.546
 1926TIP3   OH2 5783   0.596   2.654   4.371
 1926TIP3    H1 5784   0.593   2.750   4.372
 1926TIP3    H2 5785   0.561   2.628   4.456
 1927TIP3   OH2 5786   1.616   4.887   3.120
 1927TIP3    H1 5787   1.544   4.905   3.060
 1927TIP3    H2 5788   1.641   4.973   3.153
 1928TIP3   OH2 5789   2.733   3.154   5.076
 1928TIP3    H1 5790   2.818   3.196   5.094
 1928TIP3    H2 5791   2.752   3.060   5.080
 1929TIP3   OH2 5792   4.345   3.977   2.698
 1929TIP3    H1 5793   4.340   3.882   2.712
 1929TIP3    H2 5794   4.379   3.986   2.609
 1930TIP3   OH2 5795   0.807   1.793   5.136
 1930TIP3    H1 5796   0.873   1.860   5.120
 1930TIP3    H2 5797   0.732   1.841   5.170
 1931TIP3   OH2 5798   4.210   2.976   0.608
 1931TIP3    H1 5799   4.277   3.042   0.588
 1931TIP3    H2 5800   4.257   2.910   0.658
 1932TIP3   OH2 5801   2.716   1.930   0.958
 1932TIP3    H1 5802   2.663   2.009   0.951
 1932TIP3    H2 5803   2.670   1.875   1.021
 1933TIP3   OH2 5804   0.281   4.426   4.695
 1933TIP3    H1 5805   0.300   4.491   4.628
 1933TIP3    H2 5806   0.359   4.369   4.696
 1934TIP3   OH2 5807   3.797   3.008   2.849
 1934TIP3    H1 5808   3.754   2.924   2.864
 1934TIP3    H2 5809   3.829   3.034   2.936
 1935TIP3   OH2 5810   2.330   3.608   1.222
 1935TIP3    H1 5811   2.287   3.536   1.177
 1935TIP3    H2 5812   2.326   3.585   1.315
 1936TIP3   OH2 5813   6.219   4.499   0.086
 1936TIP3    H1 5814   6.182   4.454   0.162
 1936TIP3    H2 5815   6.143   4.520   0.032
 1937TIP3   OH2 5816   0.220   0.136   0.145
 1937TIP3    H1 5817   0.196   0.113   0.234
 1937TIP3    H2 5818   0.136   0.155   0.102
 1938TIP3   OH2 5819   5.708   3.435   3.282
 1938TIP3    H1 5820   5.777   3.471   3.338
 1938TIP3    H2 5821   5.633   3.424   3.341
 1939TIP3   OH2 5822   4.887   3.556   4.418
 1939TIP3    H1 5823   4.892   3.626   4.354
 1939TIP3    H2 5824   4.977   3.526   4.428
 1940TIP3   OH2 5825   5.586   0.925   2.344
 1940TIP3    H1 5826   5.592   0.841   2.390
 1940TIP3    H2 5827   5.505   0.918   2.293
 1941TIP3   OH2 5828   0.240   3.538   0.913
 1941TIP3    H1 5829   0.316   3.505   0.960
 1941TIP3    H2 5830   0.166   3.488   0.948
 1942TIP3   OH2 5831   6.273   1.939   2.762
 1942TIP3    H1 5832   6.335   1.937   2.688
 1942TIP3    H2 5833   6.299   1.865   2.817
 1943TIP3   OH2 5834   4.819   5.916   0.501
 1943TIP3    H1 5835   4.889   5.859   0.533
 1943TIP3    H2 5836   4.785   5.871   0.424
 1944TIP3   OH2 5837   6.137   5.876   1.611
 1944TIP3    H1 5838   6.154   5.831   1.528
 1944TIP3    H2 5839   6.218   5.924   1.630
 1945TIP3   OH2 5840   3.450   0.572   1.573
 1945TIP3    H1 5841   3.367   0.571   1.623
 1945TIP3    H2 5842   3.436   0.509   1.502
 1946TIP3   OH2 5843   2.691   4.073   4.291
 1946TIP3    H1 5844   2.726   4.005   4.234
 1946TIP3    H2 5845   2.604   4.041   4.316
 1947TIP3   OH2 5846   1.032   3.150   0.640
 1947TIP3    H1 5847   1.069   3.238   0.628
 1947TIP3    H2 5848   0.937   3.163   0.639
 1948TIP3   OH2 5849   6.363   5.004   3.291
 1948TIP3    H1 5850   6.305   4.943   3.336
 1948TIP3    H2 5851   6.433   4.949   3.255
 1949TIP3   OH2 5852   5.847   5.533   3.289
 1949TIP3    H1 5853   5.774   5.555   3.232
 1949TIP3    H2 5854   5.878   5.618   3.322
 1950TIP3   OH2 5855   5.676   5.387   2.874
 1950TIP3    H1 5856   5.724   5.422   2.800
 1950TIP3    H2 5857   5.689   5.292   2.868
 1951TIP3   OH2 5858   1.272   4.418   3.552
 1951TIP3    H1 5859   1.234   4.400   3.638
 1951TIP3    H2 5860   1.229   4.355   3.494
 1952TIP3   OH2 5861   5.340   0.618   4.817
 1952TIP3    H1 5862   5.305   0.645   4.732
 1952TIP3    H2 5863   5.413   0.677   4.833
 1953TIP3   OH2 5864   0.315   0.236   4.675
 1953TIP3    H1 5865   0.319   0.299   4.603
 1953TIP3    H2 5866   0.317   0.290   4.754
 1954TIP3   OH2 5867   0.552   4.804   2.880
 1954TIP3    H1 5868   0.486   4.809   2.949
 1954TIP3    H2 5869   0.546   4.715   2.846
 1955TIP3   OH2 5870   0.562   4.817   1.066
 1955TIP3    H1 5871   0.492   4.785   1.008
 1955TIP3    H2 5872   0.517   4.841   1.147
 1956TIP3   OH2 5873   2.675   1.170   4.319
 1956TIP3    H1 5874   2.717   1.205   4.240
 1956TIP3    H2 5875   2.586   1.151   4.292
 1957TIP3   OH2 5876   0.317   2.872   3.968
 1957TIP3    H1 5877   0.362   2.869   4.053
 1957TIP3    H2 5878   0.233   2.913   3.987
 1958TIP3   OH2 5879   5.979   4.594   4.339
 1958TIP3    H1 5880   6.042   4.552   4.398
 1958TIP3    H2 5881   6.018   4.586   4.253
 1959TIP3   OH2 5882   0.173   1.809   4.772
 1959TIP3    H1 5883   0.247   1.748   4.770
 1959TIP3    H2 5884   0.110   1.772   4.710
 1960TIP3   OH2 5885   5.962   3.323   2.719
 1960TIP3    H1 5886   5.977   3.416   2.733
 1960TIP3    H2 5887   5.880   3.319   2.669
 1961TIP3   OH2 5888   4.998   0.315   4.292
 1961TIP3    H1 5889   5.068   0.368   4.328
 1961TIP3    H2 5890   4.941   0.295   4.367
 1962TIP3   OH2 5891   6.286   1.538   2.541
 1962TIP3    H1 5892   6.234   1.618   2.545
 1962TIP3    H2 5893   6.374   1.565   2.567
 1963TIP3   OH2 5894   3.468   3.766   1.745
 1963TIP3    H1 5895   3.411   3.715   1.688
 1963TIP3    H2 5896   3.417   3.844   1.767
 1964TIP3   OH2 5897   4.787   3.258   0.067
 1964TIP3    H1 5898   4.694   3.269   0.088
 1964TIP3    H2 5899   4.798   3.300  -0.018
 1965TIP3   OH2 5900   3.268   1.793   4.574
 1965TIP3    H1 5901   3.189   1.746   4.549
 1965TIP3    H2 5902   3.326   1.726   4.610
 1966TIP3   OH2 5903   0.060   3.595   2.411
 1966TIP3    H1 5904  -0.026   3.564   2.439
 1966TIP3    H2 5905   0.083   3.664   2.473
 1967TIP3   OH2 5906   3.421   2.333   4.449
 1967TIP3    H1 5907   3.503   2.374   4.421
 1967TIP3    H2 5908   3.424   2.245   4.411
 1968TIP3   OH2 5909   0.066   2.350   0.649
 1968TIP3    H1 5910   0.034   2.415   0.712
 1968TIP3    H2 5911   0.158   2.336   0.674
 1969TIP3   OH2 5912   1.369   2.718   1.139
 1969TIP3    H1 5913   1.410   2.741   1.056
 1969TIP3    H2 5914   1.278   2.748   1.130
 1970TIP3   OH2 5915   2.463   0.119   4.718
 1970TIP3    H1 5916   2.392   0.079   4.667
 1970TIP3    H2 5917   2.427   0.202   4.749
 1971TIP3   OH2 5918   6.162   5.803   4.724
 1971TIP3    H1 5919   6.148   5.709   4.737
 1971TIP3    H2 5920   6.143   5.817   4.631
 1972TIP3   OH2 5921   3.532   5.897   5.154
 1972TIP3    H1 5922   3.583   5.825   5.190
 1972TIP3    H2 5923   3.517   5.956   5.229
 1973TIP3   OH2 5924   4.708   1.115   4.120
 1973TIP3    H1 5925   4.712   1.062   4.041
 1973TIP3    H2 5926   4.622   1.158   4.116
 1974TIP3   OH2 5927   3.508   2.607   0.356
 1974TIP3    H1 5928   3.478   2.518   0.339
 1974TIP3    H2 5929   3.539   2.638   0.270
 1975TIP3   OH2 5930   2.253   1.522   2.653
 1975TIP3    H1 5931   2.180   1.460   2.658
 1975TIP3    H2 5932   2.321   1.483   2.707
 1976TIP3   OH2 5933   2.043   5.412   4.432
 1976TIP3    H1 5934   1.957   5.437   4.465
 1976TIP3    H2 5935   2.102   5.429   4.505
 1977TIP3   OH2 5936   1.977   0.406   3.526
 1977TIP3    H1 5937   1.886   0.413   3.497
 1977TIP3    H2 5938   2.025   0.468   3.469
 1978TIP3   OH2 5939   2.448   3.967   4.917
 1978TIP3    H1 5940   2.432   4.030   4.846
 1978TIP3    H2 5941   2.498   3.897   4.875
 1979TIP3   OH2 5942   0.851   3.139   4.112
 1979TIP3    H1 5943   0.883   3.218   4.156
 1979TIP3    H2 5944   0.843   3.074   4.182
 1980TIP3   OH2 5945   5.902   5.897   0.845
 1980TIP3    H1 5946   5.955   5.968   0.882
 1980TIP3    H2 5947   5.883   5.926   0.756
 1981TIP3   OH2 5948   2.927   3.169   4.463
 1981TIP3    H1 5949   3.017   3.168   4.494
 1981TIP3    H2 5950   2.888   3.090   4.500
 1982TIP3   OH2 5951   0.209   5.741   1.435
 1982TIP3    H1 5952   0.249   5.714   1.352
 1982TIP3    H2 5953   0.179   5.830   1.419
 1983TIP3   OH2 5954   6.273   0.193   2.692
 1983TIP3    H1 5955   6.306   0.244   2.766
 1983TIP3    H2 5956   6.270   0.255   2.619
 1984TIP3   OH2 5957   5.523   2.254   4.715
 1984TIP3    H1 5958   5.447   2.232   4.768
 1984TIP3    H2 5959   5.487   2.286   4.633
 1985TIP3   OH2 5960   0.461   4.659   2.438
 1985TIP3    H1 5961   0.425   4.699   2.359
 1985TIP3    H2 5962   0.418   4.574   2.444
 1986TIP3   OH2 5963   2.763   4.125   4.676
 1986TIP3    H1 5964   2.691   4.140   4.738
 1986TIP3    H2 5965   2.794   4.037   4.699
 1987TIP3   OH2 5966   4.336   3.675   1.836
 1987TIP3    H1 5967   4.366   3.705   1.750
 1987TIP3    H2 5968   4.315   3.583   1.823
 1988TIP3   OH2 5969   4.762   4.566   3.440
 1988TIP3    H1 5970   4.839   4.614   3.411
 1988TIP3    H2 5971   4.701   4.572   3.366
 1989TIP3   OH2 5972   4.192   1.367   1.442
 1989TIP3    H1 5973   4.218   1.406   1.525
 1989TIP3    H2 5974   4.098   1.378   1.438
 1990TIP3   OH2 5975   2.727   5.787   1.470
 1990TIP3    H1 5976   2.644   5.768   1.515
 1990TIP3    H2 5977   2.709   5.864   1.417
 1991TIP3   OH2 5978   2.621   2.309   4.697
 1991TIP3    H1 5979   2.543   2.338   4.743
 1991TIP3    H2 5980   2.593   2.232   4.648
 1992TIP3   OH2 5981   1.025   2.914   0.478
 1992TIP3    H1 5982   1.061   2.985   0.532
 1992TIP3    H2 5983   0.990   2.851   0.541
 1993TIP3   OH2 5984   2.428   3.836   4.052
 1993TIP3    H1 5985   2.429   3.795   4.138
 1993TIP3    H2 5986   2.335   3.843   4.030
 1994TIP3   OH2 5987   1.842   3.171   1.666
 1994TIP3    H1 5988   1.797   3.156   1.749
 1994TIP3    H2 5989   1.785   3.130   1.600
 1995TIP3   OH2 5990   6.261   1.292   3.568
 1995TIP3    H1 5991   6.344   1.326   3.534
 1995TIP3    H2 5992   6.251   1.335   3.653
 1996TIP3   OH2 5993   2.251   2.986   0.177
 1996TIP3    H1 5994   2.234   2.909   0.122
 1996TIP3    H2 5995   2.165   3.008   0.213
 1997TIP3   OH2 5996   4.679   0.466   1.118
 1997TIP3    H1 5997   4.712   0.549   1.082
 1997TIP3    H2 5998   4.617   0.434   1.053
 1998TIP3   OH2 5999   4.122   5.779   4.308
 1998TIP3    H1 6000   4.066   5.838   4.257
 1998TIP3    H2 6001   4.185   5.836   4.351
 1999TIP3   OH2 6002   3.632   3.960   4.437
 1999TIP3    H1 6003   3.694   3.951   4.509
 1999TIP3    H2 6004   3.654   3.889   4.376
 2000TIP3   OH2 6005   5.438   4.102   2.343
 2000TIP3    H1 6006   5.443   4.090   2.248
 2000TIP3    H2 6007   5.433   4.013   2.378
 2001TIP3   OH2 6008   5.119   0.730   1.877
 2001TIP3    H1 6009   5.193   0.769   1.924
 2001TIP3    H2 6010   5.154   0.648   1.842
 2002TIP3   OH2 6011   5.387   0.713   3.426
 2002TIP3    H1 6012   5.295   0.739   3.430
 2002TIP3    H2 6013   5.420   0.752   3.345
 2003TIP3   OH2 6014   2.562   5.432   0.968
 2003TIP3    H1 6015   2.490   5.451   1.028
 2003TIP3    H2 6016   2.641   5.452   1.018
 2004TIP3   OH2 6017   1.353   4.830   2.320
 2004TIP3    H1 6018   1.341   4.861   2.230
 2004TIP3    H2 6019   1.378   4.738   2.311
 2005TIP3   OH2 6020   5.821   0.577   3.587
 2005TIP3    H1 6021   5.737   0.598   3.546
 2005TIP3    H2 6022   5.872   0.538   3.516
 2006TIP3   OH2 6023   3.261   4.708   3.817
 2006TIP3    H1 6024   3.174   4.688   3.853
 2006TIP3    H2 6025   3.253   4.799   3.787
 2007TIP3   OH2 6026   4.978   5.333   4.930
 2007TIP3    H1 6027   4.987   5.319   4.836
 2007TIP3    H2 6028   4.996   5.426   4.943
 2008TIP3   OH2 6029   1.478   0.699   0.092
 2008TIP3    H1 6030   1.519   0.648   0.023
 2008TIP3    H2 6031   1.390   0.662   0.100
 2009TIP3   OH2 6032   4.252   3.962   1.074
 2009TIP3    H1 6033   4.231   3.891   1.014
 2009TIP3    H2 6034   4.241   4.041   1.021
 2010TIP3   OH2 6035   6.238   4.144   5.013
 2010TIP3    H1 6036   6.171   4.146   4.945
 2010TIP3    H2 6037   6.189   4.129   5.094
 2011TIP3   OH2 6038   2.168   4.886   4.793
 2011TIP3    H1 6039   2.125   4.801   4.806
 2011TIP3    H2 6040   2.103   4.950   4.822
 2012TIP3   OH2 6041   3.864   5.008   4.944
 2012TIP3    H1 6042   3.894   4.953   5.016
 2012TIP3    H2 6043   3.856   5.095   4.982
 2013TIP3   OH2 6044   4.158   0.689   4.960
 2013TIP3    H1 6045   4.150   0.599   4.993
 2013TIP3    H2 6046   4.124   0.743   5.031
 2014TIP3   OH2 6047   6.056   5.483   4.783
 2014TIP3    H1 6048   5.975   5.465   4.830
 2014TIP3    H2 6049   6.040   5.454   4.693
 2015TIP3   OH2 6050   3.977   5.312   4.445
 2015TIP3    H1 6051   4.043   5.245   4.462
 2015TIP3    H2 6052   3.904   5.264   4.407
 2016TIP3   OH2 6053   0.105   4.089   0.842
 2016TIP3    H1 6054   0.011   4.073   0.853
 2016TIP3    H2 6055   0.145   4.002   0.848
 2017TIP3   OH2 6056   4.283   4.774   0.200
 2017TIP3    H1 6057   4.316   4.864   0.206
 2017TIP3    H2 6058   4.220   4.777   0.128
 2018TIP3   OH2 6059   5.013   1.223   0.457
 2018TIP3    H1 6060   5.040   1.304   0.414
 2018TIP3    H2 6061   5.027   1.238   0.550
 2019TIP3   OH2 6062   1.021   4.877   2.304
 2019TIP3    H1 6063   1.079   4.802   2.286
 2019TIP3    H2 6064   1.076   4.939   2.351
 2020TIP3   OH2 6065   5.010   1.196   3.116
 2020TIP3    H1 6066   5.012   1.147   3.034
 2020TIP3    H2 6067   4.942   1.263   3.102
 2021TIP3   OH2 6068   1.861   4.283   1.419
 2021TIP3    H1 6069   1.862   4.187   1.419
 2021TIP3    H2 6070   1.774   4.306   1.388
 2022TIP3   OH2 6071   2.920   0.684   4.423
 2022TIP3    H1 6072   2.890   0.595   4.403
 2022TIP3    H2 6073   2.993   0.699   4.362
 2023TIP3   OH2 6074   5.745   4.050   0.920
 2023TIP3    H1 6075   5.743   3.955   0.904
 2023TIP3    H2 6076   5.694   4.062   1.000
 2024TIP3   OH2 6077   1.650   5.856   5.132
 2024TIP3    H1 6078   1.561   5.851   5.098
 2024TIP3    H2 6079   1.648   5.931   5.192
 2025TIP3   OH2 6080   1.001   0.861   3.744
 2025TIP3    H1 6081   0.935   0.808   3.698
 2025TIP3    H2 6082   0.983   0.951   3.716
 2026TIP3   OH2 6083   0.729   0.191   0.590
 2026TIP3    H1 6084   0.691   0.129   0.528
 2026TIP3    H2 6085   0.654   0.222   0.642
 2027TIP3   OH2 6086   2.818   5.609   3.379
 2027TIP3    H1 6087   2.793   5.668   3.307
 2027TIP3    H2 6088   2.779   5.525   3.356
 2028TIP3   OH2 6089   2.495   2.427   0.072
 2028TIP3    H1 6090   2.565   2.493   0.080
 2028TIP3    H2 6091   2.531   2.361   0.014
 2029TIP3   OH2 6092   5.756   3.325   0.052
 2029TIP3    H1 6093   5.694   3.347   0.122
 2029TIP3    H2 6094   5.778   3.410   0.012
 2030TIP3   OH2 6095   0.238   0.637   4.214
 2030TIP3    H1 6096   0.215   0.677   4.131
 2030TIP3    H2 6097   0.279   0.554   4.190
 2031TIP3   OH2 6098   2.585   3.545   3.486
 2031TIP3    H1 6099   2.663   3.489   3.488
 2031TIP3    H2 6100   2.561   3.549   3.393
 2032TIP3   OH2 6101   3.466   4.272   0.793
 2032TIP3    H1 6102   3.538   4.280   0.856
 2032TIP3    H2 6103   3.388   4.300   0.841
 2033TIP3   OH2 6104   3.157   3.877   4.495
 2033TIP3    H1 6105   3.245   3.897   4.462
 2033TIP3    H2 6106   3.114   3.833   4.422
 2034TIP3   OH2 6107   6.246   0.396   3.699
 2034TIP3    H1 6108   6.325   0.384   3.753
 2034TIP3    H2 6109   6.208   0.478   3.731
 2035TIP3   OH2 6110   2.557   2.127   4.031
 2035TIP3    H1 6111   2.638   2.148   3.984
 2035TIP3    H2 6112   2.502   2.083   3.966
 2036TIP3   OH2 6113   5.125   1.700   3.240
 2036TIP3    H1 6114   5.104   1.625   3.296
 2036TIP3    H2 6115   5.153   1.661   3.157
 2037TIP3   OH2 6116   1.806   2.069   4.752
 2037TIP3    H1 6117   1.812   2.152   4.704
 2037TIP3    H2 6118   1.777   2.094   4.839
 2038TIP3   OH2 6119   1.199   4.743   0.725
 2038TIP3    H1 6120   1.164   4.654   0.717
 2038TIP3    H2 6121   1.280   4.741   0.675
 2039TIP3   OH2 6122   0.998   3.840   5.036
 2039TIP3    H1 6123   1.035   3.759   5.003
 2039TIP3    H2 6124   1.073   3.897   5.050
 2040TIP3   OH2 6125   5.293   0.164   0.203
 2040TIP3    H1 6126   5.240   0.243   0.207
 2040TIP3    H2 6127   5.313   0.143   0.294
 2041TIP3   OH2 6128   0.736   1.788   0.462
 2041TIP3    H1 6129   0.712   1.699   0.490
 2041TIP3    H2 6130   0.713   1.791   0.369
 2042TIP3   OH2 6131   4.020   4.876   3.305
 2042TIP3    H1 6132   4.051   4.956   3.262
 2042TIP3    H2 6133   3.925   4.876   3.292
 2043TIP3   OH2 6134   0.585   2.209   2.571
 2043TIP3    H1 6135   0.642   2.166   2.507
 2043TIP3    H2 6136   0.605   2.302   2.561
 2044TIP3   OH2 6137   2.491   5.329   3.254
 2044TIP3    H1 6138   2.397   5.318   3.271
 2044TIP3    H2 6139   2.501   5.423   3.241
 2045TIP3   OH2 6140   4.291   0.935   2.660
 2045TIP3    H1 6141   4.383   0.909   2.665
 2045TIP3    H2 6142   4.251   0.895   2.737
 2046TIP3   OH2 6143   3.898   5.449   3.833
 2046TIP3    H1 6144   3.820   5.501   3.850
 2046TIP3    H2 6145   3.904   5.444   3.738
 2047TIP3   OH2 6146   4.914   5.265   0.802
 2047TIP3    H1 6147   4.964   5.263   0.720
 2047TIP3    H2 6148   4.836   5.213   0.784
 2048TIP3   OH2 6149   3.333   1.076   2.242
 2048TIP3    H1 6150   3.351   0.986   2.269
 2048TIP3    H2 6151   3.399   1.095   2.176
 2049TIP3   OH2 6152   2.762   1.580   2.408
 2049TIP3    H1 6153   2.777   1.515   2.476
 2049TIP3    H2 6154   2.672   1.563   2.379
 2050TIP3   OH2 6155   1.101   2.498   4.841
 2050TIP3    H1 6156   1.145   2.558   4.901
 2050TIP3    H2 6157   1.156   2.497   4.763
 2051TIP3   OH2 6158   6.068   3.877   2.861
 2051TIP3    H1 6159   6.001   3.931   2.903
 2051TIP3    H2 6160   6.036   3.787   2.869
 2052TIP3   OH2 6161   6.082   3.730   3.768
 2052TIP3    H1 6162   6.007   3.764   3.816
 2052TIP3    H2 6163   6.046   3.665   3.709
 2053TIP3   OH2 6164   4.025   4.589   3.221
 2053TIP3    H1 6165   4.046   4.678   3.250
 2053TIP3    H2 6166   3.989   4.547   3.299
 2054TIP3   OH2 6167   2.713   3.415   3.782
 2054TIP3    H1 6168   2.797   3.428   3.737
 2054TIP3    H2 6169   2.699   3.497   3.831
 2055TIP3   OH2 6170   4.188   5.568   0.952
 2055TIP3    H1 6171   4.118   5.604   1.006
 2055TIP3    H2 6172   4.209   5.484   0.994
 2056TIP3   OH2 6173   1.488   0.224   3.468
 2056TIP3    H1 6174   1.532   0.160   3.411
 2056TIP3    H2 6175   1.395   0.205   3.457
 2057TIP3   OH2 6176   1.005   3.182   3.598
 2057TIP3    H1 6177   0.922   3.179   3.551
 2057TIP3    H2 6178   1.054   3.252   3.555
 2058TIP3   OH2 6179   0.931   5.166   4.565
 2058TIP3    H1 6180   0.953   5.167   4.472
 2058TIP3    H2 6181   0.885   5.248   4.580
 2059TIP3   OH2 6182   0.052   2.333   4.441
 2059TIP3    H1 6183   0.013   2.397   4.501
 2059TIP3    H2 6184   0.041   2.249   4.486
 2060TIP3   OH2 6185   2.674   4.408   2.527
 2060TIP3    H1 6186   2.689   4.416   2.433
 2060TIP3    H2 6187   2.761   4.415   2.566
 2061TIP3   OH2 6188   0.419   3.154   1.462
 2061TIP3    H1 6189   0.465   3.224   1.509
 2061TIP3    H2 6190   0.379   3.101   1.531
 2062TIP3   OH2 6191   4.104   2.933   0.351
 2062TIP3    H1 6192   4.146   2.951   0.435
 2062TIP3    H2 6193   4.087   2.839   0.352
 2063TIP3   OH2 6194   5.135   2.682   1.987
 2063TIP3    H1 6195   5.213   2.627   1.977
 2063TIP3    H2 6196   5.169   2.770   1.999
 2064TIP3   OH2 6197   4.973   1.946   0.396
 2064TIP3    H1 6198   4.976   2.016   0.461
 2064TIP3    H2 6199   4.975   1.865   0.448
 2065TIP3   OH2 6200   5.756   2.240   1.436
 2065TIP3    H1 6201   5.716   2.177   1.377
 2065TIP3    H2 6202   5.725   2.325   1.405
 2066TIP3   OH2 6203   5.790   1.251   4.104
 2066TIP3    H1 6204   5.732   1.326   4.090
 2066TIP3    H2 6205   5.748   1.180   4.055
 2067TIP3   OH2 6206   5.311   5.468   3.205
 2067TIP3    H1 6207   5.288   5.561   3.199
 2067TIP3    H2 6208   5.305   5.437   3.114
 2068TIP3   OH2 6209   0.148   3.434   5.210
 2068TIP3    H1 6210   0.114   3.455   5.123
 2068TIP3    H2 6211   0.141   3.338   5.216
 2069TIP3   OH2 6212   4.297   2.439   2.362
 2069TIP3    H1 6213   4.296   2.357   2.312
 2069TIP3    H2 6214   4.323   2.505   2.299
 2070TIP3   OH2 6215   4.238   3.682   0.915
 2070TIP3    H1 6216   4.316   3.642   0.877
 2070TIP3    H2 6217   4.203   3.739   0.846
 2071TIP3   OH2 6218   5.944   5.236   0.209
 2071TIP3    H1 6219   5.943   5.161   0.269
 2071TIP3    H2 6220   6.025   5.225   0.158
 2072TIP3   OH2 6221   5.763   3.647   0.501
 2072TIP3    H1 6222   5.796   3.611   0.418
 2072TIP3    H2 6223   5.690   3.590   0.524
 2073TIP3   OH2 6224   4.417   2.491   4.649
 2073TIP3    H1 6225   4.397   2.415   4.703
 2073TIP3    H2 6226   4.413   2.458   4.559
 2074TIP3   OH2 6227   0.692   5.267   1.663
 2074TIP3    H1 6228   0.736   5.267   1.578
 2074TIP3    H2 6229   0.764   5.266   1.726
 2075TIP3   OH2 6230   2.721   4.958   1.485
 2075TIP3    H1 6231   2.709   4.999   1.399
 2075TIP3    H2 6232   2.786   5.012   1.529
 2076TIP3   OH2 6233   0.804   0.274   4.230
 2076TIP3    H1 6234   0.802   0.351   4.286
 2076TIP3    H2 6235   0.893   0.241   4.236
 2077TIP3   OH2 6236   0.288   5.937   4.932
 2077TIP3    H1 6237   0.367   5.935   4.987
 2077TIP3    H2 6238   0.316   5.986   4.854
 2078TIP3   OH2 6239   3.579   2.528   4.339
 2078TIP3    H1 6240   3.554   2.618   4.359
 2078TIP3    H2 6241   3.647   2.535   4.272
 2079TIP3   OH2 6242   1.168   1.600   1.865
 2079TIP3    H1 6243   1.225   1.634   1.934
 2079TIP3    H2 6244   1.187   1.506   1.863
 2080TIP3   OH2 6245   5.205   0.488   4.167
 2080TIP3    H1 6246   5.227   0.554   4.101
 2080TIP3    H2 6247   5.272   0.421   4.156
 2081TIP3   OH2 6248   3.378   3.356   4.924
 2081TIP3    H1 6249   3.308   3.378   4.862
 2081TIP3    H2 6250   3.359   3.409   5.002
 2082TIP3   OH2 6251   0.507   0.846   1.109
 2082TIP3    H1 6252   0.517   0.937   1.137
 2082TIP3    H2 6253   0.429   0.815   1.156
 2083TIP3   OH2 6254   1.027   0.187   2.767
 2083TIP3    H1 6255   1.106   0.212   2.816
 2083TIP3    H2 6256   0.956   0.231   2.813
 2084TIP3   OH2 6257   3.251   1.066   0.668
 2084TIP3    H1 6258   3.319   1.076   0.601
 2084TIP3    H2 6259   3.237   1.155   0.700
 2085TIP3   OH2 6260   1.687   5.151   2.849
 2085TIP3    H1 6261   1.617   5.085   2.854
 2085TIP3    H2 6262   1.650   5.221   2.795
 2086TIP3   OH2 6263   3.337   1.328   5.146
 2086TIP3    H1 6264   3.425   1.358   5.170
 2086TIP3    H2 6265   3.305   1.283   5.224
 2087TIP3   OH2 6266   0.118   1.640   1.570
 2087TIP3    H1 6267   0.123   1.590   1.651
 2087TIP3    H2 6268   0.025   1.637   1.545
 2088TIP3   OH2 6269   3.800   0.869   1.009
 2088TIP3    H1 6270   3.869   0.919   1.052
 2088TIP3    H2 6271   3.814   0.779   1.038
 2089TIP3   OH2 6272   5.908   4.870   0.124
 2089TIP3    H1 6273   5.885   4.957   0.158
 2089TIP3    H2 6274   5.830   4.842   0.077
 2090TIP3   OH2 6275   4.008   0.990   4.407
 2090TIP3    H1 6276   3.940   0.923   4.412
 2090TIP3    H2 6277   4.090   0.942   4.419
 2091TIP3   OH2 6278   0.022   0.334   2.901
 2091TIP3    H1 6279   0.028   0.423   2.864
 2091TIP3    H2 6280   0.101   0.289   2.869
 2092TIP3   OH2 6281   2.175   1.268   0.602
 2092TIP3    H1 6282   2.183   1.192   0.544
 2092TIP3    H2 6283   2.243   1.254   0.668
 2093TIP3   OH2 6284   5.684   2.556   0.791
 2093TIP3    H1 6285   5.724   2.626   0.843
 2093TIP3    H2 6286   5.604   2.595   0.756
 2094TIP3   OH2 6287   3.567   4.101   1.587
 2094TIP3    H1 6288   3.609   4.029   1.540
 2094TIP3    H2 6289   3.596   4.090   1.678
 2095TIP3   OH2 6290   1.758   3.312   2.291
 2095TIP3    H1 6291   1.784   3.392   2.245
 2095TIP3    H2 6292   1.800   3.319   2.377
 2096TIP3   OH2 6293   3.597   5.797   0.488
 2096TIP3    H1 6294   3.635   5.885   0.489
 2096TIP3    H2 6295   3.528   5.801   0.422
 2097TIP3   OH2 6296   3.558   3.681   3.466
 2097TIP3    H1 6297   3.603   3.601   3.439
 2097TIP3    H2 6298   3.588   3.697   3.555
 2098TIP3   OH2 6299   4.785   3.841   0.508
 2098TIP3    H1 6300   4.802   3.933   0.488
 2098TIP3    H2 6301   4.699   3.824   0.469
 2099TIP3   OH2 6302   2.515   3.034   0.244
 2099TIP3    H1 6303   2.436   3.032   0.190
 2099TIP3    H2 6304   2.524   3.126   0.269
 2100TIP3   OH2 6305   1.837   5.839   1.641
 2100TIP3    H1 6306   1.824   5.899   1.567
 2100TIP3    H2 6307   1.842   5.752   1.600
 2101TIP3   OH2 6308   1.248   0.213   0.749
 2101TIP3    H1 6309   1.299   0.293   0.741
 2101TIP3    H2 6310   1.165   0.232   0.704
 2102TIP3   OH2 6311   3.926   1.472   1.406
 2102TIP3    H1 6312   3.842   1.502   1.440
 2102TIP3    H2 6313   3.906   1.436   1.320
 2103TIP3   OH2 6314   5.602   3.516   1.374
 2103TIP3    H1 6315   5.517   3.493   1.412
 2103TIP3    H2 6316   5.583   3.587   1.314
 2104TIP3   OH2 6317   4.657   2.397   0.727
 2104TIP3    H1 6318   4.638   2.329   0.663
 2104TIP3    H2 6319   4.626   2.478   0.686
 2105TIP3   OH2 6320   5.687   0.721   1.014
 2105TIP3    H1 6321   5.592   0.734   1.007
 2105TIP3    H2 6322   5.717   0.796   1.066
 2106TIP3   OH2 6323   3.115   0.070   4.540
 2106TIP3    H1 6324   3.183   0.117   4.491
 2106TIP3    H2 6325   3.081   0.007   4.477
 2107TIP3   OH2 6326   6.186   2.297   0.534
 2107TIP3    H1 6327   6.272   2.303   0.576
 2107TIP3    H2 6328   6.205   2.292   0.440
 2108TIP3   OH2 6329   1.657   1.175   3.809
 2108TIP3    H1 6330   1.692   1.155   3.722
 2108TIP3    H2 6331   1.660   1.092   3.856
 2109TIP3   OH2 6332   1.961   4.289   4.126
 2109TIP3    H1 6333   2.052   4.280   4.153
 2109TIP3    H2 6334   1.965   4.336   4.042
 2110TIP3   OH2 6335   3.061   3.815   2.204
 2110TIP3    H1 6336   3.084   3.851   2.118
 2110TIP3    H2 6337   3.012   3.735   2.184
 2111TIP3   OH2 6338   5.016   4.681   3.468
 2111TIP3    H1 6339   5.095   4.653   3.515
 2111TIP3    H2 6340   4.961   4.721   3.535
 2112TIP3   OH2 6341   3.733   5.019   0.521
 2112TIP3    H1 6342   3.671   4.966   0.571
 2112TIP3    H2 6343   3.798   4.956   0.490
 2113TIP3   OH2 6344   6.175   4.046   3.690
 2113TIP3    H1 6345   6.212   4.002   3.767
 2113TIP3    H2 6346   6.233   4.120   3.674
 2114TIP3   OH2 6347   5.892   0.894   2.264
 2114TIP3    H1 6348   5.951   0.945   2.320
 2114TIP3    H2 6349   5.807   0.940   2.271
 2115TIP3   OH2 6350   2.470   3.606   1.729
 2115TIP3    H1 6351   2.402   3.559   1.777
 2115TIP3    H2 6352   2.519   3.538   1.683
 2116TIP3   OH2 6353   6.359   4.596   1.508
 2116TIP3    H1 6354   6.323   4.661   1.447
 2116TIP3    H2 6355   6.365   4.642   1.592
 2117TIP3   OH2 6356   0.454   0.610   0.737
 2117TIP3    H1 6357   0.506   0.571   0.807
 2117TIP3    H2 6358   0.410   0.536   0.695
 2118TIP3   OH2 6359   4.414   0.086   1.864
 2118TIP3    H1 6360   4.350   0.150   1.832
 2118TIP3    H2 6361   4.371   0.046   1.940
 2119TIP3   OH2 6362   1.680   4.443   1.968
 2119TIP3    H1 6363   1.640   4.377   1.910
 2119TIP3    H2 6364   1.667   4.526   1.922
 2120TIP3   OH2 6365   3.991   1.259   0.262
 2120TIP3    H1 6366   4.041   1.222   0.189
 2120TIP3    H2 6367   4.012   1.203   0.336
 2121TIP3   OH2 6368   0.090   5.819   2.877
 2121TIP3    H1 6369   0.120   5.815   2.786
 2121TIP3    H2 6370   0.143   5.754   2.923
 2122TIP3   OH2 6371   4.468   3.609   0.725
 2122TIP3    H1 6372   4.412   3.601   0.648
 2122TIP3    H2 6373   4.500   3.700   0.722
 2123TIP3   OH2 6374   5.365   2.607   0.426
 2123TIP3    H1 6375   5.429   2.678   0.424
 2123TIP3    H2 6376   5.316   2.622   0.507
 2124TIP3   OH2 6377   0.763   2.655   1.416
 2124TIP3    H1 6378   0.700   2.727   1.416
 2124TIP3    H2 6379   0.799   2.654   1.327
 2125TIP3   OH2 6380   2.474   2.756   2.309
 2125TIP3    H1 6381   2.541   2.718   2.365
 2125TIP3    H2 6382   2.392   2.744   2.358
 2126TIP3   OH2 6383   3.486   3.531   3.702
 2126TIP3    H1 6384   3.529   3.472   3.764
 2126TIP3    H2 6385   3.434   3.473   3.646
 2127TIP3   OH2 6386   1.225   0.205   3.949
 2127TIP3    H1 6387   1.226   0.258   4.028
 2127TIP3    H2 6388   1.264   0.121   3.976
 2128TIP3   OH2 6389   1.234   4.020   3.064
 2128TIP3    H1 6390   1.169   4.089   3.053
 2128TIP3    H2 6391   1.200   3.947   3.012
 2129TIP3   OH2 6392   5.274   5.610   1.922
 2129TIP3    H1 6393   5.288   5.586   1.830
 2129TIP3    H2 6394   5.273   5.527   1.969
 2130TIP3   OH2 6395   2.301   3.130   2.690
 2130TIP3    H1 6396   2.249   3.208   2.673
 2130TIP3    H2 6397   2.366   3.158   2.754
 2131TIP3   OH2 6398   6.093   2.733   2.221
 2131TIP3    H1 6399   6.127   2.778   2.298
 2131TIP3    H2 6400   6.016   2.686   2.252
 2132TIP3   OH2 6401   5.699   2.074   0.745
 2132TIP3    H1 6402   5.648   2.155   0.748
 2132TIP3    H2 6403   5.742   2.069   0.831
 2133TIP3   OH2 6404   3.819   0.324   1.867
 2133TIP3    H1 6405   3.775   0.403   1.835
 2133TIP3    H2 6406   3.912   0.345   1.860
 2134TIP3   OH2 6407   1.456   1.265   3.040
 2134TIP3    H1 6408   1.389   1.263   3.109
 2134TIP3    H2 6409   1.500   1.181   3.046
 2135TIP3   OH2 6410   3.648   4.426   3.882
 2135TIP3    H1 6411   3.623   4.366   3.953
 2135TIP3    H2 6412   3.660   4.368   3.806
 2136TIP3   OH2 6413   3.130   0.819   0.623
 2136TIP3    H1 6414   3.058   0.844   0.565
 2136TIP3    H2 6415   3.182   0.899   0.633
 2137TIP3   OH2 6416   1.243   0.035   4.861
 2137TIP3    H1 6417   1.295  -0.042   4.838
 2137TIP3    H2 6418   1.195   0.009   4.940
 2138TIP3   OH2 6419   4.349   1.457   3.084
 2138TIP3    H1 6420   4.342   1.371   3.125
 2138TIP3    H2 6421   4.439   1.462   3.052
 2139TIP3   OH2 6422   5.807   2.853   3.454
 2139TIP3    H1 6423   5.862   2.790   3.408
 2139TIP3    H2 6424   5.717   2.829   3.429
 2140TIP3   OH2 6425   6.235   0.639   3.815
 2140TIP3    H1 6426   6.284   0.670   3.892
 2140TIP3    H2 6427   6.248   0.708   3.750
 2141TIP3   OH2 6428   3.798   1.362   3.670
 2141TIP3    H1 6429   3.725   1.423   3.657
 2141TIP3    H2 6430   3.848   1.399   3.743
 2142TIP3   OH2 6431   6.232   1.456   1.056
 2142TIP3    H1 6432   6.326   1.454   1.068
 2142TIP3    H2 6433   6.197   1.489   1.139
 2143TIP3   OH2 6434   0.259   1.663   0.558
 2143TIP3    H1 6435   0.309   1.608   0.498
 2143TIP3    H2 6436   0.319   1.680   0.630
 2144TIP3   OH2 6437   2.770   2.722   0.662
 2144TIP3    H1 6438   2.699   2.678   0.709
 2144TIP3    H2 6439   2.809   2.653   0.607
 2145TIP3   OH2 6440   5.355   3.817   1.405
 2145TIP3    H1 6441   5.281   3.758   1.417
 2145TIP3    H2 6442   5.317   3.896   1.367
 2146TIP3   OH2 6443   3.543   5.242   1.193
 2146TIP3    H1 6444   3.577   5.195   1.269
 2146TIP3    H2 6445   3.457   5.203   1.178
 2147TIP3   OH2 6446   3.925   3.637   0.707
 2147TIP3    H1 6447   3.882   3.629   0.622
 2147TIP3    H2 6448   4.010   3.595   0.695
 2148TIP3   OH2 6449   1.570   5.702   1.752
 2148TIP3    H1 6450   1.514   5.645   1.804
 2148TIP3    H2 6451   1.654   5.656   1.748
 2149TIP3   OH2 6452   2.448   3.988   4.323
 2149TIP3    H1 6453   2.411   3.900   4.327
 2149TIP3    H2 6454   2.380   4.044   4.359
 2150TIP3   OH2 6455   3.022   4.530   2.286
 2150TIP3    H1 6456   3.001   4.455   2.231
 2150TIP3    H2 6457   3.002   4.502   2.375
 2151TIP3   OH2 6458   0.092   2.501   2.729
 2151TIP3    H1 6459   0.157   2.432   2.714
 2151TIP3    H2 6460   0.013   2.470   2.684
 2152TIP3   OH2 6461   4.116   3.927   3.500
 2152TIP3    H1 6462   4.076   3.912   3.414
 2152TIP3    H2 6463   4.207   3.901   3.489
 2153TIP3   OH2 6464   2.631   3.381   0.503
 2153TIP3    H1 6465   2.559   3.318   0.495
 2153TIP3    H2 6466   2.589   3.466   0.494
 2154TIP3   OH2 6467   5.855   1.136   1.508
 2154TIP3    H1 6468   5.867   1.042   1.490
 2154TIP3    H2 6469   5.883   1.179   1.427
 2155TIP3   OH2 6470   4.818   1.513   3.798
 2155TIP3    H1 6471   4.813   1.469   3.883
 2155TIP3    H2 6472   4.771   1.455   3.738
 2156TIP3   OH2 6473   4.118   0.541   1.965
 2156TIP3    H1 6474   4.102   0.615   1.906
 2156TIP3    H2 6475   4.213   0.540   1.978
 2157TIP3   OH2 6476   3.349   5.660   1.570
 2157TIP3    H1 6477   3.305   5.579   1.594
 2157TIP3    H2 6478   3.279   5.725   1.568
 2158TIP3   OH2 6479   3.649   4.207   4.315
 2158TIP3    H1 6480   3.708   4.261   4.368
 2158TIP3    H2 6481   3.637   4.127   4.367
 2159TIP3   OH2 6482   3.058   1.608   4.562
 2159TIP3    H1 6483   2.983   1.568   4.518
 2159TIP3    H2 6484   3.125   1.538   4.563
 2160TIP3   OH2 6485   5.604   4.465   4.080
 2160TIP3    H1 6486   5.582   4.527   4.150
 2160TIP3    H2 6487   5.691   4.433   4.103
 2161TIP3   OH2 6488   0.650   2.373   0.137
 2161TIP3    H1 6489   0.731   2.423   0.134
 2161TIP3    H2 6490   0.651   2.320   0.058
 2162TIP3   OH2 6491   4.044   3.892   0.459
 2162TIP3    H1 6492   3.952   3.870   0.444
 2162TIP3    H2 6493   4.085   3.883   0.373
 2163TIP3   OH2 6494   3.506   4.880   2.000
 2163TIP3    H1 6495   3.533   4.842   2.083
 2163TIP3    H2 6496   3.485   4.971   2.020
 2164TIP3   OH2 6497   2.466   3.225   2.936
 2164TIP3    H1 6498   2.512   3.246   3.017
 2164TIP3    H2 6499   2.535   3.198   2.876
 2165TIP3   OH2 6500   1.779   0.646   2.056
 2165TIP3    H1 6501   1.797   0.662   2.148
 2165TIP3    H2 6502   1.828   0.566   2.036
 2166TIP3   OH2 6503   0.428   1.989   2.348
 2166TIP3    H1 6504   0.401   2.078   2.368
 2166TIP3    H2 6505   0.520   1.997   2.323
 2167TIP3   OH2 6506   3.059   1.808   0.063
 2167TIP3    H1 6507   3.107   1.811   0.146
 2167TIP3    H2 6508   2.967   1.799   0.088
 2168TIP3   OH2 6509   3.934   0.040   1.438
 2168TIP3    H1 6510   3.891   0.106   1.492
 2168TIP3    H2 6511   3.950   0.085   1.354
 2169TIP3   OH2 6512   5.810   1.235   2.289
 2169TIP3    H1 6513   5.800   1.330   2.293
 2169TIP3    H2 6514   5.872   1.221   2.216
 2170TIP3   OH2 6515   1.245   1.647   5.105
 2170TIP3    H1 6516   1.167   1.593   5.097
 2170TIP3    H2 6517   1.238   1.688   5.191
 2171TIP3   OH2 6518   0.750   2.563   2.020
 2171TIP3    H1 6519   0.707   2.525   2.096
 2171TIP3    H2 6520   0.720   2.511   1.946
 2172TIP3   OH2 6521   1.955   5.245   2.915
 2172TIP3    H1 6522   2.026   5.205   2.864
 2172TIP3    H2 6523   1.875   5.211   2.875
 2173TIP3   OH2 6524   5.852   0.628   0.236
 2173TIP3    H1 6525   5.883   0.719   0.245
 2173TIP3    H2 6526   5.769   0.626   0.283
 2174TIP3   OH2 6527   1.501   1.036   0.398
 2174TIP3    H1 6528   1.503   1.088   0.318
 2174TIP3    H2 6529   1.520   0.947   0.369
 2175TIP3   OH2 6530   1.550   1.635   4.486
 2175TIP3    H1 6531   1.586   1.723   4.502
 2175TIP3    H2 6532   1.525   1.604   4.573
 2176TIP3   OH2 6533   4.134   3.771   2.385
 2176TIP3    H1 6534   4.220   3.738   2.409
 2176TIP3    H2 6535   4.096   3.802   2.467
 2177TIP3   OH2 6536   1.140   2.623   2.885
 2177TIP3    H1 6537   1.072   2.654   2.825
 2177TIP3    H2 6538   1.092   2.595   2.963
 2178TIP3   OH2 6539   1.348   5.961   1.857
 2178TIP3    H1 6540   1.422   6.006   1.898
 2178TIP3    H2 6541   1.272   5.995   1.903
 2179TIP3   OH2 6542   5.125   3.354   2.891
 2179TIP3    H1 6543   5.067   3.355   2.814
 2179TIP3    H2 6544   5.202   3.305   2.863
 2180TIP3   OH2 6545   6.019   0.334   2.133
 2180TIP3    H1 6546   6.077   0.410   2.132
 2180TIP3    H2 6547   5.944   0.361   2.186
 2181TIP3   OH2 6548   0.871   5.372   3.832
 2181TIP3    H1 6549   0.886   5.433   3.760
 2181TIP3    H2 6550   0.795   5.408   3.879
 2182TIP3   OH2 6551   0.336   5.414   1.936
 2182TIP3    H1 6552   0.386   5.434   1.857
 2182TIP3    H2 6553   0.331   5.497   1.983
 2183TIP3   OH2 6554   1.168   5.537   4.052
 2183TIP3    H1 6555   1.195   5.535   3.960
 2183TIP3    H2 6556   1.086   5.587   4.051
 2184TIP3   OH2 6557   1.519   4.170   4.231
 2184TIP3    H1 6558   1.489   4.168   4.322
 2184TIP3    H2 6559   1.607   4.134   4.234
 2185TIP3   OH2 6560   4.917   3.718   4.184
 2185TIP3    H1 6561   4.833   3.762   4.201
 2185TIP3    H2 6562   4.908   3.684   4.095
 2186TIP3   OH2 6563   6.198   2.234   1.643
 2186TIP3    H1 6564   6.240   2.270   1.721
 2186TIP3    H2 6565   6.232   2.145   1.637
 2187TIP3   OH2 6566   4.083   2.102   4.621
 2187TIP3    H1 6567   4.173   2.093   4.653
 2187TIP3    H2 6568   4.088   2.073   4.530
 2188TIP3   OH2 6569   0.949   5.457   1.513
 2188TIP3    H1 6570   1.043   5.460   1.499
 2188TIP3    H2 6571   0.938   5.393   1.584
 2189TIP3   OH2 6572   1.141   0.051   2.417
 2189TIP3    H1 6573   1.183   0.051   2.331
 2189TIP3    H2 6574   1.061   0.103   2.404
 2190TIP3   OH2 6575   4.229   1.882   0.193
 2190TIP3    H1 6576   4.260   1.967   0.161
 2190TIP3    H2 6577   4.301   1.822   0.173
 2191TIP3   OH2 6578   4.234   3.951   3.864
 2191TIP3    H1 6579   4.273   3.922   3.783
 2191TIP3    H2 6580   4.150   3.990   3.838
 2192TIP3   OH2 6581   5.383   1.635   4.488
 2192TIP3    H1 6582   5.353   1.594   4.407
 2192TIP3    H2 6583   5.306   1.683   4.521
 2193TIP3   OH2 6584   0.823   1.151   3.766
 2193TIP3    H1 6585   0.749   1.110   3.810
 2193TIP3    H2 6586   0.897   1.138   3.825
 2194TIP3   OH2 6587   0.884   2.675   0.551
 2194TIP3    H1 6588   0.840   2.639   0.473
 2194TIP3    H2 6589   0.815   2.677   0.617
 2195TIP3   OH2 6590   3.731   5.677   0.119
 2195TIP3    H1 6591   3.643   5.713   0.109
 2195TIP3    H2 6592   3.772   5.732   0.185
 2196TIP3   OH2 6593   4.153   5.915   1.540
 2196TIP3    H1 6594   4.077   5.924   1.483
 2196TIP3    H2 6595   4.123   5.945   1.626
 2197TIP3   OH2 6596   5.551   1.659   5.211
 2197TIP3    H1 6597   5.563   1.565   5.225
 2197TIP3    H2 6598   5.574   1.672   5.119
 2198TIP3   OH2 6599   1.385   2.623   2.718
 2198TIP3    H1 6600   1.299   2.618   2.760
 2198TIP3    H2 6601   1.402   2.716   2.708
 2199TIP3   OH2 6602   5.054   5.204   3.522
 2199TIP3    H1 6603   5.134   5.224   3.474
 2199TIP3    H2 6604   5.078   5.128   3.576
 2200TIP3   OH2 6605   3.184   2.719   0.179
 2200TIP3    H1 6606   3.177   2.698   0.272
 2200TIP3    H2 6607   3.177   2.814   0.174
 2201TIP3   OH2 6608   1.115   4.681   1.578
 2201TIP3    H1 6609   1.064   4.756   1.610
 2201TIP3    H2 6610   1.176   4.718   1.515
 2202TIP3   OH2 6611   5.823   5.751   4.447
 2202TIP3    H1 6612   5.912   5.785   4.452
 2202TIP3    H2 6613   5.816   5.713   4.359
 2203TIP3   OH2 6614   1.137   5.006   4.185
 2203TIP3    H1 6615   1.120   5.100   4.185
 2203TIP3    H2 6616   1.053   4.966   4.204
 2204TIP3   OH2 6617   0.882   5.222   0.663
 2204TIP3    H1 6618   0.802   5.176   0.690
 2204TIP3    H2 6619   0.953   5.175   0.708
 2205TIP3   OH2 6620   5.791   0.438   3.057
 2205TIP3    H1 6621   5.769   0.392   2.976
 2205TIP3    H2 6622   5.862   0.386   3.095
 2206TIP3   OH2 6623   3.283   3.992   1.461
 2206TIP3    H1 6624   3.213   3.954   1.407
 2206TIP3    H2 6625   3.350   4.019   1.397
 2207TIP3   OH2 6626   1.734   4.918   4.865
 2207TIP3    H1 6627   1.651   4.870   4.857
 2207TIP3    H2 6628   1.781   4.899   4.784
 2208TIP3   OH2 6629   4.351   4.236   1.398
 2208TIP3    H1 6630   4.421   4.275   1.451
 2208TIP3    H2 6631   4.395   4.206   1.319
 2209TIP3   OH2 6632   0.778   3.266   3.041
 2209TIP3    H1 6633   0.787   3.225   2.955
 2209TIP3    H2 6634   0.795   3.196   3.103
 2210TIP3   OH2 6635   3.860   5.213   1.482
 2210TIP3    H1 6636   3.912   5.142   1.445
 2210TIP3    H2 6637   3.771   5.177   1.488
 2211TIP3   OH2 6638   0.875   1.828   4.234
 2211TIP3    H1 6639   0.842   1.860   4.318
 2211TIP3    H2 6640   0.810   1.765   4.204
 2212TIP3   OH2 6641   6.176   5.745   1.386
 2212TIP3    H1 6642   6.095   5.700   1.362
 2212TIP3    H2 6643   6.230   5.741   1.307
 2213TIP3   OH2 6644   2.124   4.831   1.763
 2213TIP3    H1 6645   2.100   4.786   1.682
 2213TIP3    H2 6646   2.217   4.811   1.775
 2214TIP3   OH2 6647   1.700   4.683   0.698
 2214TIP3    H1 6648   1.786   4.698   0.739
 2214TIP3    H2 6649   1.686   4.589   0.707
 2215TIP3   OH2 6650   2.073   2.748   4.288
 2215TIP3    H1 6651   2.022   2.667   4.284
 2215TIP3    H2 6652   2.165   2.719   4.284
 2216TIP3   OH2 6653   1.642   1.925   2.972
 2216TIP3    H1 6654   1.732   1.933   3.004
 2216TIP3    H2 6655   1.640   1.978   2.893
 2217TIP3   OH2 6656   2.052   4.483   3.930
 2217TIP3    H1 6657   2.031   4.486   3.837
 2217TIP3    H2 6658   2.143   4.513   3.935
 2218TIP3   OH2 6659   1.382   0.759   1.540
 2218TIP3    H1 6660   1.454   0.742   1.601
 2218TIP3    H2 6661   1.380   0.682   1.483
 2219TIP3   OH2 6662   5.839   3.936   0.394
 2219TIP3    H1 6663   5.846   3.842   0.412
 2219TIP3    H2 6664   5.753   3.960   0.427
 2220TIP3   OH2 6665   3.905   3.532   1.929
 2220TIP3    H1 6666   3.884   3.620   1.960
 2220TIP3    H2 6667   3.902   3.478   2.008
 2221TIP3   OH2 6668   1.151   0.485   5.183
 2221TIP3    H1 6669   1.127   0.393   5.168
 2221TIP3    H2 6670   1.075   0.535   5.153
 2222TIP3   OH2 6671   5.964   4.519   0.831
 2222TIP3    H1 6672   5.894   4.454   0.822
 2222TIP3    H2 6673   6.000   4.529   0.743
 2223TIP3   OH2 6674   4.091   5.407   1.762
 2223TIP3    H1 6675   4.100   5.452   1.678
 2223TIP3    H2 6676   4.004   5.369   1.760
 2224TIP3   OH2 6677   2.966   4.215   2.264
 2224TIP3    H1 6678   2.999   4.167   2.187
 2224TIP3    H2 6679   2.964   4.149   2.334
 2225TIP3   OH2 6680   2.659   2.942   1.099
 2225TIP3    H1 6681   2.748   2.909   1.114
 2225TIP3    H2 6682   2.629   2.968   1.186
 2226TIP3   OH2 6683   3.173   3.441   0.594
 2226TIP3    H1 6684   3.185   3.483   0.509
 2226TIP3    H2 6685   3.088   3.472   0.624
 2227TIP3   OH2 6686   4.905   5.450   4.356
 2227TIP3    H1 6687   4.852   5.397   4.296
 2227TIP3    H2 6688   4.915   5.534   4.311
 2228TIP3   OH2 6689   1.448   4.100   3.986
 2228TIP3    H1 6690   1.474   4.174   3.932
 2228TIP3    H2 6691   1.460   4.130   4.076
 2229TIP3   OH2 6692   5.712   0.330   5.196
 2229TIP3    H1 6693   5.661   0.411   5.201
 2229TIP3    H2 6694   5.676   0.284   5.119
 2230TIP3   OH2 6695   2.381   0.566   1.235
 2230TIP3    H1 6696   2.448   0.503   1.210
 2230TIP3    H2 6697   2.299   0.527   1.204
 2231TIP3   OH2 6698   5.134   0.364   0.172
 2231TIP3    H1 6699   5.124   0.448   0.216
 2231TIP3    H2 6700   5.099   0.378   0.084
 2232TIP3   OH2 6701   2.115   3.720   2.025
 2232TIP3    H1 6702   2.068   3.639   2.046
 2232TIP3    H2 6703   2.047   3.781   1.997
 2233TIP3   OH2 6704   2.118   4.619   4.677
 2233TIP3    H1 6705   2.047   4.663   4.630
 2233TIP3    H2 6706   2.120   4.532   4.637
 2234TIP3   OH2 6707   0.154   4.173   4.959
 2234TIP3    H1 6708   0.152   4.123   4.878
 2234TIP3    H2 6709   0.066   4.164   4.996
 2235TIP3   OH2 6710   5.399   2.155   3.491
 2235TIP3    H1 6711   5.443   2.076   3.459
 2235TIP3    H2 6712   5.423   2.161   3.583
 2236TIP3   OH2 6713   0.900   2.820   4.594
 2236TIP3    H1 6714   0.881   2.875   4.670
 2236TIP3    H2 6715   0.888   2.731   4.625
 2237TIP3   OH2 6716   4.719   1.312   3.658
 2237TIP3    H1 6717   4.665   1.357   3.593
 2237TIP3    H2 6718   4.657   1.282   3.724
 2238TIP3   OH2 6719   0.390   4.017   3.157
 2238TIP3    H1 6720   0.306   4.063   3.166
 2238TIP3    H2 6721   0.384   3.973   3.073
 2239TIP3   OH2 6722   0.789   4.124   4.632
 2239TIP3    H1 6723   0.705   4.127   4.586
 2239TIP3    H2 6724   0.842   4.063   4.580
 2240TIP3   OH2 6725   0.319   3.352   4.059
 2240TIP3    H1 6726   0.224   3.365   4.064
 2240TIP3    H2 6727   0.331   3.284   3.992
 2241TIP3   OH2 6728   3.174   2.051   4.435
 2241TIP3    H1 6729   3.254   2.055   4.383
 2241TIP3    H2 6730   3.192   2.107   4.511
 2242TIP3   OH2 6731   2.058   3.301   0.243
 2242TIP3    H1 6732   2.039   3.209   0.223
 2242TIP3    H2 6733   2.117   3.296   0.319
 2243TIP3   OH2 6734   2.803   2.772   3.173
 2243TIP3    H1 6735   2.763   2.854   3.144
 2243TIP3    H2 6736   2.764   2.755   3.258
 2244TIP3   OH2 6737  -0.029   5.448   2.811
 2244TIP3    H1 6738   0.034   5.467   2.741
 2244TIP3    H2 6739  -0.049   5.355   2.800
 2245TIP3   OH2 6740   5.899   0.589   5.019
 2245TIP3    H1 6741   5.838   0.620   4.951
 2245TIP3    H2 6742   5.874   0.498   5.034
 2246TIP3   OH2 6743   3.339   4.953   3.141
 2246TIP3    H1 6744   3.329   4.898   3.219
 2246TIP3    H2 6745   3.362   4.892   3.071
 2247TIP3   OH2 6746   4.825   4.130   4.355
 2247TIP3    H1 6747   4.804   4.168   4.270
 2247TIP3    H2 6748   4.744   4.085   4.381
 2248TIP3   OH2 6749   4.028   3.889   3.244
 2248TIP3    H1 6750   4.006   3.797   3.259
 2248TIP3    H2 6751   4.083   3.887   3.166
 2249TIP3   OH2 6752   0.093   3.837   2.581
 2249TIP3    H1 6753   0.061   3.860   2.669
 2249TIP3    H2 6754   0.174   3.886   2.571
 2250TIP3   OH2 6755   5.036   4.922   4.323
 2250TIP3    H1 6756   4.967   4.861   4.350
 2250TIP3    H2 6757   5.117   4.871   4.330
 2251TIP3   OH2 6758   4.701   2.001   0.619
 2251TIP3    H1 6759   4.660   2.002   0.706
 2251TIP3    H2 6760   4.794   2.017   0.637
 2252TIP3   OH2 6761   6.197   5.213   4.550
 2252TIP3    H1 6762   6.135   5.285   4.556
 2252TIP3    H2 6763   6.142   5.134   4.556
 2253TIP3   OH2 6764   2.633   4.576   2.133
 2253TIP3    H1 6765   2.693   4.650   2.141
 2253TIP3    H2 6766   2.671   4.509   2.191
 2254TIP3   OH2 6767   1.802   4.201   0.926
 2254TIP3    H1 6768   1.845   4.154   0.854
 2254TIP3    H2 6769   1.732   4.142   0.954
 2255TIP3   OH2 6770   2.972   0.319   1.556
 2255TIP3    H1 6771   2.886   0.334   1.596
 2255TIP3    H2 6772   2.997   0.231   1.584
 2256TIP3   OH2 6773   5.821   4.445   2.056
 2256TIP3    H1 6774   5.790   4.524   2.099
 2256TIP3    H2 6775   5.857   4.391   2.126
 2257TIP3   OH2 6776   5.552   5.729   3.320
 2257TIP3    H1 6777   5.542   5.647   3.271
 2257TIP3    H2 6778   5.518   5.797   3.262
 2258TIP3   OH2 6779   0.691   4.426   2.562
 2258TIP3    H1 6780   0.727   4.430   2.473
 2258TIP3    H2 6781   0.707   4.336   2.590
 2259TIP3   OH2 6782   4.047   1.328   1.699
 2259TIP3    H1 6783   3.988   1.401   1.720
 2259TIP3    H2 6784   3.988   1.255   1.677
 2260TIP3   OH2 6785   4.875   0.513   2.532
 2260TIP3    H1 6786   4.906   0.520   2.442
 2260TIP3    H2 6787   4.912   0.590   2.576
 2261TIP3   OH2 6788   2.628   4.515   4.918
 2261TIP3    H1 6789   2.683   4.579   4.872
 2261TIP3    H2 6790   2.603   4.452   4.850
 2262TIP3   OH2 6791   5.617   2.112   1.847
 2262TIP3    H1 6792   5.703   2.154   1.856
 2262TIP3    H2 6793   5.637   2.018   1.846
 2263TIP3   OH2 6794   1.193   0.810   3.941
 2263TIP3    H1 6795   1.121   0.820   3.879
 2263TIP3    H2 6796   1.188   0.887   3.997
 2264TIP3   OH2 6797   5.007   0.113   3.027
 2264TIP3    H1 6798   4.912   0.114   3.018
 2264TIP3    H2 6799   5.035   0.198   2.993
 2265TIP3   OH2 6800   4.800   1.376   4.042
 2265TIP3    H1 6801   4.771   1.288   4.066
 2265TIP3    H2 6802   4.896   1.370   4.041
 2266TIP3   OH2 6803   0.752   2.280   5.140
 2266TIP3    H1 6804   0.757   2.282   5.044
 2266TIP3    H2 6805   0.842   2.265   5.168
 2267TIP3   OH2 6806   0.657   4.192   3.825
 2267TIP3    H1 6807   0.701   4.118   3.783
 2267TIP3    H2 6808   0.720   4.264   3.821
 2268TIP3   OH2 6809   4.275   1.078   4.384
 2268TIP3    H1 6810   4.368   1.098   4.388
 2268TIP3    H2 6811   4.246   1.079   4.476
 2269TIP3   OH2 6812   1.477   5.523   2.229
 2269TIP3    H1 6813   1.482   5.531   2.325
 2269TIP3    H2 6814   1.549   5.579   2.197
 2270TIP3   OH2 6815   5.360   2.324   5.165
 2270TIP3    H1 6816   5.441   2.284   5.197
 2270TIP3    H2 6817   5.388   2.374   5.088
 2271TIP3   OH2 6818   2.177   2.989   2.010
 2271TIP3    H1 6819   2.142   3.054   1.950
 2271TIP3    H2 6820   2.265   3.020   2.031
 2272TIP3   OH2 6821   2.188   4.784   1.031
 2272TIP3    H1 6822   2.276   4.820   1.038
 2272TIP3    H2 6823   2.138   4.850   0.983
 2273TIP3   OH2 6824   4.015   1.958   2.225
 2273TIP3    H1 6825   4.010   1.939   2.131
 2273TIP3    H2 6826   3.933   2.003   2.245
 2274TIP3   OH2 6827   5.078   3.517   2.651
 2274TIP3    H1 6828   5.136   3.581   2.693
 2274TIP3    H2 6829   5.129   3.485   2.576
 2275TIP3   OH2 6830   4.020   2.871   4.976
 2275TIP3    H1 6831   3.978   2.829   5.052
 2275TIP3    H2 6832   3.957   2.861   4.905
 2276TIP3   OH2 6833   0.951   5.543   0.815
 2276TIP3    H1 6834   0.928   5.486   0.888
 2276TIP3    H2 6835   0.868   5.580   0.786
 2277TIP3   OH2 6836   4.182   0.909   0.306
 2277TIP3    H1 6837   4.162   0.832   0.252
 2277TIP3    H2 6838   4.276   0.921   0.295
 2278TIP3   OH2 6839   0.841   4.401   2.839
 2278TIP3    H1 6840   0.921   4.348   2.837
 2278TIP3    H2 6841   0.820   4.415   2.747
 2279TIP3   OH2 6842   2.028   3.884   3.377
 2279TIP3    H1 6843   1.989   3.822   3.440
 2279TIP3    H2 6844   2.116   3.900   3.410
 2280TIP3   OH2 6845   0.337   2.022   4.122
 2280TIP3    H1 6846   0.348   2.117   4.130
 2280TIP3    H2 6847   0.243   2.009   4.118
 2281TIP3   OH2 6848   2.892   1.074   0.298
 2281TIP3    H1 6849   2.981   1.042   0.279
 2281TIP3    H2 6850   2.840   1.044   0.224
 2282TIP3   OH2 6851   5.149   2.585   2.285
 2282TIP3    H1 6852   5.197   2.666   2.301
 2282TIP3    H2 6853   5.184   2.523   2.349
 2283TIP3   OH2 6854   5.061   0.103   0.956
 2283TIP3    H1 6855   4.991   0.153   0.914
 2283TIP3    H2 6856   5.057   0.129   1.048
 2284TIP3   OH2 6857   2.722   0.988   0.094
 2284TIP3    H1 6858   2.651   0.930   0.119
 2284TIP3    H2 6859   2.713   0.999   0.000
 2285TIP3   OH2 6860   1.215   1.435   0.777
 2285TIP3    H1 6861   1.158   1.381   0.832
 2285TIP3    H2 6862   1.189   1.525   0.797
 2286TIP3   OH2 6863   5.449   0.420   0.550
 2286TIP3    H1 6864   5.397   0.342   0.534
 2286TIP3    H2 6865   5.385   0.490   0.561
 2287TIP3   OH2 6866   5.059   5.764   0.567
 2287TIP3    H1 6867   5.117   5.808   0.629
 2287TIP3    H2 6868   4.999   5.713   0.622
 2288TIP3   OH2 6869   2.089   3.148   2.501
 2288TIP3    H1 6870   2.101   3.217   2.436
 2288TIP3    H2 6871   2.178   3.121   2.524
 2289TIP3   OH2 6872   0.183   3.443   3.127
 2289TIP3    H1 6873   0.222   3.380   3.066
 2289TIP3    H2 6874   0.252   3.509   3.139
 2290TIP3   OH2 6875   5.253   3.073   0.708
 2290TIP3    H1 6876   5.218   3.104   0.625
 2290TIP3    H2 6877   5.346   3.093   0.704
 2291TIP3   OH2 6878   5.962   3.158   4.244
 2291TIP3    H1 6879   5.977   3.218   4.317
 2291TIP3    H2 6880   5.909   3.087   4.282
 2292TIP3   OH2 6881   4.035   4.736   1.552
 2292TIP3    H1 6882   3.958   4.683   1.532
 2292TIP3    H2 6883   4.069   4.700   1.634
 2293TIP3   OH2 6884   5.044   0.526   2.323
 2293TIP3    H1 6885   5.128   0.560   2.356
 2293TIP3    H2 6886   5.068   0.456   2.264
 2294TIP3   OH2 6887   5.451   3.397   3.720
 2294TIP3    H1 6888   5.536   3.358   3.740
 2294TIP3    H2 6889   5.432   3.369   3.631
 2295TIP3   OH2 6890   3.742   3.801   2.501
 2295TIP3    H1 6891   3.648   3.790   2.517
 2295TIP3    H2 6892   3.747   3.838   2.413
 2296TIP3   OH2 6893   3.980   2.680   0.659
 2296TIP3    H1 6894   3.898   2.656   0.615
 2296TIP3    H2 6895   3.996   2.770   0.630
 2297TIP3   OH2 6896   3.784   0.452   4.986
 2297TIP3    H1 6897   3.736   0.533   5.002
 2297TIP3    H2 6898   3.783   0.442   4.891
 2298TIP3   OH2 6899   0.750   2.937   2.372
 2298TIP3    H1 6900   0.771   3.013   2.318
 2298TIP3    H2 6901   0.659   2.916   2.350
 2299TIP3   OH2 6902   4.998   4.974   2.051
 2299TIP3    H1 6903   5.010   5.064   2.019
 2299TIP3    H2 6904   5.060   4.922   2.000
 2300TIP3   OH2 6905   1.093   4.825   1.026
 2300TIP3    H1 6906   1.005   4.813   1.060
 2300TIP3    H2 6907   1.128   4.736   1.018
 2301TIP3   OH2 6908   4.748   5.842   1.945
 2301TIP3    H1 6909   4.722   5.877   2.031
 2301TIP3    H2 6910   4.685   5.878   1.884
 2302TIP3   OH2 6911   1.389   5.386   2.902
 2302TIP3    H1 6912   1.454   5.359   2.836
 2302TIP3    H2 6913   1.374   5.479   2.884
 2303TIP3   OH2 6914   3.181   5.914   4.951
 2303TIP3    H1 6915   3.119   5.874   4.890
 2303TIP3    H2 6916   3.199   5.846   5.015
 2304TIP3   OH2 6917   5.522   1.698   3.249
 2304TIP3    H1 6918   5.525   1.617   3.300
 2304TIP3    H2 6919   5.537   1.768   3.312
 2305TIP3   OH2 6920   4.950   1.679   2.848
 2305TIP3    H1 6921   4.922   1.682   2.939
 2305TIP3    H2 6922   4.881   1.630   2.803
 2306TIP3   OH2 6923   0.153   3.094   3.571
 2306TIP3    H1 6924   0.136   3.000   3.581
 2306TIP3    H2 6925   0.082   3.125   3.515
 2307TIP3   OH2 6926   4.496   5.895   4.238
 2307TIP3    H1 6927   4.523   5.849   4.158
 2307TIP3    H2 6928   4.527   5.839   4.309
 2308TIP3   OH2 6929   5.660   0.171   4.330
 2308TIP3    H1 6930   5.596   0.140   4.265
 2308TIP3    H2 6931   5.742   0.178   4.281
 2309TIP3   OH2 6932   4.196   2.553   1.542
 2309TIP3    H1 6933   4.103   2.565   1.522
 2309TIP3    H2 6934   4.209   2.597   1.626
 2310TIP3   OH2 6935   2.565   5.800   3.584
 2310TIP3    H1 6936   2.487   5.765   3.626
 2310TIP3    H2 6937   2.534   5.876   3.534
 2311TIP3   OH2 6938   6.202   2.648   1.823
 2311TIP3    H1 6939   6.276   2.671   1.767
 2311TIP3    H2 6940   6.131   2.706   1.794
 2312TIP3   OH2 6941   4.747   5.669   3.264
 2312TIP3    H1 6942   4.820   5.632   3.312
 2312TIP3    H2 6943   4.787   5.719   3.192
 2313TIP3   OH2 6944   5.009   1.070   1.826
 2313TIP3    H1 6945   5.076   1.091   1.891
 2313TIP3    H2 6946   4.945   1.141   1.833
 2314TIP3   OH2 6947   1.639   4.920   2.456
 2314TIP3    H1 6948   1.617   4.891   2.367
 2314TIP3    H2 6949   1.555   4.938   2.497
 2315TIP3   OH2 6950   6.011   5.150   0.821
 2315TIP3    H1 6951   5.990   5.180   0.732
 2315TIP3    H2 6952   6.015   5.230   0.873
 2316TIP3   OH2 6953   3.732   3.153   1.956
 2316TIP3    H1 6954   3.702   3.173   1.867
 2316TIP3    H2 6955   3.751   3.238   1.995
 2317TIP3   OH2 6956   0.035   1.850   2.494
 2317TIP3    H1 6957   0.097   1.778   2.504
 2317TIP3    H2 6958  -0.021   1.823   2.421
 2318TIP3   OH2 6959   0.579   2.380   4.844
 2318TIP3    H1 6960   0.521   2.308   4.872
 2318TIP3    H2 6961   0.519   2.451   4.823
 2319TIP3   OH2 6962   6.302   0.085   2.204
 2319TIP3    H1 6963   6.373   0.131   2.159
 2319TIP3    H2 6964   6.332   0.080   2.295
 2320TIP3   OH2 6965   4.700   4.802   2.373
 2320TIP3    H1 6966   4.703   4.897   2.381
 2320TIP3    H2 6967   4.788   4.778   2.343
 2321TIP3   OH2 6968   4.374   0.100   4.338
 2321TIP3    H1 6969   4.372   0.017   4.291
 2321TIP3    H2 6970   4.434   0.084   4.411
 2322TIP3   OH2 6971   5.118   5.920   3.639
 2322TIP3    H1 6972   5.111   6.012   3.662
 2322TIP3    H2 6973   5.058   5.875   3.699
 2323TIP3   OH2 6974   4.964   0.984   0.661
 2323TIP3    H1 6975   4.896   1.045   0.630
 2323TIP3    H2 6976   4.941   0.968   0.752
 2324TIP3   OH2 6977   6.198   1.969   0.340
 2324TIP3    H1 6978   6.231   1.907   0.275
 2324TIP3    H2 6979   6.225   1.932   0.425
 2325TIP3   OH2 6980   0.246   4.698   0.593
 2325TIP3    H1 6981   0.173   4.696   0.655
 2325TIP3    H2 6982   0.258   4.607   0.566
 2326TIP3   OH2 6983   4.746   1.552   1.568
 2326TIP3    H1 6984   4.705   1.547   1.481
 2326TIP3    H2 6985   4.751   1.461   1.596
 2327TIP3   OH2 6986   4.222   1.706   4.459
 2327TIP3    H1 6987   4.290   1.749   4.509
 2327TIP3    H2 6988   4.147   1.703   4.519
 2328TIP3   OH2 6989   3.855   2.015   4.216
 2328TIP3    H1 6990   3.867   1.924   4.186
 2328TIP3    H2 6991   3.899   2.068   4.150
 2329TIP3   OH2 6992   4.285   0.242   4.121
 2329TIP3    H1 6993   4.305   0.182   4.192
 2329TIP3    H2 6994   4.339   0.212   4.048
 2330TIP3   OH2 6995   6.148   0.435   1.280
 2330TIP3    H1 6996   6.202   0.359   1.260
 2330TIP3    H2 6997   6.210   0.501   1.312
 2331TIP3   OH2 6998   2.060   1.506   1.683
 2331TIP3    H1 6999   2.006   1.462   1.616
 2331TIP3    H2 7000   2.038   1.460   1.764
 2332TIP3   OH2 7001   4.142   1.384   3.453
 2332TIP3    H1 7002   4.064   1.335   3.424
 2332TIP3    H2 7003   4.174   1.334   3.528
 2333TIP3   OH2 7004   4.109   5.101   3.142
 2333TIP3    H1 7005   4.043   5.165   3.115
 2333TIP3    H2 7006   4.189   5.152   3.152
 2334TIP3   OH2 7007   0.508   4.727   0.625
 2334TIP3    H1 7008   0.545   4.638   0.628
 2334TIP3    H2 7009   0.414   4.714   0.612
 2335TIP3   OH2 7010   1.047   2.373   1.162
 2335TIP3    H1 7011   0.967   2.353   1.113
 2335TIP3    H2 7012   1.017   2.412   1.244
 2336TIP3   OH2 7013   5.346   3.092   2.976
 2336TIP3    H1 7014   5.342   3.067   3.068
 2336TIP3    H2 7015   5.262   3.063   2.939
 2337TIP3   OH2 7016   2.739   0.144   4.664
 2337TIP3    H1 7017   2.700   0.214   4.611
 2337TIP3    H2 7018   2.666   0.108   4.714
 2338TIP3   OH2 7019   6.075   3.924   1.235
 2338TIP3    H1 7020   6.111   3.897   1.320
 2338TIP3    H2 7021   6.117   4.008   1.217
 2339TIP3   OH2 7022   4.691   3.535   3.988
 2339TIP3    H1 7023   4.607   3.568   3.955
 2339TIP3    H2 7024   4.749   3.537   3.912
 2340TIP3   OH2 7025   4.834   1.323   3.321
 2340TIP3    H1 7026   4.921   1.300   3.354
 2340TIP3    H2 7027   4.776   1.254   3.353
 2341TIP3   OH2 7028   0.291   4.615   0.236
 2341TIP3    H1 7029   0.269   4.613   0.329
 2341TIP3    H2 7030   0.384   4.638   0.234
 2342TIP3   OH2 7031   3.536   1.117   2.078
 2342TIP3    H1 7032   3.541   1.062   2.000
 2342TIP3    H2 7033   3.614   1.173   2.073
 2343TIP3   OH2 7034   3.700   1.709   4.488
 2343TIP3    H1 7035   3.716   1.803   4.494
 2343TIP3    H2 7036   3.633   1.700   4.421
 2344TIP3   OH2 7037   5.054   5.965   2.359
 2344TIP3    H1 7038   5.079   5.969   2.267
 2344TIP3    H2 7039   5.026   5.874   2.372
 2345TIP3   OH2 7040   1.476   4.550   3.984
 2345TIP3    H1 7041   1.391   4.574   4.021
 2345TIP3    H2 7042   1.457   4.472   3.931
 2346TIP3   OH2 7043   1.633   4.892   4.201
 2346TIP3    H1 7044   1.639   4.796   4.207
 2346TIP3    H2 7045   1.548   4.913   4.239
 2347TIP3   OH2 7046   4.432   3.163   0.630
 2347TIP3    H1 7047   4.490   3.231   0.595
 2347TIP3    H2 7048   4.483   3.082   0.623
 2348TIP3   OH2 7049   2.068   2.695   3.581
 2348TIP3    H1 7050   2.031   2.611   3.608
 2348TIP3    H2 7051   2.027   2.758   3.640
 2349TIP3   OH2 7052   0.193   5.683   1.862
 2349TIP3    H1 7053   0.251   5.704   1.935
 2349TIP3    H2 7054   0.144   5.764   1.846
 2350TIP3   OH2 7055   6.094   3.095   2.986
 2350TIP3    H1 7056   6.007   3.106   2.948
 2350TIP3    H2 7057   6.154   3.128   2.918
 2351TIP3   OH2 7058   3.837   1.727   1.198
 2351TIP3    H1 7059   3.898   1.727   1.125
 2351TIP3    H2 7060   3.810   1.636   1.207
 2352TIP3   OH2 7061   1.918   5.172   1.817
 2352TIP3    H1 7062   1.963   5.182   1.733
 2352TIP3    H2 7063   1.829   5.202   1.800
 2353TIP3   OH2 7064   1.991   0.422   1.769
 2353TIP3    H1 7065   2.015   0.393   1.681
 2353TIP3    H2 7066   1.944   0.505   1.755
 2354TIP3   OH2 7067   1.482   1.173   1.385
 2354TIP3    H1 7068   1.542   1.227   1.438
 2354TIP3    H2 7069   1.396   1.191   1.422
 2355TIP3   OH2 7070   5.493   3.284   3.465
 2355TIP3    H1 7071   5.450   3.314   3.385
 2355TIP3    H2 7072   5.454   3.199   3.483
 2356TIP3   OH2 7073   4.450   4.195   2.839
 2356TIP3    H1 7074   4.397   4.270   2.811
 2356TIP3    H2 7075   4.400   4.119   2.812
 2357TIP3   OH2 7076   3.848   3.643   4.539
 2357TIP3    H1 7077   3.916   3.648   4.606
 2357TIP3    H2 7078   3.769   3.621   4.587
 2358TIP3   OH2 7079   4.007   4.867   0.792
 2358TIP3    H1 7080   4.027   4.882   0.884
 2358TIP3    H2 7081   3.924   4.820   0.793
 2359TIP3   OH2 7082   2.615   2.775   0.184
 2359TIP3    H1 7083   2.604   2.732   0.269
 2359TIP3    H2 7084   2.570   2.859   0.195
 2360TIP3   OH2 7085   4.372   1.026   0.543
 2360TIP3    H1 7086   4.386   1.100   0.484
 2360TIP3    H2 7087   4.294   1.051   0.594
 2361TIP3   OH2 7088   1.374   1.806   3.679
 2361TIP3    H1 7089   1.283   1.829   3.659
 2361TIP3    H2 7090   1.368   1.724   3.729
 2362TIP3   OH2 7091   6.018   2.765   2.746
 2362TIP3    H1 7092   6.041   2.845   2.698
 2362TIP3    H2 7093   6.095   2.746   2.799
 2363TIP3   OH2 7094   6.152   0.792   2.256
 2363TIP3    H1 7095   6.164   0.865   2.317
 2363TIP3    H2 7096   6.069   0.809   2.213
 2364TIP3   OH2 7097   0.323   3.814   3.889
 2364TIP3    H1 7098   0.333   3.905   3.861
 2364TIP3    H2 7099   0.252   3.817   3.954
 2365TIP3   OH2 7100   0.042   0.155   5.130
 2365TIP3    H1 7101   0.076   0.120   5.213
 2365TIP3    H2 7102   0.028   0.077   5.075
 2366TIP3   OH2 7103   3.442   5.500   3.737
 2366TIP3    H1 7104   3.456   5.512   3.643
 2366TIP3    H2 7105   3.376   5.430   3.742
 2367TIP3   OH2 7106   2.635   5.646   2.151
 2367TIP3    H1 7107   2.693   5.683   2.218
 2367TIP3    H2 7108   2.670   5.558   2.136
 2368TIP3   OH2 7109   0.236   1.967   2.936
 2368TIP3    H1 7110   0.165   1.940   2.994
 2368TIP3    H2 7111   0.220   2.061   2.921
 2369TIP3   OH2 7112   4.124   1.184   2.874
 2369TIP3    H1 7113   4.191   1.194   2.807
 2369TIP3    H2 7114   4.068   1.261   2.865
 2370TIP3   OH2 7115   5.545   0.615   4.270
 2370TIP3    H1 7116   5.600   0.693   4.269
 2370TIP3    H2 7117   5.476   0.633   4.206
 2371TIP3   OH2 7118   1.936   5.322   4.762
 2371TIP3    H1 7119   2.017   5.354   4.723
 2371TIP3    H2 7120   1.867   5.370   4.716
 2372TIP3   OH2 7121   6.134   0.981   3.301
 2372TIP3    H1 7122   6.154   1.021   3.217
 2372TIP3    H2 7123   6.215   0.936   3.326
 2373TIP3   OH2 7124   6.245   5.409   0.272
 2373TIP3    H1 7125   6.180   5.462   0.317
 2373TIP3    H2 7126   6.237   5.434   0.180
 2374TIP3   OH2 7127   0.895   4.059   0.684
 2374TIP3    H1 7128   0.806   4.080   0.715
 2374TIP3    H2 7129   0.885   4.047   0.590
 2375TIP3   OH2 7130   2.782   2.312   3.170
 2375TIP3    H1 7131   2.802   2.281   3.081
 2375TIP3    H2 7132   2.867   2.317   3.213
 2376TIP3   OH2 7133   1.886   0.325   0.591
 2376TIP3    H1 7134   1.899   0.325   0.496
 2376TIP3    H2 7135   1.944   0.395   0.623
 2377TIP3   OH2 7136   6.036   0.890   0.941
 2377TIP3    H1 7137   6.111   0.852   0.986
 2377TIP3    H2 7138   5.978   0.919   1.012
 2378TIP3   OH2 7139   3.553   1.809   4.888
 2378TIP3    H1 7140   3.534   1.760   4.808
 2378TIP3    H2 7141   3.501   1.889   4.880
 2379TIP3   OH2 7142   4.946   3.783   2.475
 2379TIP3    H1 7143   4.910   3.871   2.469
 2379TIP3    H2 7144   4.960   3.769   2.569
 2380TIP3   OH2 7145   3.180   3.570   5.031
 2380TIP3    H1 7146   3.090   3.541   5.021
 2380TIP3    H2 7147   3.183   3.655   4.987
 2381TIP3   OH2 7148   0.329   2.845   5.160
 2381TIP3    H1 7149   0.337   2.823   5.253
 2381TIP3    H2 7150   0.418   2.839   5.127
 2382TIP3   OH2 7151   4.261   1.206   0.163
 2382TIP3    H1 7152   4.246   1.261   0.086
 2382TIP3    H2 7153   4.302   1.127   0.127
 2383TIP3   OH2 7154   3.731   4.438   1.138
 2383TIP3    H1 7155   3.651   4.435   1.190
 2383TIP3    H2 7156   3.706   4.486   1.058
 2384TIP3   OH2 7157   5.959   2.192   4.738
 2384TIP3    H1 7158   5.869   2.161   4.729
 2384TIP3    H2 7159   5.970   2.258   4.670
 2385TIP3   OH2 7160   1.739   1.917   0.339
 2385TIP3    H1 7161   1.813   1.977   0.333
 2385TIP3    H2 7162   1.662   1.973   0.326
 2386TIP3   OH2 7163   5.825   3.264   0.485
 2386TIP3    H1 7164   5.874   3.345   0.471
 2386TIP3    H2 7165   5.887   3.195   0.461
 2387TIP3   OH2 7166   4.304   3.094   2.143
 2387TIP3    H1 7167   4.338   3.148   2.215
 2387TIP3    H2 7168   4.225   3.054   2.178
 2388TIP3   OH2 7169   5.175   4.347   1.956
 2388TIP3    H1 7170   5.105   4.309   2.010
 2388TIP3    H2 7171   5.227   4.271   1.928
 2389TIP3   OH2 7172   4.345   2.478   3.427
 2389TIP3    H1 7173   4.350   2.512   3.517
 2389TIP3    H2 7174   4.267   2.422   3.427
 2390TIP3   OH2 7175   3.320   0.704   0.826
 2390TIP3    H1 7176   3.325   0.738   0.737
 2390TIP3    H2 7177   3.226   0.690   0.841
 2391TIP3   OH2 7178   4.365   5.801   2.472
 2391TIP3    H1 7179   4.337   5.888   2.500
 2391TIP3    H2 7180   4.335   5.795   2.381
 2392TIP3   OH2 7181   0.056   4.824   3.932
 2392TIP3    H1 7182   0.093   4.882   3.999
 2392TIP3    H2 7183   0.002   4.762   3.982
 2393TIP3   OH2 7184   5.096   5.255   0.240
 2393TIP3    H1 7185   5.143   5.178   0.272
 2393TIP3    H2 7186   5.111   5.254   0.146
 2394TIP3   OH2 7187   0.209   2.478   3.356
 2394TIP3    H1 7188   0.200   2.538   3.282
 2394TIP3    H2 7189   0.185   2.392   3.320
 2395TIP3   OH2 7190   1.921   0.892   4.556
 2395TIP3    H1 7191   1.984   0.948   4.601
 2395TIP3    H2 7192   1.876   0.845   4.627
 2396TIP3   OH2 7193   1.385   3.281   3.870
 2396TIP3    H1 7194   1.431   3.198   3.858
 2396TIP3    H2 7195   1.293   3.257   3.875
 2397TIP3   OH2 7196   4.047   3.603   5.139
 2397TIP3    H1 7197   4.061   3.565   5.226
 2397TIP3    H2 7198   4.005   3.534   5.089
 2398TIP3   OH2 7199   4.721   3.449   4.604
 2398TIP3    H1 7200   4.639   3.492   4.578
 2398TIP3    H2 7201   4.782   3.472   4.533
 2399TIP3   OH2 7202   2.043   4.504   4.366
 2399TIP3    H1 7203   1.967   4.562   4.369
 2399TIP3    H2 7204   2.021   4.431   4.424
 2400TIP3   OH2 7205   5.311   3.255   3.904
 2400TIP3    H1 7206   5.363   3.310   3.846
 2400TIP3    H2 7207   5.299   3.308   3.983
 2401TIP3   OH2 7208   1.409   2.735   4.601
 2401TIP3    H1 7209   1.498   2.706   4.621
 2401TIP3    H2 7210   1.418   2.783   4.518
 2402TIP3   OH2 7211   3.357   5.029   3.413
 2402TIP3    H1 7212   3.300   4.954   3.398
 2402TIP3    H2 7213   3.310   5.104   3.378
 2403TIP3   OH2 7214   2.279   4.798   3.360
 2403TIP3    H1 7215   2.280   4.891   3.338
 2403TIP3    H2 7216   2.254   4.796   3.452
 2404TIP3   OH2 7217   0.707   5.723   0.786
 2404TIP3    H1 7218   0.694   5.788   0.717
 2404TIP3    H2 7219   0.690   5.770   0.868
 2405TIP3   OH2 7220   5.061   5.685   5.112
 2405TIP3    H1 7221   5.129   5.690   5.180
 2405TIP3    H2 7222   5.106   5.647   5.037
 2406TIP3   OH2 7223   4.027   2.663   4.290
 2406TIP3    H1 7224   4.045   2.665   4.196
 2406TIP3    H2 7225   3.948   2.717   4.300
 2407TIP3   OH2 7226   1.230   1.103   0.195
 2407TIP3    H1 7227   1.192   1.167   0.135
 2407TIP3    H2 7228   1.303   1.065   0.146
 2408TIP3   OH2 7229   5.891   1.966   1.822
 2408TIP3    H1 7230   5.985   1.964   1.837
 2408TIP3    H2 7231   5.879   2.036   1.757
 2409TIP3   OH2 7232   0.808   0.514   4.347
 2409TIP3    H1 7233   0.736   0.572   4.323
 2409TIP3    H2 7234   0.882   0.572   4.360
 2410TIP3   OH2 7235   5.905   0.071   1.058
 2410TIP3    H1 7236   5.963   0.146   1.043
 2410TIP3    H2 7237   5.836   0.106   1.115
 2411TIP3   OH2 7238   5.395   2.206   2.003
 2411TIP3    H1 7239   5.478   2.161   1.985
 2411TIP3    H2 7240   5.350   2.207   1.919
 2412TIP3   OH2 7241   0.750   4.759   1.377
 2412TIP3    H1 7242   0.700   4.840   1.383
 2412TIP3    H2 7243   0.794   4.764   1.292
 2413TIP3   OH2 7244   2.109   5.330   3.649
 2413TIP3    H1 7245   2.043   5.356   3.584
 2413TIP3    H2 7246   2.094   5.236   3.662
 2414TIP3   OH2 7247   2.992   5.242   2.786
 2414TIP3    H1 7248   2.905   5.202   2.784
 2414TIP3    H2 7249   3.015   5.253   2.694
 2415TIP3   OH2 7250   3.699   2.291   2.333
 2415TIP3    H1 7251   3.733   2.279   2.422
 2415TIP3    H2 7252   3.604   2.295   2.343
 2416TIP3   OH2 7253   2.468   3.884   3.767
 2416TIP3    H1 7254   2.526   3.835   3.708
 2416TIP3    H2 7255   2.479   3.840   3.852
 2417TIP3   OH2 7256   3.098   3.351   2.984
 2417TIP3    H1 7257   3.159   3.402   2.931
 2417TIP3    H2 7258   3.141   3.344   3.070
 2418TIP3   OH2 7259   6.222   4.134   3.300
 2418TIP3    H1 7260   6.269   4.217   3.306
 2418TIP3    H2 7261   6.139   4.150   3.345
 2419TIP3   OH2 7262   1.940   4.153   5.127
 2419TIP3    H1 7263   1.895   4.206   5.193
 2419TIP3    H2 7264   2.002   4.100   5.176
 2420TIP3   OH2 7265   1.411   5.419   3.587
 2420TIP3    H1 7266   1.343   5.416   3.520
 2420TIP3    H2 7267   1.390   5.348   3.647
 2421TIP3   OH2 7268   5.102   3.906   4.707
 2421TIP3    H1 7269   5.013   3.909   4.671
 2421TIP3    H2 7270   5.158   3.937   4.637
 2422TIP3   OH2 7271   0.986   5.067   2.978
 2422TIP3    H1 7272   0.967   5.091   3.069
 2422TIP3    H2 7273   0.919   5.002   2.956
 2423TIP3   OH2 7274   0.954   4.002   2.746
 2423TIP3    H1 7275   0.924   3.913   2.761
 2423TIP3    H2 7276   1.009   3.996   2.668
 2424TIP3   OH2 7277   0.220   0.959   4.182
 2424TIP3    H1 7278   0.179   1.004   4.256
 2424TIP3    H2 7279   0.304   0.929   4.216
 2425TIP3   OH2 7280   3.737   0.786   2.554
 2425TIP3    H1 7281   3.657   0.733   2.553
 2425TIP3    H2 7282   3.799   0.734   2.606
 2426TIP3   OH2 7283   0.894   5.105   1.514
 2426TIP3    H1 7284   0.914   5.050   1.590
 2426TIP3    H2 7285   0.877   5.044   1.443
 2427TIP3   OH2 7286   4.170   4.984   1.780
 2427TIP3    H1 7287   4.184   5.043   1.705
 2427TIP3    H2 7288   4.257   4.973   1.818
 2428TIP3   OH2 7289   5.376   3.254   1.045
 2428TIP3    H1 7290   5.425   3.211   0.975
 2428TIP3    H2 7291   5.422   3.336   1.060
 2429TIP3   OH2 7292   3.524   2.030   3.312
 2429TIP3    H1 7293   3.441   2.001   3.349
 2429TIP3    H2 7294   3.580   1.953   3.312
 2430TIP3   OH2 7295   3.126   1.025   4.575
 2430TIP3    H1 7296   3.167   1.079   4.642
 2430TIP3    H2 7297   3.068   0.966   4.625
 2431TIP3   OH2 7298   1.069   2.704   4.398
 2431TIP3    H1 7299   1.146   2.654   4.423
 2431TIP3    H2 7300   1.000   2.638   4.385
 2432TIP3   OH2 7301   1.327   1.483   4.367
 2432TIP3    H1 7302   1.250   1.538   4.355
 2432TIP3    H2 7303   1.393   1.541   4.404
 2433TIP3   OH2 7304   5.073   1.111   2.652
 2433TIP3    H1 7305   5.096   1.082   2.740
 2433TIP3    H2 7306   5.029   1.036   2.612
 2434TIP3   OH2 7307   4.429   2.824   0.718
 2434TIP3    H1 7308   4.445   2.837   0.811
 2434TIP3    H2 7309   4.502   2.768   0.688
 2435TIP3   OH2 7310   1.611   1.468   2.990
 2435TIP3    H1 7311   1.543   1.402   3.007
 2435TIP3    H2 7312   1.574   1.549   3.026
 2436TIP3   OH2 7313   2.937   0.538   0.101
 2436TIP3    H1 7314   2.946   0.460   0.156
 2436TIP3    H2 7315   2.887   0.508   0.024
 2437TIP3   OH2 7316   3.853   0.139   3.470
 2437TIP3    H1 7317   3.812   0.077   3.410
 2437TIP3    H2 7318   3.804   0.130   3.552
 2438TIP3   OH2 7319   4.524   3.182   0.065
 2438TIP3    H1 7320   4.557   3.152   0.150
 2438TIP3    H2 7321   4.442   3.135   0.054
 2439TIP3   OH2 7322   3.308   1.864   0.941
 2439TIP3    H1 7323   3.265   1.889   0.859
 2439TIP3    H2 7324   3.269   1.922   1.007
 2440TIP3   OH2 7325   5.054   0.917   4.881
 2440TIP3    H1 7326   5.101   0.912   4.798
 2440TIP3    H2 7327   5.063   1.008   4.910
 2441TIP3   OH2 7328   0.198   6.011   3.907
 2441TIP3    H1 7329   0.228   5.926   3.876
 2441TIP3    H2 7330   0.272   6.047   3.956
 2442TIP3   OH2 7331   3.134   3.862   1.278
 2442TIP3    H1 7332   3.087   3.779   1.284
 2442TIP3    H2 7333   3.093   3.908   1.205
 2443TIP3   OH2 7334   5.128   3.325   2.110
 2443TIP3    H1 7335   5.203   3.274   2.082
 2443TIP3    H2 7336   5.052   3.268   2.095
 2444TIP3   OH2 7337   3.918   3.291   3.316
 2444TIP3    H1 7338   3.949   3.201   3.308
 2444TIP3    H2 7339   3.825   3.288   3.292
 2445TIP3   OH2 7340   0.349   4.001   3.691
 2445TIP3    H1 7341   0.368   3.910   3.667
 2445TIP3    H2 7342   0.304   4.037   3.615
 2446TIP3   OH2 7343   6.124   5.378   3.624
 2446TIP3    H1 7344   6.047   5.433   3.637
 2446TIP3    H2 7345   6.186   5.435   3.578
 2447TIP3   OH2 7346   1.245   2.479   0.789
 2447TIP3    H1 7347   1.236   2.435   0.874
 2447TIP3    H2 7348   1.223   2.570   0.807
 2448TIP3   OH2 7349   1.378   4.090   0.950
 2448TIP3    H1 7350   1.286   4.086   0.921
 2448TIP3    H2 7351   1.425   4.124   0.874
 2449TIP3   OH2 7352   1.211   3.737   0.223
 2449TIP3    H1 7353   1.190   3.830   0.212
 2449TIP3    H2 7354   1.254   3.732   0.308
 2450TIP3   OH2 7355   0.803   3.109   0.062
 2450TIP3    H1 7356   0.849   3.191   0.043
 2450TIP3    H2 7357   0.869   3.055   0.107
 2451TIP3   OH2 7358   4.058   2.168   0.698
 2451TIP3    H1 7359   3.972   2.209   0.687
 2451TIP3    H2 7360   4.062   2.101   0.630
 2452TIP3   OH2 7361   1.701   5.123   3.250
 2452TIP3    H1 7362   1.668   5.112   3.340
 2452TIP3    H2 7363   1.644   5.190   3.213
 2453TIP3   OH2 7364   5.518   3.821   0.741
 2453TIP3    H1 7365   5.529   3.780   0.655
 2453TIP3    H2 7366   5.471   3.903   0.723
 2454TIP3   OH2 7367   0.855   5.109   3.300
 2454TIP3    H1 7368   0.873   5.125   3.393
 2454TIP3    H2 7369   0.786   5.171   3.278
 2455TIP3   OH2 7370   1.373   2.105   1.953
 2455TIP3    H1 7371   1.322   2.177   1.917
 2455TIP3    H2 7372   1.327   2.026   1.924
 2456TIP3   OH2 7373   3.099   1.077   1.352
 2456TIP3    H1 7374   3.051   1.140   1.405
 2456TIP3    H2 7375   3.120   1.005   1.412
 2457TIP3   OH2 7376   2.008   0.916   3.440
 2457TIP3    H1 7377   1.932   0.865   3.412
 2457TIP3    H2 7378   2.049   0.861   3.507
 2458TIP3   OH2 7379   4.576   0.642   4.668
 2458TIP3    H1 7380   4.550   0.651   4.576
 2458TIP3    H2 7381   4.610   0.553   4.675
 2459TIP3   OH2 7382   3.407   5.368   4.428
 2459TIP3    H1 7383   3.371   5.335   4.346
 2459TIP3    H2 7384   3.497   5.393   4.407
 2460TIP3   OH2 7385   6.156   4.274   1.720
 2460TIP3    H1 7386   6.101   4.344   1.755
 2460TIP3    H2 7387   6.125   4.194   1.763
 2461TIP3   OH2 7388   2.646   5.333   4.007
 2461TIP3    H1 7389   2.653   5.350   4.101
 2461TIP3    H2 7390   2.610   5.414   3.970
 2462TIP3   OH2 7391   1.338   4.108   2.593
 2462TIP3    H1 7392   1.396   4.069   2.658
 2462TIP3    H2 7393   1.379   4.192   2.572
 2463TIP3   OH2 7394   2.504   1.050   2.304
 2463TIP3    H1 7395   2.573   1.104   2.341
 2463TIP3    H2 7396   2.443   1.035   2.376
 2464TIP3   OH2 7397   3.751   1.259   1.675
 2464TIP3    H1 7398   3.746   1.330   1.611
 2464TIP3    H2 7399   3.663   1.221   1.676
 2465TIP3   OH2 7400   5.827   1.878   4.921
 2465TIP3    H1 7401   5.742   1.846   4.951
 2465TIP3    H2 7402   5.806   1.940   4.851
 2466TIP3   OH2 7403   3.644   4.860   3.062
 2466TIP3    H1 7404   3.655   4.878   3.155
 2466TIP3    H2 7405   3.687   4.775   3.048
 2467TIP3   OH2 7406   3.858   0.157   0.848
 2467TIP3    H1 7407   3.806   0.164   0.928
 2467TIP3    H2 7408   3.833   0.233   0.796
 2468TIP3   OH2 7409   0.078   2.998   4.302
 2468TIP3    H1 7410   0.062   2.906   4.279
 2468TIP3    H2 7411   0.128   2.994   4.383
 2469TIP3   OH2 7412   3.284   2.554   2.529
 2469TIP3    H1 7413   3.296   2.528   2.620
 2469TIP3    H2 7414   3.263   2.647   2.533
 2470TIP3   OH2 7415   4.105   5.947   4.920
 2470TIP3    H1 7416   4.016   5.914   4.926
 2470TIP3    H2 7417   4.132   5.926   4.831
 2471TIP3   OH2 7418   2.215   5.937   0.785
 2471TIP3    H1 7419   2.169   6.014   0.750
 2471TIP3    H2 7420   2.148   5.870   0.793
 2472TIP3   OH2 7421   3.337   1.974   3.863
 2472TIP3    H1 7422   3.334   2.065   3.892
 2472TIP3    H2 7423   3.260   1.933   3.905
 2473TIP3   OH2 7424   3.790   5.264   4.176
 2473TIP3    H1 7425   3.756   5.207   4.107
 2473TIP3    H2 7426   3.713   5.310   4.210
 2474TIP3   OH2 7427   2.765   3.225   4.748
 2474TIP3    H1 7428   2.797   3.154   4.693
 2474TIP3    H2 7429   2.844   3.264   4.785
 2475TIP3   OH2 7430   5.838   3.942   1.634
 2475TIP3    H1 7431   5.760   3.901   1.597
 2475TIP3    H2 7432   5.850   4.022   1.582
 2476TIP3   OH2 7433   2.138   5.039   1.275
 2476TIP3    H1 7434   2.210   5.070   1.221
 2476TIP3    H2 7435   2.088   5.117   1.296
 2477TIP3   OH2 7436   2.728   3.843   2.450
 2477TIP3    H1 7437   2.715   3.749   2.434
 2477TIP3    H2 7438   2.640   3.880   2.448
 2478TIP3   OH2 7439   1.705   1.611   2.439
 2478TIP3    H1 7440   1.799   1.629   2.449
 2478TIP3    H2 7441   1.663   1.671   2.501
 2479TIP3   OH2 7442   4.192   4.971   4.756
 2479TIP3    H1 7443   4.113   5.011   4.721
 2479TIP3    H2 7444   4.188   4.990   4.850
 2480TIP3   OH2 7445   5.666   3.005   2.151
 2480TIP3    H1 7446   5.611   3.077   2.120
 2480TIP3    H2 7447   5.641   2.930   2.097
 2481TIP3   OH2 7448   4.381   5.834   1.917
 2481TIP3    H1 7449   4.313   5.838   1.984
 2481TIP3    H2 7450   4.334   5.812   1.836
 2482TIP3   OH2 7451   4.991   2.179   1.697
 2482TIP3    H1 7452   4.916   2.232   1.669
 2482TIP3    H2 7453   4.952   2.098   1.728
 2483TIP3   OH2 7454   0.908   4.173   3.663
 2483TIP3    H1 7455   0.868   4.196   3.578
 2483TIP3    H2 7456   1.000   4.161   3.643
 2484TIP3   OH2 7457   0.291   1.901   2.129
 2484TIP3    H1 7458   0.356   1.921   2.196
 2484TIP3    H2 7459   0.336   1.917   2.046
 2485TIP3   OH2 7460   1.250   2.304   3.751
 2485TIP3    H1 7461   1.169   2.338   3.713
 2485TIP3    H2 7462   1.279   2.237   3.688
 2486TIP3   OH2 7463   0.096   1.985   1.767
 2486TIP3    H1 7464   0.160   1.916   1.783
 2486TIP3    H2 7465   0.125   2.057   1.824
 2487TIP3   OH2 7466   3.052   3.933   3.812
 2487TIP3    H1 7467   2.959   3.912   3.802
 2487TIP3    H2 7468   3.076   3.977   3.731
 2488TIP3   OH2 7469   3.235   4.766   1.203
 2488TIP3    H1 7470   3.219   4.672   1.188
 2488TIP3    H2 7471   3.211   4.780   1.294
 2489TIP3   OH2 7472   5.644   3.967   4.917
 2489TIP3    H1 7473   5.702   3.939   4.988
 2489TIP3    H2 7474   5.573   4.013   4.961
 2490TIP3   OH2 7475   1.693   3.122   3.217
 2490TIP3    H1 7476   1.613   3.078   3.245
 2490TIP3    H2 7477   1.737   3.146   3.299
 2491TIP3   OH2 7478   0.842   2.277   3.950
 2491TIP3    H1 7479   0.884   2.236   4.026
 2491TIP3    H2 7480   0.876   2.366   3.949
 2492TIP3   OH2 7481   3.537   0.716   3.366
 2492TIP3    H1 7482   3.470   0.771   3.324
 2492TIP3    H2 7483   3.516   0.722   3.460
 2493TIP3   OH2 7484   3.442   1.791   2.715
 2493TIP3    H1 7485   3.348   1.799   2.730
 2493TIP3    H2 7486   3.453   1.804   2.621
 2494TIP3   OH2 7487   2.857   3.722   1.216
 2494TIP3    H1 7488   2.889   3.680   1.297
 2494TIP3    H2 7489   2.831   3.650   1.160
 2495TIP3   OH2 7490   2.236   2.729   4.690
 2495TIP3    H1 7491   2.253   2.675   4.613
 2495TIP3    H2 7492   2.318   2.729   4.739
 2496TIP3   OH2 7493   3.820   0.440   4.716
 2496TIP3    H1 7494   3.779   0.372   4.662
 2496TIP3    H2 7495   3.780   0.522   4.687
 2497TIP3   OH2 7496   1.923   1.153   0.218
 2497TIP3    H1 7497   2.012   1.131   0.191
 2497TIP3    H2 7498   1.932   1.185   0.308
 2498TIP3   OH2 7499   3.259   0.972   3.846
 2498TIP3    H1 7500   3.307   0.948   3.767
 2498TIP3    H2 7501   3.220   0.890   3.876
 2499TIP3   OH2 7502   1.071   1.394   4.751
 2499TIP3    H1 7503   1.069   1.315   4.805
 2499TIP3    H2 7504   1.080   1.362   4.662
 2500TIP3   OH2 7505   4.639   4.622   4.058
 2500TIP3    H1 7506   4.623   4.622   4.152
 2500TIP3    H2 7507   4.638   4.714   4.033
 2501TIP3   OH2 7508   0.286   4.123   1.325
 2501TIP3    H1 7509   0.249   4.079   1.249
 2501TIP3    H2 7510   0.248   4.211   1.322
 2502TIP3   OH2 7511   3.145   5.223   0.020
 2502TIP3    H1 7512   3.195   5.296  -0.016
 2502TIP3    H2 7513   3.153   5.233   0.115
 2503TIP3   OH2 7514   1.391   5.725   1.986
 2503TIP3    H1 7515   1.369   5.799   1.930
 2503TIP3    H2 7516   1.466   5.755   2.038
 2504TIP3   OH2 7517   5.957   3.033   0.404
 2504TIP3    H1 7518   5.939   2.976   0.329
 2504TIP3    H2 7519   6.049   3.019   0.424
 2505TIP3   OH2 7520   5.426   3.046   1.650
 2505TIP3    H1 7521   5.443   2.953   1.663
 2505TIP3    H2 7522   5.450   3.087   1.733
 2506TIP3   OH2 7523   2.084   5.633   4.231
 2506TIP3    H1 7524   2.095   5.554   4.285
 2506TIP3    H2 7525   2.076   5.704   4.295
 2507TIP3   OH2 7526   4.156   1.535   2.074
 2507TIP3    H1 7527   4.226   1.483   2.114
 2507TIP3    H2 7528   4.104   1.565   2.149
 2508TIP3   OH2 7529   6.141   4.750   3.235
 2508TIP3    H1 7530   6.092   4.744   3.317
 2508TIP3    H2 7531   6.228   4.716   3.257
 2509TIP3   OH2 7532   0.446   5.244   3.461
 2509TIP3    H1 7533   0.384   5.172   3.447
 2509TIP3    H2 7534   0.518   5.204   3.510
 2510TIP3   OH2 7535   4.522   4.269   1.177
 2510TIP3    H1 7536   4.543   4.346   1.124
 2510TIP3    H2 7537   4.606   4.223   1.185
 2511TIP3   OH2 7538   2.985   4.774   3.722
 2511TIP3    H1 7539   2.905   4.765   3.775
 2511TIP3    H2 7540   2.960   4.740   3.636
 2512TIP3   OH2 7541   3.038   4.069   4.092
 2512TIP3    H1 7542   3.044   4.087   4.186
 2512TIP3    H2 7543   2.976   4.134   4.060
 2513TIP3   OH2 7544   2.139   1.662   1.117
 2513TIP3    H1 7545   2.154   1.712   1.197
 2513TIP3    H2 7546   2.123   1.573   1.148
 2514TIP3   OH2 7547   2.539   2.258   2.065
 2514TIP3    H1 7548   2.586   2.177   2.085
 2514TIP3    H2 7549   2.607   2.318   2.034
 2515TIP3   OH2 7550   2.110   5.749   0.193
 2515TIP3    H1 7551   2.175   5.705   0.248
 2515TIP3    H2 7552   2.038   5.769   0.253
 2516TIP3   OH2 7553   6.244   4.969   2.381
 2516TIP3    H1 7554   6.320   4.973   2.439
 2516TIP3    H2 7555   6.194   5.048   2.402
 2517TIP3   OH2 7556   5.425   3.867   2.484
 2517TIP3    H1 7557   5.398   3.775   2.473
 2517TIP3    H2 7558   5.375   3.897   2.560
 2518TIP3   OH2 7559   3.762   1.228   0.426
 2518TIP3    H1 7560   3.808   1.157   0.383
 2518TIP3    H2 7561   3.710   1.186   0.494
 2519TIP3   OH2 7562   5.088   1.417   3.392
 2519TIP3    H1 7563   5.116   1.472   3.464
 2519TIP3    H2 7564   5.156   1.351   3.384
 2520TIP3   OH2 7565   1.970   2.082   1.364
 2520TIP3    H1 7566   1.881   2.047   1.372
 2520TIP3    H2 7567   2.008   2.071   1.451
 2521TIP3   OH2 7568   3.988   3.187   5.113
 2521TIP3    H1 7569   4.009   3.141   5.194
 2521TIP3    H2 7570   3.922   3.132   5.070
 2522TIP3   OH2 7571   0.563   5.418   4.796
 2522TIP3    H1 7572   0.550   5.511   4.776
 2522TIP3    H2 7573   0.491   5.397   4.856
 2523TIP3   OH2 7574   3.871   4.120   0.589
 2523TIP3    H1 7575   3.890   4.205   0.627
 2523TIP3    H2 7576   3.785   4.096   0.625
 2524TIP3   OH2 7577   5.181   3.043   4.022
 2524TIP3    H1 7578   5.160   3.063   4.113
 2524TIP3    H2 7579   5.250   3.105   3.999
 2525TIP3   OH2 7580   6.223   3.202   0.012
 2525TIP3    H1 7581   6.301   3.175   0.060
 2525TIP3    H2 7582   6.195   3.124  -0.035
 2526TIP3   OH2 7583   4.601   4.787   2.034
 2526TIP3    H1 7584   4.641   4.872   2.017
 2526TIP3    H2 7585   4.517   4.808   2.074
 2527TIP3   OH2 7586   5.807   4.439   1.583
 2527TIP3    H1 7587   5.861   4.471   1.656
 2527TIP3    H2 7588   5.797   4.346   1.600
 2528TIP3   OH2 7589   3.517   1.157   3.881
 2528TIP3    H1 7590   3.441   1.195   3.925
 2528TIP3    H2 7591   3.495   1.159   3.788
 2529TIP3   OH2 7592   4.316   3.819   4.337
 2529TIP3    H1 7593   4.373   3.865   4.399
 2529TIP3    H2 7594   4.297   3.885   4.269
 2530TIP3   OH2 7595   2.644   2.010   2.532
 2530TIP3    H1 7596   2.602   1.934   2.572
 2530TIP3    H2 7597   2.697   2.047   2.602
 2531TIP3   OH2 7598   5.920   1.735   3.134
 2531TIP3    H1 7599   5.899   1.794   3.062
 2531TIP3    H2 7600   5.867   1.657   3.118
 2532TIP3   OH2 7601   0.692   1.976   1.529
 2532TIP3    H1 7602   0.762   1.918   1.498
 2532TIP3    H2 7603   0.611   1.931   1.506
 2533TIP3   OH2 7604   0.367   5.219   2.140
 2533TIP3    H1 7605   0.349   5.292   2.082
 2533TIP3    H2 7606   0.446   5.178   2.104
 2534TIP3   OH2 7607   2.342   2.010   1.075
 2534TIP3    H1 7608   2.396   1.940   1.112
 2534TIP3    H2 7609   2.356   2.084   1.133
 2535TIP3   OH2 7610   4.489   1.693   5.146
 2535TIP3    H1 7611   4.481   1.763   5.082
 2535TIP3    H2 7612   4.477   1.736   5.231
 2536TIP3   OH2 7613   5.385   5.610   2.292
 2536TIP3    H1 7614   5.415   5.661   2.367
 2536TIP3    H2 7615   5.343   5.675   2.234
 2537TIP3   OH2 7616   6.037   1.636   0.944
 2537TIP3    H1 7617   6.042   1.652   0.850
 2537TIP3    H2 7618   6.119   1.591   0.965
 2538TIP3   OH2 7619   2.375   2.753   4.976
 2538TIP3    H1 7620   2.384   2.848   4.973
 2538TIP3    H2 7621   2.304   2.738   5.038
 2539TIP3   OH2 7622   2.539   4.499   1.639
 2539TIP3    H1 7623   2.555   4.447   1.718
 2539TIP3    H2 7624   2.552   4.438   1.567
 2540TIP3   OH2 7625   5.644   5.329   1.573
 2540TIP3    H1 7626   5.554   5.315   1.544
 2540TIP3    H2 7627   5.682   5.241   1.575
 2541TIP3   OH2 7628   1.606   0.329   1.184
 2541TIP3    H1 7629   1.560   0.383   1.120
 2541TIP3    H2 7630   1.539   0.301   1.245
 2542TIP3   OH2 7631   4.733   5.073   4.307
 2542TIP3    H1 7632   4.688   4.995   4.339
 2542TIP3    H2 7633   4.812   5.038   4.264
 2543TIP3   OH2 7634   1.615   4.234   4.840
 2543TIP3    H1 7635   1.571   4.318   4.851
 2543TIP3    H2 7636   1.630   4.203   4.930
 2544TIP3   OH2 7637   2.888   0.025   1.444
 2544TIP3    H1 7638   2.911  -0.006   1.531
 2544TIP3    H2 7639   2.967   0.013   1.392
 2545TIP3   OH2 7640   4.486   5.032   0.178
 2545TIP3    H1 7641   4.576   5.058   0.157
 2545TIP3    H2 7642   4.476   5.056   0.270
 2546TIP3   OH2 7643   5.968   5.855   0.277
 2546TIP3    H1 7644   5.894   5.844   0.217
 2546TIP3    H2 7645   5.931   5.838   0.364
 2547TIP3   OH2 7646   1.855   2.410   1.216
 2547TIP3    H1 7647   1.817   2.323   1.202
 2547TIP3    H2 7648   1.810   2.466   1.152
 2548TIP3   OH2 7649   1.698   0.875   3.313
 2548TIP3    H1 7650   1.702   0.895   3.220
 2548TIP3    H2 7651   1.622   0.925   3.345
 2549TIP3   OH2 7652   0.322   5.680   3.254
 2549TIP3    H1 7653   0.288   5.678   3.164
 2549TIP3    H2 7654   0.365   5.765   3.262
 2550TIP3   OH2 7655   2.294   1.393   2.392
 2550TIP3    H1 7656   2.298   1.452   2.468
 2550TIP3    H2 7657   2.243   1.318   2.423
 2551TIP3   OH2 7658   0.149   1.345   5.012
 2551TIP3    H1 7659   0.110   1.408   5.072
 2551TIP3    H2 7660   0.127   1.259   5.049
 2552TIP3   OH2 7661   3.253   0.802   3.322
 2552TIP3    H1 7662   3.193   0.732   3.349
 2552TIP3    H2 7663   3.198   0.880   3.315
 2553TIP3   OH2 7664   3.678   4.664   4.022
 2553TIP3    H1 7665   3.654   4.602   3.954
 2553TIP3    H2 7666   3.599   4.674   4.075
 2554TIP3   OH2 7667   5.666   0.237   3.450
 2554TIP3    H1 7668   5.644   0.256   3.541
 2554TIP3    H2 7669   5.602   0.286   3.399
 2555TIP3   OH2 7670   2.905   4.459   3.571
 2555TIP3    H1 7671   2.859   4.523   3.517
 2555TIP3    H2 7672   2.849   4.382   3.572
 2556TIP3   OH2 7673   5.824   1.037   2.000
 2556TIP3    H1 7674   5.892   1.097   2.027
 2556TIP3    H2 7675   5.850   0.953   2.037
 2557TIP3   OH2 7676   1.287   1.074   0.998
 2557TIP3    H1 7677   1.334   1.122   0.930
 2557TIP3    H2 7678   1.297   1.127   1.076
 2558TIP3   OH2 7679   2.217   4.315   2.132
 2558TIP3    H1 7680   2.133   4.287   2.094
 2558TIP3    H2 7681   2.283   4.277   2.075
 2559TIP3   OH2 7682   4.558   5.706   4.717
 2559TIP3    H1 7683   4.596   5.715   4.630
 2559TIP3    H2 7684   4.614   5.642   4.761
 2560TIP3   OH2 7685   3.377   0.112   1.572
 2560TIP3    H1 7686   3.423   0.167   1.636
 2560TIP3    H2 7687   3.407   0.023   1.590
 2561TIP3   OH2 7688   2.313   2.514   3.136
 2561TIP3    H1 7689   2.393   2.475   3.101
 2561TIP3    H2 7690   2.245   2.488   3.074
 2562TIP3   OH2 7691   5.318   3.786  -0.054
 2562TIP3    H1 7692   5.386   3.837  -0.009
 2562TIP3    H2 7693   5.269   3.743   0.016
 2563TIP3   OH2 7694   2.359   0.467   0.814
 2563TIP3    H1 7695   2.407   0.550   0.810
 2563TIP3    H2 7696   2.279   0.488   0.862
 2564TIP3   OH2 7697   5.722   1.520   3.527
 2564TIP3    H1 7698   5.683   1.601   3.558
 2564TIP3    H2 7699   5.772   1.487   3.601
 2565TIP3   OH2 7700   0.734   0.304   3.200
 2565TIP3    H1 7701   0.709   0.367   3.133
 2565TIP3    H2 7702   0.786   0.354   3.263
 2566TIP3   OH2 7703   1.200   4.845   2.754
 2566TIP3    H1 7704   1.121   4.881   2.713
 2566TIP3    H2 7705   1.272   4.892   2.711
 2567TIP3   OH2 7706   0.566   2.909   0.100
 2567TIP3    H1 7707   0.535   2.829   0.143
 2567TIP3    H2 7708   0.627   2.948   0.163
 2568TIP3   OH2 7709   4.598   4.507   3.662
 2568TIP3    H1 7710   4.616   4.413   3.666
 2568TIP3    H2 7711   4.657   4.540   3.594
 2569TIP3   OH2 7712   0.491   1.087   3.410
 2569TIP3    H1 7713   0.491   1.045   3.325
 2569TIP3    H2 7714   0.580   1.077   3.443
 2570TIP3   OH2 7715   0.975   0.375   3.853
 2570TIP3    H1 7716   0.990   0.437   3.924
 2570TIP3    H2 7717   1.023   0.412   3.778
 2571TIP3   OH2 7718   2.152   4.611   5.010
 2571TIP3    H1 7719   2.069   4.581   4.974
 2571TIP3    H2 7720   2.132   4.692   5.056
 2572TIP3   OH2 7721   6.334   0.302   4.814
 2572TIP3    H1 7722   6.340   0.216   4.857
 2572TIP3    H2 7723   6.260   0.293   4.754
 2573TIP3   OH2 7724   0.869   2.930   4.857
 2573TIP3    H1 7725   0.859   2.848   4.905
 2573TIP3    H2 7726   0.949   2.969   4.893
 2574TIP3   OH2 7727   1.775   4.083   4.237
 2574TIP3    H1 7728   1.822   4.073   4.320
 2574TIP3    H2 7729   1.835   4.134   4.182
 2575TIP3   OH2 7730   3.158   5.631   2.321
 2575TIP3    H1 7731   3.079   5.623   2.267
 2575TIP3    H2 7732   3.224   5.667   2.262
 2576TIP3   OH2 7733   3.097   0.539   0.639
 2576TIP3    H1 7734   3.112   0.633   0.631
 2576TIP3    H2 7735   3.065   0.512   0.553
 2577TIP3   OH2 7736   3.487   0.227   4.771
 2577TIP3    H1 7737   3.543   0.204   4.845
 2577TIP3    H2 7738   3.418   0.161   4.772
 2578TIP3   OH2 7739   1.588   5.479   3.830
 2578TIP3    H1 7740   1.660   5.416   3.840
 2578TIP3    H2 7741   1.532   5.440   3.763
 2579TIP3   OH2 7742   3.135   5.337   0.857
 2579TIP3    H1 7743   3.207   5.378   0.905
 2579TIP3    H2 7744   3.098   5.274   0.919
 2580TIP3   OH2 7745   3.021   2.455   0.518
 2580TIP3    H1 7746   3.063   2.541   0.526
 2580TIP3    H2 7747   2.957   2.466   0.449
 2581TIP3   OH2 7748   3.740   0.860   2.092
 2581TIP3    H1 7749   3.786   0.794   2.143
 2581TIP3    H2 7750   3.697   0.916   2.158
 2582TIP3   OH2 7751   0.816   1.883   2.971
 2582TIP3    H1 7752   0.777   1.965   2.940
 2582TIP3    H2 7753   0.906   1.885   2.936
 2583TIP3   OH2 7754   3.943   0.565   0.028
 2583TIP3    H1 7755   3.861   0.601  -0.007
 2583TIP3    H2 7756   3.956   0.484  -0.021
 2584TIP3   OH2 7757   4.531   2.219   2.445
 2584TIP3    H1 7758   4.582   2.280   2.391
 2584TIP3    H2 7759   4.489   2.161   2.381
 2585TIP3   OH2 7760   5.415   1.841   2.844
 2585TIP3    H1 7761   5.415   1.878   2.932
 2585TIP3    H2 7762   5.323   1.816   2.828
 2586TIP3   OH2 7763   3.043   1.504   2.743
 2586TIP3    H1 7764   3.101   1.513   2.667
 2586TIP3    H2 7765   3.101   1.473   2.813
 2587TIP3   OH2 7766   4.342   5.627   3.843
 2587TIP3    H1 7767   4.326   5.563   3.773
 2587TIP3    H2 7768   4.255   5.650   3.875
 2588TIP3   OH2 7769   1.382   2.539   3.846
 2588TIP3    H1 7770   1.340   2.459   3.813
 2588TIP3    H2 7771   1.451   2.507   3.903
 2589TIP3   OH2 7772   5.839   1.267   4.575
 2589TIP3    H1 7773   5.932   1.276   4.557
 2589TIP3    H2 7774   5.805   1.356   4.572
 2590TIP3   OH2 7775   2.037   5.534   3.142
 2590TIP3    H1 7776   2.037   5.610   3.200
 2590TIP3    H2 7777   1.987   5.467   3.190
 2591TIP3   OH2 7778   3.369   0.674   4.970
 2591TIP3    H1 7779   3.339   0.684   4.879
 2591TIP3    H2 7780   3.305   0.723   5.022
 2592TIP3   OH2 7781   3.881   5.727   2.448
 2592TIP3    H1 7782   3.833   5.734   2.365
 2592TIP3    H2 7783   3.891   5.818   2.477
 2593TIP3   OH2 7784   1.527   3.695   4.934
 2593TIP3    H1 7785   1.467   3.713   5.006
 2593TIP3    H2 7786   1.528   3.599   4.928
 2594TIP3   OH2 7787   4.111   0.845   4.742
 2594TIP3    H1 7788   4.118   0.772   4.803
 2594TIP3    H2 7789   4.148   0.812   4.661
 2595TIP3   OH2 7790   4.328   0.612   0.940
 2595TIP3    H1 7791   4.381   0.633   0.863
 2595TIP3    H2 7792   4.341   0.518   0.954
 2596TIP3   OH2 7793   3.057   5.347   2.515
 2596TIP3    H1 7794   3.089   5.332   2.427
 2596TIP3    H2 7795   3.126   5.399   2.557
 2597TIP3   OH2 7796   5.827   5.797   3.392
 2597TIP3    H1 7797   5.736   5.804   3.363
 2597TIP3    H2 7798   5.834   5.856   3.466
 2598TIP3   OH2 7799   5.090   1.633   4.071
 2598TIP3    H1 7800   5.162   1.696   4.072
 2598TIP3    H2 7801   5.012   1.686   4.092
 2599TIP3   OH2 7802   3.914   4.636   3.802
 2599TIP3    H1 7803   3.833   4.606   3.842
 2599TIP3    H2 7804   3.895   4.726   3.773
 2600TIP3   OH2 7805   0.192   4.426   0.043
 2600TIP3    H1 7806   0.219   4.472   0.123
 2600TIP3    H2 7807   0.181   4.496  -0.021
 2601TIP3   OH2 7808   0.037   5.507   4.393
 2601TIP3    H1 7809   0.128   5.485   4.373
 2601TIP3    H2 7810   0.043   5.571   4.464
 2602TIP3   OH2 7811   0.548   2.336   3.765
 2602TIP3    H1 7812   0.478   2.338   3.699
 2602TIP3    H2 7813   0.628   2.351   3.715
 2603TIP3   OH2 7814   1.718   5.380   4.307
 2603TIP3    H1 7815   1.671   5.419   4.233
 2603TIP3    H2 7816   1.740   5.291   4.278
 2604TIP3   OH2 7817   5.628   1.683   2.911
 2604TIP3    H1 7818   5.708   1.737   2.912
 2604TIP3    H2 7819   5.557   1.747   2.909
 2605TIP3   OH2 7820   3.208   3.383   3.218
 2605TIP3    H1 7821   3.136   3.426   3.264
 2605TIP3    H2 7822   3.273   3.452   3.206
 2606TIP3   OH2 7823   2.790  -0.048   4.487
 2606TIP3    H1 7824   2.799  -0.009   4.400
 2606TIP3    H2 7825   2.786   0.026   4.547
 2607TIP3   OH2 7826   3.383   2.553   0.087
 2607TIP3    H1 7827   3.383   2.643   0.119
 2607TIP3    H2 7828   3.321   2.507   0.144
 2608TIP3   OH2 7829   4.189   5.328   2.335
 2608TIP3    H1 7830   4.113   5.270   2.320
 2608TIP3    H2 7831   4.154   5.400   2.387
 2609TIP3   OH2 7832   4.051   0.817   4.105
 2609TIP3    H1 7833   3.981   0.777   4.156
 2609TIP3    H2 7834   4.115   0.747   4.091
 2610TIP3   OH2 7835   4.201   5.289   0.298
 2610TIP3    H1 7836   4.155   5.345   0.236
 2610TIP3    H2 7837   4.233   5.216   0.245
 2611TIP3   OH2 7838   2.743   1.528   4.689
 2611TIP3    H1 7839   2.713   1.485   4.769
 2611TIP3    H2 7840   2.700   1.480   4.618
 2612TIP3   OH2 7841   3.535   4.056   2.250
 2612TIP3    H1 7842   3.447   4.075   2.217
 2612TIP3    H2 7843   3.589   4.128   2.217
 2613TIP3   OH2 7844   4.005   1.952   1.949
 2613TIP3    H1 7845   4.070   1.991   1.891
 2613TIP3    H2 7846   3.923   1.955   1.900
 2614TIP3   OH2 7847   5.830   4.623   2.630
 2614TIP3    H1 7848   5.912   4.580   2.654
 2614TIP3    H2 7849   5.762   4.567   2.668
 2615TIP3   OH2 7850   2.582   4.654   3.715
 2615TIP3    H1 7851   2.614   4.735   3.675
 2615TIP3    H2 7852   2.573   4.593   3.642
 2616TIP3   OH2 7853   6.098   2.768   4.274
 2616TIP3    H1 7854   6.065   2.845   4.229
 2616TIP3    H2 7855   6.164   2.731   4.215
 2617TIP3   OH2 7856   3.765   1.831   3.281
 2617TIP3    H1 7857   3.761   1.739   3.305
 2617TIP3    H2 7858   3.779   1.832   3.187
 2618TIP3   OH2 7859   3.430   0.263   1.250
 2618TIP3    H1 7860   3.460   0.350   1.224
 2618TIP3    H2 7861   3.344   0.255   1.210
 2619TIP3   OH2 7862   5.452   0.755   0.655
 2619TIP3    H1 7863   5.468   0.787   0.566
 2619TIP3    H2 7864   5.384   0.688   0.644
 2620TIP3   OH2 7865   3.573   1.828   1.286
 2620TIP3    H1 7866   3.574   1.913   1.242
 2620TIP3    H2 7867   3.663   1.797   1.279
 2621TIP3   OH2 7868   4.056   5.347   5.071
 2621TIP3    H1 7869   4.115   5.295   5.125
 2621TIP3    H2 7870   4.096   5.348   4.985
 2622TIP3   OH2 7871   2.886   2.959   1.413
 2622TIP3    H1 7872   2.931   3.043   1.425
 2622TIP3    H2 7873   2.900   2.938   1.321
 2623TIP3   OH2 7874   3.764   1.738   3.002
 2623TIP3    H1 7875   3.672   1.761   3.016
 2623TIP3    H2 7876   3.784   1.771   2.915
 2624TIP3   OH2 7877   0.495   4.156   4.949
 2624TIP3    H1 7878   0.569   4.192   4.999
 2624TIP3    H2 7879   0.428   4.224   4.955
 2625TIP3   OH2 7880   2.173   3.789   1.122
 2625TIP3    H1 7881   2.148   3.822   1.208
 2625TIP3    H2 7882   2.238   3.721   1.140
 2626TIP3   OH2 7883   6.185   3.942  -0.033
 2626TIP3    H1 7884   6.255   3.983   0.018
 2626TIP3    H2 7885   6.150   3.874   0.025
 2627TIP3   OH2 7886   5.988   2.388   1.451
 2627TIP3    H1 7887   6.033   2.391   1.366
 2627TIP3    H2 7888   5.931   2.311   1.445
 2628TIP3   OH2 7889   2.226   1.645   0.639
 2628TIP3    H1 7890   2.264   1.582   0.577
 2628TIP3    H2 7891   2.132   1.633   0.630
 2629TIP3   OH2 7892   5.003   4.406   2.713
 2629TIP3    H1 7893   5.077   4.457   2.681
 2629TIP3    H2 7894   4.981   4.445   2.797
 2630TIP3   OH2 7895   5.171   5.805   0.852
 2630TIP3    H1 7896   5.170   5.897   0.878
 2630TIP3    H2 7897   5.090   5.769   0.888
 2631TIP3   OH2 7898   3.820   0.765   0.215
 2631TIP3    H1 7899   3.882   0.695   0.233
 2631TIP3    H2 7900   3.778   0.740   0.133
 2632TIP3   OH2 7901   2.193   4.755   4.175
 2632TIP3    H1 7902   2.117   4.701   4.198
 2632TIP3    H2 7903   2.266   4.714   4.220
 2633TIP3   OH2 7904   2.512   4.834   4.198
 2633TIP3    H1 7905   2.559   4.829   4.115
 2633TIP3    H2 7906   2.560   4.899   4.249
 2634TIP3   OH2 7907   5.081   0.603   0.304
 2634TIP3    H1 7908   5.018   0.670   0.278
 2634TIP3    H2 7909   5.166   0.640   0.281
 2635TIP3   OH2 7910   6.227   1.387   3.816
 2635TIP3    H1 7911   6.213   1.344   3.900
 2635TIP3    H2 7912   6.288   1.458   3.834
 2636TIP3   OH2 7913   5.994   2.155   3.597
 2636TIP3    H1 7914   6.046   2.092   3.548
 2636TIP3    H2 7915   6.058   2.205   3.648
 2637TIP3   OH2 7916   1.185   2.827   4.723
 2637TIP3    H1 7917   1.125   2.807   4.651
 2637TIP3    H2 7918   1.259   2.767   4.710
 2638TIP3   OH2 7919   1.057   1.386   0.038
 2638TIP3    H1 7920   1.015   1.406   0.122
 2638TIP3    H2 7921   1.016   1.446  -0.024
 2639TIP3   OH2 7922   0.054   0.777   0.404
 2639TIP3    H1 7923   0.084   0.760   0.314
 2639TIP3    H2 7924   0.134   0.802   0.450
 2640TIP3   OH2 7925   6.362   5.943   0.869
 2640TIP3    H1 7926   6.358   5.897   0.784
 2640TIP3    H2 7927   6.439   5.999   0.862
 2641TIP3   OH2 7928   4.632   0.386   2.139
 2641TIP3    H1 7929   4.652   0.441   2.215
 2641TIP3    H2 7930   4.711   0.333   2.126
 2642TIP3   OH2 7931   4.337   1.852   4.680
 2642TIP3    H1 7932   4.342   1.944   4.653
 2642TIP3    H2 7933   4.301   1.855   4.768
 2643TIP3   OH2 7934   4.075   5.625   3.964
 2643TIP3    H1 7935   4.059   5.574   4.043
 2643TIP3    H2 7936   4.015   5.587   3.899
 2644TIP3   OH2 7937   1.371   0.394   4.144
 2644TIP3    H1 7938   1.347   0.487   4.142
 2644TIP3    H2 7939   1.455   0.392   4.190
 2645TIP3   OH2 7940   1.228   6.001   0.931
 2645TIP3    H1 7941   1.158   5.976   0.992
 2645TIP3    H2 7942   1.249   5.920   0.885
 2646TIP3   OH2 7943   5.908   4.454   4.108
 2646TIP3    H1 7944   5.934   4.535   4.063
 2646TIP3    H2 7945   5.924   4.385   4.044
 2647TIP3   OH2 7946   3.137   2.702   5.128
 2647TIP3    H1 7947   3.057   2.663   5.164
 2647TIP3    H2 7948   3.186   2.627   5.094
 2648TIP3   OH2 7949   1.497   1.709   3.059
 2648TIP3    H1 7950   1.504   1.716   3.154
 2648TIP3    H2 7951   1.555   1.778   3.025
 2649TIP3   OH2 7952   5.325   5.796   4.523
 2649TIP3    H1 7953   5.262   5.867   4.530
 2649TIP3    H2 7954   5.389   5.814   4.592
 2650TIP3   OH2 7955   0.966   4.303   0.184
 2650TIP3    H1 7956   0.991   4.285   0.093
 2650TIP3    H2 7957   0.901   4.373   0.178
 2651TIP3   OH2 7958   5.603   2.043   2.744
 2651TIP3    H1 7959   5.641   2.100   2.812
 2651TIP3    H2 7960   5.561   1.973   2.793
 2652TIP3   OH2 7961   3.882   1.290   3.423
 2652TIP3    H1 7962   3.799   1.255   3.391
 2652TIP3    H2 7963   3.874   1.287   3.518
 2653TIP3   OH2 7964   5.619   1.047   0.886
 2653TIP3    H1 7965   5.636   1.139   0.905
 2653TIP3    H2 7966   5.600   1.044   0.792
 2654TIP3   OH2 7967   0.644   4.187   0.509
 2654TIP3    H1 7968   0.707   4.190   0.437
 2654TIP3    H2 7969   0.573   4.132   0.476
 2655TIP3   OH2 7970   5.015   4.902   0.459
 2655TIP3    H1 7971   5.109   4.881   0.459
 2655TIP3    H2 7972   5.011   4.993   0.488
 2656TIP3   OH2 7973   2.386   4.804   1.867
 2656TIP3    H1 7974   2.430   4.804   1.782
 2656TIP3    H2 7975   2.440   4.858   1.923
 2657TIP3   OH2 7976   5.433   4.404   2.702
 2657TIP3    H1 7977   5.471   4.363   2.624
 2657TIP3    H2 7978   5.499   4.468   2.729
 2658TIP3   OH2 7979   3.513   2.395   1.716
 2658TIP3    H1 7980   3.594   2.394   1.767
 2658TIP3    H2 7981   3.497   2.302   1.696
 2659TIP3   OH2 7982   1.898   1.154   4.278
 2659TIP3    H1 7983   1.807   1.158   4.251
 2659TIP3    H2 7984   1.897   1.178   4.371
 2660TIP3   OH2 7985   5.706   2.439   3.502
 2660TIP3    H1 7986   5.726   2.350   3.529
 2660TIP3    H2 7987   5.790   2.477   3.478
 2661TIP3   OH2 7988   5.213   0.356   1.626
 2661TIP3    H1 7989   5.181   0.432   1.578
 2661TIP3    H2 7990   5.134   0.309   1.653
 2662TIP3   OH2 7991   4.369   2.570   1.251
 2662TIP3    H1 7992   4.433   2.511   1.212
 2662TIP3    H2 7993   4.308   2.511   1.297
 2663TIP3   OH2 7994   5.427   5.559   2.756
 2663TIP3    H1 7995   5.417   5.531   2.665
 2663TIP3    H2 7996   5.505   5.512   2.787
 2664TIP3   OH2 7997   1.431   2.144   4.629
 2664TIP3    H1 7998   1.392   2.066   4.668
 2664TIP3    H2 7999   1.357   2.197   4.600
 2665TIP3   OH2 8000   3.313   2.073   1.966
 2665TIP3    H1 8001   3.354   2.030   1.891
 2665TIP3    H2 8002   3.278   2.155   1.931
 2666TIP3   OH2 8003   1.471   3.338   0.492
 2666TIP3    H1 8004   1.525   3.321   0.569
 2666TIP3    H2 8005   1.516   3.295   0.420
 2667TIP3   OH2 8006   1.288   0.358   2.189
 2667TIP3    H1 8007   1.273   0.356   2.094
 2667TIP3    H2 8008   1.200   0.352   2.227
 2668TIP3   OH2 8009   0.554   3.069   2.072
 2668TIP3    H1 8010   0.567   3.133   2.142
 2668TIP3    H2 8011   0.629   3.011   2.079
 2669TIP3   OH2 8012   3.686   0.595   2.023
 2669TIP3    H1 8013   3.684   0.690   2.015
 2669TIP3    H2 8014   3.662   0.562   1.936
 2670TIP3   OH2 8015   1.920   4.625   4.153
 2670TIP3    H1 8016   1.959   4.592   4.073
 2670TIP3    H2 8017   1.884   4.547   4.196
 2671TIP3   OH2 8018   2.839   4.611   1.704
 2671TIP3    H1 8019   2.891   4.545   1.659
 2671TIP3    H2 8020   2.784   4.561   1.764
 2672TIP3   OH2 8021   4.821   5.665   1.672
 2672TIP3    H1 8022   4.748   5.661   1.733
 2672TIP3    H2 8023   4.847   5.757   1.670
 2673TIP3   OH2 8024   4.102   2.050   1.267
 2673TIP3    H1 8025   4.180   2.016   1.309
 2673TIP3    H2 8026   4.134   2.111   1.201
 2674TIP3   OH2 8027   0.564   5.256   4.428
 2674TIP3    H1 8028   0.562   5.185   4.492
 2674TIP3    H2 8029   0.630   5.317   4.461
 2675TIP3   OH2 8030   5.849   0.045   4.502
 2675TIP3    H1 8031   5.812   0.091   4.577
 2675TIP3    H2 8032   5.792   0.069   4.429
 2676TIP3   OH2 8033   5.683   0.082   0.606
 2676TIP3    H1 8034   5.717   0.033   0.681
 2676TIP3    H2 8035   5.709   0.173   0.624
 2677TIP3   OH2 8036   5.842   3.221   4.015
 2677TIP3    H1 8037   5.895   3.216   4.094
 2677TIP3    H2 8038   5.894   3.273   3.954
 2678TIP3   OH2 8039   0.125   1.539   0.796
 2678TIP3    H1 8040   0.155   1.580   0.715
 2678TIP3    H2 8041   0.205   1.501   0.834
 2679TIP3   OH2 8042   4.918   2.411   2.577
 2679TIP3    H1 8043   4.947   2.490   2.622
 2679TIP3    H2 8044   4.850   2.440   2.517
 2680TIP3   OH2 8045   0.853   0.210   2.541
 2680TIP3    H1 8046   0.921   0.209   2.609
 2680TIP3    H2 8047   0.812   0.124   2.548
 2681TIP3   OH2 8048   6.096   1.708   0.651
 2681TIP3    H1 8049   6.056   1.795   0.654
 2681TIP3    H2 8050   6.190   1.726   0.643
 2682TIP3   OH2 8051   3.411   4.975   4.224
 2682TIP3    H1 8052   3.390   5.012   4.310
 2682TIP3    H2 8053   3.428   5.051   4.169
 2683TIP3   OH2 8054   2.541   1.040   0.306
 2683TIP3    H1 8055   2.594   1.106   0.261
 2683TIP3    H2 8056   2.552   0.961   0.253
 2684TIP3   OH2 8057   3.328   4.619   0.540
 2684TIP3    H1 8058   3.327   4.701   0.591
 2684TIP3    H2 8059   3.247   4.622   0.489
 2685TIP3   OH2 8060   2.332   5.479   1.142
 2685TIP3    H1 8061   2.352   5.531   1.220
 2685TIP3    H2 8062   2.328   5.544   1.071
 2686TIP3   OH2 8063   5.368   1.686   2.166
 2686TIP3    H1 8064   5.388   1.593   2.169
 2686TIP3    H2 8065   5.397   1.720   2.251
 2687TIP3   OH2 8066   2.888   1.098   2.178
 2687TIP3    H1 8067   2.885   1.192   2.198
 2687TIP3    H2 8068   2.926   1.059   2.257
 2688TIP3   OH2 8069   1.123   2.629   1.405
 2688TIP3    H1 8070   1.201   2.658   1.453
 2688TIP3    H2 8071   1.111   2.695   1.336
 2689TIP3   OH2 8072   5.533   5.092   1.052
 2689TIP3    H1 8073   5.500   5.032   0.985
 2689TIP3    H2 8074   5.522   5.179   1.015
 2690TIP3   OH2 8075   1.130   5.110   2.446
 2690TIP3    H1 8076   1.050   5.144   2.404
 2690TIP3    H2 8077   1.109   5.110   2.539
 2691TIP3   OH2 8078   1.127   5.955   2.053
 2691TIP3    H1 8079   1.155   5.889   2.116
 2691TIP3    H2 8080   1.168   6.036   2.083
 2692TIP3   OH2 8081   5.135   5.735   1.351
 2692TIP3    H1 8082   5.133   5.724   1.256
 2692TIP3    H2 8083   5.168   5.652   1.385
 2693TIP3   OH2 8084   2.699   4.668   0.812
 2693TIP3    H1 8085   2.620   4.615   0.804
 2693TIP3    H2 8086   2.699   4.724   0.734
 2694TIP3   OH2 8087   4.055   1.630   4.675
 2694TIP3    H1 8088   4.096   1.644   4.761
 2694TIP3    H2 8089   3.990   1.700   4.667
 2695TIP3   OH2 8090   3.622   3.610   2.829
 2695TIP3    H1 8091   3.613   3.698   2.868
 2695TIP3    H2 8092   3.637   3.627   2.736
 2696TIP3   OH2 8093   2.133   2.137   1.627
 2696TIP3    H1 8094   2.093   2.224   1.632
 2696TIP3    H2 8095   2.105   2.094   1.708
 2697TIP3   OH2 8096   2.395   2.248   1.802
 2697TIP3    H1 8097   2.476   2.289   1.771
 2697TIP3    H2 8098   2.331   2.265   1.733
 2698TIP3   OH2 8099   2.757   5.334   3.276
 2698TIP3    H1 8100   2.662   5.324   3.279
 2698TIP3    H2 8101   2.782   5.301   3.190
 2699TIP3   OH2 8102   3.826   1.712   4.922
 2699TIP3    H1 8103   3.869   1.770   4.859
 2699TIP3    H2 8104   3.742   1.753   4.939
 2700TIP3   OH2 8105   2.534   4.279   1.496
 2700TIP3    H1 8106   2.481   4.287   1.417
 2700TIP3    H2 8107   2.612   4.231   1.467
 2701TIP3   OH2 8108   2.832   4.006   5.055
 2701TIP3    H1 8109   2.914   3.967   5.089
 2701TIP3    H2 8110   2.828   3.976   4.964
 2702TIP3   OH2 8111   6.238   3.416   2.533
 2702TIP3    H1 8112   6.161   3.471   2.547
 2702TIP3    H2 8113   6.219   3.368   2.452
 2703TIP3   OH2 8114   2.134   2.194   4.227
 2703TIP3    H1 8115   2.157   2.156   4.312
 2703TIP3    H2 8116   2.200   2.262   4.213
 2704TIP3   OH2 8117   4.713   5.591   2.689
 2704TIP3    H1 8118   4.656   5.619   2.617
 2704TIP3    H2 8119   4.779   5.660   2.696
 2705TIP3   OH2 8120   5.859   1.525   2.251
 2705TIP3    H1 8121   5.954   1.519   2.258
 2705TIP3    H2 8122   5.844   1.601   2.195
 2706TIP3   OH2 8123   4.663   0.345   3.961
 2706TIP3    H1 8124   4.650   0.402   3.886
 2706TIP3    H2 8125   4.704   0.266   3.925
 2707TIP3   OH2 8126   1.868   2.886   5.002
 2707TIP3    H1 8127   1.896   2.946   4.933
 2707TIP3    H2 8128   1.774   2.899   5.009
 2708TIP3   OH2 8129   3.898   5.300   3.059
 2708TIP3    H1 8130   3.834   5.368   3.038
 2708TIP3    H2 8131   3.855   5.245   3.124
 2709TIP3   OH2 8132   1.603   3.899   3.594
 2709TIP3    H1 8133   1.652   3.892   3.676
 2709TIP3    H2 8134   1.646   3.968   3.545
 2710TIP3   OH2 8135   2.638   3.397   4.535
 2710TIP3    H1 8136   2.559   3.449   4.546
 2710TIP3    H2 8137   2.651   3.355   4.620
 2711TIP3   OH2 8138   2.069   5.790   4.469
 2711TIP3    H1 8139   2.011   5.866   4.461
 2711TIP3    H2 8140   2.058   5.761   4.560
 2712TIP3   OH2 8141   0.252   0.758   5.159
 2712TIP3    H1 8142   0.239   0.696   5.231
 2712TIP3    H2 8143   0.201   0.722   5.087
 2713TIP3   OH2 8144   4.296   0.494   3.349
 2713TIP3    H1 8145   4.234   0.475   3.419
 2713TIP3    H2 8146   4.369   0.539   3.393
 2714TIP3   OH2 8147   3.457   0.190   3.089
 2714TIP3    H1 8148   3.427   0.251   3.021
 2714TIP3    H2 8149   3.552   0.202   3.092
 2715TIP3   OH2 8150   4.409   2.968   5.095
 2715TIP3    H1 8151   4.384   2.880   5.068
 2715TIP3    H2 8152   4.393   3.023   5.018
 2716TIP3   OH2 8153   3.766   4.889   1.215
 2716TIP3    H1 8154   3.776   4.838   1.295
 2716TIP3    H2 8155   3.694   4.949   1.233
 2717TIP3   OH2 8156   4.002   2.929   4.599
 2717TIP3    H1 8157   4.032   2.978   4.523
 2717TIP3    H2 8158   4.044   2.972   4.674
 2718TIP3   OH2 8159   0.999   5.987   1.299
 2718TIP3    H1 8160   1.088   5.956   1.285
 2718TIP3    H2 8161   0.944   5.914   1.272
 2719TIP3   OH2 8162   0.608   4.462   0.672
 2719TIP3    H1 8163   0.593   4.472   0.766
 2719TIP3    H2 8164   0.626   4.369   0.660
 2720TIP3   OH2 8165   3.251   3.176   5.096
 2720TIP3    H1 8166   3.164   3.214   5.112
 2720TIP3    H2 8167   3.237   3.116   5.023
 2721TIP3   OH2 8168   1.447   4.262   1.182
 2721TIP3    H1 8169   1.538   4.278   1.156
 2721TIP3    H2 8170   1.407   4.220   1.106
 2722TIP3   OH2 8171   4.572   2.584   3.647
 2722TIP3    H1 8172   4.616   2.545   3.572
 2722TIP3    H2 8173   4.611   2.671   3.656
 2723TIP3   OH2 8174   6.118   4.185   1.141
 2723TIP3    H1 8175   6.137   4.265   1.092
 2723TIP3    H2 8176   6.026   4.195   1.167
 2724TIP3   OH2 8177   2.446   4.644   5.059
 2724TIP3    H1 8178   2.501   4.574   5.023
 2724TIP3    H2 8179   2.356   4.618   5.038
 2725TIP3   OH2 8180   2.216   2.467   2.739
 2725TIP3    H1 8181   2.206   2.392   2.681
 2725TIP3    H2 8182   2.147   2.528   2.712
 2726TIP3   OH2 8183   1.110   2.133   1.784
 2726TIP3    H1 8184   1.058   2.148   1.864
 2726TIP3    H2 8185   1.131   2.040   1.786
 2727TIP3   OH2 8186   3.636   2.246   2.003
 2727TIP3    H1 8187   3.612   2.154   1.990
 2727TIP3    H2 8188   3.725   2.253   1.968
 2728TIP3   OH2 8189   4.221   2.715   1.767
 2728TIP3    H1 8190   4.194   2.667   1.845
 2728TIP3    H2 8191   4.244   2.803   1.799
 2729TIP3   OH2 8192   0.861   5.593   5.037
 2729TIP3    H1 8193   0.834   5.612   4.947
 2729TIP3    H2 8194   0.955   5.578   5.032
 2730TIP3   OH2 8195   5.885   3.802   4.678
 2730TIP3    H1 8196   5.820   3.737   4.703
 2730TIP3    H2 8197   5.969   3.758   4.693
 2731TIP3   OH2 8198   1.167   3.507   5.132
 2731TIP3    H1 8199   1.101   3.524   5.066
 2731TIP3    H2 8200   1.173   3.411   5.135
 2732TIP3   OH2 8201   4.987   4.140   3.791
 2732TIP3    H1 8202   4.917   4.206   3.786
 2732TIP3    H2 8203   4.948   4.060   3.756
 2733TIP3   OH2 8204   1.860   1.574   0.310
 2733TIP3    H1 8205   1.937   1.575   0.253
 2733TIP3    H2 8206   1.834   1.482   0.312
 2734TIP3   OH2 8207   1.244   2.992   0.758
 2734TIP3    H1 8208   1.308   3.014   0.690
 2734TIP3    H2 8209   1.168   3.047   0.737
 2735TIP3   OH2 8210   1.621   5.483   0.845
 2735TIP3    H1 8211   1.528   5.465   0.859
 2735TIP3    H2 8212   1.625   5.577   0.830
 2736TIP3   OH2 8213   1.621   0.763   4.148
 2736TIP3    H1 8214   1.608   0.712   4.068
 2736TIP3    H2 8215   1.606   0.701   4.219
 2737TIP3   OH2 8216   3.726   4.244   2.201
 2737TIP3    H1 8217   3.738   4.306   2.129
 2737TIP3    H2 8218   3.731   4.299   2.280
 2738TIP3   OH2 8219   6.131   5.050   4.973
 2738TIP3    H1 8220   6.123   4.960   4.943
 2738TIP3    H2 8221   6.042   5.086   4.965
 2739TIP3   OH2 8222   4.267   2.604   0.536
 2739TIP3    H1 8223   4.285   2.695   0.562
 2739TIP3    H2 8224   4.184   2.608   0.489
 2740TIP3   OH2 8225   1.938   5.682   3.376
 2740TIP3    H1 8226   1.873   5.724   3.319
 2740TIP3    H2 8227   1.897   5.680   3.462
 2741TIP3   OH2 8228   4.282   3.110   0.216
 2741TIP3    H1 8229   4.216   3.047   0.243
 2741TIP3    H2 8230   4.263   3.189   0.266
 2742TIP3   OH2 8231   1.588   4.466   4.572
 2742TIP3    H1 8232   1.531   4.478   4.496
 2742TIP3    H2 8233   1.641   4.389   4.551
 2743TIP3   OH2 8234   2.765   2.423   1.979
 2743TIP3    H1 8235   2.811   2.499   1.943
 2743TIP3    H2 8236   2.835   2.363   2.005
 2744TIP3   OH2 8237   4.415   5.250   1.413
 2744TIP3    H1 8238   4.408   5.345   1.402
 2744TIP3    H2 8239   4.373   5.215   1.334
 2745TIP3   OH2 8240   2.378   3.608   0.610
 2745TIP3    H1 8241   2.339   3.634   0.694
 2745TIP3    H2 8242   2.460   3.658   0.605
 2746TIP3   OH2 8243   3.272   2.585   3.501
 2746TIP3    H1 8244   3.250   2.592   3.594
 2746TIP3    H2 8245   3.366   2.572   3.500
 2747TIP3   OH2 8246   6.273   5.234   1.517
 2747TIP3    H1 8247   6.225   5.198   1.592
 2747TIP3    H2 8248   6.296   5.323   1.544
 2748TIP3   OH2 8249   2.385   1.049   3.711
 2748TIP3    H1 8250   2.362   1.099   3.633
 2748TIP3    H2 8251   2.478   1.070   3.726
 2749TIP3   OH2 8252   2.771   5.016  -0.009
 2749TIP3    H1 8253   2.737   5.033   0.079
 2749TIP3    H2 8254   2.806   5.100  -0.038
 2750TIP3   OH2 8255   1.057   2.686   3.412
 2750TIP3    H1 8256   0.990   2.630   3.372
 2750TIP3    H2 8257   1.008   2.751   3.462
 2751TIP3   OH2 8258   3.354   1.247   1.313
 2751TIP3    H1 8259   3.443   1.226   1.342
 2751TIP3    H2 8260   3.298   1.187   1.361
 2752TIP3   OH2 8261   0.261   5.407   2.405
 2752TIP3    H1 8262   0.283   5.321   2.440
 2752TIP3    H2 8263   0.338   5.432   2.353
 2753TIP3   OH2 8264   2.341   5.723   4.524
 2753TIP3    H1 8265   2.337   5.784   4.597
 2753TIP3    H2 8266   2.249   5.708   4.500
 2754TIP3   OH2 8267   1.016   2.148   3.354
 2754TIP3    H1 8268   0.961   2.079   3.392
 2754TIP3    H2 8269   1.005   2.222   3.413
 2755TIP3   OH2 8270   3.787   5.802   3.302
 2755TIP3    H1 8271   3.875   5.840   3.302
 2755TIP3    H2 8272   3.768   5.785   3.394
 2756TIP3   OH2 8273   1.903   4.477   0.923
 2756TIP3    H1 8274   1.962   4.405   0.943
 2756TIP3    H2 8275   1.838   4.440   0.864
 2757TIP3   OH2 8276   5.731   1.745   2.160
 2757TIP3    H1 8277   5.718   1.781   2.072
 2757TIP3    H2 8278   5.655   1.775   2.209
 2758TIP3   OH2 8279   4.229   2.596   0.121
 2758TIP3    H1 8280   4.285   2.522   0.098
 2758TIP3    H2 8281   4.280   2.674   0.096
 2759TIP3   OH2 8282   2.015   3.390  -0.006
 2759TIP3    H1 8283   2.051   3.310  -0.042
 2759TIP3    H2 8284   2.026   3.381   0.089
 2760TIP3   OH2 8285   5.081   4.195   0.739
 2760TIP3    H1 8286   5.072   4.115   0.791
 2760TIP3    H2 8287   5.083   4.165   0.648
 2761TIP3   OH2 8288   3.721   2.022   0.865
 2761TIP3    H1 8289   3.631   2.047   0.886
 2761TIP3    H2 8290   3.775   2.079   0.919
 2762TIP3   OH2 8291   0.612   0.559   0.976
 2762TIP3    H1 8292   0.685   0.603   1.019
 2762TIP3    H2 8293   0.534   0.601   1.011
 2763TIP3   OH2 8294   2.123   4.142   0.202
 2763TIP3    H1 8295   2.089   4.175   0.285
 2763TIP3    H2 8296   2.077   4.059   0.189
 2764TIP3   OH2 8297   3.351   1.602   0.389
 2764TIP3    H1 8298   3.298   1.664   0.340
 2764TIP3    H2 8299   3.433   1.649   0.408
 2765TIP3   OH2 8300   1.481   4.701   2.034
 2765TIP3    H1 8301   1.391   4.692   2.002
 2765TIP3    H2 8302   1.532   4.716   1.955
 2766TIP3   OH2 8303   2.615   1.439   1.763
 2766TIP3    H1 8304   2.522   1.420   1.775
 2766TIP3    H2 8305   2.648   1.457   1.852
 2767TIP3   OH2 8306   2.103   4.023   2.575
 2767TIP3    H1 8307   2.008   4.027   2.569
 2767TIP3    H2 8308   2.121   4.021   2.669
 2768TIP3   OH2 8309   4.063   3.233   2.006
 2768TIP3    H1 8310   3.995   3.243   2.073
 2768TIP3    H2 8311   4.132   3.182   2.049
 2769TIP3   OH2 8312   2.309   4.373   3.064
 2769TIP3    H1 8313   2.350   4.448   3.022
 2769TIP3    H2 8314   2.292   4.312   2.993
 2770TIP3   OH2 8315   1.438   5.258   1.287
 2770TIP3    H1 8316   1.485   5.336   1.258
 2770TIP3    H2 8317   1.386   5.230   1.211
 2771TIP3   OH2 8318   3.551   4.500   0.606
 2771TIP3    H1 8319   3.469   4.544   0.582
 2771TIP3    H2 8320   3.528   4.407   0.610
 2772TIP3   OH2 8321   0.244   3.066   4.990
 2772TIP3    H1 8322   0.175   3.110   5.040
 2772TIP3    H2 8323   0.317   3.059   5.052
 2773TIP3   OH2 8324   0.076   1.461   4.370
 2773TIP3    H1 8325   0.072   1.543   4.418
 2773TIP3    H2 8326   0.057   1.394   4.435
 2774TIP3   OH2 8327   1.313   4.230   1.447
 2774TIP3    H1 8328   1.385   4.174   1.475
 2774TIP3    H2 8329   1.279   4.186   1.368
 2775TIP3   OH2 8330   2.175   1.011   0.044
 2775TIP3    H1 8331   2.225   0.986  -0.033
 2775TIP3    H2 8332   2.085   0.985   0.023
 2776TIP3   OH2 8333   6.205   0.077   4.646
 2776TIP3    H1 8334   6.301   0.070   4.643
 2776TIP3    H2 8335   6.178   0.078   4.555
 2777TIP3   OH2 8336   4.520   0.730   3.772
 2777TIP3    H1 8337   4.582   0.793   3.809
 2777TIP3    H2 8338   4.565   0.646   3.776
 2778TIP3   OH2 8339   4.785   4.577   2.027
 2778TIP3    H1 8340   4.779   4.530   1.944
 2778TIP3    H2 8341   4.710   4.637   2.026
 2779TIP3   OH2 8342   0.275   0.370   0.885
 2779TIP3    H1 8343   0.203   0.350   0.825
 2779TIP3    H2 8344   0.293   0.288   0.930
 2780TIP3   OH2 8345   4.710   4.734   4.610
 2780TIP3    H1 8346   4.679   4.647   4.635
 2780TIP3    H2 8347   4.666   4.793   4.671
 2781TIP3   OH2 8348   2.207   1.160   2.540
 2781TIP3    H1 8349   2.117   1.131   2.528
 2781TIP3    H2 8350   2.258   1.079   2.547
 2782TIP3   OH2 8351   0.085   5.846   3.342
 2782TIP3    H1 8352   0.134   5.796   3.276
 2782TIP3    H2 8353   0.001   5.799   3.349
 2783TIP3   OH2 8354   0.679   1.324   4.145
 2783TIP3    H1 8355   0.646   1.254   4.202
 2783TIP3    H2 8356   0.601   1.373   4.119
 2784TIP3   OH2 8357   0.756   0.077   1.138
 2784TIP3    H1 8358   0.711   0.161   1.123
 2784TIP3    H2 8359   0.810   0.066   1.059
 2785TIP3   OH2 8360   4.982   3.591   0.040
 2785TIP3    H1 8361   5.034   3.518   0.007
 2785TIP3    H2 8362   5.042   3.639   0.098
 2786TIP3   OH2 8363   5.017   0.195   3.654
 2786TIP3    H1 8364   5.095   0.141   3.666
 2786TIP3    H2 8365   5.042   0.260   3.588
 2787TIP3   OH2 8366   5.916   3.944   2.336
 2787TIP3    H1 8367   5.951   3.860   2.364
 2787TIP3    H2 8368   5.832   3.923   2.295
 2788TIP3   OH2 8369   1.898   3.293   2.642
 2788TIP3    H1 8370   1.821   3.236   2.638
 2788TIP3    H2 8371   1.970   3.238   2.609
 2789TIP3   OH2 8372   1.477   3.004   4.754
 2789TIP3    H1 8373   1.424   2.941   4.704
 2789TIP3    H2 8374   1.520   3.057   4.687
 2790TIP3   OH2 8375   3.077   1.990   2.566
 2790TIP3    H1 8376   3.150   2.043   2.534
 2790TIP3    H2 8377   3.118   1.909   2.596
 2791TIP3   OH2 8378   4.506   4.787   3.812
 2791TIP3    H1 8379   4.582   4.832   3.776
 2791TIP3    H2 8380   4.499   4.706   3.761
 2792TIP3   OH2 8381   6.304   1.252   1.349
 2792TIP3    H1 8382   6.357   1.253   1.269
 2792TIP3    H2 8383   6.216   1.230   1.319
 2793TIP3   OH2 8384   5.200   4.567   0.254
 2793TIP3    H1 8385   5.187   4.547   0.162
 2793TIP3    H2 8386   5.258   4.498   0.286
 2794TIP3   OH2 8387   5.631   1.317   0.945
 2794TIP3    H1 8388   5.723   1.342   0.932
 2794TIP3    H2 8389   5.617   1.325   1.040
 2795TIP3   OH2 8390   5.785   0.013   0.315
 2795TIP3    H1 8391   5.733   0.054   0.246
 2795TIP3    H2 8392   5.760   0.060   0.394
 2796TIP3   OH2 8393   5.794   4.059   4.178
 2796TIP3    H1 8394   5.698   4.059   4.177
 2796TIP3    H2 8395   5.817   3.969   4.202
 2797TIP3   OH2 8396   3.869   2.959   3.232
 2797TIP3    H1 8397   3.919   2.968   3.151
 2797TIP3    H2 8398   3.778   2.954   3.204
 2798TIP3   OH2 8399   6.122   0.093   4.389
 2798TIP3    H1 8400   6.032   0.084   4.418
 2798TIP3    H2 8401   6.119   0.081   4.294
 2799TIP3   OH2 8402   2.021   2.369   1.807
 2799TIP3    H1 8403   2.051   2.404   1.723
 2799TIP3    H2 8404   1.926   2.371   1.801
 2800TIP3   OH2 8405   5.099   2.350   1.976
 2800TIP3    H1 8406   5.005   2.362   1.962
 2800TIP3    H2 8407   5.131   2.438   1.997
 2801TIP3   OH2 8408   2.780   5.835   2.883
 2801TIP3    H1 8409   2.847   5.858   2.819
 2801TIP3    H2 8410   2.730   5.915   2.896
 2802TIP3   OH2 8411   3.465   5.953   3.477
 2802TIP3    H1 8412   3.398   5.952   3.409
 2802TIP3    H2 8413   3.491   6.044   3.483
 2803TIP3   OH2 8414   3.753   2.116   3.877
 2803TIP3    H1 8415   3.661   2.128   3.851
 2803TIP3    H2 8416   3.786   2.048   3.818
 2804TIP3   OH2 8417   4.106   4.666   1.813
 2804TIP3    H1 8418   4.171   4.626   1.870
 2804TIP3    H2 8419   4.140   4.754   1.795
 2805TIP3   OH2 8420   2.288   0.021   1.419
 2805TIP3    H1 8421   2.207   0.032   1.369
 2805TIP3    H2 8422   2.338   0.101   1.402
 2806TIP3   OH2 8423   4.740   1.255   2.235
 2806TIP3    H1 8424   4.690   1.287   2.310
 2806TIP3    H2 8425   4.719   1.316   2.164
 2807TIP3   OH2 8426   2.102   4.640   0.738
 2807TIP3    H1 8427   2.168   4.595   0.791
 2807TIP3    H2 8428   2.058   4.699   0.799
 2808TIP3   OH2 8429   2.062   1.547   4.923
 2808TIP3    H1 8430   1.994   1.490   4.957
 2808TIP3    H2 8431   2.024   1.635   4.926
 2809TIP3   OH2 8432   0.237   2.212   4.826
 2809TIP3    H1 8433   0.298   2.233   4.756
 2809TIP3    H2 8434   0.283   2.236   4.907
 2810TIP3   OH2 8435   3.207   4.183   5.012
 2810TIP3    H1 8436   3.229   4.240   4.939
 2810TIP3    H2 8437   3.189   4.242   5.085
 2811TIP3   OH2 8438   1.877   2.785   4.016
 2811TIP3    H1 8439   1.888   2.855   4.080
 2811TIP3    H2 8440   1.879   2.830   3.931
 2812TIP3   OH2 8441   0.523   3.313   4.716
 2812TIP3    H1 8442   0.446   3.362   4.745
 2812TIP3    H2 8443   0.500   3.282   4.628
 2813TIP3   OH2 8444   2.788   3.460   1.048
 2813TIP3    H1 8445   2.783   3.377   1.097
 2813TIP3    H2 8446   2.700   3.474   1.015
 2814TIP3   OH2 8447   4.360   0.758   1.593
 2814TIP3    H1 8448   4.302   0.692   1.556
 2814TIP3    H2 8449   4.302   0.831   1.614
 2815TIP3   OH2 8450   2.770   1.574   0.583
 2815TIP3    H1 8451   2.686   1.607   0.615
 2815TIP3    H2 8452   2.747   1.513   0.513
 2816TIP3   OH2 8453   2.493   3.453   4.285
 2816TIP3    H1 8454   2.534   3.377   4.325
 2816TIP3    H2 8455   2.548   3.473   4.209
 2817TIP3   OH2 8456   3.414   2.371   2.095
 2817TIP3    H1 8457   3.507   2.346   2.088
 2817TIP3    H2 8458   3.376   2.340   2.012
 2818TIP3   OH2 8459   3.102   3.739   4.239
 2818TIP3    H1 8460   3.128   3.656   4.279
 2818TIP3    H2 8461   3.170   3.757   4.175
 2819TIP3   OH2 8462   0.147   3.053   0.879
 2819TIP3    H1 8463   0.077   3.115   0.899
 2819TIP3    H2 8464   0.208   3.103   0.825
 2820TIP3   OH2 8465   6.306   1.048   0.617
 2820TIP3    H1 8466   6.258   1.098   0.551
 2820TIP3    H2 8467   6.345   0.975   0.568
 2821TIP3   OH2 8468   2.328   3.540   0.159
 2821TIP3    H1 8469   2.242   3.505   0.180
 2821TIP3    H2 8470   2.378   3.465   0.128
 2822TIP3   OH2 8471   2.584   2.949   4.487
 2822TIP3    H1 8472   2.600   3.010   4.415
 2822TIP3    H2 8473   2.489   2.943   4.494
 2823TIP3   OH2 8474   1.146   5.539   3.733
 2823TIP3    H1 8475   1.180   5.476   3.670
 2823TIP3    H2 8476   1.073   5.582   3.688
 2824TIP3   OH2 8477   2.006   5.757   1.851
 2824TIP3    H1 8478   1.954   5.809   1.789
 2824TIP3    H2 8479   1.967   5.669   1.847
 2825TIP3   OH2 8480   2.337   2.005   1.500
 2825TIP3    H1 8481   2.261   2.044   1.542
 2825TIP3    H2 8482   2.366   2.070   1.436
 2826TIP3   OH2 8483   1.105   1.687   0.878
 2826TIP3    H1 8484   1.127   1.780   0.880
 2826TIP3    H2 8485   1.115   1.657   0.968
 2827TIP3   OH2 8486   2.585   4.824   2.857
 2827TIP3    H1 8487   2.546   4.912   2.858
 2827TIP3    H2 8488   2.609   4.808   2.949
 2828TIP3   OH2 8489   4.689   3.563   1.160
 2828TIP3    H1 8490   4.665   3.642   1.111
 2828TIP3    H2 8491   4.676   3.588   1.252
 2829TIP3   OH2 8492   3.968   3.831   1.260
 2829TIP3    H1 8493   3.957   3.922   1.230
 2829TIP3    H2 8494   3.888   3.787   1.233
 2830TIP3   OH2 8495   4.890   2.113   3.392
 2830TIP3    H1 8496   4.920   2.109   3.301
 2830TIP3    H2 8497   4.845   2.029   3.405
 2831TIP3   OH2 8498   3.175   1.429   0.062
 2831TIP3    H1 8499   3.116   1.368   0.017
 2831TIP3    H2 8500   3.147   1.427   0.153
 2832TIP3   OH2 8501   5.917   5.607   3.605
 2832TIP3    H1 8502   5.918   5.677   3.540
 2832TIP3    H2 8503   5.965   5.642   3.680
 2833TIP3   OH2 8504   6.086   2.956   4.904
 2833TIP3    H1 8505   6.135   2.990   4.979
 2833TIP3    H2 8506   6.050   2.872   4.935
 2834TIP3   OH2 8507   3.559   1.221   4.225
 2834TIP3    H1 8508   3.634   1.277   4.206
 2834TIP3    H2 8509   3.597   1.143   4.265
 2835TIP3   OH2 8510   5.967   5.377   2.591
 2835TIP3    H1 8511   5.926   5.461   2.575
 2835TIP3    H2 8512   5.986   5.377   2.685
 2836TIP3   OH2 8513   0.373   4.482   1.641
 2836TIP3    H1 8514   0.417   4.399   1.623
 2836TIP3    H2 8515   0.407   4.542   1.575
 2837TIP3   OH2 8516   6.051   0.919   4.459
 2837TIP3    H1 8517   6.120   0.856   4.477
 2837TIP3    H2 8518   6.091   0.983   4.399
 2838TIP3   OH2 8519   0.574   0.531   3.467
 2838TIP3    H1 8520   0.500   0.582   3.499
 2838TIP3    H2 8521   0.614   0.588   3.401
 2839TIP3   OH2 8522   3.754   5.144   3.636
 2839TIP3    H1 8523   3.676   5.190   3.604
 2839TIP3    H2 8524   3.766   5.175   3.725
 2840TIP3   OH2 8525   3.657   2.098   4.935
 2840TIP3    H1 8526   3.745   2.075   4.964
 2840TIP3    H2 8527   3.671   2.152   4.857
 2841TIP3   OH2 8528   1.562   2.118   1.767
 2841TIP3    H1 8529   1.541   2.133   1.859
 2841TIP3    H2 8530   1.541   2.026   1.751
 2842TIP3   OH2 8531   6.180   0.523   0.761
 2842TIP3    H1 8532   6.275   0.521   0.775
 2842TIP3    H2 8533   6.161   0.614   0.739
 2843TIP3   OH2 8534   0.624   5.000   1.417
 2843TIP3    H1 8535   0.594   5.033   1.502
 2843TIP3    H2 8536   0.593   5.064   1.353
 2844TIP3   OH2 8537   3.926   2.178   0.988
 2844TIP3    H1 8538   3.966   2.115   1.047
 2844TIP3    H2 8539   3.999   2.229   0.953
 2845TIP3   OH2 8540   0.997   2.985   0.217
 2845TIP3    H1 8541   0.975   2.937   0.297
 2845TIP3    H2 8542   1.030   3.069   0.248
 2846TIP3   OH2 8543   0.992   5.074   2.682
 2846TIP3    H1 8544   1.006   5.089   2.776
 2846TIP3    H2 8545   0.911   5.024   2.678
 2847TIP3   OH2 8546   5.130   3.208   3.439
 2847TIP3    H1 8547   5.177   3.235   3.360
 2847TIP3    H2 8548   5.048   3.171   3.408
 2848TIP3   OH2 8549   3.219   0.591   1.724
 2848TIP3    H1 8550   3.229   0.638   1.806
 2848TIP3    H2 8551   3.129   0.559   1.725
 2849TIP3   OH2 8552   0.672   5.692   4.593
 2849TIP3    H1 8553   0.749   5.660   4.546
 2849TIP3    H2 8554   0.661   5.782   4.562
 2850TIP3   OH2 8555   5.073   0.649   3.351
 2850TIP3    H1 8556   5.099   0.733   3.387
 2850TIP3    H2 8557   5.036   0.670   3.265
 2851TIP3   OH2 8558   0.345   4.685   0.926
 2851TIP3    H1 8559   0.251   4.683   0.941
 2851TIP3    H2 8560   0.355   4.704   0.833
 2852TIP3   OH2 8561   4.145   4.232   2.413
 2852TIP3    H1 8562   4.127   4.312   2.363
 2852TIP3    H2 8563   4.140   4.162   2.348
 2853TIP3   OH2 8564   4.058   1.451   0.877
 2853TIP3    H1 8565   3.987   1.419   0.821
 2853TIP3    H2 8566   4.028   1.537   0.906
 2854TIP3   OH2 8567   2.126   1.552   0.219
 2854TIP3    H1 8568   2.171   1.523   0.298
 2854TIP3    H2 8569   2.121   1.473   0.165
 2855TIP3   OH2 8570   5.759   2.033   3.796
 2855TIP3    H1 8571   5.764   2.082   3.714
 2855TIP3    H2 8572   5.849   2.006   3.814
 2856TIP3   OH2 8573   0.410   0.948   2.933
 2856TIP3    H1 8574   0.379   0.866   2.895
 2856TIP3    H2 8575   0.473   0.982   2.870
 2857TIP3   OH2 8576   0.959   4.202   3.391
 2857TIP3    H1 8577   0.922   4.117   3.368
 2857TIP3    H2 8578   1.052   4.194   3.371
 2858TIP3   OH2 8579   5.302   5.429   3.844
 2858TIP3    H1 8580   5.239   5.387   3.901
 2858TIP3    H2 8581   5.312   5.368   3.770
 2859TIP3   OH2 8582   2.228   0.446   2.482
 2859TIP3    H1 8583   2.159   0.381   2.475
 2859TIP3    H2 8584   2.244   0.475   2.392
 2860TIP3   OH2 8585   5.554   5.563   3.809
 2860TIP3    H1 8586   5.481   5.507   3.836
 2860TIP3    H2 8587   5.568   5.623   3.882
 2861TIP3   OH2 8588   2.871   3.319   2.336
 2861TIP3    H1 8589   2.935   3.259   2.374
 2861TIP3    H2 8590   2.866   3.392   2.398
 2862TIP3   OH2 8591   5.052   1.817   3.753
 2862TIP3    H1 8592   4.981   1.817   3.688
 2862TIP3    H2 8593   5.007   1.811   3.837
 2863TIP3   OH2 8594   4.219   3.892   4.779
 2863TIP3    H1 8595   4.291   3.829   4.777
 2863TIP3    H2 8596   4.235   3.950   4.705
 2864TIP3   OH2 8597   1.699   1.408   2.014
 2864TIP3    H1 8598   1.688   1.333   2.073
 2864TIP3    H2 8599   1.718   1.481   2.073
 2865TIP3   OH2 8600   5.748   1.100   4.809
 2865TIP3    H1 8601   5.728   1.102   4.902
 2865TIP3    H2 8602   5.772   1.190   4.787
 2866TIP3   OH2 8603   1.554   1.389   2.391
 2866TIP3    H1 8604   1.612   1.465   2.401
 2866TIP3    H2 8605   1.614   1.317   2.370
 2867TIP3   OH2 8606   2.110   2.475   4.411
 2867TIP3    H1 8607   2.075   2.503   4.327
 2867TIP3    H2 8608   2.039   2.490   4.473
 2868TIP3   OH2 8609   1.952   4.578   1.826
 2868TIP3    H1 8610   1.883   4.602   1.888
 2868TIP3    H2 8611   1.978   4.660   1.785
 2869TIP3   OH2 8612   5.236   3.705   0.196
 2869TIP3    H1 8613   5.281   3.624   0.223
 2869TIP3    H2 8614   5.251   3.766   0.269
 2870TIP3   OH2 8615   2.930   0.412   5.013
 2870TIP3    H1 8616   2.840   0.386   5.035
 2870TIP3    H2 8617   2.976   0.329   5.000
 2871TIP3   OH2 8618   4.669   1.920   0.065
 2871TIP3    H1 8619   4.752   1.957   0.036
 2871TIP3    H2 8620   4.666   1.938   0.159
 2872TIP3   OH2 8621   5.111   4.595   3.218
 2872TIP3    H1 8622   5.185   4.560   3.268
 2872TIP3    H2 8623   5.056   4.637   3.284
 2873TIP3   OH2 8624   4.916   1.925   1.778
 2873TIP3    H1 8625   4.928   1.849   1.721
 2873TIP3    H2 8626   4.922   1.890   1.866
 2874TIP3   OH2 8627   2.526   2.041   4.611
 2874TIP3    H1 8628   2.543   1.982   4.538
 2874TIP3    H2 8629   2.513   1.983   4.686
 2875TIP3   OH2 8630   2.661   4.770   3.979
 2875TIP3    H1 8631   2.628   4.686   3.948
 2875TIP3    H2 8632   2.748   4.750   4.015
 2876TIP3   OH2 8633   2.859   5.784   3.609
 2876TIP3    H1 8634   2.766   5.763   3.603
 2876TIP3    H2 8635   2.902   5.714   3.560
 2877TIP3   OH2 8636   3.919   3.154   2.415
 2877TIP3    H1 8637   3.950   3.242   2.436
 2877TIP3    H2 8638   3.949   3.100   2.488
 2878TIP3   OH2 8639   2.960   0.817   4.645
 2878TIP3    H1 8640   2.949   0.754   4.574
 2878TIP3    H2 8641   3.001   0.767   4.715
 2879TIP3   OH2 8642   1.823   2.633   5.155
 2879TIP3    H1 8643   1.848   2.694   5.086
 2879TIP3    H2 8644   1.745   2.672   5.195
 2880TIP3   OH2 8645   1.890   3.756   4.518
 2880TIP3    H1 8646   1.828   3.703   4.468
 2880TIP3    H2 8647   1.974   3.709   4.509
 2881TIP3   OH2 8648   1.965   2.534   0.180
 2881TIP3    H1 8649   2.044   2.523   0.232
 2881TIP3    H2 8650   1.918   2.451   0.188
 2882TIP3   OH2 8651   0.116   5.387   3.934
 2882TIP3    H1 8652   0.168   5.387   4.014
 2882TIP3    H2 8653   0.169   5.433   3.870
 2883TIP3   OH2 8654   0.824   1.222   0.233
 2883TIP3    H1 8655   0.851   1.253   0.319
 2883TIP3    H2 8656   0.785   1.299   0.191
 2884TIP3   OH2 8657   2.719   0.887   3.291
 2884TIP3    H1 8658   2.756   0.827   3.227
 2884TIP3    H2 8659   2.793   0.941   3.320
 2885TIP3   OH2 8660   2.725   1.586   2.941
 2885TIP3    H1 8661   2.760   1.499   2.960
 2885TIP3    H2 8662   2.659   1.571   2.873
 2886TIP3   OH2 8663   1.612   1.923   4.996
 2886TIP3    H1 8664   1.583   1.857   5.058
 2886TIP3    H2 8665   1.589   2.007   5.038
 2887TIP3   OH2 8666   6.015   0.974   2.937
 2887TIP3    H1 8667   5.982   1.001   2.851
 2887TIP3    H2 8668   5.937   0.977   2.994
 2888TIP3   OH2 8669   4.725   1.122   3.117
 2888TIP3    H1 8670   4.745   1.069   3.195
 2888TIP3    H2 8671   4.644   1.083   3.083
 2889TIP3   OH2 8672   4.221   1.526   0.032
 2889TIP3    H1 8673   4.216   1.587  -0.042
 2889TIP3    H2 8674   4.315   1.511   0.044
 2890TIP3   OH2 8675   2.944   4.336   2.561
 2890TIP3    H1 8676   2.940   4.290   2.477
 2890TIP3    H2 8677   3.037   4.346   2.579
 2891TIP3   OH2 8678   0.827   3.300   1.988
 2891TIP3    H1 8679   0.887   3.324   1.918
 2891TIP3    H2 8680   0.741   3.302   1.947
 2892TIP3   OH2 8681   0.937   3.412   4.220
 2892TIP3    H1 8682   0.948   3.468   4.142
 2892TIP3    H2 8683   1.013   3.432   4.275
 2893TIP3   OH2 8684   3.186   5.566   4.445
 2893TIP3    H1 8685   3.247   5.635   4.420
 2893TIP3    H2 8686   3.198   5.498   4.379
 2894TIP3   OH2 8687   3.506   5.168   3.047
 2894TIP3    H1 8688   3.540   5.145   2.960
 2894TIP3    H2 8689   3.478   5.084   3.084
 2895TIP3   OH2 8690   5.908   4.004   3.087
 2895TIP3    H1 8691   5.845   4.052   3.141
 2895TIP3    H2 8692   5.942   3.935   3.144
 2896TIP3   OH2 8693   5.549   5.544   5.007
 2896TIP3    H1 8694   5.477   5.508   4.956
 2896TIP3    H2 8695   5.521   5.534   5.098
 2897TIP3   OH2 8696   3.590   5.561   1.884
 2897TIP3    H1 8697   3.546   5.644   1.864
 2897TIP3    H2 8698   3.520   5.504   1.916
 2898TIP3   OH2 8699   2.345   4.956   4.596
 2898TIP3    H1 8700   2.371   5.039   4.637
 2898TIP3    H2 8701   2.274   4.924   4.651
 2899TIP3   OH2 8702   2.171   3.927   4.079
 2899TIP3    H1 8703   2.119   4.001   4.049
 2899TIP3    H2 8704   2.168   3.933   4.175
 2900TIP3   OH2 8705   3.877   5.705   1.670
 2900TIP3    H1 8706   3.842   5.623   1.705
 2900TIP3    H2 8707   3.806   5.768   1.681
 2901TIP3   OH2 8708   5.049   3.932   0.254
 2901TIP3    H1 8709   4.961   3.908   0.225
 2901TIP3    H2 8710   5.097   3.850   0.253
 2902TIP3   OH2 8711   5.764   3.554   4.044
 2902TIP3    H1 8712   5.693   3.491   4.037
 2902TIP3    H2 8713   5.836   3.514   3.995
 2903TIP3   OH2 8714   0.537   3.503   4.113
 2903TIP3    H1 8715   0.458   3.448   4.112
 2903TIP3    H2 8716   0.547   3.531   4.022
 2904TIP3   OH2 8717   0.546   1.006   0.104
 2904TIP3    H1 8718   0.595   1.016   0.022
 2904TIP3    H2 8719   0.467   0.958   0.079
 2905TIP3   OH2 8720   0.415   1.279   5.076
 2905TIP3    H1 8721   0.362   1.358   5.064
 2905TIP3    H2 8722   0.351   1.208   5.073
 2906TIP3   OH2 8723   1.400   2.710   0.464
 2906TIP3    H1 8724   1.363   2.780   0.410
 2906TIP3    H2 8725   1.325   2.654   0.486
 2907TIP3   OH2 8726   0.196   4.025   1.088
 2907TIP3    H1 8727   0.133   3.957   1.112
 2907TIP3    H2 8728   0.155   4.070   1.013
 2908TIP3   OH2 8729   2.734   3.949   0.804
 2908TIP3    H1 8730   2.735   3.976   0.712
 2908TIP3    H2 8731   2.780   3.866   0.806
 2909TIP3   OH2 8732   2.249   2.130   2.115
 2909TIP3    H1 8733   2.159   2.153   2.136
 2909TIP3    H2 8734   2.278   2.074   2.187
 2910TIP3   OH2 8735   4.143   4.188   2.681
 2910TIP3    H1 8736   4.204   4.115   2.670
 2910TIP3    H2 8737   4.145   4.234   2.597
 2911TIP3   OH2 8738   6.330   2.693   4.132
 2911TIP3    H1 8739   6.422   2.680   4.112
 2911TIP3    H2 8740   6.284   2.673   4.050
 2912TIP3   OH2 8741   1.062   2.382   1.465
 2912TIP3    H1 8742   1.138   2.344   1.510
 2912TIP3    H2 8743   1.084   2.474   1.456
 2913TIP3   OH2 8744   6.006   4.508   0.559
 2913TIP3    H1 8745   5.916   4.476   0.553
 2913TIP3    H2 8746   6.048   4.479   0.478
 2914TIP3   OH2 8747   5.320   5.799   2.109
 2914TIP3    H1 8748   5.296   5.763   2.024
 2914TIP3    H2 8749   5.247   5.855   2.134
 2915TIP3   OH2 8750   1.679   3.295   4.709
 2915TIP3    H1 8751   1.763   3.339   4.698
 2915TIP3    H2 8752   1.673   3.235   4.635
 2916TIP3   OH2 8753   2.557   2.917   0.556
 2916TIP3    H1 8754   2.621   2.968   0.506
 2916TIP3    H2 8755   2.606   2.840   0.584
 2917TIP3   OH2 8756   1.127   0.537   3.634
 2917TIP3    H1 8757   1.184   0.462   3.618
 2917TIP3    H2 8758   1.186   0.605   3.667
 2918TIP3   OH2 8759   0.026   2.843   3.629
 2918TIP3    H1 8760   0.080   2.781   3.678
 2918TIP3    H2 8761   0.016   2.803   3.543
 2919TIP3   OH2 8762   5.755   0.181   1.238
 2919TIP3    H1 8763   5.708   0.247   1.187
 2919TIP3    H2 8764   5.784   0.227   1.316
 2920TIP3   OH2 8765   5.314   2.125   2.314
 2920TIP3    H1 8766   5.387   2.111   2.375
 2920TIP3    H2 8767   5.248   2.170   2.366
 2921TIP3   OH2 8768   2.280   4.151   4.471
 2921TIP3    H1 8769   2.270   4.239   4.436
 2921TIP3    H2 8770   2.318   4.163   4.558
 2922TIP3   OH2 8771   3.989   4.876   2.591
 2922TIP3    H1 8772   3.995   4.793   2.638
 2922TIP3    H2 8773   3.975   4.941   2.661
 2923TIP3   OH2 8774   0.932   0.930   2.828
 2923TIP3    H1 8775   0.853   0.890   2.864
 2923TIP3    H2 8776   0.925   0.913   2.733
 2924TIP3   OH2 8777   0.228   1.665   0.255
 2924TIP3    H1 8778   0.211   1.724   0.181
 2924TIP3    H2 8779   0.314   1.692   0.288
 2925TIP3   OH2 8780   6.242   5.602   3.132
 2925TIP3    H1 8781   6.179   5.548   3.180
 2925TIP3    H2 8782   6.312   5.542   3.109
 2926TIP3   OH2 8783   2.084   0.194   2.226
 2926TIP3    H1 8784   2.103   0.193   2.320
 2926TIP3    H2 8785   2.125   0.274   2.194
 2927TIP3   OH2 8786   3.128   1.014   2.065
 2927TIP3    H1 8787   3.050   1.064   2.087
 2927TIP3    H2 8788   3.178   1.008   2.147
 2928TIP3   OH2 8789   2.834   3.863   4.164
 2928TIP3    H1 8790   2.896   3.887   4.096
 2928TIP3    H2 8791   2.888   3.824   4.233
 2929TIP3   OH2 8792   3.258   4.053   2.233
 2929TIP3    H1 8793   3.244   4.040   2.327
 2929TIP3    H2 8794   3.223   3.974   2.192
 2930TIP3   OH2 8795   4.776   0.941   0.867
 2930TIP3    H1 8796   4.737   0.944   0.955
 2930TIP3    H2 8797   4.701   0.933   0.808
 2931TIP3   OH2 8798   3.605   1.398   5.154
 2931TIP3    H1 8799   3.652   1.468   5.108
 2931TIP3    H2 8800   3.637   1.317   5.114
 2932TIP3   OH2 8801   2.185   2.814   0.978
 2932TIP3    H1 8802   2.150   2.852   1.058
 2932TIP3    H2 8803   2.271   2.855   0.967
 2933TIP3   OH2 8804   2.496   1.063   3.234
 2933TIP3    H1 8805   2.571   1.014   3.267
 2933TIP3    H2 8806   2.530   1.150   3.216
 2934TIP3   OH2 8807   1.150   0.066   3.713
 2934TIP3    H1 8808   1.171   0.136   3.775
 2934TIP3    H2 8809   1.194   0.092   3.632
 2935TIP3   OH2 8810   2.287   5.006   0.026
 2935TIP3    H1 8811   2.256   4.987   0.115
 2935TIP3    H2 8812   2.245   5.089   0.003
 2936TIP3   OH2 8813   0.363   4.602   3.464
 2936TIP3    H1 8814   0.367   4.538   3.535
 2936TIP3    H2 8815   0.392   4.554   3.387
 2937TIP3   OH2 8816   1.049   4.896   0.541
 2937TIP3    H1 8817   0.980   4.844   0.583
 2937TIP3    H2 8818   1.130   4.868   0.583
 2938TIP3   OH2 8819   2.027   1.766   0.910
 2938TIP3    H1 8820   2.090   1.730   0.973
 2938TIP3    H2 8821   2.067   1.751   0.825
 2939TIP3   OH2 8822   3.661   0.872   0.501
 2939TIP3    H1 8823   3.668   0.807   0.431
 2939TIP3    H2 8824   3.738   0.856   0.556
 2940TIP3   OH2 8825   5.132   4.667   1.424
 2940TIP3    H1 8826   5.042   4.698   1.434
 2940TIP3    H2 8827   5.127   4.574   1.446
 2941TIP3   OH2 8828   5.598   1.663   4.933
 2941TIP3    H1 8829   5.569   1.607   4.861
 2941TIP3    H2 8830   5.691   1.642   4.944
 2942TIP3   OH2 8831   5.505   4.088   4.119
 2942TIP3    H1 8832   5.442   4.053   4.055
 2942TIP3    H2 8833   5.450   4.134   4.183
 2943TIP3   OH2 8834   3.163   1.800   0.328
 2943TIP3    H1 8835   3.098   1.771   0.393
 2943TIP3    H2 8836   3.226   1.852   0.377
 2944TIP3   OH2 8837   5.151   2.323   2.459
 2944TIP3    H1 8838   5.073   2.362   2.498
 2944TIP3    H2 8839   5.199   2.286   2.533
 2945TIP3   OH2 8840   4.232   0.506   2.476
 2945TIP3    H1 8841   4.246   0.492   2.570
 2945TIP3    H2 8842   4.213   0.600   2.468
 2946TIP3   OH2 8843   0.700   1.521   4.886
 2946TIP3    H1 8844   0.636   1.585   4.919
 2946TIP3    H2 8845   0.782   1.571   4.880
 2947TIP3   OH2 8846   1.425   0.484   1.062
 2947TIP3    H1 8847   1.419   0.554   0.997
 2947TIP3    H2 8848   1.334   0.464   1.085
 2948TIP3   OH2 8849   4.277   3.472   2.897
 2948TIP3    H1 8850   4.217   3.498   2.967
 2948TIP3    H2 8851   4.279   3.548   2.838
 2949TIP3   OH2 8852   3.648   2.187   1.323
 2949TIP3    H1 8853   3.717   2.127   1.351
 2949TIP3    H2 8854   3.684   2.274   1.339
 2950TIP3   OH2 8855   5.165   1.484   1.415
 2950TIP3    H1 8856   5.115   1.407   1.385
 2950TIP3    H2 8857   5.158   1.481   1.511
 2951TIP3   OH2 8858   2.022   0.277   4.450
 2951TIP3    H1 8859   1.971   0.354   4.425
 2951TIP3    H2 8860   1.990   0.254   4.537
 2952TIP3   OH2 8861   2.196   0.061   3.046
 2952TIP3    H1 8862   2.229  -0.003   2.983
 2952TIP3    H2 8863   2.123   0.105   3.001
 2953TIP3   OH2 8864   2.516   5.198   4.455
 2953TIP3    H1 8865   2.429   5.162   4.443
 2953TIP3    H2 8866   2.512   5.244   4.539
 2954TIP3   OH2 8867   6.012   0.850  -0.019
 2954TIP3    H1 8868   6.088   0.820  -0.068
 2954TIP3    H2 8869   6.046   0.918   0.039
 2955TIP3   OH2 8870   0.842   1.481   3.987
 2955TIP3    H1 8871   0.840   1.387   4.002
 2955TIP3    H2 8872   0.787   1.518   4.056
 2956TIP3   OH2 8873   4.661   3.870   3.750
 2956TIP3    H1 8874   4.746   3.906   3.724
 2956TIP3    H2 8875   4.667   3.777   3.729
 2957TIP3   OH2 8876   3.998   5.806   1.185
 2957TIP3    H1 8877   3.937   5.778   1.253
 2957TIP3    H2 8878   3.944   5.818   1.107
 2958TIP3   OH2 8879   5.525   5.625   1.622
 2958TIP3    H1 8880   5.564   5.710   1.599
 2958TIP3    H2 8881   5.510   5.582   1.538
 2959TIP3   OH2 8882   0.118   1.825   1.276
 2959TIP3    H1 8883   0.171   1.754   1.238
 2959TIP3    H2 8884   0.175   1.902   1.271
 2960TIP3   OH2 8885   6.148   5.876   3.366
 2960TIP3    H1 8886   6.182   5.958   3.330
 2960TIP3    H2 8887   6.059   5.869   3.329
 2961TIP3   OH2 8888   5.993   5.148   2.811
 2961TIP3    H1 8889   6.088   5.152   2.823
 2961TIP3    H2 8890   5.980   5.072   2.754
 2962TIP3   OH2 8891   0.619   3.780   1.323
 2962TIP3    H1 8892   0.528   3.771   1.296
 2962TIP3    H2 8893   0.651   3.690   1.333
 2963TIP3   OH2 8894   3.739   4.708   1.427
 2963TIP3    H1 8895   3.654   4.732   1.464
 2963TIP3    H2 8896   3.739   4.612   1.432
 2964TIP3   OH2 8897   2.322   3.187   0.791
 2964TIP3    H1 8898   2.284   3.237   0.718
 2964TIP3    H2 8899   2.247   3.142   0.831
 2965TIP3   OH2 8900   5.516   0.328   3.685
 2965TIP3    H1 8901   5.562   0.410   3.703
 2965TIP3    H2 8902   5.479   0.302   3.770
 2966TIP3   OH2 8903   5.514   5.072   0.204
 2966TIP3    H1 8904   5.449   5.001   0.204
 2966TIP3    H2 8905   5.578   5.046   0.138
 2967TIP3   OH2 8906   4.398   5.541   2.099
 2967TIP3    H1 8907   4.386   5.484   2.023
 2967TIP3    H2 8908   4.312   5.546   2.139
 2968TIP3   OH2 8909   2.357   2.187   4.391
 2968TIP3    H1 8910   2.384   2.261   4.336
 2968TIP3    H2 8911   2.437   2.135   4.401
 2969TIP3   OH2 8912   2.156   5.963   3.662
 2969TIP3    H1 8913   2.111   6.015   3.729
 2969TIP3    H2 8914   2.213   5.905   3.711
 2970TIP3   OH2 8915   4.268   5.545   4.300
 2970TIP3    H1 8916   4.209   5.621   4.308
 2970TIP3    H2 8917   4.319   5.547   4.381
 2971TIP3   OH2 8918   0.570   0.084   2.407
 2971TIP3    H1 8919   0.662   0.059   2.401
 2971TIP3    H2 8920   0.543   0.103   2.317
 2972TIP3   OH2 8921   1.264   5.920   2.945
 2972TIP3    H1 8922   1.213   5.949   2.869
 2972TIP3    H2 8923   1.297   6.001   2.983
 2973TIP3   OH2 8924   3.443   5.389   2.253
 2973TIP3    H1 8925   3.490   5.349   2.181
 2973TIP3    H2 8926   3.500   5.460   2.283
 2974TIP3   OH2 8927   0.744   1.069   3.498
 2974TIP3    H1 8928   0.818   1.034   3.448
 2974TIP3    H2 8929   0.778   1.078   3.587
 2975TIP3   OH2 8930   1.605   3.016   0.353
 2975TIP3    H1 8931   1.682   2.959   0.362
 2975TIP3    H2 8932   1.636   3.088   0.298
 2976TIP3   OH2 8933   4.732   4.852   0.725
 2976TIP3    H1 8934   4.710   4.773   0.775
 2976TIP3    H2 8935   4.768   4.912   0.790
 2977TIP3   OH2 8936   1.026   3.567   0.577
 2977TIP3    H1 8937   0.932   3.563   0.562
 2977TIP3    H2 8938   1.043   3.659   0.601
 2978TIP3   OH2 8939   1.932   5.828   2.141
 2978TIP3    H1 8940   2.007   5.806   2.086
 2978TIP3    H2 8941   1.862   5.849   2.080
 2979TIP3   OH2 8942   1.459   5.513   1.457
 2979TIP3    H1 8943   1.499   5.598   1.476
 2979TIP3    H2 8944   1.495   5.487   1.373
 2980TIP3   OH2 8945   1.165   3.335   4.405
 2980TIP3    H1 8946   1.199   3.379   4.484
 2980TIP3    H2 8947   1.106   3.269   4.439
 2981TIP3   OH2 8948   3.118   1.219   5.000
 2981TIP3    H1 8949   3.089   1.270   4.925
 2981TIP3    H2 8950   3.211   1.242   5.010
 2982TIP3   OH2 8951   2.310   5.420   1.888
 2982TIP3    H1 8952   2.380   5.355   1.886
 2982TIP3    H2 8953   2.230   5.369   1.901
 2983TIP3   OH2 8954   4.884   4.642   0.506
 2983TIP3    H1 8955   4.890   4.569   0.567
 2983TIP3    H2 8956   4.931   4.713   0.549
 2984TIP3   OH2 8957   0.040   3.763   4.815
 2984TIP3    H1 8958   0.085   3.751   4.731
 2984TIP3    H2 8959   0.098   3.724   4.880
 2985TIP3   OH2 8960   4.674   4.367   4.578
 2985TIP3    H1 8961   4.645   4.402   4.663
 2985TIP3    H2 8962   4.736   4.298   4.600
 2986TIP3   OH2 8963   3.928   5.851   4.692
 2986TIP3    H1 8964   3.928   5.909   4.616
 2986TIP3    H2 8965   4.014   5.808   4.689
 2987TIP3   OH2 8966   6.030   4.447   2.805
 2987TIP3    H1 8967   6.053   4.494   2.885
 2987TIP3    H2 8968   5.959   4.388   2.832
 2988TIP3   OH2 8969   0.097   3.090   2.876
 2988TIP3    H1 8970   0.008   3.120   2.858
 2988TIP3    H2 8971   0.145   3.170   2.898
 2989TIP3   OH2 8972   0.091   0.919   4.751
 2989TIP3    H1 8973   0.171   0.867   4.753
 2989TIP3    H2 8974   0.119   1.008   4.773
 2990TIP3   OH2 8975   4.583   3.745   0.258
 2990TIP3    H1 8976   4.541   3.666   0.291
 2990TIP3    H2 8977   4.511   3.808   0.249
 2991TIP3   OH2 8978   1.138   1.992   0.266
 2991TIP3    H1 8979   1.227   1.956   0.265
 2991TIP3    H2 8980   1.081   1.915   0.262
 2992TIP3   OH2 8981   4.392   0.146   3.890
 2992TIP3    H1 8982   4.427   0.067   3.932
 2992TIP3    H2 8983   4.466   0.182   3.842
 2993TIP3   OH2 8984   2.747   5.949   4.474
 2993TIP3    H1 8985   2.777   5.879   4.531
 2993TIP3    H2 8986   2.819   6.012   4.473
 2994TIP3   OH2 8987   3.106   3.249   1.704
 2994TIP3    H1 8988   3.094   3.212   1.617
 2994TIP3    H2 8989   3.019   3.277   1.731
 2995TIP3   OH2 8990   5.086   0.053   0.024
 2995TIP3    H1 8991   5.153   0.097   0.077
 2995TIP3    H2 8992   5.052   0.122  -0.033
 2996TIP3   OH2 8993   3.218   5.182   4.739
 2996TIP3    H1 8994   3.267   5.160   4.659
 2996TIP3    H2 8995   3.234   5.107   4.797
 2997TIP3   OH2 8996   3.345   1.446   4.867
 2997TIP3    H1 8997   3.362   1.537   4.891
 2997TIP3    H2 8998   3.382   1.395   4.939
 2998TIP3   OH2 8999   3.428   0.862   1.924
 2998TIP3    H1 9000   3.379   0.793   1.970
 2998TIP3    H2 9001   3.381   0.873   1.842
 2999TIP3   OH2 9002   3.160   5.862   1.603
 2999TIP3    H1 9003   3.094   5.904   1.548
 2999TIP3    H2 9004   3.215   5.934   1.635
 3000TIP3   OH2 9005   4.563   5.352   3.253
 3000TIP3    H1 9006   4.639   5.352   3.194
 3000TIP3    H2 9007   4.594   5.395   3.332
 3001TIP3   OH2 9008   4.303   2.497   2.641
 3001TIP3    H1 9009   4.304   2.510   2.546
 3001TIP3    H2 9010   4.293   2.402   2.652
 3002TIP3   OH2 9011   6.154   0.789   0.715
 3002TIP3    H1 9012   6.205   0.868   0.698
 3002TIP3    H2 9013   6.106   0.808   0.796
 3003TIP3   OH2 9014   3.806   4.891   4.559
 3003TIP3    H1 9015   3.864   4.902   4.484
 3003TIP3    H2 9016   3.818   4.800   4.586
 3004TIP3   OH2 9017   0.797   4.480   3.412
 3004TIP3    H1 9018   0.848   4.412   3.368
 3004TIP3    H2 9019   0.850   4.504   3.488
 3005TIP3   OH2 9020   6.178   3.612   4.442
 3005TIP3    H1 9021   6.191   3.700   4.408
 3005TIP3    H2 9022   6.150   3.561   4.366
 3006TIP3   OH2 9023   0.791   4.498   5.209
 3006TIP3    H1 9024   0.793   4.457   5.123
 3006TIP3    H2 9025   0.880   4.534   5.219
 3007TIP3   OH2 9026   1.496   3.647   3.789
 3007TIP3    H1 9027   1.512   3.711   3.857
 3007TIP3    H2 9028   1.583   3.612   3.767
 3008TIP3   OH2 9029   3.104   5.613   4.105
 3008TIP3    H1 9030   3.079   5.691   4.154
 3008TIP3    H2 9031   3.150   5.647   4.028
 3009TIP3   OH2 9032   4.860   0.286   4.519
 3009TIP3    H1 9033   4.784   0.335   4.550
 3009TIP3    H2 9034   4.917   0.278   4.596
 3010TIP3   OH2 9035   4.534   3.290   1.899
 3010TIP3    H1 9036   4.614   3.264   1.853
 3010TIP3    H2 9037   4.563   3.357   1.961
 3011TIP3   OH2 9038   4.362   0.587   0.522
 3011TIP3    H1 9039   4.391   0.517   0.464
 3011TIP3    H2 9040   4.425   0.587   0.594
 3012TIP3   OH2 9041   2.246   2.770   3.214
 3012TIP3    H1 9042   2.262   2.679   3.190
 3012TIP3    H2 9043   2.275   2.776   3.305
 3013TIP3   OH2 9044   6.188   2.713   4.539
 3013TIP3    H1 9045   6.134   2.773   4.488
 3013TIP3    H2 9046   6.267   2.701   4.486
 3014TIP3   OH2 9047   2.749   5.619   1.222
 3014TIP3    H1 9048   2.817   5.600   1.158
 3014TIP3    H2 9049   2.795   5.634   1.304
 3015TIP3   OH2 9050   1.082   5.370   1.746
 3015TIP3    H1 9051   1.137   5.307   1.793
 3015TIP3    H2 9052   1.144   5.430   1.704
 3016TIP3   OH2 9053   4.148   0.925   1.642
 3016TIP3    H1 9054   4.056   0.952   1.639
 3016TIP3    H2 9055   4.166   0.909   1.735
 3017TIP3   OH2 9056   2.866   2.114   1.362
 3017TIP3    H1 9057   2.897   2.104   1.272
 3017TIP3    H2 9058   2.912   2.192   1.395
 3018TIP3   OH2 9059   5.318   1.759   3.797
 3018TIP3    H1 9060   5.225   1.781   3.786
 3018TIP3    H2 9061   5.334   1.769   3.891
 3019TIP3   OH2 9062   4.625   5.408   2.252
 3019TIP3    H1 9063   4.676   5.344   2.202
 3019TIP3    H2 9064   4.569   5.451   2.187
 3020TIP3   OH2 9065   3.727   3.140   1.664
 3020TIP3    H1 9066   3.745   3.052   1.632
 3020TIP3    H2 9067   3.678   3.182   1.594
 3021TIP3   OH2 9068   5.062   1.340   4.088
 3021TIP3    H1 9069   5.119   1.410   4.053
 3021TIP3    H2 9070   5.121   1.265   4.098
 3022TIP3   OH2 9071   5.860   2.347   0.788
 3022TIP3    H1 9072   5.835   2.438   0.802
 3022TIP3    H2 9073   5.953   2.350   0.766
 3023TIP3   OH2 9074   0.342   5.326   4.970
 3023TIP3    H1 9075   0.261   5.375   4.958
 3023TIP3    H2 9076   0.316   5.234   4.964
 3024TIP3   OH2 9077   2.368   1.429   1.883
 3024TIP3    H1 9078   2.361   1.346   1.930
 3024TIP3    H2 9079   2.330   1.493   1.944
 3025TIP3   OH2 9080   6.227   3.411   4.678
 3025TIP3    H1 9081   6.177   3.434   4.600
 3025TIP3    H2 9082   6.161   3.404   4.747
 3026TIP3   OH2 9083   4.828   3.101   0.599
 3026TIP3    H1 9084   4.881   3.180   0.589
 3026TIP3    H2 9085   4.776   3.117   0.678
 3027TIP3   OH2 9086   0.757   1.983   1.117
 3027TIP3    H1 9087   0.850   1.960   1.125
 3027TIP3    H2 9088   0.745   2.002   1.023
 3028TIP3   OH2 9089   4.459   1.765   0.698
 3028TIP3    H1 9090   4.509   1.812   0.765
 3028TIP3    H2 9091   4.506   1.780   0.617
 3029TIP3   OH2 9092   1.465   5.748   3.565
 3029TIP3    H1 9093   1.540   5.725   3.510
 3029TIP3    H2 9094   1.491   5.831   3.607
 3030TIP3   OH2 9095   5.255   0.865   2.978
 3030TIP3    H1 9096   5.163   0.883   2.961
 3030TIP3    H2 9097   5.279   0.798   2.914
 3031TIP3   OH2 9098   4.438   4.305   3.476
 3031TIP3    H1 9099   4.514   4.323   3.531
 3031TIP3    H2 9100   4.367   4.287   3.538
 3032TIP3   OH2 9101   3.866   4.540   1.897
 3032TIP3    H1 9102   3.803   4.609   1.877
 3032TIP3    H2 9103   3.946   4.565   1.851
 3033TIP3   OH2 9104   5.738   1.552   1.866
 3033TIP3    H1 9105   5.829   1.566   1.892
 3033TIP3    H2 9106   5.742   1.479   1.804
 3034TIP3   OH2 9107   1.698   3.611   4.364
 3034TIP3    H1 9108   1.691   3.570   4.278
 3034TIP3    H2 9109   1.630   3.568   4.416
 3035TIP3   OH2 9110   0.217   2.783   0.508
 3035TIP3    H1 9111   0.252   2.859   0.462
 3035TIP3    H2 9112   0.180   2.728   0.438
 3036TIP3   OH2 9113   2.927   3.425   0.742
 3036TIP3    H1 9114   2.878   3.455   0.819
 3036TIP3    H2 9115   2.945   3.332   0.760
 3037TIP3   OH2 9116   5.181   5.190   1.617
 3037TIP3    H1 9117   5.202   5.247   1.691
 3037TIP3    H2 9118   5.095   5.153   1.639
 3038TIP3   OH2 9119   1.128   1.770   3.899
 3038TIP3    H1 9120   1.079   1.772   3.817
 3038TIP3    H2 9121   1.123   1.680   3.928
 3039TIP3   OH2 9122   5.813   4.657   5.026
 3039TIP3    H1 9123   5.799   4.567   4.998
 3039TIP3    H2 9124   5.827   4.651   5.120
 3040TIP3   OH2 9125   4.165   2.197   5.071
 3040TIP3    H1 9126   4.214   2.270   5.110
 3040TIP3    H2 9127   4.123   2.154   5.146
 3041TIP3   OH2 9128   4.681   2.538   2.503
 3041TIP3    H1 9129   4.603   2.488   2.525
 3041TIP3    H2 9130   4.652   2.597   2.434
 3042TIP3   OH2 9131   1.885   5.936   0.253
 3042TIP3    H1 9132   1.878   6.028   0.225
 3042TIP3    H2 9133   1.908   5.941   0.345
 3043TIP3   OH2 9134   6.124   0.698   5.136
 3043TIP3    H1 9135   6.141   0.648   5.216
 3043TIP3    H2 9136   6.062   0.643   5.087
 3044TIP3   OH2 9137   5.833   3.532   1.864
 3044TIP3    H1 9138   5.894   3.606   1.855
 3044TIP3    H2 9139   5.841   3.484   1.782
 3045TIP3   OH2 9140   6.274   2.279   2.145
 3045TIP3    H1 9141   6.276   2.289   2.240
 3045TIP3    H2 9142   6.204   2.338   2.117
 3046TIP3   OH2 9143   3.695   1.680   2.208
 3046TIP3    H1 9144   3.649   1.738   2.147
 3046TIP3    H2 9145   3.733   1.739   2.274
 3047TIP3   OH2 9146   2.205   1.153   3.276
 3047TIP3    H1 9147   2.290   1.197   3.277
 3047TIP3    H2 9148   2.144   1.220   3.243
 3048TIP3   OH2 9149   4.180   0.084   0.965
 3048TIP3    H1 9150   4.120   0.051   0.898
 3048TIP3    H2 9151   4.242   0.012   0.979
 3049TIP3   OH2 9152   5.238   3.304   5.174
 3049TIP3    H1 9153   5.308   3.364   5.198
 3049TIP3    H2 9154   5.190   3.289   5.255
 3050TIP3   OH2 9155   1.154   0.648   1.800
 3050TIP3    H1 9156   1.115   0.669   1.715
 3050TIP3    H2 9157   1.145   0.729   1.850
 3051TIP3   OH2 9158   1.306   2.750   1.597
 3051TIP3    H1 9159   1.264   2.804   1.664
 3051TIP3    H2 9160   1.397   2.779   1.597
 3052TIP3   OH2 9161   0.797   3.687   4.051
 3052TIP3    H1 9162   0.724   3.730   4.007
 3052TIP3    H2 9163   0.759   3.610   4.092
 3053TIP3   OH2 9164   3.018   1.852   4.138
 3053TIP3    H1 9165   3.111   1.842   4.161
 3053TIP3    H2 9166   2.994   1.937   4.174
 3054TIP3   OH2 9167   4.385   5.464   0.395
 3054TIP3    H1 9168   4.341   5.542   0.427
 3054TIP3    H2 9169   4.314   5.403   0.374
 3055TIP3   OH2 9170   3.565   5.250   3.453
 3055TIP3    H1 9171   3.539   5.287   3.368
 3055TIP3    H2 9172   3.527   5.162   3.452
 3056TIP3   OH2 9173   0.711   3.489   4.861
 3056TIP3    H1 9174   0.654   3.462   4.789
 3056TIP3    H2 9175   0.795   3.506   4.819
 3057TIP3   OH2 9176   6.195   2.730   1.480
 3057TIP3    H1 9177   6.220   2.637   1.478
 3057TIP3    H2 9178   6.274   2.776   1.451
 3058TIP3   OH2 9179   3.032   1.088   3.962
 3058TIP3    H1 9180   3.113   1.114   3.919
 3058TIP3    H2 9181   3.050   0.999   3.995
 3059TIP3   OH2 9182   5.096   5.535   1.111
 3059TIP3    H1 9183   5.146   5.529   1.192
 3059TIP3    H2 9184   5.153   5.583   1.051
 3060TIP3   OH2 9185   4.717   3.325   2.671
 3060TIP3    H1 9186   4.697   3.418   2.659
 3060TIP3    H2 9187   4.664   3.300   2.747
 3061TIP3   OH2 9188   0.322   4.387   5.006
 3061TIP3    H1 9189   0.290   4.358   5.092
 3061TIP3    H2 9190   0.261   4.348   4.943
 3062TIP3   OH2 9191   0.953   2.538   4.026
 3062TIP3    H1 9192   1.010   2.462   4.039
 3062TIP3    H2 9193   0.931   2.567   4.115
 3063TIP3   OH2 9194   3.462   5.807   1.849
 3063TIP3    H1 9195   3.489   5.798   1.757
 3063TIP3    H2 9196   3.401   5.881   1.848
 3064TIP3   OH2 9197   3.703   0.635   1.357
 3064TIP3    H1 9198   3.671   0.557   1.401
 3064TIP3    H2 9199   3.742   0.602   1.276
 3065TIP3   OH2 9200   0.338   0.973   3.598
 3065TIP3    H1 9201   0.393   1.006   3.528
 3065TIP3    H2 9202   0.375   1.011   3.678
 3066TIP3   OH2 9203   1.577   3.416   3.397
 3066TIP3    H1 9204   1.629   3.490   3.427
 3066TIP3    H2 9205   1.552   3.437   3.307
 3067TIP3   OH2 9206   1.083   5.514   4.361
 3067TIP3    H1 9207   1.151   5.512   4.294
 3067TIP3    H2 9208   1.128   5.496   4.443
 3068TIP3   OH2 9209   6.198   4.083   1.531
 3068TIP3    H1 9210   6.274   4.078   1.474
 3068TIP3    H2 9211   6.222   4.148   1.597
 3069TIP3   OH2 9212   1.023   3.166   2.588
 3069TIP3    H1 9213   0.966   3.205   2.521
 3069TIP3    H2 9214   1.106   3.212   2.579
 3070TIP3   OH2 9215   0.067   0.324   3.891
 3070TIP3    H1 9216   0.108   0.239   3.910
 3070TIP3    H2 9217   0.002   0.336   3.960
 3071TIP3   OH2 9218   4.009   6.009   2.914
 3071TIP3    H1 9219   4.061   5.967   2.846
 3071TIP3    H2 9220   3.920   5.976   2.900
 3072TIP3   OH2 9221   5.579   2.940   1.014
 3072TIP3    H1 9222   5.564   3.006   0.946
 3072TIP3    H2 9223   5.656   2.972   1.061
 3073TIP3   OH2 9224   4.504   0.684   1.902
 3073TIP3    H1 9225   4.584   0.736   1.890
 3073TIP3    H2 9226   4.512   0.614   1.837
 3074TIP3   OH2 9227   1.304   1.447   2.214
 3074TIP3    H1 9228   1.262   1.393   2.146
 3074TIP3    H2 9229   1.301   1.536   2.179
 3075TIP3   OH2 9230   3.406   3.384   2.017
 3075TIP3    H1 9231   3.414   3.480   2.020
 3075TIP3    H2 9232   3.479   3.356   1.961
 3076TIP3   OH2 9233   5.398   5.331   0.946
 3076TIP3    H1 9234   5.311   5.357   0.977
 3076TIP3    H2 9235   5.384   5.307   0.854
 3077TIP3   OH2 9236   3.122   3.767   2.474
 3077TIP3    H1 9237   3.174   3.841   2.507
 3077TIP3    H2 9238   3.080   3.800   2.395
 3078TIP3   OH2 9239   3.872   4.052   3.591
 3078TIP3    H1 9240   3.964   4.033   3.572
 3078TIP3    H2 9241   3.825   3.973   3.566
 3079TIP3   OH2 9242   6.059   1.504   3.562
 3079TIP3    H1 9243   6.028   1.443   3.496
 3079TIP3    H2 9244   6.104   1.449   3.626
 3080TIP3   OH2 9245   0.941   3.676   3.807
 3080TIP3    H1 9246   0.881   3.661   3.880
 3080TIP3    H2 9247   0.949   3.771   3.802
 3081TIP3   OH2 9248   4.999   2.199   4.658
 3081TIP3    H1 9249   5.066   2.234   4.599
 3081TIP3    H2 9250   5.048   2.151   4.725
 3082TIP3   OH2 9251   1.751   3.555   3.785
 3082TIP3    H1 9252   1.756   3.465   3.818
 3082TIP3    H2 9253   1.803   3.554   3.705
 3083TIP3   OH2 9254   4.210   1.835   0.459
 3083TIP3    H1 9255   4.199   1.854   0.366
 3083TIP3    H2 9256   4.271   1.762   0.461
 3084TIP3   OH2 9257   1.169   5.756   0.018
 3084TIP3    H1 9258   1.109   5.763   0.092
 3084TIP3    H2 9259   1.158   5.838  -0.029
 3085TIP3   OH2 9260   5.512   1.558   3.877
 3085TIP3    H1 9261   5.431   1.602   3.850
 3085TIP3    H2 9262   5.493   1.465   3.868
 3086TIP3   OH2 9263   2.451   2.502   3.458
 3086TIP3    H1 9264   2.441   2.596   3.472
 3086TIP3    H2 9265   2.476   2.494   3.365
 3087TIP3   OH2 9266   2.642   3.794   3.571
 3087TIP3    H1 9267   2.625   3.703   3.548
 3087TIP3    H2 9268   2.700   3.826   3.501
 3088TIP3   OH2 9269   5.002   0.345   1.143
 3088TIP3    H1 9270   5.010   0.265   1.194
 3088TIP3    H2 9271   4.968   0.316   1.058
 3089TIP3   OH2 9272   1.112   5.570   0.597
 3089TIP3    H1 9273   1.064   5.576   0.680
 3089TIP3    H2 9274   1.078   5.491   0.555
 3090TIP3   OH2 9275   1.780   5.035   0.118
 3090TIP3    H1 9276   1.816   4.966   0.063
 3090TIP3    H2 9277   1.844   5.046   0.188
 3091TIP3   OH2 9278   1.339   3.296   3.585
 3091TIP3    H1 9279   1.352   3.305   3.679
 3091TIP3    H2 9280   1.351   3.385   3.550
 3092TIP3   OH2 9281   3.866   2.915   1.875
 3092TIP3    H1 9282   3.813   2.835   1.883
 3092TIP3    H2 9283   3.813   2.983   1.915
 3093TIP3   OH2 9284   0.396   2.732   1.808
 3093TIP3    H1 9285   0.301   2.724   1.814
 3093TIP3    H2 9286   0.423   2.658   1.752
 3094TIP3   OH2 9287   2.916   5.693   1.957
 3094TIP3    H1 9288   2.889   5.784   1.967
 3094TIP3    H2 9289   3.005   5.698   1.924
 3095TIP3   OH2 9290   6.146   4.388   0.340
 3095TIP3    H1 9291   6.142   4.293   0.336
 3095TIP3    H2 9292   6.221   4.407   0.397
 3096TIP3   OH2 9293   2.195   4.423   1.770
 3096TIP3    H1 9294   2.252   4.487   1.729
 3096TIP3    H2 9295   2.116   4.472   1.793
 3097TIP3   OH2 9296   5.858   3.269   3.538
 3097TIP3    H1 9297   5.878   3.206   3.469
 3097TIP3    H2 9298   5.874   3.355   3.498
 3098TIP3   OH2 9299   4.035   3.708   3.673
 3098TIP3    H1 9300   4.013   3.789   3.627
 3098TIP3    H2 9301   3.981   3.641   3.631
 3099TIP3   OH2 9302   0.091   3.070   3.171
 3099TIP3    H1 9303   0.171   3.019   3.189
 3099TIP3    H2 9304   0.081   3.066   3.076
 3100TIP3   OH2 9305   3.177   2.787   3.037
 3100TIP3    H1 9306   3.159   2.875   3.004
 3100TIP3    H2 9307   3.180   2.732   2.958
 3101TIP3   OH2 9308   3.457   4.135   3.402
 3101TIP3    H1 9309   3.483   4.071   3.468
 3101TIP3    H2 9310   3.371   4.105   3.372
 3102TIP3   OH2 9311   5.539   3.753   1.229
 3102TIP3    H1 9312   5.627   3.790   1.236
 3102TIP3    H2 9313   5.488   3.798   1.297
 3103TIP3   OH2 9314   0.329   5.936   3.184
 3103TIP3    H1 9315   0.300   6.026   3.192
 3103TIP3    H2 9316   0.378   5.934   3.102
 3104TIP3   OH2 9317   5.118   3.103   4.287
 3104TIP3    H1 9318   5.046   3.040   4.278
 3104TIP3    H2 9319   5.139   3.101   4.380
 3105TIP3   OH2 9320   3.361   3.776   0.389
 3105TIP3    H1 9321   3.306   3.854   0.393
 3105TIP3    H2 9322   3.448   3.809   0.369
 3106TIP3   OH2 9323   3.860   1.236   4.197
 3106TIP3    H1 9324   3.935   1.295   4.190
 3106TIP3    H2 9325   3.879   1.182   4.274
 3107TIP3   OH2 9326   2.974   2.377   1.373
 3107TIP3    H1 9327   2.984   2.384   1.278
 3107TIP3    H2 9328   3.020   2.454   1.407
 3108TIP3   OH2 9329   4.873   3.162   1.556
 3108TIP3    H1 9330   4.960   3.121   1.553
 3108TIP3    H2 9331   4.814   3.094   1.524
 3109TIP3   OH2 9332   0.060   5.275   2.251
 3109TIP3    H1 9333   0.124   5.290   2.321
 3109TIP3    H2 9334   0.080   5.188   2.218
 3110TIP3   OH2 9335   1.759   4.416   4.268
 3110TIP3    H1 9336   1.831   4.359   4.242
 3110TIP3    H2 9337   1.730   4.382   4.352
 3111TIP3   OH2 9338   4.949   1.164   3.566
 3111TIP3    H1 9339   4.863   1.195   3.596
 3111TIP3    H2 9340   5.009   1.188   3.637
 3112TIP3   OH2 9341   3.116   0.057   3.291
 3112TIP3    H1 9342   3.203   0.025   3.264
 3112TIP3    H2 9343   3.067  -0.022   3.310
 3113TIP3   OH2 9344   5.738   1.506   4.636
 3113TIP3    H1 9345   5.803   1.566   4.672
 3113TIP3    H2 9346   5.732   1.529   4.544
 3114TIP3   OH2 9347   2.324   1.917   4.272
 3114TIP3    H1 9348   2.397   1.913   4.334
 3114TIP3    H2 9349   2.351   1.982   4.207
 3115TIP3   OH2 9350   5.906   0.287   1.468
 3115TIP3    H1 9351   5.972   0.221   1.446
 3115TIP3    H2 9352   5.928   0.313   1.558
 3116TIP3   OH2 9353   0.878   0.424   4.810
 3116TIP3    H1 9354   0.943   0.474   4.762
 3116TIP3    H2 9355   0.804   0.414   4.750
 3117TIP3   OH2 9356   4.694   5.670   0.390
 3117TIP3    H1 9357   4.787   5.653   0.375
 3117TIP3    H2 9358   4.657   5.681   0.302
 3118TIP3   OH2 9359   4.027   2.632   4.597
 3118TIP3    H1 9360   3.992   2.717   4.573
 3118TIP3    H2 9361   3.987   2.571   4.535
 3119TIP3   OH2 9362   6.185   2.904   3.219
 3119TIP3    H1 9363   6.205   2.998   3.219
 3119TIP3    H2 9364   6.147   2.888   3.132
 3120TIP3   OH2 9365   4.584   3.365   2.346
 3120TIP3    H1 9366   4.502   3.320   2.330
 3120TIP3    H2 9367   4.605   3.346   2.438
 3121TIP3   OH2 9368   3.034   4.735   1.429
 3121TIP3    H1 9369   2.987   4.697   1.504
 3121TIP3    H2 9370   2.993   4.694   1.353
 3122TIP3   OH2 9371   1.901   0.306   5.063
 3122TIP3    H1 9372   1.833   0.244   5.091
 3122TIP3    H2 9373   1.983   0.259   5.076
 3123TIP3   OH2 9374   4.781   1.661   4.245
 3123TIP3    H1 9375   4.729   1.655   4.165
 3123TIP3    H2 9376   4.824   1.575   4.252
 3124TIP3   OH2 9377   3.632   1.412   3.934
 3124TIP3    H1 9378   3.599   1.322   3.944
 3124TIP3    H2 9379   3.626   1.449   4.022
 3125TIP3   OH2 9380   3.449   3.514   0.599
 3125TIP3    H1 9381   3.436   3.574   0.673
 3125TIP3    H2 9382   3.362   3.483   0.578
 3126TIP3   OH2 9383   0.621   2.591   2.895
 3126TIP3    H1 9384   0.699   2.561   2.848
 3126TIP3    H2 9385   0.553   2.528   2.872
 3127TIP3   OH2 9386   1.708   1.564   1.045
 3127TIP3    H1 9387   1.776   1.496   1.045
 3127TIP3    H2 9388   1.630   1.519   1.013
 3128TIP3   OH2 9389   1.976   0.135   3.249
 3128TIP3    H1 9390   2.000   0.223   3.222
 3128TIP3    H2 9391   1.969   0.085   3.168
 3129TIP3   OH2 9392   0.067   3.996   3.127
 3129TIP3    H1 9393   0.007   4.042   3.186
 3129TIP3    H2 9394   0.062   3.905   3.154
 3130TIP3   OH2 9395   3.065   4.696   2.680
 3130TIP3    H1 9396   2.986   4.643   2.675
 3130TIP3    H2 9397   3.130   4.638   2.719
 3131TIP3   OH2 9398   2.532   1.146   3.976
 3131TIP3    H1 9399   2.520   1.083   4.047
 3131TIP3    H2 9400   2.626   1.164   3.974
 3132TIP3   OH2 9401   1.031   5.906   4.305
 3132TIP3    H1 9402   1.035   5.895   4.210
 3132TIP3    H2 9403   1.113   5.951   4.326
 3133TIP3   OH2 9404   2.009   4.325   4.601
 3133TIP3    H1 9405   2.042   4.235   4.605
 3133TIP3    H2 9406   1.983   4.345   4.690
 3134TIP3   OH2 9407   5.421   4.143   3.155
 3134TIP3    H1 9408   5.409   4.098   3.072
 3134TIP3    H2 9409   5.397   4.234   3.136
 3135TIP3   OH2 9410   5.935   0.835   1.749
 3135TIP3    H1 9411   5.978   0.920   1.744
 3135TIP3    H2 9412   5.977   0.790   1.822
 3136TIP3   OH2 9413   3.385   5.554   4.629
 3136TIP3    H1 9414   3.398   5.485   4.693
 3136TIP3    H2 9415   3.378   5.509   4.545
 3137TIP3   OH2 9416   5.595   0.023   1.447
 3137TIP3    H1 9417   5.550   0.107   1.458
 3137TIP3    H2 9418   5.599   0.011   1.352
 3138TIP3   OH2 9419   0.782   4.216   1.043
 3138TIP3    H1 9420   0.697   4.218   0.999
 3138TIP3    H2 9421   0.801   4.123   1.054
 3139TIP3   OH2 9422   2.925   0.443   2.394
 3139TIP3    H1 9423   3.020   0.447   2.388
 3139TIP3    H2 9424   2.908   0.375   2.459
 3140TIP3   OH2 9425   5.406   4.381   4.428
 3140TIP3    H1 9426   5.402   4.344   4.340
 3140TIP3    H2 9427   5.489   4.350   4.464
 3141TIP3   OH2 9428   2.847   5.559   4.069
 3141TIP3    H1 9429   2.807   5.640   4.101
 3141TIP3    H2 9430   2.925   5.548   4.123
 3142TIP3   OH2 9431   3.586   3.313   4.725
 3142TIP3    H1 9432   3.673   3.353   4.727
 3142TIP3    H2 9433   3.559   3.310   4.817
 3143TIP3   OH2 9434   3.324   4.613   4.909
 3143TIP3    H1 9435   3.384   4.656   4.969
 3143TIP3    H2 9436   3.338   4.658   4.825
 3144TIP3   OH2 9437   3.879   0.103   4.883
 3144TIP3    H1 9438   3.907   0.028   4.832
 3144TIP3    H2 9439   3.924   0.178   4.844
 3145TIP3   OH2 9440   3.199   4.502   1.816
 3145TIP3    H1 9441   3.200   4.575   1.877
 3145TIP3    H2 9442   3.284   4.505   1.773
 3146TIP3   OH2 9443   2.941   3.121   0.716
 3146TIP3    H1 9444   2.964   3.129   0.624
 3146TIP3    H2 9445   2.961   3.030   0.738
 3147TIP3   OH2 9446   3.151   4.337   3.409
 3147TIP3    H1 9447   3.138   4.243   3.395
 3147TIP3    H2 9448   3.212   4.342   3.482
 3148TIP3   OH2 9449   1.461   4.458   4.831
 3148TIP3    H1 9450   1.395   4.524   4.812
 3148TIP3    H2 9451   1.527   4.469   4.763
 3149TIP3   OH2 9452   2.350   4.201   0.753
 3149TIP3    H1 9453   2.347   4.124   0.696
 3149TIP3    H2 9454   2.294   4.178   0.827
 3150TIP3   OH2 9455   0.634   4.971   0.603
 3150TIP3    H1 9456   0.573   4.898   0.594
 3150TIP3    H2 9457   0.627   4.997   0.695
 3151TIP3   OH2 9458   1.561   0.730   2.380
 3151TIP3    H1 9459   1.505   0.654   2.393
 3151TIP3    H2 9460   1.644   0.694   2.350
 3152TIP3   OH2 9461   0.635   2.394   1.835
 3152TIP3    H1 9462   0.647   2.318   1.778
 3152TIP3    H2 9463   0.559   2.440   1.799
 3153TIP3   OH2 9464   2.813   1.066   4.803
 3153TIP3    H1 9465   2.806   1.036   4.713
 3153TIP3    H2 9466   2.834   1.159   4.796
 3154TIP3   OH2 9467   5.651   1.633   1.186
 3154TIP3    H1 9468   5.571   1.611   1.139
 3154TIP3    H2 9469   5.624   1.639   1.278
 3155TIP3   OH2 9470   1.047   1.624   1.629
 3155TIP3    H1 9471   1.122   1.601   1.574
 3155TIP3    H2 9472   1.081   1.621   1.718
 3156TIP3   OH2 9473   5.226   3.006   4.524
 3156TIP3    H1 9474   5.159   2.991   4.590
 3156TIP3    H2 9475   5.309   2.986   4.568
 3157TIP3   OH2 9476   4.781   4.209   1.460
 3157TIP3    H1 9477   4.728   4.288   1.468
 3157TIP3    H2 9478   4.867   4.240   1.433
 3158TIP3   OH2 9479   2.714   0.397   2.803
 3158TIP3    H1 9480   2.785   0.357   2.751
 3158TIP3    H2 9481   2.654   0.324   2.821
 3159TIP3   OH2 9482   3.821   5.449   2.270
 3159TIP3    H1 9483   3.864   5.375   2.315
 3159TIP3    H2 9484   3.824   5.425   2.177
 3160TIP3   OH2 9485   2.392   2.902   2.597
 3160TIP3    H1 9486   2.337   2.955   2.655
 3160TIP3    H2 9487   2.348   2.817   2.593
 3161TIP3   OH2 9488   3.452   0.288   1.767
 3161TIP3    H1 9489   3.366   0.329   1.758
 3161TIP3    H2 9490   3.507   0.355   1.807
 3162TIP3   OH2 9491   5.954   2.700   0.483
 3162TIP3    H1 9492   5.917   2.617   0.454
 3162TIP3    H2 9493   5.879   2.760   0.483
 3163TIP3   OH2 9494   2.496   0.077   0.977
 3163TIP3    H1 9495   2.481  -0.016   0.958
 3163TIP3    H2 9496   2.560   0.105   0.911
 3164TIP3   OH2 9497   4.660   1.012   0.354
 3164TIP3    H1 9498   4.683   1.046   0.441
 3164TIP3    H2 9499   4.596   0.943   0.372
 3165TIP3   OH2 9500   5.456   3.579   4.252
 3165TIP3    H1 9501   5.400   3.655   4.266
 3165TIP3    H2 9502   5.524   3.587   4.319
 3166TIP3   OH2 9503   5.155   2.644   3.582
 3166TIP3    H1 9504   5.086   2.583   3.607
 3166TIP3    H2 9505   5.166   2.629   3.488
 3167TIP3   OH2 9506   1.183   0.030   0.978
 3167TIP3    H1 9507   1.207  -0.043   0.921
 3167TIP3    H2 9508   1.230   0.105   0.940
 3168TIP3   OH2 9509   3.070   4.422   3.923
 3168TIP3    H1 9510   3.003   4.475   3.966
 3168TIP3    H2 9511   3.027   4.338   3.905
 3169TIP3   OH2 9512   1.160   5.948   3.996
 3169TIP3    H1 9513   1.198   5.860   3.987
 3169TIP3    H2 9514   1.069   5.938   3.969
 3170TIP3   OH2 9515   0.608   5.919   2.185
 3170TIP3    H1 9516   0.682   5.945   2.131
 3170TIP3    H2 9517   0.608   5.980   2.258
 3171TIP3   OH2 9518   3.529   2.590   3.031
 3171TIP3    H1 9519   3.610   2.554   2.994
 3171TIP3    H2 9520   3.529   2.561   3.122
 3172TIP3   OH2 9521   4.487   4.814   3.506
 3172TIP3    H1 9522   4.393   4.808   3.520
 3172TIP3    H2 9523   4.520   4.726   3.524
 3173TIP3   OH2 9524   1.264   5.515   0.314
 3173TIP3    H1 9525   1.351   5.555   0.306
 3173TIP3    H2 9526   1.277   5.423   0.294
 3174TIP3   OH2 9527   2.639   1.126   3.655
 3174TIP3    H1 9528   2.724   1.084   3.669
 3174TIP3    H2 9529   2.656   1.219   3.661
 3175TIP3   OH2 9530   1.146   4.533   3.304
 3175TIP3    H1 9531   1.125   4.503   3.215
 3175TIP3    H2 9532   1.098   4.614   3.314
 3176TIP3   OH2 9533   5.126   3.860   3.021
 3176TIP3    H1 9534   5.198   3.799   3.007
 3176TIP3    H2 9535   5.104   3.851   3.114
 3177TIP3   OH2 9536   5.762   2.003   4.249
 3177TIP3    H1 9537   5.790   1.988   4.339
 3177TIP3    H2 9538   5.688   1.944   4.236
 3178TIP3   OH2 9539   4.149   3.084   4.835
 3178TIP3    H1 9540   4.236   3.046   4.838
 3178TIP3    H2 9541   4.099   3.034   4.900
 3179TIP3   OH2 9542   4.939   5.915   1.335
 3179TIP3    H1 9543   4.973   5.965   1.261
 3179TIP3    H2 9544   5.004   5.846   1.349
 3180TIP3   OH2 9545   6.289   5.154   4.244
 3180TIP3    H1 9546   6.229   5.146   4.170
 3180TIP3    H2 9547   6.241   5.207   4.308
 3181TIP3   OH2 9548   4.116   5.610   1.564
 3181TIP3    H1 9549   4.166   5.692   1.558
 3181TIP3    H2 9550   4.028   5.638   1.589
 3182TIP3   OH2 9551   4.283   4.068   4.599
 3182TIP3    H1 9552   4.290   4.163   4.607
 3182TIP3    H2 9553   4.368   4.040   4.564
 3183TIP3   OH2 9554   6.284   2.185   3.113
 3183TIP3    H1 9555   6.211   2.216   3.166
 3183TIP3    H2 9556   6.308   2.100   3.151
 3184TIP3   OH2 9557   5.102   1.494   0.382
 3184TIP3    H1 9558   5.160   1.462   0.313
 3184TIP3    H2 9559   5.151   1.563   0.425
 3185TIP3   OH2 9560   0.018   0.605   5.053
 3185TIP3    H1 9561  -0.015   0.523   5.089
 3185TIP3    H2 9562  -0.051   0.669   5.075
 3186TIP3   OH2 9563   4.078   2.670   0.342
 3186TIP3    H1 9564   4.021   2.595   0.357
 3186TIP3    H2 9565   4.113   2.656   0.253
 3187TIP3   OH2 9566   1.784   3.293   3.940
 3187TIP3    H1 9567   1.824   3.326   4.021
 3187TIP3    H2 9568   1.851   3.236   3.902
 3188TIP3   OH2 9569   3.033   3.794   3.528
 3188TIP3    H1 9570   3.121   3.781   3.493
 3188TIP3    H2 9571   2.990   3.850   3.463
 3189TIP3   OH2 9572   1.636   4.018   0.586
 3189TIP3    H1 9573   1.643   3.926   0.611
 3189TIP3    H2 9574   1.717   4.058   0.618
 3190TIP3   OH2 9575   2.671   1.086   2.010
 3190TIP3    H1 9576   2.739   1.100   2.075
 3190TIP3    H2 9577   2.718   1.066   1.929
 3191TIP3   OH2 9578   5.443   2.626   3.996
 3191TIP3    H1 9579   5.414   2.569   3.925
 3191TIP3    H2 9580   5.384   2.701   3.993
 3192TIP3   OH2 9581   3.711   0.135   2.014
 3192TIP3    H1 9582   3.766   0.126   2.092
 3192TIP3    H2 9583   3.757   0.199   1.960
 3193TIP3   OH2 9584   5.979   5.214   4.222
 3193TIP3    H1 9585   5.885   5.199   4.224
 3193TIP3    H2 9586   5.989   5.301   4.182
 3194TIP3   OH2 9587   0.336   1.247   3.812
 3194TIP3    H1 9588   0.262   1.296   3.776
 3194TIP3    H2 9589   0.408   1.264   3.751
 3195TIP3   OH2 9590   2.165   2.737   1.519
 3195TIP3    H1 9591   2.252   2.763   1.487
 3195TIP3    H2 9592   2.124   2.818   1.546
 3196TIP3   OH2 9593   5.879   4.985   0.984
 3196TIP3    H1 9594   5.921   5.052   0.930
 3196TIP3    H2 9595   5.814   4.945   0.927
 3197TIP3   OH2 9596   3.700   5.583   0.835
 3197TIP3    H1 9597   3.678   5.502   0.787
 3197TIP3    H2 9598   3.713   5.554   0.925
 3198TIP3   OH2 9599   0.412   1.490   0.368
 3198TIP3    H1 9600   0.460   1.412   0.396
 3198TIP3    H2 9601   0.353   1.460   0.300
 3199TIP3   OH2 9602   1.144   0.062   0.343
 3199TIP3    H1 9603   1.083   0.135   0.335
 3199TIP3    H2 9604   1.102  -0.009   0.294
 3200TIP3   OH2 9605   5.249   1.723   2.476
 3200TIP3    H1 9606   5.269   1.645   2.423
 3200TIP3    H2 9607   5.198   1.689   2.549
 3201TIP3   OH2 9608   4.775   4.392   1.792
 3201TIP3    H1 9609   4.791   4.319   1.852
 3201TIP3    H2 9610   4.719   4.355   1.724
 3202TIP3   OH2 9611   2.935   4.023   2.450
 3202TIP3    H1 9612   2.886   3.944   2.428
 3202TIP3    H2 9613   2.954   4.014   2.543
 3203TIP3   OH2 9614   4.558   4.782   2.786
 3203TIP3    H1 9615   4.592   4.729   2.858
 3203TIP3    H2 9616   4.635   4.802   2.733
 3204TIP3   OH2 9617   3.362   0.413   0.611
 3204TIP3    H1 9618   3.283   0.440   0.657
 3204TIP3    H2 9619   3.434   0.439   0.668
 3205TIP3   OH2 9620   0.256   1.626   2.036
 3205TIP3    H1 9621   0.340   1.596   2.071
 3205TIP3    H2 9622   0.246   1.715   2.070
 3206TIP3   OH2 9623   5.554   2.837   3.325
 3206TIP3    H1 9624   5.582   2.911   3.271
 3206TIP3    H2 9625   5.514   2.877   3.402
 3207TIP3   OH2 9626   4.711   3.948   1.327
 3207TIP3    H1 9627   4.799   3.921   1.354
 3207TIP3    H2 9628   4.699   4.034   1.368
 3208TIP3   OH2 9629   5.512   5.475   0.614
 3208TIP3    H1 9630   5.469   5.513   0.690
 3208TIP3    H2 9631   5.465   5.393   0.598
 3209TIP3   OH2 9632   4.348   1.502   4.893
 3209TIP3    H1 9633   4.281   1.564   4.919
 3209TIP3    H2 9634   4.317   1.418   4.926
 3210TIP3   OH2 9635   3.859   4.218   1.435
 3210TIP3    H1 9636   3.943   4.223   1.389
 3210TIP3    H2 9637   3.880   4.238   1.526
 3211TIP3   OH2 9638   0.218   2.240   3.601
 3211TIP3    H1 9639   0.198   2.282   3.684
 3211TIP3    H2 9640   0.178   2.153   3.607
 3212TIP3   OH2 9641   3.088   4.806   3.116
 3212TIP3    H1 9642   3.099   4.750   3.193
 3212TIP3    H2 9643   3.145   4.881   3.133
 3213TIP3   OH2 9644   4.609   5.375   2.896
 3213TIP3    H1 9645   4.654   5.413   2.820
 3213TIP3    H2 9646   4.677   5.367   2.963
 3214TIP3   OH2 9647   4.455   1.674   3.313
 3214TIP3    H1 9648   4.446   1.755   3.263
 3214TIP3    H2 9649   4.476   1.607   3.248
 3215TIP3   OH2 9650   0.541   0.633   4.758
 3215TIP3    H1 9651   0.576   0.655   4.845
 3215TIP3    H2 9652   0.607   0.577   4.719
 3216TIP3   OH2 9653   3.521   0.234   2.327
 3216TIP3    H1 9654   3.585   0.304   2.312
 3216TIP3    H2 9655   3.488   0.212   2.240
 3217TIP3   OH2 9656   2.917   2.160   0.807
 3217TIP3    H1 9657   2.867   2.175   0.727
 3217TIP3    H2 9658   2.968   2.081   0.789
 3218TIP3   OH2 9659   3.852   3.870   0.834
 3218TIP3    H1 9660   3.874   3.830   0.918
 3218TIP3    H2 9661   3.902   3.820   0.769
 3219TIP3   OH2 9662   3.244   0.352   1.493
 3219TIP3    H1 9663   3.295   0.272   1.504
 3219TIP3    H2 9664   3.154   0.326   1.508
 3220TIP3   OH2 9665   1.831   2.519   3.023
 3220TIP3    H1 9666   1.809   2.555   2.937
 3220TIP3    H2 9667   1.761   2.457   3.041
 3221TIP3   OH2 9668   5.985   3.381   4.825
 3221TIP3    H1 9669   5.955   3.310   4.768
 3221TIP3    H2 9670   5.909   3.439   4.833
 3222TIP3   OH2 9671   5.439   5.173   3.105
 3222TIP3    H1 9672   5.529   5.204   3.099
 3222TIP3    H2 9673   5.423   5.131   3.020
 3223TIP3   OH2 9674   2.791   5.695   4.600
 3223TIP3    H1 9675   2.723   5.642   4.558
 3223TIP3    H2 9676   2.865   5.635   4.608
 3224TIP3   OH2 9677   0.011   1.806   0.613
 3224TIP3    H1 9678   0.024   1.901   0.620
 3224TIP3    H2 9679   0.093   1.774   0.576
 3225TIP3   OH2 9680   5.056   1.449   2.095
 3225TIP3    H1 9681   5.062   1.527   2.150
 3225TIP3    H2 9682   5.023   1.381   2.154
 3226TIP3   OH2 9683   2.521   3.393   1.496
 3226TIP3    H1 9684   2.613   3.408   1.473
 3226TIP3    H2 9685   2.485   3.350   1.418
 3227TIP3   OH2 9686   1.011   0.559   4.109
 3227TIP3    H1 9687   0.960   0.614   4.049
 3227TIP3    H2 9688   1.006   0.604   4.193
 3228TIP3   OH2 9689   0.322   5.800   0.957
 3228TIP3    H1 9690   0.311   5.761   0.870
 3228TIP3    H2 9691   0.233   5.823   0.984
 3229TIP3   OH2 9692   1.474   2.231   2.726
 3229TIP3    H1 9693   1.503   2.140   2.717
 3229TIP3    H2 9694   1.438   2.236   2.814
 3230TIP3   OH2 9695   4.571   4.958   1.160
 3230TIP3    H1 9696   4.612   5.032   1.116
 3230TIP3    H2 9697   4.573   4.980   1.253
 3231TIP3   OH2 9698   0.459   5.879   2.935
 3231TIP3    H1 9699   0.403   5.802   2.947
 3231TIP3    H2 9700   0.527   5.850   2.874
 3232TIP3   OH2 9701   3.949   3.619   3.296
 3232TIP3    H1 9702   3.995   3.566   3.231
 3232TIP3    H2 9703   3.954   3.567   3.376
 3233TIP3   OH2 9704   4.785   5.088   0.133
 3233TIP3    H1 9705   4.786   5.156   0.200
 3233TIP3    H2 9706   4.868   5.097   0.087
 3234TIP3   OH2 9707   4.788   5.102   1.693
 3234TIP3    H1 9708   4.799   5.008   1.674
 3234TIP3    H2 9709   4.783   5.107   1.788
 3235TIP3   OH2 9710   5.278   1.373   4.878
 3235TIP3    H1 9711   5.228   1.429   4.818
 3235TIP3    H2 9712   5.369   1.385   4.852
 3236TIP3   OH2 9713   0.213   5.833   2.602
 3236TIP3    H1 9714   0.234   5.926   2.611
 3236TIP3    H2 9715   0.208   5.819   2.508
 3237TIP3   OH2 9716   1.027  -0.024   0.597
 3237TIP3    H1 9717   0.983   0.052   0.635
 3237TIP3    H2 9718   1.027  -0.008   0.503
 3238TIP3   OH2 9719   5.660   1.154   2.521
 3238TIP3    H1 9720   5.606   1.080   2.493
 3238TIP3    H2 9721   5.708   1.180   2.442
 3239TIP3   OH2 9722   4.278   4.608   4.662
 3239TIP3    H1 9723   4.335   4.678   4.694
 3239TIP3    H2 9724   4.323   4.574   4.585
 3240TIP3   OH2 9725   3.284   0.027   4.786
 3240TIP3    H1 9726   3.254  -0.052   4.831
 3240TIP3    H2 9727   3.246   0.022   4.699
 3241TIP3   OH2 9728   3.199   3.213   3.804
 3241TIP3    H1 9729   3.209   3.119   3.819
 3241TIP3    H2 9730   3.268   3.253   3.857
 3242TIP3   OH2 9731   1.894   4.510   4.951
 3242TIP3    H1 9732   1.875   4.419   4.929
 3242TIP3    H2 9733   1.822   4.536   5.008
 3243TIP3   OH2 9734   5.406   1.095   4.890
 3243TIP3    H1 9735   5.496   1.125   4.872
 3243TIP3    H2 9736   5.357   1.176   4.905
 3244TIP3   OH2 9737   3.804   4.718   2.167
 3244TIP3    H1 9738   3.873   4.716   2.234
 3244TIP3    H2 9739   3.824   4.643   2.110
 3245TIP3   OH2 9740   2.948   2.577   3.543
 3245TIP3    H1 9741   2.925   2.613   3.457
 3245TIP3    H2 9742   2.979   2.653   3.593
 3246TIP3   OH2 9743   3.053   3.086   2.429
 3246TIP3    H1 9744   3.001   3.040   2.494
 3246TIP3    H2 9745   3.035   3.040   2.347
 3247TIP3   OH2 9746   3.268   1.947   2.208
 3247TIP3    H1 9747   3.282   1.994   2.126
 3247TIP3    H2 9748   3.176   1.920   2.206
 3248TIP3   OH2 9749   5.198   4.340   3.025
 3248TIP3    H1 9750   5.119   4.369   2.980
 3248TIP3    H2 9751   5.191   4.378   3.113
 3249TIP3   OH2 9752   4.228   1.938   4.962
 3249TIP3    H1 9753   4.320   1.945   4.987
 3249TIP3    H2 9754   4.192   2.025   4.975
 3250TIP3   OH2 9755   3.601   4.193   1.094
 3250TIP3    H1 9756   3.632   4.269   1.144
 3250TIP3    H2 9757   3.660   4.189   1.018
 3251TIP3   OH2 9758   4.702   3.864   5.043
 3251TIP3    H1 9759   4.628   3.924   5.046
 3251TIP3    H2 9760   4.712   3.843   4.950
 3252TIP3   OH2 9761   3.977   3.103   3.030
 3252TIP3    H1 9762   4.041   3.052   2.981
 3252TIP3    H2 9763   3.993   3.194   3.004
 3253TIP3   OH2 9764   2.574   0.959   0.608
 3253TIP3    H1 9765   2.551   0.979   0.517
 3253TIP3    H2 9766   2.667   0.979   0.614
 3254TIP3   OH2 9767   5.288   2.315   0.365
 3254TIP3    H1 9768   5.247   2.389   0.409
 3254TIP3    H2 9769   5.377   2.313   0.398
 3255TIP3   OH2 9770   4.518   0.515   1.363
 3255TIP3    H1 9771   4.485   0.434   1.401
 3255TIP3    H2 9772   4.583   0.486   1.299
 3256TIP3   OH2 9773   1.922   2.521   4.225
 3256TIP3    H1 9774   1.848   2.495   4.279
 3256TIP3    H2 9775   1.898   2.496   4.137
 3257TIP3   OH2 9776   2.565   0.784   3.961
 3257TIP3    H1 9777   2.519   0.815   3.883
 3257TIP3    H2 9778   2.623   0.715   3.929
 3258TIP3   OH2 9779   4.300   4.091   1.833
 3258TIP3    H1 9780   4.360   4.028   1.792
 3258TIP3    H2 9781   4.260   4.041   1.905
 3259TIP3   OH2 9782   4.873   1.121   1.215
 3259TIP3    H1 9783   4.804   1.175   1.177
 3259TIP3    H2 9784   4.827   1.059   1.272
 3260TIP3   OH2 9785   3.742   2.426   2.976
 3260TIP3    H1 9786   3.835   2.407   2.975
 3260TIP3    H2 9787   3.701   2.343   2.952
 3261TIP3   OH2 9788   5.434   1.172   4.116
 3261TIP3    H1 9789   5.355   1.132   4.153
 3261TIP3    H2 9790   5.480   1.208   4.192
 3262TIP3   OH2 9791   3.250   1.687   3.399
 3262TIP3    H1 9792   3.175   1.663   3.453
 3262TIP3    H2 9793   3.309   1.733   3.458
 3263TIP3   OH2 9794   1.830   5.494   1.017
 3263TIP3    H1 9795   1.759   5.489   0.954
 3263TIP3    H2 9796   1.900   5.441   0.979
 3264TIP3   OH2 9797   2.793   5.924   0.196
 3264TIP3    H1 9798   2.863   5.930   0.131
 3264TIP3    H2 9799   2.832   5.958   0.276
 3265TIP3   OH2 9800   5.730   2.423   2.060
 3265TIP3    H1 9801   5.774   2.395   1.980
 3265TIP3    H2 9802   5.670   2.351   2.081
 3266TIP3   OH2 9803   6.302   5.021   0.446
 3266TIP3    H1 9804   6.310   5.012   0.541
 3266TIP3    H2 9805   6.306   4.932   0.412
 3267TIP3   OH2 9806   4.073   1.223   2.277
 3267TIP3    H1 9807   4.145   1.208   2.337
 3267TIP3    H2 9808   4.088   1.160   2.206
 3268TIP3   OH2 9809   2.404   0.772   3.702
 3268TIP3    H1 9810   2.389   0.867   3.698
 3268TIP3    H2 9811   2.454   0.752   3.623
 3269TIP3   OH2 9812   3.730   1.559   3.343
 3269TIP3    H1 9813   3.701   1.544   3.253
 3269TIP3    H2 9814   3.813   1.510   3.350
 3270TIP3   OH2 9815   4.196   4.536   0.628
 3270TIP3    H1 9816   4.282   4.494   0.626
 3270TIP3    H2 9817   4.165   4.523   0.718
 3271TIP3   OH2 9818   1.241   3.472   0.100
 3271TIP3    H1 9819   1.226   3.558   0.138
 3271TIP3    H2 9820   1.212   3.480   0.010
 3272TIP3   OH2 9821   1.837   0.423   4.251
 3272TIP3    H1 9822   1.780   0.395   4.323
 3272TIP3    H2 9823   1.892   0.491   4.290
 3273TIP3   OH2 9824   4.998   2.068   0.919
 3273TIP3    H1 9825   5.022   2.013   0.994
 3273TIP3    H2 9826   4.928   2.124   0.952
 3274TIP3   OH2 9827   4.722   5.237   5.100
 3274TIP3    H1 9828   4.814   5.219   5.121
 3274TIP3    H2 9829   4.721   5.250   5.006
 3275TIP3   OH2 9830   4.800   0.819   2.850
 3275TIP3    H1 9831   4.747   0.749   2.812
 3275TIP3    H2 9832   4.760   0.900   2.817
 3276TIP3   OH2 9833   3.437   3.053   0.289
 3276TIP3    H1 9834   3.346   3.080   0.273
 3276TIP3    H2 9835   3.481   3.134   0.317
 3277TIP3   OH2 9836   3.324   1.466   2.659
 3277TIP3    H1 9837   3.381   1.495   2.731
 3277TIP3    H2 9838   3.382   1.459   2.583
 3278TIP3   OH2 9839   1.473   4.768   1.209
 3278TIP3    H1 9840   1.435   4.681   1.206
 3278TIP3    H2 9841   1.493   4.783   1.301
 3279TIP3   OH2 9842   4.041   0.446   3.244
 3279TIP3    H1 9843   4.115   0.495   3.280
 3279TIP3    H2 9844   4.044   0.362   3.289
 3280TIP3   OH2 9845   1.299   4.092   0.522
 3280TIP3    H1 9846   1.212   4.131   0.524
 3280TIP3    H2 9847   1.336   4.118   0.437
 3281TIP3   OH2 9848   3.176   5.387   4.200
 3281TIP3    H1 9849   3.091   5.344   4.216
 3281TIP3    H2 9850   3.154   5.464   4.147
 3282TIP3   OH2 9851   2.050   1.216   4.543
 3282TIP3    H1 9852   2.144   1.204   4.547
 3282TIP3    H2 9853   2.038   1.302   4.503
 3283TIP3   OH2 9854   1.766   5.347   0.622
 3283TIP3    H1 9855   1.759   5.428   0.674
 3283TIP3    H2 9856   1.771   5.277   0.687
 3284TIP3   OH2 9857   4.686   0.048   1.814
 3284TIP3    H1 9858   4.734   0.082   1.890
 3284TIP3    H2 9859   4.594   0.054   1.839
 3285TIP3   OH2 9860   4.201   2.799   1.364
 3285TIP3    H1 9861   4.260   2.872   1.378
 3285TIP3    H2 9862   4.248   2.740   1.305
 3286TIP3   OH2 9863   4.456   1.394   1.574
 3286TIP3    H1 9864   4.535   1.374   1.524
 3286TIP3    H2 9865   4.398   1.320   1.557
 3287TIP3   OH2 9866   0.955   5.711   4.015
 3287TIP3    H1 9867   0.944   5.803   3.992
 3287TIP3    H2 9868   0.892   5.665   3.960
 3288TIP3   OH2 9869   2.023   3.704   2.763
 3288TIP3    H1 9870   1.975   3.639   2.815
 3288TIP3    H2 9871   2.095   3.732   2.820
 3289TIP3   OH2 9872   2.227   2.391   2.001
 3289TIP3    H1 9873   2.231   2.474   2.047
 3289TIP3    H2 9874   2.140   2.389   1.961
 3290TIP3   OH2 9875   3.816   4.318   4.514
 3290TIP3    H1 9876   3.866   4.386   4.558
 3290TIP3    H2 9877   3.880   4.272   4.460
 3291TIP3   OH2 9878   5.535   4.316   1.323
 3291TIP3    H1 9879   5.529   4.408   1.296
 3291TIP3    H2 9880   5.597   4.318   1.396
 3292TIP3   OH2 9881   2.142   0.754   3.948
 3292TIP3    H1 9882   2.168   0.804   3.871
 3292TIP3    H2 9883   2.219   0.756   4.005
 3293TIP3   OH2 9884   3.541   2.241   2.819
 3293TIP3    H1 9885   3.571   2.154   2.790
 3293TIP3    H2 9886   3.558   2.298   2.745
 3294TIP3   OH2 9887  -0.005   0.576   1.409
 3294TIP3    H1 9888  -0.043   0.603   1.492
 3294TIP3    H2 9889   0.089   0.570   1.425
 3295TIP3   OH2 9890   1.074   2.100   1.365
 3295TIP3    H1 9891   1.133   2.086   1.439
 3295TIP3    H2 9892   1.044   2.190   1.375
 3296TIP3   OH2 9893   5.377   3.399   0.779
 3296TIP3    H1 9894   5.420   3.412   0.864
 3296TIP3    H2 9895   5.286   3.423   0.795
 3297TIP3   OH2 9896   1.082   0.789   2.400
 3297TIP3    H1 9897   1.084   0.709   2.451
 3297TIP3    H2 9898   1.149   0.777   2.333
 3298TIP3   OH2 9899   1.154   0.852   4.589
 3298TIP3    H1 9900   1.132   0.923   4.528
 3298TIP3    H2 9901   1.232   0.813   4.552
 3299TIP3   OH2 9902   4.135   0.411   0.665
 3299TIP3    H1 9903   4.149   0.478   0.599
 3299TIP3    H2 9904   4.040   0.398   0.666
 3300TIP3   OH2 9905   5.376   5.202   1.922
 3300TIP3    H1 9906   5.389   5.107   1.916
 3300TIP3    H2 9907   5.463   5.239   1.906
 3301TIP3   OH2 9908   2.767   1.162   2.786
 3301TIP3    H1 9909   2.685   1.112   2.791
 3301TIP3    H2 9910   2.835   1.101   2.815
 3302TIP3   OH2 9911   4.358   3.960   0.492
 3302TIP3    H1 9912   4.286   3.999   0.542
 3302TIP3    H2 9913   4.415   3.922   0.559
 3303TIP3   OH2 9914   0.807   4.873   5.124
 3303TIP3    H1 9915   0.815   4.853   5.031
 3303TIP3    H2 9916   0.836   4.794   5.169
 3304TIP3   OH2 9917   5.471   3.405   2.944
 3304TIP3    H1 9918   5.552   3.457   2.941
 3304TIP3    H2 9919   5.481   3.341   2.874
 3305TIP3   OH2 9920   5.412   5.205   4.137
 3305TIP3    H1 9921   5.459   5.137   4.186
 3305TIP3    H2 9922   5.481   5.266   4.110
 3306TIP3   OH2 9923   1.518   2.771   1.372
 3306TIP3    H1 9924   1.483   2.858   1.353
 3306TIP3    H2 9925   1.476   2.713   1.307
 3307TIP3   OH2 9926   5.533   3.609   1.781
 3307TIP3    H1 9927   5.602   3.544   1.766
 3307TIP3    H2 9928   5.574   3.693   1.757
 3308TIP3   OH2 9929   1.311   4.984   3.523
 3308TIP3    H1 9930   1.277   4.895   3.534
 3308TIP3    H2 9931   1.263   5.018   3.448
 3309TIP3   OH2 9932   5.706   1.115   4.352
 3309TIP3    H1 9933   5.759   1.151   4.423
 3309TIP3    H2 9934   5.741   1.156   4.273
 3310TIP3   OH2 9935   2.249   1.422   0.959
 3310TIP3    H1 9936   2.262   1.517   0.960
 3310TIP3    H2 9937   2.210   1.404   0.873
 3311TIP3   OH2 9938   4.689   1.434   2.039
 3311TIP3    H1 9939   4.623   1.425   1.971
 3311TIP3    H2 9940   4.676   1.522   2.074
 3312TIP3   OH2 9941   5.725   4.383   0.557
 3312TIP3    H1 9942   5.651   4.444   0.563
 3312TIP3    H2 9943   5.716   4.343   0.470
 3313TIP3   OH2 9944   5.536   4.773   1.401
 3313TIP3    H1 9945   5.512   4.740   1.488
 3313TIP3    H2 9946   5.577   4.699   1.357
 3314TIP3   OH2 9947   3.229   4.845   1.919
 3314TIP3    H1 9948   3.318   4.879   1.926
 3314TIP3    H2 9949   3.226   4.774   1.984
 3315TIP3   OH2 9950   2.633   1.396   2.082
 3315TIP3    H1 9951   2.564   1.331   2.066
 3315TIP3    H2 9952   2.595   1.457   2.146
 3316TIP3   OH2 9953   4.130   2.694   2.054
 3316TIP3    H1 9954   4.052   2.642   2.036
 3316TIP3    H2 9955   4.096   2.777   2.088
 3317TIP3   OH2 9956   6.226   3.652   0.328
 3317TIP3    H1 9957   6.291   3.595   0.369
 3317TIP3    H2 9958   6.180   3.693   0.402
 3318TIP3   OH2 9959   3.193   3.097   4.798
 3318TIP3    H1 9960   3.164   3.022   4.747
 3318TIP3    H2 9961   3.289   3.090   4.798
 3319TIP3   OH2 9962   3.225   3.189   4.182
 3319TIP3    H1 9963   3.301   3.236   4.146
 3319TIP3    H2 9964   3.153   3.211   4.122
 3320TIP3   OH2 9965   2.927   0.117   4.270
 3320TIP3    H1 9966   3.005   0.132   4.218
 3320TIP3    H2 9967   2.933   0.180   4.342
 3321TIP3   OH2 9968   5.832   4.782   0.658
 3321TIP3    H1 9969   5.819   4.772   0.752
 3321TIP3    H2 9970   5.753   4.826   0.627
 3322TIP3   OH2 9971   2.681   2.279   1.742
 3322TIP3    H1 9972   2.710   2.348   1.801
 3322TIP3    H2 9973   2.759   2.253   1.694
 3323TIP3   OH2 9974   2.369   5.258   0.821
 3323TIP3    H1 9975   2.381   5.281   0.729
 3323TIP3    H2 9976   2.427   5.317   0.869
 3324TIP3   OH2 9977   4.823   1.635   4.539
 3324TIP3    H1 9978   4.778   1.696   4.480
 3324TIP3    H2 9979   4.890   1.594   4.484
 3325TIP3   OH2 9980   3.867   0.967   4.690
 3325TIP3    H1 9981   3.945   0.916   4.711
 3325TIP3    H2 9982   3.899   1.057   4.684
 3326TIP3   OH2 9983   4.453   3.196   4.090
 3326TIP3    H1 9984   4.538   3.228   4.122
 3326TIP3    H2 9985   4.428   3.259   4.023
 3327TIP3   OH2 9986   2.484   0.852   2.100
 3327TIP3    H1 9987   2.499   0.911   2.174
 3327TIP3    H2 9988   2.569   0.812   2.083
 3328TIP3   OH2 9989   2.612   0.404   1.206
 3328TIP3    H1 9990   2.602   0.385   1.112
 3328TIP3    H2 9991   2.706   0.399   1.222
 3329TIP3   OH2 9992   1.984   5.805   0.865
 3329TIP3    H1 9993   1.914   5.809   0.930
 3329TIP3    H2 9994   1.940   5.783   0.783
 3330TIP3   OH2 9995   1.086   2.996   1.315
 3330TIP3    H1 9996   1.015   3.060   1.323
 3330TIP3    H2 9997   1.130   2.999   1.400
 3331TIP3   OH2 9998   5.392   5.010   1.281
 3331TIP3    H1 9999   5.448   5.053   1.217
 3331TIP3    H210000   5.448   4.942   1.319
 3332TIP3   OH210001   4.050   3.364   3.759
 3332TIP3    H110002   4.029   3.271   3.761
 3332TIP3    H210003   4.074   3.382   3.668
 3333TIP3   OH210004   1.036   0.600   4.666
 3333TIP3    H110005   1.000   0.616   4.578
 3333TIP3    H210006   1.120   0.645   4.666
 3334TIP3   OH210007   1.277   0.542   2.975
 3334TIP3    H110008   1.220   0.587   2.913
 3334TIP3    H210009   1.261   0.586   3.058
 3335TIP3   OH210010   2.321   1.290   4.554
 3335TIP3    H110011   2.282   1.341   4.626
 3335TIP3    H210012   2.383   1.232   4.597
 3336TIP3   OH210013   4.126   4.425   4.521
 3336TIP3    H110014   4.216   4.428   4.489
 3336TIP3    H210015   4.133   4.435   4.616
 3337TIP3   OH210016   1.680   0.126   3.295
 3337TIP3    H110017   1.769   0.152   3.317
 3337TIP3    H210018   1.690   0.067   3.220
 3338TIP3   OH210019   2.423   3.862   1.828
 3338TIP3    H110020   2.353   3.867   1.893
 3338TIP3    H210021   2.453   3.771   1.831
 3339TIP3   OH210022   3.167   2.224   1.485
 3339TIP3    H110023   3.148   2.181   1.568
 3339TIP3    H210024   3.086   2.270   1.463
 3340TIP3   OH210025   3.468   4.190   1.978
 3340TIP3    H110026   3.533   4.120   1.968
 3340TIP3    H210027   3.518   4.271   1.969
 3341TIP3   OH210028   3.365   0.930   3.033
 3341TIP3    H110029   3.362   0.891   3.121
 3341TIP3    H210030   3.436   0.994   3.039
 3342TIP3   OH210031   3.648   5.946   2.544
 3342TIP3    H110032   3.669   5.980   2.631
 3342TIP3    H210033   3.666   6.019   2.485
 3343TIP3   OH210034   0.809   2.919   4.290
 3343TIP3    H110035   0.824   2.941   4.382
 3343TIP3    H210036   0.714   2.918   4.281
 3344TIP3   OH210037   1.100   0.411   1.931
 3344TIP3    H110038   1.022   0.369   1.893
 3344TIP3    H210039   1.128   0.474   1.865
 3345TIP3   OH210040   4.849   3.751   1.627
 3345TIP3    H110041   4.916   3.792   1.573
 3345TIP3    H210042   4.793   3.823   1.656
 3346TIP3   OH210043   4.927   1.217   0.007
 3346TIP3    H110044   4.989   1.144   0.005
 3346TIP3    H210045   4.982   1.295   0.007
 3347TIP3   OH210046   3.142   2.224   4.844
 3347TIP3    H110047   3.079   2.252   4.777
 3347TIP3    H210048   3.228   2.246   4.808
 3348TIP3   OH210049   1.542   0.663   0.838
 3348TIP3    H110050   1.572   0.631   0.753
 3348TIP3    H210051   1.622   0.672   0.890
 3349TIP3   OH210052   0.210   4.258   3.869
 3349TIP3    H110053   0.215   4.340   3.821
 3349TIP3    H210054   0.156   4.201   3.813
 3350TIP3   OH210055   5.864   0.179   2.793
 3350TIP3    H110056   5.848   0.101   2.846
 3350TIP3    H210057   5.952   0.208   2.819
 3351TIP3   OH210058   3.547   2.805   3.692
 3351TIP3    H110059   3.625   2.791   3.638
 3351TIP3    H210060   3.576   2.786   3.781
 3352TIP3   OH210061   4.530   3.313   3.687
 3352TIP3    H110062   4.481   3.373   3.631
 3352TIP3    H210063   4.468   3.286   3.754
 3353TIP3   OH210064   6.000   4.091   4.868
 3353TIP3    H110065   5.934   4.158   4.886
 3353TIP3    H210066   6.019   4.101   4.775
 3354TIP3   OH210067   3.689   3.405   3.008
 3354TIP3    H110068   3.683   3.477   3.071
 3354TIP3    H210069   3.665   3.445   2.924
 3355TIP3   OH210070   2.273   0.915   3.378
 3355TIP3    H110071   2.275   0.988   3.317
 3355TIP3    H210072   2.189   0.923   3.422
 3356TIP3   OH210073   3.576   3.492   1.792
 3356TIP3    H110074   3.506   3.449   1.743
 3356TIP3    H210075   3.539   3.576   1.818
 3357TIP3   OH210076   1.043   4.594   2.210
 3357TIP3    H110077   1.034   4.509   2.166
 3357TIP3    H210078   1.089   4.649   2.146
 3358TIP3   OH210079   3.211   5.068   2.710
 3358TIP3    H110080   3.120   5.052   2.686
 3358TIP3    H210081   3.207   5.138   2.776
 3359TIP3   OH210082   3.761   1.850   2.441
 3359TIP3    H110083   3.667   1.837   2.453
 3359TIP3    H210084   3.767   1.919   2.375
 3360TIP3   OH210085   2.558   0.192   2.907
 3360TIP3    H110086   2.582   0.125   2.843
 3360TIP3    H210087   2.564   0.148   2.992
 3361TIP3   OH210088   0.866   0.751   3.951
 3361TIP3    H110089   0.806   0.812   3.994
 3361TIP3    H210090   0.914   0.806   3.888
 3362TIP3   OH210091   1.553   4.980   3.939
 3362TIP3    H110092   1.479   4.941   3.986
 3362TIP3    H210093   1.629   4.933   3.973
 3363TIP3   OH210094   5.802   4.303   0.840
 3363TIP3    H110095   5.815   4.296   0.746
 3363TIP3    H210096   5.798   4.213   0.871
 3364TIP3   OH210097   3.547   0.381   4.042
 3364TIP3    H110098   3.596   0.404   3.963
 3364TIP3    H210099   3.541   0.285   4.039
 3365TIP3   OH210100   0.152   3.528   3.799
 3365TIP3    H110101   0.144   3.432   3.801
 3365TIP3    H210102   0.235   3.544   3.755
 3366TIP3   OH210103   4.121   3.450   3.164
 3366TIP3    H110104   4.056   3.397   3.117
 3366TIP3    H210105   4.154   3.392   3.232
 3367TIP3   OH210106   4.564   4.120   4.137
 3367TIP3    H110107   4.517   4.189   4.090
 3367TIP3    H210108   4.537   4.039   4.093
 3368TIP3   OH210109   1.167   5.320   0.806
 3368TIP3    H110110   1.081   5.360   0.816
 3368TIP3    H210111   1.165   5.245   0.865
 3369TIP3   OH210112   3.851   4.324   4.928
 3369TIP3    H110113   3.820   4.261   4.993
 3369TIP3    H210114   3.855   4.275   4.846
 3370TIP3   OH210115   2.872   2.731   0.345
 3370TIP3    H110116   2.941   2.750   0.410
 3370TIP3    H210117   2.806   2.798   0.360
 3371TIP3   OH210118   3.561   3.186   5.054
 3371TIP3    H110119   3.491   3.241   5.017
 3371TIP3    H210120   3.534   3.169   5.144
 3372TIP3   OH210121   4.445   4.708   1.167
 3372TIP3    H110122   4.426   4.720   1.260
 3372TIP3    H210123   4.484   4.791   1.140
 3373TIP3   OH210124   5.220   4.060   4.490
 3373TIP3    H110125   5.261   4.110   4.561
 3373TIP3    H210126   5.175   4.126   4.438
 3374TIP3   OH210127   1.373   5.721   4.140
 3374TIP3    H110128   1.299   5.661   4.128
 3374TIP3    H210129   1.427   5.708   4.062
 3375TIP3   OH210130   0.691   3.601   3.648
 3375TIP3    H110131   0.693   3.690   3.612
 3375TIP3    H210132   0.775   3.563   3.623
 3376TIP3   OH210133   2.511   4.779   2.439
 3376TIP3    H110134   2.535   4.871   2.450
 3376TIP3    H210135   2.449   4.779   2.365
 3377TIP3   OH210136   0.828   0.623   1.140
 3377TIP3    H110137   0.815   0.542   1.190
 3377TIP3    H210138   0.858   0.687   1.205
 3378TIP3   OH210139   4.108   0.734   0.526
 3378TIP3    H110140   4.196   0.702   0.544
 3378TIP3    H210141   4.122   0.818   0.482
 3379TIP3   OH210142   2.179   4.793   0.229
 3379TIP3    H110143   2.136   4.796   0.144
 3379TIP3    H210144   2.139   4.718   0.273
 3380TIP3   OH210145   4.928   0.681   2.151
 3380TIP3    H110146   4.943   0.613   2.217
 3380TIP3    H210147   5.007   0.680   2.097
 3381TIP3   OH210148   4.767   0.477   4.220
 3381TIP3    H110149   4.787   0.531   4.297
 3381TIP3    H210150   4.829   0.405   4.224
 3382TIP3   OH210151   3.690   4.971   1.612
 3382TIP3    H110152   3.654   4.882   1.616
 3382TIP3    H210153   3.755   4.973   1.682
 3383TIP3   OH210154   4.615   3.452   0.298
 3383TIP3    H110155   4.605   3.496   0.383
 3383TIP3    H210156   4.710   3.444   0.287
 3384TIP3   OH210157   3.493   1.210   2.889
 3384TIP3    H110158   3.571   1.192   2.837
 3384TIP3    H210159   3.526   1.234   2.975
 3385TIP3   OH210160   2.707   3.089   3.439
 3385TIP3    H110161   2.676   3.031   3.370
 3385TIP3    H210162   2.803   3.080   3.437
 3386TIP3   OH210163   3.277   1.195   1.056
 3386TIP3    H110164   3.297   1.229   1.143
 3386TIP3    H210165   3.201   1.139   1.069
 3387TIP3   OH210166   3.766   1.387   0.790
 3387TIP3    H110167   3.727   1.474   0.794
 3387TIP3    H210168   3.705   1.332   0.840
 3388TIP3   OH210169   1.621   4.627   0.101
 3388TIP3    H110170   1.653   4.643   0.190
 3388TIP3    H210171   1.556   4.696   0.086
 3389TIP3   OH210172   2.349   2.138   0.108
 3389TIP3    H110173   2.379   2.098   0.190
 3389TIP3    H210174   2.390   2.224   0.107
 3390TIP3   OH210175   6.275   5.801   0.655
 3390TIP3    H110176   6.265   5.881   0.602
 3390TIP3    H210177   6.306   5.736   0.593
 3391TIP3   OH210178   2.822   5.719   3.120
 3391TIP3    H110179   2.796   5.771   3.044
 3391TIP3    H210180   2.854   5.637   3.082
 3392TIP3   OH210181   4.756   1.372   0.681
 3392TIP3    H110182   4.852   1.378   0.676
 3392TIP3    H210183   4.725   1.425   0.607
 3393TIP3   OH210184   0.528   0.316   4.410
 3393TIP3    H110185   0.433   0.327   4.401
 3393TIP3    H210186   0.558   0.288   4.324
 3394TIP3   OH210187   4.780   4.270   1.075
 3394TIP3    H110188   4.758   4.362   1.062
 3394TIP3    H210189   4.842   4.270   1.149
 3395TIP3   OH210190   3.066   5.811   0.408
 3395TIP3    H110191   2.995   5.875   0.410
 3395TIP3    H210192   3.106   5.818   0.495
 3396TIP3   OH210193   3.239   4.760   3.377
 3396TIP3    H110194   3.278   4.715   3.452
 3396TIP3    H210195   3.169   4.702   3.348
 3397TIP3   OH210196   4.423   4.545   5.090
 3397TIP3    H110197   4.513   4.550   5.121
 3397TIP3    H210198   4.385   4.629   5.116
 3398TIP3   OH210199   5.863   4.252   2.902
 3398TIP3    H110200   5.926   4.237   2.972
 3398TIP3    H210201   5.823   4.167   2.887
 3399TIP3   OH210202   0.396   0.093   1.000
 3399TIP3    H110203   0.463   0.132   1.056
 3399TIP3    H210204   0.445   0.046   0.933
 3400TIP3   OH210205   4.884   1.517   4.992
 3400TIP3    H110206   4.908   1.438   5.041
 3400TIP3    H210207   4.808   1.492   4.941
 3401TIP3   OH210208   6.233   5.040   3.048
 3401TIP3    H110209   6.294   4.999   2.987
 3401TIP3    H210210   6.268   5.020   3.135
 3402TIP3   OH210211   2.856   2.389   2.534
 3402TIP3    H110212   2.799   2.360   2.462
 3402TIP3    H210213   2.943   2.392   2.495
 3403TIP3   OH210214   2.425   1.682   3.930
 3403TIP3    H110215   2.396   1.654   4.017
 3403TIP3    H210216   2.473   1.607   3.895
 3404TIP3   OH210217   1.815   2.088   1.926
 3404TIP3    H110218   1.891   2.043   1.890
 3404TIP3    H210219   1.751   2.087   1.855
 3405TIP3   OH210220   6.144   2.481   2.828
 3405TIP3    H110221   6.123   2.432   2.908
 3405TIP3    H210222   6.093   2.438   2.760
 3406TIP3   OH210223   2.230   0.645   4.508
 3406TIP3    H110224   2.204   0.736   4.523
 3406TIP3    H210225   2.233   0.607   4.596
 3407TIP3   OH210226   3.622   4.665   2.809
 3407TIP3    H110227   3.695   4.655   2.872
 3407TIP3    H210228   3.561   4.724   2.853
 3408TIP3   OH210229   5.440   2.898   0.007
 3408TIP3    H110230   5.449   2.977   0.060
 3408TIP3    H210231   5.346   2.880   0.007
 3409TIP3   OH210232   0.465   4.357   0.254
 3409TIP3    H110233   0.428   4.328   0.170
 3409TIP3    H210234   0.527   4.287   0.277
 3410TIP3   OH210235   1.622   5.957   3.686
 3410TIP3    H110236   1.649   5.921   3.770
 3410TIP3    H210237   1.552   6.019   3.709
 3411TIP3   OH210238   5.378   4.430   3.290
 3411TIP3    H110239   5.419   4.375   3.357
 3411TIP3    H210240   5.445   4.495   3.268
 3412TIP3   OH210241   0.074   1.017   3.628
 3412TIP3    H110242   0.159   1.001   3.587
 3412TIP3    H210243   0.051   1.106   3.601
 3413TIP3   OH210244   1.768   5.133   4.201
 3413TIP3    H110245   1.836   5.115   4.136
 3413TIP3    H210246   1.730   5.047   4.220
 3414TIP3   OH210247   4.912   2.613   0.550
 3414TIP3    H110248   4.907   2.554   0.625
 3414TIP3    H210249   4.971   2.569   0.488
 3415TIP3   OH210250   4.566   5.747   2.159
 3415TIP3    H110251   4.507   5.819   2.138
 3415TIP3    H210252   4.509   5.670   2.162
 3416TIP3   OH210253   3.928   4.121   1.141
 3416TIP3    H110254   3.882   4.112   1.057
 3416TIP3    H210255   3.937   4.215   1.154
 3417TIP3   OH210256   0.786   3.556   5.168
 3417TIP3    H110257   0.856   3.535   5.107
 3417TIP3    H210258   0.775   3.651   5.162
 3418TIP3   OH210259   2.542   4.903   5.044
 3418TIP3    H110260   2.631   4.881   5.070
 3418TIP3    H210261   2.504   4.821   5.012
 3419TIP3   OH210262   2.080   2.609   1.281
 3419TIP3    H110263   1.992   2.588   1.311
 3419TIP3    H210264   2.119   2.659   1.354
 3420TIP3   OH210265   5.959   3.012   3.624
 3420TIP3    H110266   5.925   2.934   3.580
 3420TIP3    H210267   5.894   3.080   3.606
 3421TIP3   OH210268   1.666   0.004   1.499
 3421TIP3    H110269   1.746  -0.008   1.550
 3421TIP3    H210270   1.686   0.076   1.439
 3422TIP3   OH210271   4.639   0.427   3.463
 3422TIP3    H110272   4.581   0.408   3.389
 3422TIP3    H210273   4.685   0.506   3.438
 3423TIP3   OH210274   1.521   1.306   3.978
 3423TIP3    H110275   1.490   1.385   3.933
 3423TIP3    H210276   1.581   1.265   3.915
 3424TIP3   OH210277   4.683   0.565   2.346
 3424TIP3    H110278   4.742   0.553   2.420
 3424TIP3    H210279   4.673   0.660   2.339
 3425TIP3   OH210280   2.931   0.396   4.397
 3425TIP3    H110281   3.025   0.379   4.411
 3425TIP3    H210282   2.889   0.365   4.476
 3426TIP3   OH210283   2.813   1.379   2.625
 3426TIP3    H110284   2.807   1.289   2.656
 3426TIP3    H210285   2.898   1.410   2.658
 3427TIP3   OH210286   5.613   5.389   2.086
 3427TIP3    H110287   5.663   5.320   2.041
 3427TIP3    H210288   5.582   5.446   2.016
 3428TIP3   OH210289   5.099   1.919   2.816
 3428TIP3    H110290   5.051   1.837   2.834
 3428TIP3    H210291   5.058   1.954   2.737
 3429TIP3   OH210292   2.253   2.946   4.479
 3429TIP3    H110293   2.235   2.880   4.412
 3429TIP3    H210294   2.281   2.896   4.556
 3430TIP3   OH210295   6.367   4.761   3.646
 3430TIP3    H110296   6.420   4.798   3.716
 3430TIP3    H210297   6.317   4.834   3.611
 3431TIP3   OH210298   5.954   4.162   3.384
 3431TIP3    H110299   5.922   4.132   3.469
 3431TIP3    H210300   5.875   4.173   3.331
 3432TIP3   OH210301   4.151   0.757   2.525
 3432TIP3    H110302   4.204   0.807   2.587
 3432TIP3    H210303   4.103   0.823   2.476
 3433TIP3   OH210304   0.398   2.169   1.543
 3433TIP3    H110305   0.454   2.239   1.510
 3433TIP3    H210306   0.435   2.147   1.628
 3434TIP3   OH210307   4.375   2.609   2.156
 3434TIP3    H110308   4.294   2.631   2.111
 3434TIP3    H210309   4.443   2.619   2.089
 3435TIP3   OH210310   6.128   5.537   0.503
 3435TIP3    H110311   6.124   5.502   0.592
 3435TIP3    H210312   6.040   5.572   0.488
 3436TIP3   OH210313   0.695   4.633   4.117
 3436TIP3    H110314   0.666   4.542   4.117
 3436TIP3    H210315   0.747   4.642   4.037
 3437TIP3   OH210316   0.031   4.517   4.717
 3437TIP3    H110317   0.123   4.504   4.741
 3437TIP3    H210318  -0.018   4.462   4.779
 3438TIP3   OH210319   1.259   5.950   1.312
 3438TIP3    H110320   1.319   6.010   1.269
 3438TIP3    H210321   1.275   5.962   1.405
 3439TIP3   OH210322   1.912   0.551   0.222
 3439TIP3    H110323   1.903   0.458   0.245
 3439TIP3    H210324   1.883   0.598   0.300
 3440TIP3   OH210325   0.600   4.566   1.204
 3440TIP3    H110326   0.565   4.643   1.159
 3440TIP3    H210327   0.559   4.568   1.290
 3441TIP3   OH210328   1.296   4.112   0.257
 3441TIP3    H110329   1.237   4.054   0.208
 3441TIP3    H210330   1.254   4.198   0.251
 3442TIP3   OH210331   2.260   3.928   3.504
 3442TIP3    H110332   2.307   3.926   3.588
 3442TIP3    H210333   2.326   3.955   3.441
 3443TIP3   OH210334   6.090   3.532   1.196
 3443TIP3    H110335   6.050   3.571   1.118
 3443TIP3    H210336   6.101   3.605   1.256
 3444TIP3   OH210337   0.942   5.599   4.732
 3444TIP3    H110338   1.012   5.607   4.798
 3444TIP3    H210339   0.958   5.672   4.672
 3445TIP3   OH210340   0.666   2.161   4.623
 3445TIP3    H110341   0.626   2.216   4.690
 3445TIP3    H210342   0.739   2.118   4.669
 3446TIP3   OH210343   2.374   0.357   4.531
 3446TIP3    H110344   2.298   0.359   4.590
 3446TIP3    H210345   2.372   0.442   4.487
 3447TIP3   OH210346   4.841   2.568   2.211
 3447TIP3    H110347   4.823   2.574   2.117
 3447TIP3    H210348   4.935   2.548   2.216
 3448TIP3   OH210349   5.375   0.677   4.056
 3448TIP3    H110350   5.390   0.772   4.057
 3448TIP3    H210351   5.369   0.655   3.963
 3449TIP3   OH210352   5.522   1.872   3.456
 3449TIP3    H110353   5.435   1.859   3.493
 3449TIP3    H210354   5.581   1.865   3.531
 3450TIP3   OH210355   0.045   2.129   0.204
 3450TIP3    H110356   0.036   2.070   0.129
 3450TIP3    H210357   0.091   2.076   0.270
 3451TIP3   OH210358   2.079   5.347   0.957
 3451TIP3    H110359   2.110   5.437   0.956
 3451TIP3    H210360   2.151   5.298   0.999
 3452TIP3   OH210361   3.595   5.604   2.300
 3452TIP3    H110362   3.638   5.685   2.274
 3452TIP3    H210363   3.663   5.537   2.297
 3453TIP3   OH210364   0.216   0.436   4.867
 3453TIP3    H110365   0.186   0.457   4.956
 3453TIP3    H210366   0.144   0.386   4.829
 3454TIP3   OH210367   1.164   5.120   1.842
 3454TIP3    H110368   1.252   5.107   1.807
 3454TIP3    H210369   1.113   5.047   1.808
 3455TIP3   OH210370   5.569   3.938   3.635
 3455TIP3    H110371   5.499   3.906   3.578
 3455TIP3    H210372   5.649   3.929   3.584
 3456TIP3   OH210373   0.287   4.806   2.618
 3456TIP3    H110374   0.346   4.758   2.560
 3456TIP3    H210375   0.300   4.767   2.704
 3457TIP3   OH210376   3.362   3.255   2.735
 3457TIP3    H110377   3.328   3.329   2.785
 3457TIP3    H210378   3.325   3.178   2.778
 3458TIP3   OH210379   1.325   3.554   4.308
 3458TIP3    H110380   1.363   3.529   4.224
 3458TIP3    H210381   1.244   3.504   4.313
 3459TIP3   OH210382   3.247   1.266   2.870
 3459TIP3    H110383   3.248   1.320   2.790
 3459TIP3    H210384   3.337   1.236   2.880
 3460TIP3   OH210385   0.873   3.115   2.199
 3460TIP3    H110386   0.865   3.165   2.118
 3460TIP3    H210387   0.906   3.030   2.172
 3461TIP3   OH210388   2.635   3.177   4.244
 3461TIP3    H110389   2.705   3.230   4.283
 3461TIP3    H210390   2.621   3.216   4.158
 3462TIP3   OH210391   1.581   0.409   4.795
 3462TIP3    H110392   1.531   0.455   4.863
 3462TIP3    H210393   1.531   0.330   4.777
 3463TIP3   OH210394   2.256   3.701   3.017
 3463TIP3    H110395   2.304   3.624   3.047
 3463TIP3    H210396   2.168   3.691   3.054
 3464TIP3   OH210397   0.432   1.888   3.122
 3464TIP3    H110398   0.389   1.949   3.063
 3464TIP3    H210399   0.483   1.830   3.064
 3465TIP3   OH210400   2.294   0.029   0.465
 3465TIP3    H110401   2.281   0.088   0.538
 3465TIP3    H210402   2.207  -0.009   0.448
 3466TIP3   OH210403   6.231   2.485   3.477
 3466TIP3    H110404   6.259   2.566   3.434
 3466TIP3    H210405   6.293   2.473   3.548
 3467TIP3   OH210406   0.701   4.539   2.042
 3467TIP3    H110407   0.679   4.456   2.000
 3467TIP3    H210408   0.696   4.521   2.136
 3468TIP3   OH210409   0.550   0.613   4.347
 3468TIP3    H110410   0.545   0.677   4.418
 3468TIP3    H210411   0.490   0.544   4.372
 3469TIP3   OH210412   3.444   1.073   4.947
 3469TIP3    H110413   3.402   0.999   4.992
 3469TIP3    H210414   3.488   1.121   5.016
 3470TIP3   OH210415   2.600   1.898   3.345
 3470TIP3    H110416   2.592   1.837   3.419
 3470TIP3    H210417   2.691   1.888   3.316
 3471TIP3   OH210418   0.590   1.281   0.407
 3471TIP3    H110419   0.665   1.312   0.457
 3471TIP3    H210420   0.616   1.290   0.315
 3472TIP3   OH210421   2.181   3.297   1.424
 3472TIP3    H110422   2.184   3.390   1.448
 3472TIP3    H210423   2.207   3.251   1.503
 3473TIP3   OH210424   3.288   4.947   4.823
 3473TIP3    H110425   3.376   4.953   4.860
 3473TIP3    H210426   3.291   4.871   4.765
 3474TIP3   OH210427   4.131   0.281   1.861
 3474TIP3    H110428   4.185   0.352   1.895
 3474TIP3    H210429   4.089   0.244   1.938
 3475TIP3   OH210430   4.289   1.697   0.976
 3475TIP3    H110431   4.375   1.687   1.017
 3475TIP3    H210432   4.279   1.619   0.921
 3476TIP3   OH210433   3.156   1.104   2.503
 3476TIP3    H110434   3.249   1.089   2.520
 3476TIP3    H210435   3.114   1.087   2.587
 3477TIP3   OH210436   4.234   4.262   4.216
 3477TIP3    H110437   4.254   4.332   4.155
 3477TIP3    H210438   4.313   4.253   4.270
 3478TIP3   OH210439   2.800   3.731   1.889
 3478TIP3    H110440   2.736   3.693   1.949
 3478TIP3    H210441   2.754   3.805   1.850
 3479TIP3   OH210442   3.263   0.561   1.323
 3479TIP3    H110443   3.185   0.569   1.268
 3479TIP3    H210444   3.247   0.482   1.374
 3480TIP3   OH210445   1.629   5.651   0.516
 3480TIP3    H110446   1.642   5.600   0.436
 3480TIP3    H210447   1.536   5.675   0.514
 3481TIP3   OH210448   0.831   5.807   0.462
 3481TIP3    H110449   0.900   5.847   0.408
 3481TIP3    H210450   0.797   5.736   0.408
 3482TIP3   OH210451   3.960   4.482   3.466
 3482TIP3    H110452   3.967   4.498   3.560
 3482TIP3    H210453   4.015   4.404   3.451
 3483TIP3   OH210454   3.645   0.554   0.446
 3483TIP3    H110455   3.552   0.575   0.436
 3483TIP3    H210456   3.650   0.460   0.427
 3484TIP3   OH210457   3.690   2.559   3.685
 3484TIP3    H110458   3.772   2.538   3.641
 3484TIP3    H210459   3.625   2.563   3.614
 3485TIP3   OH210460   2.039   5.911   2.452
 3485TIP3    H110461   2.001   5.998   2.461
 3485TIP3    H210462   2.090   5.915   2.371
 3486TIP3   OH210463   0.659   5.872   0.034
 3486TIP3    H110464   0.578   5.922   0.047
 3486TIP3    H210465   0.700   5.913  -0.042
 3487TIP3   OH210466   5.255   4.784   0.413
 3487TIP3    H110467   5.285   4.755   0.499
 3487TIP3    H210468   5.234   4.702   0.366
 3488TIP3   OH210469   2.116   1.150   2.029
 3488TIP3    H110470   2.209   1.127   2.027
 3488TIP3    H210471   2.085   1.115   2.113
 3489TIP3   OH210472   2.411   4.486   2.500
 3489TIP3    H110473   2.430   4.571   2.541
 3489TIP3    H210474   2.496   4.441   2.498
 3490TIP3   OH210475   3.007   4.392   4.710
 3490TIP3    H110476   2.959   4.309   4.710
 3490TIP3    H210477   3.092   4.370   4.748
 3491TIP3   OH210478   1.124   1.752   4.615
 3491TIP3    H110479   1.085   1.716   4.694
 3491TIP3    H210480   1.217   1.761   4.636
 3492TIP3   OH210481   5.890   0.918   5.111
 3492TIP3    H110482   5.951   0.861   5.064
 3492TIP3    H210483   5.863   0.867   5.187
 3493TIP3   OH210484   1.633   2.303   4.774
 3493TIP3    H110485   1.598   2.333   4.858
 3493TIP3    H210486   1.562   2.255   4.733
 3494TIP3   OH210487   1.150   4.317   3.791
 3494TIP3    H110488   1.147   4.374   3.868
 3494TIP3    H210489   1.151   4.228   3.827
 3495TIP3   OH210490   0.884   4.386   4.351
 3495TIP3    H110491   0.935   4.465   4.363
 3495TIP3    H210492   0.814   4.391   4.416
 3496TIP3   OH210493   6.323   2.329   2.412
 3496TIP3    H110494   6.383   2.259   2.438
 3496TIP3    H210495   6.244   2.314   2.463
 3497TIP3   OH210496   2.821   1.646   5.141
 3497TIP3    H110497   2.728   1.623   5.148
 3497TIP3    H210498   2.844   1.680   5.227
 3498TIP3   OH210499   0.701   3.295   4.328
 3498TIP3    H110500   0.700   3.320   4.236
 3498TIP3    H210501   0.789   3.320   4.358
 3499TIP3   OH210502   1.788   5.825   4.836
 3499TIP3    H110503   1.865   5.825   4.778
 3499TIP3    H210504   1.806   5.754   4.898
 3500TIP3   OH210505   4.735   3.361   2.127
 3500TIP3    H110506   4.678   3.370   2.203
 3500TIP3    H210507   4.704   3.428   2.066
 3501TIP3   OH210508   3.571   3.484   2.282
 3501TIP3    H110509   3.516   3.464   2.357
 3501TIP3    H210510   3.516   3.537   2.224
 3502TIP3   OH210511   5.885   4.007   3.675
 3502TIP3    H110512   5.857   4.048   3.757
 3502TIP3    H210513   5.981   4.015   3.677
 3503TIP3   OH210514   3.320   4.883   2.267
 3503TIP3    H110515   3.293   4.810   2.323
 3503TIP3    H210516   3.415   4.888   2.278
 3504TIP3   OH210517   2.095   0.850   0.392
 3504TIP3    H110518   2.020   0.909   0.397
 3504TIP3    H210519   2.089   0.796   0.471
 3505TIP3   OH210520   4.189   1.659   3.424
 3505TIP3    H110521   4.159   1.568   3.432
 3505TIP3    H210522   4.285   1.652   3.421
 3506TIP3   OH210523   0.831   0.787   4.807
 3506TIP3    H110524   0.779   0.854   4.763
 3506TIP3    H210525   0.867   0.733   4.736
 3507TIP3   OH210526   0.987   1.480   0.321
 3507TIP3    H110527   0.935   1.425   0.380
 3507TIP3    H210528   1.077   1.469   0.351
 3508TIP3   OH210529   4.807   0.188   2.067
 3508TIP3    H110530   4.867   0.117   2.092
 3508TIP3    H210531   4.863   0.251   2.021
 3509TIP3   OH210532   3.798   2.094   1.809
 3509TIP3    H110533   3.740   2.037   1.757
 3509TIP3    H210534   3.865   2.123   1.747
 3510TIP3   OH210535   1.433   3.889   2.124
 3510TIP3    H110536   1.461   3.913   2.213
 3510TIP3    H210537   1.443   3.969   2.073
 3511TIP3   OH210538   2.623   1.414   3.651
 3511TIP3    H110539   2.577   1.427   3.568
 3511TIP3    H210540   2.552   1.411   3.716
 3512TIP3   OH210541   4.711   5.216   1.464
 3512TIP3    H110542   4.622   5.249   1.465
 3512TIP3    H210543   4.724   5.178   1.551
 3513TIP3   OH210544   0.469   3.256   2.704
 3513TIP3    H110545   0.449   3.169   2.671
 3513TIP3    H210546   0.536   3.290   2.645
 3514TIP3   OH210547   1.262   0.081   1.549
 3514TIP3    H110548   1.240   0.076   1.642
 3514TIP3    H210549   1.188   0.039   1.504
 3515TIP3   OH210550   4.485   0.465   1.732
 3515TIP3    H110551   4.426   0.484   1.660
 3515TIP3    H210552   4.533   0.387   1.704
 3516TIP3   OH210553   3.491   1.564   2.855
 3516TIP3    H110554   3.472   1.658   2.855
 3516TIP3    H210555   3.579   1.557   2.818
 3517TIP3   OH210556   4.052   5.947   3.383
 3517TIP3    H110557   4.130   5.995   3.355
 3517TIP3    H210558   4.007   6.007   3.442
 3518TIP3   OH210559   3.851   2.682   3.893
 3518TIP3    H110560   3.856   2.764   3.844
 3518TIP3    H210561   3.792   2.626   3.842
 3519TIP3   OH210562   0.998   3.505   0.832
 3519TIP3    H110563   1.080   3.532   0.875
 3519TIP3    H210564   1.016   3.514   0.739
 3520TIP3   OH210565   5.382   1.212   2.171
 3520TIP3    H110566   5.359   1.290   2.221
 3520TIP3    H210567   5.477   1.213   2.167
 3521TIP3   OH210568   4.130   4.346   3.131
 3521TIP3    H110569   4.103   4.432   3.161
 3521TIP3    H210570   4.162   4.302   3.210
 3522TIP3   OH210571   1.981   2.239   5.095
 3522TIP3    H110572   1.969   2.147   5.071
 3522TIP3    H210573   1.946   2.288   5.021
 3523TIP3   OH210574   1.776   1.834   1.047
 3523TIP3    H110575   1.856   1.810   1.001
 3523TIP3    H210576   1.742   1.751   1.081
 3524TIP3   OH210577   5.572   4.327   2.469
 3524TIP3    H110578   5.528   4.255   2.424
 3524TIP3    H210579   5.662   4.296   2.483
 3525TIP3   OH210580   5.373   4.336   4.169
 3525TIP3    H110581   5.315   4.323   4.094
 3525TIP3    H210582   5.457   4.363   4.131
 3526TIP3   OH210583   1.920   1.646   4.611
 3526TIP3    H110584   1.874   1.703   4.550
 3526TIP3    H210585   1.851   1.596   4.654
 3527TIP3   OH210586   0.055   2.697   2.039
 3527TIP3    H110587   0.125   2.637   2.016
 3527TIP3    H210588  -0.018   2.672   1.982
 3528TIP3   OH210589   5.228   4.060   1.596
 3528TIP3    H110590   5.213   3.968   1.618
 3528TIP3    H210591   5.243   4.102   1.681
 3529TIP3   OH210592   3.516   0.570   2.558
 3529TIP3    H110593   3.535   0.485   2.597
 3529TIP3    H210594   3.427   0.591   2.588
 3530TIP3   OH210595   1.033   2.940   2.050
 3530TIP3    H110596   1.126   2.921   2.038
 3530TIP3    H210597   0.998   2.943   1.961
 3531TIP3   OH210598   3.597   2.118   4.600
 3531TIP3    H110599   3.519   2.081   4.641
 3531TIP3    H210600   3.619   2.193   4.655
 3532TIP3   OH210601   0.796   2.252   4.228
 3532TIP3    H110602   0.857   2.182   4.204
 3532TIP3    H210603   0.711   2.210   4.230
 3533TIP3   OH210604   4.755   4.004   1.686
 3533TIP3    H110605   4.779   4.063   1.614
 3533TIP3    H210606   4.813   4.030   1.758
 3534TIP3   OH210607   6.189   5.427   3.913
 3534TIP3    H110608   6.284   5.414   3.912
 3534TIP3    H210609   6.162   5.407   3.823
 3535TIP3   OH210610   2.314   4.103   1.581
 3535TIP3    H110611   2.226   4.142   1.583
 3535TIP3    H210612   2.373   4.174   1.605
 3536TIP3   OH210613   2.915   4.013   0.336
 3536TIP3    H110614   2.945   3.924   0.355
 3536TIP3    H210615   2.830   4.001   0.294
 3537TIP3   OH210616   0.961   4.075   1.703
 3537TIP3    H110617   1.027   4.010   1.680
 3537TIP3    H210618   0.883   4.050   1.653
 3538TIP3   OH210619   0.513   1.705   5.038
 3538TIP3    H110620   0.481   1.791   5.068
 3538TIP3    H210621   0.536   1.659   5.119
 3539TIP3   OH210622   3.441   0.090   3.583
 3539TIP3    H110623   3.395   0.008   3.565
 3539TIP3    H210624   3.405   0.120   3.666
 3540TIP3   OH210625   4.733   4.630   1.295
 3540TIP3    H110626   4.757   4.722   1.285
 3540TIP3    H210627   4.650   4.622   1.248
 3541TIP3   OH210628   0.755   5.988   1.932
 3541TIP3    H110629   0.818   5.937   1.881
 3541TIP3    H210630   0.682   6.003   1.872
 3542TIP3   OH210631   2.765   4.257   5.024
 3542TIP3    H110632   2.687   4.286   5.072
 3542TIP3    H210633   2.774   4.165   5.046
 3543TIP3   OH210634   4.946   5.711   2.769
 3543TIP3    H110635   4.970   5.803   2.755
 3543TIP3    H210636   5.001   5.662   2.708
 3544TIP3   OH210637   4.741   4.108   0.673
 3544TIP3    H110638   4.696   4.165   0.610
 3544TIP3    H210639   4.829   4.144   0.679
 3545TIP3   OH210640   6.324   1.504   4.803
 3545TIP3    H110641   6.403   1.449   4.803
 3545TIP3    H210642   6.253   1.444   4.827
 3546TIP3   OH210643   1.419   5.676   2.851
 3546TIP3    H110644   1.391   5.634   2.770
 3546TIP3    H210645   1.368   5.757   2.855
 3547TIP3   OH210646   4.923   2.485   4.308
 3547TIP3    H110647   4.864   2.456   4.238
 3547TIP3    H210648   4.864   2.512   4.379
 3548TIP3   OH210649   4.214   2.387   3.143
 3548TIP3    H110650   4.184   2.436   3.219
 3548TIP3    H210651   4.142   2.328   3.123
 3549TIP3   OH210652   5.609   5.778   2.102
 3549TIP3    H110653   5.514   5.773   2.115
 3549TIP3    H210654   5.634   5.861   2.143
 3550TIP3   OH210655   5.877   1.461   3.818
 3550TIP3    H110656   5.879   1.366   3.819
 3550TIP3    H210657   5.968   1.488   3.825
 3551TIP3   OH210658   4.557   3.298   1.608
 3551TIP3    H110659   4.586   3.382   1.641
 3551TIP3    H210660   4.634   3.260   1.567
 3552TIP3   OH210661   3.360   5.824   4.584
 3552TIP3    H110662   3.344   5.881   4.659
 3552TIP3    H210663   3.374   5.738   4.622
 3553TIP3   OH210664   6.027   2.937   1.322
 3553TIP3    H110665   6.043   2.844   1.304
 3553TIP3    H210666   5.981   2.938   1.406
 3554TIP3   OH210667   3.210   4.505   1.143
 3554TIP3    H110668   3.220   4.481   1.051
 3554TIP3    H210669   3.115   4.508   1.157
 3555TIP3   OH210670   2.259   4.535   0.958
 3555TIP3    H110671   2.219   4.616   0.990
 3555TIP3    H210672   2.229   4.468   1.020
 3556TIP3   OH210673   1.145   0.638   1.337
 3556TIP3    H110674   1.230   0.595   1.329
 3556TIP3    H210675   1.135   0.688   1.256
 3557TIP3   OH210676   1.402   5.852   1.562
 3557TIP3    H110677   1.434   5.812   1.642
 3557TIP3    H210678   1.469   5.833   1.496
 3558TIP3   OH210679   3.449   3.738   4.390
 3558TIP3    H110680   3.454   3.660   4.445
 3558TIP3    H210681   3.478   3.810   4.446
 3559TIP3   OH210682   6.007   5.173   3.423
 3559TIP3    H110683   6.014   5.171   3.328
 3559TIP3    H210684   6.063   5.246   3.450
 3560TIP3   OH210685   3.030   0.867   0.903
 3560TIP3    H110686   3.091   0.910   0.842
 3560TIP3    H210687   3.031   0.923   0.981
 3561TIP3   OH210688   4.669   4.261   3.704
 3561TIP3    H110689   4.721   4.207   3.645
 3561TIP3    H210690   4.591   4.209   3.722
 3562TIP3   OH210691   2.783   5.371   4.683
 3562TIP3    H110692   2.872   5.406   4.683
 3562TIP3    H210693   2.741   5.414   4.758
 3563TIP3   OH210694   0.270   0.601   1.490
 3563TIP3    H110695   0.288   0.549   1.568
 3563TIP3    H210696   0.315   0.554   1.419
 3564TIP3   OH210697   4.602   0.721   2.664
 3564TIP3    H110698   4.628   0.771   2.587
 3564TIP3    H210699   4.605   0.630   2.637
 3565TIP3   OH210700   4.512   0.651   0.740
 3565TIP3    H110701   4.525   0.746   0.735
 3565TIP3    H210702   4.593   0.618   0.780
 3566TIP3   OH210703   2.460   2.846   2.015
 3566TIP3    H110704   2.421   2.761   1.993
 3566TIP3    H210705   2.438   2.902   1.940
 3567TIP3   OH210706   5.394   1.270   4.482
 3567TIP3    H110707   5.453   1.322   4.427
 3567TIP3    H210708   5.373   1.194   4.428
 3568TIP3   OH210709   4.360   3.555   0.469
 3568TIP3    H110710   4.352   3.619   0.398
 3568TIP3    H210711   4.336   3.472   0.430
 3569TIP3   OH210712   0.087   3.690   2.942
 3569TIP3    H110713   0.167   3.638   2.945
 3569TIP3    H210714   0.059   3.696   3.034
 3570TIP3   OH210715   3.890   1.078   3.633
 3570TIP3    H110716   3.869   1.168   3.659
 3570TIP3    H210717   3.933   1.041   3.710
 3571TIP3   OH210718   4.860   3.565   2.791
 3571TIP3    H110719   4.943   3.543   2.749
 3571TIP3    H210720   4.808   3.605   2.721
 3572TIP3   OH210721   2.815   4.199   1.699
 3572TIP3    H110722   2.883   4.264   1.717
 3572TIP3    H210723   2.821   4.184   1.605
 3573TIP3   OH210724   6.083   5.765   4.455
 3573TIP3    H110725   6.107   5.673   4.439
 3573TIP3    H210726   6.131   5.813   4.388
 3574TIP3   OH210727   1.657   0.647   4.395
 3574TIP3    H110728   1.752   0.651   4.380
 3574TIP3    H210729   1.642   0.709   4.467
 3575TIP3   OH210730   1.579   1.833   1.770
 3575TIP3    H110731   1.633   1.755   1.758
 3575TIP3    H210732   1.582   1.850   1.864
 3576TIP3   OH210733   4.442   5.218   2.345
 3576TIP3    H110734   4.350   5.246   2.344
 3576TIP3    H210735   4.470   5.226   2.254
 3577TIP3   OH210736   4.494   3.968   1.714
 3577TIP3    H110737   4.466   3.894   1.660
 3577TIP3    H210738   4.584   3.986   1.686
 3578TIP3   OH210739   0.987   2.066   0.012
 3578TIP3    H110740   0.980   1.997  -0.054
 3578TIP3    H210741   0.928   2.039   0.082
 3579TIP3   OH210742   4.122   0.804   0.921
 3579TIP3    H110743   4.140   0.711   0.909
 3579TIP3    H210744   4.115   0.815   1.015
 3580TIP3   OH210745   1.527   1.127   4.643
 3580TIP3    H110746   1.444   1.143   4.688
 3580TIP3    H210747   1.503   1.124   4.550
 3581TIP3   OH210748   5.180   1.103   4.142
 3581TIP3    H110749   5.184   1.054   4.225
 3581TIP3    H210750   5.184   1.035   4.075
 3582TIP3   OH210751   1.912   4.421   3.412
 3582TIP3    H110752   1.823   4.409   3.444
 3582TIP3    H210753   1.944   4.333   3.395
 3583TIP3   OH210754   5.143   3.381   0.235
 3583TIP3    H110755   5.168   3.302   0.187
 3583TIP3    H210756   5.226   3.424   0.256
 3584TIP3   OH210757   3.167   2.596   1.395
 3584TIP3    H110758   3.133   2.643   1.471
 3584TIP3    H210759   3.261   2.609   1.399
 3585TIP3   OH210760   3.706   0.284   4.388
 3585TIP3    H110761   3.801   0.279   4.376
 3585TIP3    H210762   3.678   0.193   4.396
 3586TIP3   OH210763   5.293   5.463   4.892
 3586TIP3    H110764   5.262   5.455   4.802
 3586TIP3    H210765   5.307   5.373   4.922
 3587TIP3   OH210766   0.867   3.964   0.431
 3587TIP3    H110767   0.793   3.970   0.372
 3587TIP3    H210768   0.908   3.880   0.410
 3588TIP3   OH210769   2.007   3.188   0.899
 3588TIP3    H110770   2.028   3.179   0.806
 3588TIP3    H210771   1.917   3.222   0.900
 3589TIP3   OH210772   2.753   2.568   1.290
 3589TIP3    H110773   2.783   2.509   1.359
 3589TIP3    H210774   2.693   2.515   1.238
 3590TIP3   OH210775   1.151   2.981   4.936
 3590TIP3    H110776   1.175   2.930   4.858
 3590TIP3    H210777   1.174   2.923   5.009
 3591TIP3   OH210778   5.497   1.942   3.105
 3591TIP3    H110779   5.509   1.854   3.139
 3591TIP3    H210780   5.577   1.989   3.131
 3592TIP3   OH210781   2.289   4.195   2.865
 3592TIP3    H110782   2.367   4.185   2.812
 3592TIP3    H210783   2.260   4.106   2.884
 3593TIP3   OH210784   0.117   3.107   1.894
 3593TIP3    H110785   0.163   3.038   1.942
 3593TIP3    H210786   0.068   3.060   1.826
 3594TIP3   OH210787   3.528   2.952   4.935
 3594TIP3    H110788   3.436   2.924   4.937
 3594TIP3    H210789   3.525   3.047   4.948
 3595TIP3   OH210790   5.911   5.199   4.968
 3595TIP3    H110791   5.819   5.179   4.986
 3595TIP3    H210792   5.909   5.287   4.931
 3596TIP3   OH210793   3.603   2.956   3.140
 3596TIP3    H110794   3.651   2.881   3.104
 3596TIP3    H210795   3.511   2.938   3.119
 3597TIP3   OH210796   5.113   4.989   3.125
 3597TIP3    H110797   5.081   5.038   3.049
 3597TIP3    H210798   5.208   4.980   3.110
 3598TIP3   OH210799   0.020   1.055   2.076
 3598TIP3    H110800  -0.005   1.140   2.112
 3598TIP3    H210801   0.002   0.993   2.146
 3599TIP3   OH210802   3.936   2.078   5.004
 3599TIP3    H110803   4.015   2.131   4.997
 3599TIP3    H210804   3.962   2.001   5.054
 3600TIP3   OH210805   0.281   0.071   0.432
 3600TIP3    H110806   0.376   0.080   0.427
 3600TIP3    H210807   0.267  -0.004   0.490
 3601TIP3   OH210808   1.327   3.818   1.000
 3601TIP3    H110809   1.361   3.798   1.087
 3601TIP3    H210810   1.368   3.901   0.977
 3602TIP3   OH210811   0.989   5.836   0.996
 3602TIP3    H110812   0.994   5.859   0.903
 3602TIP3    H210813   0.896   5.823   1.013
 3603TIP3   OH210814   0.049   3.293   1.623
 3603TIP3    H110815   0.035   3.200   1.605
 3603TIP3    H210816   0.133   3.296   1.669
 3604TIP3   OH210817   3.296   3.741   2.767
 3604TIP3    H110818   3.215   3.745   2.818
 3604TIP3    H210819   3.355   3.802   2.811
 3605TIP3   OH210820   3.526   0.723   1.023
 3605TIP3    H110821   3.452   0.700   0.966
 3605TIP3    H210822   3.548   0.642   1.067
 3606TIP3   OH210823   5.004   0.093   2.613
 3606TIP3    H110824   5.025   0.100   2.520
 3606TIP3    H210825   4.947   0.167   2.631
 3607TIP3   OH210826   1.923   4.097   0.671
 3607TIP3    H110827   1.960   4.018   0.631
 3607TIP3    H210828   1.974   4.169   0.634
 3608TIP3   OH210829   5.162   2.391   3.411
 3608TIP3    H110830   5.135   2.334   3.338
 3608TIP3    H210831   5.255   2.405   3.398
 3609TIP3   OH210832   6.231   3.214   2.793
 3609TIP3    H110833   6.282   3.294   2.811
 3609TIP3    H210834   6.159   3.244   2.738
 3610TIP3   OH210835   4.062   5.484   3.245
 3610TIP3    H110836   4.034   5.575   3.235
 3610TIP3    H210837   3.983   5.437   3.269
 3611TIP3   OH210838   2.281   1.793   1.718
 3611TIP3    H110839   2.318   1.822   1.634
 3611TIP3    H210840   2.346   1.733   1.753
 3612TIP3   OH210841   1.219   5.163   1.493
 3612TIP3    H110842   1.132   5.169   1.453
 3612TIP3    H210843   1.279   5.153   1.418
 3613TIP3   OH210844   3.812   2.449   1.743
 3613TIP3    H110845   3.854   2.513   1.686
 3613TIP3    H210846   3.821   2.365   1.697
 3614TIP3   OH210847   5.110   1.723   2.227
 3614TIP3    H110848   5.188   1.702   2.175
 3614TIP3    H210849   5.140   1.791   2.287
 3615TIP3   OH210850   1.202   3.231   5.107
 3615TIP3    H110851   1.204   3.205   5.015
 3615TIP3    H210852   1.128   3.183   5.144
 3616TIP3   OH210853   1.303   3.923   3.420
 3616TIP3    H110854   1.397   3.936   3.426
 3616TIP3    H210855   1.291   3.875   3.338
 3617TIP3   OH210856   5.196   4.991   3.742
 3617TIP3    H110857   5.197   5.068   3.800
 3617TIP3    H210858   5.216   4.918   3.801
 3618TIP3   OH210859   4.025   2.281   0.217
 3618TIP3    H110860   4.116   2.285   0.246
 3618TIP3    H210861   3.982   2.352   0.264
 3619TIP3   OH210862   3.699   3.944   1.343
 3619TIP3    H110863   3.613   3.967   1.307
 3619TIP3    H210864   3.746   4.027   1.349
 3620TIP3   OH210865   4.406   3.684   4.834
 3620TIP3    H110866   4.377   3.675   4.925
 3620TIP3    H210867   4.417   3.594   4.803
 3621TIP3   OH210868   3.273   2.815   2.604
 3621TIP3    H110869   3.347   2.857   2.560
 3621TIP3    H210870   3.310   2.781   2.686
 3622TIP3   OH210871   2.703   2.634   2.427
 3622TIP3    H110872   2.790   2.664   2.452
 3622TIP3    H210873   2.662   2.608   2.510
 3623TIP3   OH210874   0.477   0.048   3.016
 3623TIP3    H110875   0.444  -0.027   2.968
 3623TIP3    H210876   0.534   0.093   2.954
 3624TIP3   OH210877   5.226   4.764   3.908
 3624TIP3    H110878   5.293   4.738   3.972
 3624TIP3    H210879   5.149   4.782   3.961
 3625TIP3   OH210880   1.300   4.241   1.793
 3625TIP3    H110881   1.266   4.324   1.759
 3625TIP3    H210882   1.347   4.201   1.720
 3626TIP3   OH210883   3.993   3.366   1.104
 3626TIP3    H110884   3.935   3.401   1.037
 3626TIP3    H210885   4.080   3.367   1.065
 3627TIP3   OH210886   3.749   0.496   4.221
 3627TIP3    H110887   3.672   0.469   4.171
 3627TIP3    H210888   3.739   0.453   4.306
 3628TIP3   OH210889   2.809   0.779   5.012
 3628TIP3    H110890   2.786   0.709   4.950
 3628TIP3    H210891   2.849   0.733   5.086
 3629TIP3   OH210892   1.224   0.759   2.172
 3629TIP3    H110893   1.198   0.791   2.086
 3629TIP3    H210894   1.315   0.730   2.161
 3630TIP3   OH210895   1.681   2.754   4.690
 3630TIP3    H110896   1.722   2.824   4.743
 3630TIP3    H210897   1.755   2.703   4.657
 3631TIP3   OH210898   0.926   1.783   2.008
 3631TIP3    H110899   0.837   1.783   1.972
 3631TIP3    H210900   0.956   1.693   1.995
 3632TIP3   OH210901   2.812   2.872   4.850
 3632TIP3    H110902   2.867   2.793   4.854
 3632TIP3    H210903   2.778   2.882   4.938
 3633TIP3   OH210904   0.143   3.392   1.335
 3633TIP3    H110905   0.210   3.332   1.302
 3633TIP3    H210906   0.116   3.354   1.418
 3634TIP3   OH210907   5.715   0.693   1.654
 3634TIP3    H110908   5.673   0.732   1.578
 3634TIP3    H210909   5.795   0.744   1.667
 3635TIP3   OH210910   2.753   5.543   1.797
 3635TIP3    H110911   2.662   5.551   1.826
 3635TIP3    H210912   2.803   5.593   1.861
 3636TIP3   OH210913   1.978   3.244   4.988
 3636TIP3    H110914   2.034   3.206   4.920
 3636TIP3    H210915   1.990   3.339   4.978
 3637TIP3   OH210916   3.117   1.988   0.712
 3637TIP3    H110917   3.166   1.977   0.631
 3637TIP3    H210918   3.067   1.907   0.721
 3638TIP3   OH210919   5.884   5.073   4.532
 3638TIP3    H110920   5.947   5.001   4.525
 3638TIP3    H210921   5.834   5.069   4.450
 3639TIP3   OH210922   4.284   1.033   4.656
 3639TIP3    H110923   4.204   0.982   4.658
 3639TIP3    H210924   4.337   0.999   4.728
 3640TIP3   OH210925   1.596   2.458   2.291
 3640TIP3    H110926   1.573   2.448   2.383
 3640TIP3    H210927   1.520   2.500   2.252
 3641TIP3   OH210928   2.127   3.504   1.079
 3641TIP3    H110929   2.119   3.503   0.983
 3641TIP3    H210930   2.047   3.546   1.109
 3642TIP3   OH210931   2.082   1.992   3.440
 3642TIP3    H110932   2.115   2.071   3.484
 3642TIP3    H210933   2.139   1.922   3.472
 3643TIP3   OH210934   2.878   4.717   2.156
 3643TIP3    H110935   2.904   4.804   2.186
 3643TIP3    H210936   2.916   4.657   2.220
 3644TIP3   OH210937   1.233   3.528   1.924
 3644TIP3    H110938   1.152   3.509   1.877
 3644TIP3    H210939   1.288   3.451   1.908
 3645TIP3   OH210940   0.119   2.820   4.969
 3645TIP3    H110941   0.109   2.901   4.919
 3645TIP3    H210942   0.191   2.839   5.030
 3646TIP3   OH210943   5.743   2.036   3.198
 3646TIP3    H110944   5.712   2.125   3.210
 3646TIP3    H210945   5.796   2.039   3.118
 3647TIP3   OH210946   0.947   3.586   0.246
 3647TIP3    H110947   1.041   3.601   0.256
 3647TIP3    H210948   0.922   3.636   0.169
 3648TIP3   OH210949   4.764   1.317   2.875
 3648TIP3    H110950   4.782   1.284   2.963
 3648TIP3    H210951   4.679   1.279   2.852
 3649TIP3   OH210952   1.619   5.839   1.390
 3649TIP3    H110953   1.706   5.876   1.405
 3649TIP3    H210954   1.567   5.913   1.359
 3650TIP3   OH210955   5.844   3.557   1.475
 3650TIP3    H110956   5.751   3.559   1.452
 3650TIP3    H210957   5.863   3.645   1.508
 3651TIP3   OH210958   4.154   1.806   1.688
 3651TIP3    H110959   4.165   1.766   1.602
 3651TIP3    H210960   4.231   1.779   1.738
 3652TIP3   OH210961   4.537   5.735   0.963
 3652TIP3    H110962   4.455   5.766   0.926
 3652TIP3    H210963   4.603   5.798   0.931
 3653TIP3   OH210964   2.411   1.211   4.250
 3653TIP3    H110965   2.329   1.199   4.202
 3653TIP3    H210966   2.400   1.294   4.297
 3654TIP3   OH210967   4.085   4.951   4.082
 3654TIP3    H110968   4.057   4.955   4.174
 3654TIP3    H210969   4.055   5.033   4.044
 3655TIP3   OH210970   2.774   4.005   3.086
 3655TIP3    H110971   2.739   4.093   3.072
 3655TIP3    H210972   2.825   3.987   3.008
 3656TIP3   OH210973   2.072   2.797   2.981
 3656TIP3    H110974   2.002   2.751   3.026
 3656TIP3    H210975   2.144   2.799   3.044
 3657TIP3   OH210976   6.246   1.124   4.266
 3657TIP3    H110977   6.314   1.192   4.261
 3657TIP3    H210978   6.260   1.072   4.187
 3658TIP3   OH210979   3.715   3.010   4.110
 3658TIP3    H110980   3.666   2.938   4.070
 3658TIP3    H210981   3.797   3.013   4.061
 3659TIP3   OH210982   2.198   5.394   0.243
 3659TIP3    H110983   2.274   5.453   0.252
 3659TIP3    H210984   2.181   5.393   0.148
 3660TIP3   OH210985   3.268   0.454   2.343
 3660TIP3    H110986   3.356   0.490   2.353
 3660TIP3    H210987   3.211   0.531   2.338
 3661TIP3   OH210988   3.085   2.616   0.750
 3661TIP3    H110989   3.014   2.554   0.767
 3661TIP3    H210990   3.164   2.572   0.782
 3662TIP3   OH210991   0.778   4.102   4.899
 3662TIP3    H110992   0.804   4.011   4.912
 3662TIP3    H210993   0.774   4.113   4.804
 3663TIP3   OH210994   2.086   2.384   3.908
 3663TIP3    H110995   2.004   2.429   3.929
 3663TIP3    H210996   2.060   2.297   3.880
 3664TIP3   OH210997   5.588   4.926   4.983
 3664TIP3    H110998   5.652   4.855   4.981
 3664TIP3    H210999   5.507   4.886   4.953
 3665TIP3   OH211000   5.852   3.349   1.227
 3665TIP3    H111001   5.933   3.389   1.258
 3665TIP3    H211002   5.785   3.417   1.240
 3666TIP3   OH211003   5.263   0.490   3.207
 3666TIP3    H111004   5.347   0.476   3.251
 3666TIP3    H211005   5.209   0.535   3.271
 3667TIP3   OH211006   2.514   2.260   1.436
 3667TIP3    H111007   2.473   2.330   1.488
 3667TIP3    H211008   2.582   2.224   1.493
 3668TIP3   OH211009   3.671   2.640  -0.012
 3668TIP3    H111010   3.592   2.609  -0.056
 3668TIP3    H211011   3.743   2.605  -0.064
 3669TIP3   OH211012   0.136   2.703   1.758
 3669TIP3    H111013   0.095   2.784   1.727
 3669TIP3    H211014   0.167   2.660   1.678
 3670TIP3   OH211015   4.498   4.337   3.974
 3670TIP3    H111016   4.437   4.411   3.973
 3670TIP3    H211017   4.464   4.277   3.907
 3671TIP3   OH211018   3.165   2.846   4.699
 3671TIP3    H111019   3.139   2.764   4.741
 3671TIP3    H211020   3.227   2.819   4.631
 3672TIP3   OH211021   3.318   2.118   2.455
 3672TIP3    H111022   3.375   2.193   2.439
 3672TIP3    H211023   3.295   2.087   2.367
 3673TIP3   OH211024   3.903   1.244   4.525
 3673TIP3    H111025   3.973   1.279   4.579
 3673TIP3    H211026   3.948   1.194   4.457
 3674TIP3   OH211027   4.254   4.388   3.691
 3674TIP3    H111028   4.274   4.478   3.716
 3674TIP3    H211029   4.162   4.377   3.712
 3675TIP3   OH211030   4.777   4.182   3.427
 3675TIP3    H111031   4.832   4.104   3.434
 3675TIP3    H211032   4.838   4.255   3.416
 3676TIP3   OH211033   4.682   2.960   2.970
 3676TIP3    H111034   4.612   3.001   2.918
 3676TIP3    H211035   4.734   3.034   3.003
 3677TIP3   OH211036   5.971   3.744   0.687
 3677TIP3    H111037   5.927   3.705   0.612
 3677TIP3    H211038   5.900   3.781   0.740
 3678TIP3   OH211039   1.835   5.754   1.087
 3678TIP3    H111040   1.838   5.658   1.090
 3678TIP3    H211041   1.897   5.782   1.154
 3679TIP3   OH211042   4.954   2.577   3.384
 3679TIP3    H111043   4.887   2.524   3.428
 3679TIP3    H211044   5.023   2.515   3.362
 3680TIP3   OH211045   0.891   1.264   1.557
 3680TIP3    H111046   0.986   1.254   1.551
 3680TIP3    H211047   0.872   1.250   1.649
 3681TIP3   OH211048   0.662   2.076   1.766
 3681TIP3    H111049   0.684   2.046   1.678
 3681TIP3    H211050   0.722   2.028   1.823
 3682TIP3   OH211051   1.962   1.509   3.201
 3682TIP3    H111052   1.898   1.486   3.268
 3682TIP3    H211053   1.939   1.598   3.176
 3683TIP3   OH211054   4.919   2.910   4.241
 3683TIP3    H111055   4.842   2.864   4.207
 3683TIP3    H211056   4.977   2.841   4.271
 3684TIP3   OH211057   4.191   4.570   2.509
 3684TIP3    H111058   4.257   4.631   2.541
 3684TIP3    H211059   4.138   4.549   2.585
 3685TIP3   OH211060   2.823   4.583   3.171
 3685TIP3    H111061   2.914   4.570   3.200
 3685TIP3    H211062   2.823   4.555   3.080
 3686TIP3   OH211063   5.190   1.109   3.305
 3686TIP3    H111064   5.142   1.137   3.227
 3686TIP3    H211065   5.282   1.113   3.279
 3687TIP3   OH211066   1.084   3.363   3.389
 3687TIP3    H111067   1.046   3.435   3.439
 3687TIP3    H211068   1.053   3.378   3.299
 3688TIP3   OH211069   3.629   1.781   4.187
 3688TIP3    H111070   3.599   1.812   4.101
 3688TIP3    H211071   3.724   1.790   4.183
 3689TIP3   OH211072   5.677   1.334   0.469
 3689TIP3    H111073   5.624   1.316   0.546
 3689TIP3    H211074   5.737   1.403   0.497
 3690TIP3   OH211075   1.669   0.731   5.077
 3690TIP3    H111076   1.619   0.773   5.007
 3690TIP3    H211077   1.692   0.802   5.137
 3691TIP3   OH211078   5.192   5.353   2.031
 3691TIP3    H111079   5.237   5.353   2.115
 3691TIP3    H211080   5.253   5.312   1.970
 3692TIP3   OH211081   0.047   1.211   4.059
 3692TIP3    H111082   0.131   1.167   4.068
 3692TIP3    H211083   0.062   1.280   3.994
 3693TIP3   OH211084   3.886   3.454   3.967
 3693TIP3    H111085   3.931   3.478   4.048
 3693TIP3    H211086   3.957   3.438   3.904
 3694TIP3   OH211087   0.333   4.172   0.076
 3694TIP3    H111088   0.274   4.247   0.084
 3694TIP3    H211089   0.291   4.103   0.128
 3695TIP3   OH211090   0.026   1.566   2.181
 3695TIP3    H111091  -0.014   1.653   2.189
 3695TIP3    H211092   0.099   1.579   2.121
 3696TIP3   OH211093   6.209   4.558   1.184
 3696TIP3    H111094   6.225   4.647   1.217
 3696TIP3    H211095   6.143   4.522   1.243
 3697TIP3   OH211096   2.049   2.981   1.594
 3697TIP3    H111097   2.120   3.045   1.588
 3697TIP3    H211098   1.980   3.026   1.644
 3698TIP3   OH211099   1.795   1.513   2.807
 3698TIP3    H111100   1.824   1.602   2.788
 3698TIP3    H211101   1.753   1.519   2.893
 3699TIP3   OH211102   3.532   3.755   4.116
 3699TIP3    H111103   3.622   3.724   4.112
 3699TIP3    H211104   3.520   3.781   4.207
 3700TIP3   OH211105   0.157   1.745   5.075
 3700TIP3    H111106   0.153   1.835   5.108
 3700TIP3    H211107   0.158   1.755   4.979
 3701TIP3   OH211108   2.684   5.014   4.296
 3701TIP3    H111109   2.740   5.075   4.247
 3701TIP3    H211110   2.625   5.071   4.346
 3702TIP3   OH211111   2.070   0.663   4.778
 3702TIP3    H111112   1.974   0.671   4.781
 3702TIP3    H211113   2.095   0.646   4.869
 3703TIP3   OH211114   0.918   4.525   0.905
 3703TIP3    H111115   0.995   4.502   0.958
 3703TIP3    H211116   0.917   4.461   0.834
 3704TIP3   OH211117   2.910   3.677   2.602
 3704TIP3    H111118   2.850   3.732   2.551
 3704TIP3    H211119   2.995   3.689   2.560
 3705TIP3   OH211120   3.445   2.725   4.162
 3705TIP3    H111121   3.374   2.779   4.197
 3705TIP3    H211122   3.401   2.664   4.102
 3706TIP3   OH211123   1.682   2.841   1.026
 3706TIP3    H111124   1.742   2.855   1.100
 3706TIP3    H211125   1.613   2.905   1.039
 3707TIP3   OH211126   5.352   0.233   0.728
 3707TIP3    H111127   5.336   0.266   0.817
 3707TIP3    H211128   5.264   0.224   0.691
 3708TIP3   OH211129   4.320   4.299   5.028
 3708TIP3    H111130   4.347   4.391   5.031
 3708TIP3    H211131   4.307   4.275   5.120
 3709TIP3   OH211132   3.896   3.450   4.982
 3709TIP3    H111133   3.933   3.367   5.012
 3709TIP3    H211134   3.899   3.445   4.887
 3710TIP3   OH211135   4.725   3.832   1.058
 3710TIP3    H111136   4.688   3.908   1.012
 3710TIP3    H211137   4.727   3.859   1.150
 3711TIP3   OH211138   5.711   5.809   4.967
 3711TIP3    H111139   5.762   5.784   5.044
 3711TIP3    H211140   5.773   5.805   4.895
 3712TIP3   OH211141   6.061   0.078   1.395
 3712TIP3    H111142   6.150   0.093   1.364
 3712TIP3    H211143   6.017   0.035   1.322
 3713TIP3   OH211144   1.179   3.396   2.453
 3713TIP3    H111145   1.258   3.371   2.503
 3713TIP3    H211146   1.176   3.491   2.459
 3714TIP3   OH211147   0.962   5.791   3.179
 3714TIP3    H111148   0.879   5.752   3.154
 3714TIP3    H211149   0.979   5.856   3.110
 3715TIP3   OH211150   5.756   3.052   2.431
 3715TIP3    H111151   5.707   3.134   2.432
 3715TIP3    H211152   5.733   3.011   2.347
 3716TIP3   OH211153   1.659   4.708   1.835
 3716TIP3    H111154   1.715   4.737   1.906
 3716TIP3    H211155   1.673   4.771   1.765
 3717TIP3   OH211156   4.942   5.512   0.291
 3717TIP3    H111157   5.013   5.463   0.333
 3717TIP3    H211158   4.872   5.447   0.281
 3718TIP3   OH211159   5.808   2.949   4.320
 3718TIP3    H111160   5.816   2.937   4.414
 3718TIP3    H211161   5.714   2.942   4.303
 3719TIP3   OH211162   1.062   1.158   3.908
 3719TIP3    H111163   1.032   1.187   3.994
 3719TIP3    H211164   1.148   1.121   3.924
 3720TIP3   OH211165   2.770   3.213   0.293
 3720TIP3    H111166   2.699   3.258   0.340
 3720TIP3    H211167   2.779   3.262   0.212
 3721TIP3   OH211168   0.213   2.474   2.399
 3721TIP3    H111169   0.123   2.451   2.379
 3721TIP3    H211170   0.206   2.554   2.452
 3722TIP3   OH211171   6.176   4.246   2.269
 3722TIP3    H111172   6.151   4.259   2.361
 3722TIP3    H211173   6.103   4.283   2.219
 3723TIP3   OH211174   1.847   1.790   3.393
 3723TIP3    H111175   1.790   1.802   3.316
 3723TIP3    H211176   1.901   1.870   3.394
 3724TIP3   OH211177   5.193   5.811   4.117
 3724TIP3    H111178   5.283   5.822   4.146
 3724TIP3    H211179   5.168   5.896   4.081
 3725TIP3   OH211180   0.976   1.585   5.105
 3725TIP3    H111181   0.914   1.652   5.132
 3725TIP3    H211182   0.930   1.502   5.118
 3726TIP3   OH211183   6.036   4.685   4.005
 3726TIP3    H111184   6.039   4.780   4.005
 3726TIP3    H211185   6.127   4.658   4.018
 3727TIP3   OH211186   2.419   5.085   4.910
 3727TIP3    H111187   2.481   5.022   4.946
 3727TIP3    H211188   2.333   5.046   4.926
 3728TIP3   OH211189   6.344   0.270   0.059
 3728TIP3    H111190   6.275   0.298   0.118
 3728TIP3    H211191   6.302   0.264  -0.027
 3729TIP3   OH211192   0.562   0.284   4.907
 3729TIP3    H111193   0.476   0.241   4.914
 3729TIP3    H211194   0.617   0.239   4.971
 3730TIP3   OH211195   2.930   1.823   0.786
 3730TIP3    H111196   2.938   1.728   0.784
 3730TIP3    H211197   2.888   1.842   0.870
 3731TIP3   OH211198   5.427   2.023   4.201
 3731TIP3    H111199   5.345   2.050   4.160
 3731TIP3    H211200   5.493   2.032   4.131
 3732TIP3   OH211201   5.954   2.284   5.180
 3732TIP3    H111202   6.046   2.301   5.161
 3732TIP3    H211203   5.951   2.191   5.204
 3733TIP3   OH211204   2.410   0.967   4.348
 3733TIP3    H111205   2.390   1.057   4.323
 3733TIP3    H211206   2.401   0.966   4.444
 3734TIP3   OH211207   5.797   4.519   4.539
 3734TIP3    H111208   5.863   4.526   4.471
 3734TIP3    H211209   5.782   4.425   4.548
 3735TIP3   OH211210   6.180   0.568   1.663
 3735TIP3    H111211   6.105   0.526   1.622
 3735TIP3    H211212   6.148   0.598   1.748
 3736TIP3   OH211213   3.923   0.496   2.591
 3736TIP3    H111214   3.901   0.553   2.664
 3736TIP3    H211215   3.991   0.542   2.543
 3737TIP3   OH211216   4.279   3.375   0.038
 3737TIP3    H111217   4.271   3.291  -0.007
 3737TIP3    H211218   4.246   3.359   0.126
 3738TIP3   OH211219   0.610   2.166   1.280
 3738TIP3    H111220   0.657   2.096   1.236
 3738TIP3    H211221   0.674   2.204   1.340
 3739TIP3   OH211222   1.209   5.425   1.472
 3739TIP3    H111223   1.229   5.332   1.484
 3739TIP3    H211224   1.294   5.467   1.460
 3740TIP3   OH211225   4.720   1.109   0.619
 3740TIP3    H111226   4.655   1.091   0.686
 3740TIP3    H211227   4.730   1.204   0.619
 3741TIP3   OH211228   3.959   3.263   4.710
 3741TIP3    H111229   4.023   3.270   4.639
 3741TIP3    H211230   3.994   3.195   4.767
 3742TIP3   OH211231   6.312   4.673   5.013
 3742TIP3    H111232   6.237   4.731   4.998
 3742TIP3    H211233   6.289   4.592   4.968
 3743TIP3   OH211234   1.824   1.828   0.086
 3743TIP3    H111235   1.743   1.844   0.135
 3743TIP3    H211236   1.888   1.803   0.152
 3744TIP3   OH211237   1.286   5.259   0.277
 3744TIP3    H111238   1.225   5.187   0.293
 3744TIP3    H211239   1.372   5.217   0.270
 3745TIP3   OH211240   3.794   1.930   3.651
 3745TIP3    H111241   3.830   1.846   3.681
 3745TIP3    H211242   3.707   1.909   3.619
 3746TIP3   OH211243   6.206   3.245   4.008
 3746TIP3    H111244   6.290   3.290   4.022
 3746TIP3    H211245   6.181   3.212   4.094
 3747TIP3   OH211246   5.862   4.569   0.266
 3747TIP3    H111247   5.934   4.516   0.233
 3747TIP3    H211248   5.783   4.521   0.239
 3748TIP3   OH211249   1.805   2.224   3.234
 3748TIP3    H111250   1.774   2.228   3.144
 3748TIP3    H211251   1.794   2.313   3.267
 3749TIP3   OH211252   1.942   2.020   4.151
 3749TIP3    H111253   1.996   1.941   4.153
 3749TIP3    H211254   2.003   2.092   4.164
 3750TIP3   OH211255   1.966   3.151   3.757
 3750TIP3    H111256   1.931   3.166   3.669
 3750TIP3    H211257   2.041   3.210   3.763
 3751TIP3   OH211258   1.871   0.991   0.442
 3751TIP3    H111259   1.846   1.058   0.505
 3751TIP3    H211260   1.825   1.014   0.361
 3752TIP3   OH211261   4.485   0.700   0.090
 3752TIP3    H111262   4.563   0.696   0.036
 3752TIP3    H211263   4.432   0.626   0.062
 3753TIP3   OH211264   5.852   2.596   2.311
 3753TIP3    H111265   5.849   2.526   2.246
 3753TIP3    H211266   5.761   2.607   2.339
 3754TIP3   OH211267   3.125   3.335   2.569
 3754TIP3    H111268   3.137   3.250   2.527
 3754TIP3    H211269   3.139   3.398   2.499
 3755TIP3   OH211270   4.116   4.681   4.155
 3755TIP3    H111271   4.097   4.744   4.086
 3755TIP3    H211272   4.030   4.651   4.185
 3756TIP3   OH211273   4.515   1.901   4.974
 3756TIP3    H111274   4.582   1.968   4.982
 3756TIP3    H211275   4.534   1.856   4.891
 3757TIP3   OH211276   1.997   5.858   1.278
 3757TIP3    H111277   1.952   5.935   1.313
 3757TIP3    H211278   2.074   5.893   1.234
 3758TIP3   OH211279   1.188   4.561   1.000
 3758TIP3    H111280   1.282   4.556   1.019
 3758TIP3    H211281   1.150   4.492   1.054
 3759TIP3   OH211282   2.908   5.140   1.573
 3759TIP3    H111283   2.856   5.217   1.552
 3759TIP3    H211284   2.954   5.163   1.654
 3760TIP3   OH211285   5.107   4.086   2.102
 3760TIP3    H111286   5.076   4.142   2.174
 3760TIP3    H211287   5.037   4.020   2.092
 3761TIP3   OH211288   2.709   1.348   0.749
 3761TIP3    H111289   2.671   1.363   0.835
 3761TIP3    H211290   2.738   1.435   0.720
 3762TIP3   OH211291   0.769   4.930   2.736
 3762TIP3    H111292   0.759   4.874   2.660
 3762TIP3    H211293   0.721   4.885   2.806
 3763TIP3   OH211294   2.622   4.361   3.261
 3763TIP3    H111295   2.612   4.365   3.357
 3763TIP3    H211296   2.676   4.437   3.240
 3764TIP3   OH211297   0.455   3.890   4.898
 3764TIP3    H111298   0.543   3.855   4.906
 3764TIP3    H211299   0.462   3.980   4.930
 3765TIP3   OH211300   3.684   5.755   4.754
 3765TIP3    H111301   3.774   5.782   4.735
 3765TIP3    H211302   3.638   5.836   4.776
 3766TIP3   OH211303   0.898   1.468   1.367
 3766TIP3    H111304   0.832   1.416   1.414
 3766TIP3    H211305   0.977   1.459   1.421
 3767TIP3   OH211306   3.831   4.866   3.685
 3767TIP3    H111307   3.759   4.816   3.646
 3767TIP3    H211308   3.802   4.957   3.682
 3768TIP3   OH211309   5.731   5.129   2.834
 3768TIP3    H111310   5.824   5.149   2.850
 3768TIP3    H211311   5.732   5.068   2.761
 3769TIP3   OH211312   3.116   4.280   4.322
 3769TIP3    H111313   3.128   4.362   4.371
 3769TIP3    H211314   3.039   4.240   4.363
 3770TIP3   OH211315   5.818   3.705   5.180
 3770TIP3    H111316   5.749   3.641   5.159
 3770TIP3    H211317   5.818   3.765   5.106
 3771TIP3   OH211318   2.267   4.894   1.498
 3771TIP3    H111319   2.187   4.915   1.450
 3771TIP3    H211320   2.281   4.970   1.554
 3772TIP3   OH211321   5.768   4.056   0.162
 3772TIP3    H111322   5.824   4.068   0.086
 3772TIP3    H211323   5.826   4.019   0.229
 3773TIP3   OH211324   1.524   4.802   1.505
 3773TIP3    H111325   1.611   4.764   1.497
 3773TIP3    H211326   1.535   4.893   1.478
 3774TIP3   OH211327   3.896   2.518   1.988
 3774TIP3    H111328   3.813   2.554   2.017
 3774TIP3    H211329   3.876   2.476   1.904
 3775TIP3   OH211330   0.967   2.488   1.836
 3775TIP3    H111331   0.937   2.542   1.908
 3775TIP3    H211332   1.062   2.499   1.835
 3776TIP3   OH211333   2.279   0.570   1.758
 3776TIP3    H111334   2.305   0.641   1.699
 3776TIP3    H211335   2.263   0.496   1.700
 3777TIP3   OH211336   4.090   0.705   3.777
 3777TIP3    H111337   4.022   0.767   3.805
 3777TIP3    H211338   4.147   0.696   3.854
 3778TIP3   OH211339   6.027   3.595   2.816
 3778TIP3    H111340   6.049   3.578   2.908
 3778TIP3    H211341   6.112   3.604   2.773
 3779TIP3   OH211342   2.940   4.093   2.753
 3779TIP3    H111343   2.969   4.121   2.840
 3779TIP3    H211344   2.913   4.174   2.710
 3780TIP3   OH211345   4.304   0.197   4.681
 3780TIP3    H111346   4.278   0.200   4.590
 3780TIP3    H211347   4.223   0.209   4.731
 3781TIP3   OH211348   1.157   1.310   1.221
 3781TIP3    H111349   1.152   1.405   1.229
 3781TIP3    H211350   1.159   1.278   1.312
 3782TIP3   OH211351   1.051   2.262   2.025
 3782TIP3    H111352   1.096   2.190   2.068
 3782TIP3    H211353   1.048   2.331   2.091
 3783TIP3   OH211354   0.536   0.176   1.363
 3783TIP3    H111355   0.497   0.090   1.382
 3783TIP3    H211356   0.629   0.157   1.346
 3784TIP3   OH211357   3.207   5.713   0.645
 3784TIP3    H111358   3.226   5.648   0.577
 3784TIP3    H211359   3.293   5.743   0.674
 3785TIP3   OH211360   2.633   0.382   5.018
 3785TIP3    H111361   2.544   0.370   4.984
 3785TIP3    H211362   2.674   0.443   4.955
 3786TIP3   OH211363   0.250   4.416   1.354
 3786TIP3    H111364   0.209   4.458   1.429
 3786TIP3    H211365   0.203   4.452   1.278
 3787TIP3   OH211366   2.366   4.170   4.746
 3787TIP3    H111367   2.401   4.258   4.735
 3787TIP3    H211368   2.289   4.182   4.802
 3788TIP3   OH211369   3.452   4.797   1.007
 3788TIP3    H111370   3.498   4.712   1.006
 3788TIP3    H211371   3.399   4.794   1.086
 3789TIP3   OH211372   0.532   2.472   5.158
 3789TIP3    H111373   0.587   2.400   5.130
 3789TIP3    H211374   0.592   2.535   5.198
 3790TIP3   OH211375   5.721   5.592   4.656
 3790TIP3    H111376   5.719   5.503   4.622
 3790TIP3    H211377   5.772   5.642   4.592
 3791TIP3   OH211378   4.819   2.354   1.599
 3791TIP3    H111379   4.737   2.403   1.589
 3791TIP3    H211380   4.867   2.373   1.518
 3792TIP3   OH211381   1.117   1.666   4.348
 3792TIP3    H111382   1.029   1.654   4.314
 3792TIP3    H211383   1.105   1.697   4.438
 3793TIP3   OH211384   0.841   6.009   0.227
 3793TIP3    H111385   0.921   5.957   0.224
 3793TIP3    H211386   0.776   5.956   0.181
 3794TIP3   OH211387   1.675   4.422   3.589
 3794TIP3    H111388   1.749   4.412   3.649
 3794TIP3    H211389   1.671   4.515   3.570
 3795TIP3   OH211390   5.645   1.032   0.045
 3795TIP3    H111391   5.665   0.941   0.027
 3795TIP3    H211392   5.667   1.044   0.137
 3796TIP3   OH211393   3.102   2.295   2.036
 3796TIP3    H111394   3.167   2.363   2.057
 3796TIP3    H211395   3.037   2.302   2.106
 3797TIP3   OH211396   3.990   0.231   0.191
 3797TIP3    H111397   4.076   0.271   0.206
 3797TIP3    H211398   3.960   0.269   0.109
 3798TIP3   OH211399   0.261   2.759   1.492
 3798TIP3    H111400   0.223   2.689   1.439
 3798TIP3    H211401   0.342   2.782   1.447
 3799TIP3   OH211402   1.526   1.284   4.916
 3799TIP3    H111403   1.573   1.203   4.934
 3799TIP3    H211404   1.513   1.324   5.002
 3800TIP3   OH211405   2.860   3.351   2.626
 3800TIP3    H111406   2.865   3.442   2.655
 3800TIP3    H211407   2.950   3.318   2.634
 3801TIP3   OH211408   3.515   5.579   3.433
 3801TIP3    H111409   3.507   5.489   3.400
 3801TIP3    H211410   3.430   5.618   3.415
 3802TIP3   OH211411   3.228   1.320   0.807
 3802TIP3    H111412   3.293   1.352   0.745
 3802TIP3    H211413   3.266   1.338   0.893
 3803TIP3   OH211414   5.300   0.170   3.347
 3803TIP3    H111415   5.319   0.175   3.253
 3803TIP3    H211416   5.313   0.259   3.379
 3804TIP3   OH211417   1.957   1.441   4.427
 3804TIP3    H111418   1.952   1.502   4.500
 3804TIP3    H211419   1.875   1.454   4.379
 3805TIP3   OH211420   0.793   3.604   0.473
 3805TIP3    H111421   0.701   3.604   0.447
 3805TIP3    H211422   0.841   3.606   0.390
 3806TIP3   OH211423   5.743   2.163   3.485
 3806TIP3    H111424   5.829   2.178   3.526
 3806TIP3    H211425   5.753   2.079   3.439
 3807TIP3   OH211426   2.688   1.749   4.907
 3807TIP3    H111427   2.748   1.682   4.940
 3807TIP3    H211428   2.609   1.701   4.881
 3808TIP3   OH211429   0.641   5.974   3.178
 3808TIP3    H111430   0.601   5.960   3.263
 3808TIP3    H211431   0.640   5.887   3.137
 3809TIP3   OH211432   0.879   1.614   3.552
 3809TIP3    H111433   0.952   1.561   3.521
 3809TIP3    H211434   0.903   1.639   3.641
 3810TIP3   OH211435   5.147   0.092   4.410
 3810TIP3    H111436   5.107   0.171   4.373
 3810TIP3    H211437   5.202   0.125   4.482
 3811TIP3   OH211438   5.985   3.422   3.927
 3811TIP3    H111439   6.068   3.378   3.945
 3811TIP3    H211440   5.996   3.459   3.839
 3812TIP3   OH211441   4.232   3.209   2.752
 3812TIP3    H111442   4.194   3.281   2.801
 3812TIP3    H211443   4.241   3.138   2.816
 3813TIP3   OH211444   5.063   0.873   0.117
 3813TIP3    H111445   5.123   0.936   0.077
 3813TIP3    H211446   5.013   0.925   0.180
 3814TIP3   OH211447   2.446   1.460   3.423
 3814TIP3    H111448   2.419   1.493   3.338
 3814TIP3    H211449   2.364   1.446   3.471
 3815TIP3   OH211450   0.600   1.952   4.178
 3815TIP3    H111451   0.508   1.975   4.184
 3815TIP3    H211452   0.626   1.981   4.090
 3816TIP3   OH211453   4.796   3.564   0.501
 3816TIP3    H111454   4.850   3.556   0.422
 3816TIP3    H211455   4.792   3.658   0.518
 3817TIP3   OH211456   4.437   4.691   1.714
 3817TIP3    H111457   4.371   4.676   1.647
 3817TIP3    H211458   4.410   4.636   1.787
 3818TIP3   OH211459   5.866   2.255   1.904
 3818TIP3    H111460   5.949   2.286   1.867
 3818TIP3    H211461   5.886   2.233   1.995
 3819TIP3   OH211462   4.689   1.181   4.782
 3819TIP3    H111463   4.703   1.170   4.876
 3819TIP3    H211464   4.776   1.181   4.744
 3820TIP3   OH211465   5.064   4.664   2.937
 3820TIP3    H111466   4.982   4.615   2.923
 3820TIP3    H211467   5.084   4.650   3.030
 3821TIP3   OH211468   1.467   3.427   5.027
 3821TIP3    H111469   1.391   3.421   5.085
 3821TIP3    H211470   1.531   3.368   5.065
 3822TIP3   OH211471   3.093   0.198   4.064
 3822TIP3    H111472   3.028   0.252   4.020
 3822TIP3    H211473   3.177   0.232   4.034
 3823TIP3   OH211474   1.802   1.178   1.298
 3823TIP3    H111475   1.762   1.101   1.338
 3823TIP3    H211476   1.891   1.150   1.275
 3824TIP3   OH211477   5.531   5.534   1.091
 3824TIP3    H111478   5.584   5.573   1.021
 3824TIP3    H211479   5.477   5.469   1.047
 3825TIP3   OH211480   2.969   2.732   2.501
 3825TIP3    H111481   2.984   2.780   2.582
 3825TIP3    H211482   3.049   2.746   2.450
 3826TIP3   OH211483   1.050   3.810   1.300
 3826TIP3    H111484   1.014   3.743   1.241
 3826TIP3    H211485   0.973   3.852   1.338
 3827TIP3   OH211486   1.661   5.526   4.092
 3827TIP3    H111487   1.738   5.566   4.052
 3827TIP3    H211488   1.610   5.494   4.017
 3828TIP3   OH211489   1.367   1.908   2.283
 3828TIP3    H111490   1.335   1.938   2.369
 3828TIP3    H211491   1.430   1.839   2.304
 3829TIP3   OH211492   5.421   0.860   3.650
 3829TIP3    H111493   5.416   0.813   3.567
 3829TIP3    H211494   5.397   0.796   3.716
 3830TIP3   OH211495   6.278   0.403   4.489
 3830TIP3    H111496   6.268   0.463   4.563
 3830TIP3    H211497   6.220   0.330   4.509
 3831TIP3   OH211498   5.964   5.831   4.899
 3831TIP3    H111499   6.033   5.834   4.833
 3831TIP3    H211500   5.990   5.759   4.956
 3832TIP3   OH211501   5.521   1.349   4.750
 3832TIP3    H111502   5.472   1.311   4.677
 3832TIP3    H211503   5.592   1.398   4.709
 3833TIP3   OH211504   5.542   1.056   0.597
 3833TIP3    H111505   5.544   0.976   0.544
 3833TIP3    H211506   5.471   1.108   0.560
 3834TIP3   OH211507   1.666   3.218   0.173
 3834TIP3    H111508   1.619   3.287   0.126
 3834TIP3    H211509   1.730   3.185   0.110
 3835TIP3   OH211510   3.954   3.421   4.408
 3835TIP3    H111511   4.000   3.454   4.330
 3835TIP3    H211512   3.903   3.496   4.439
 3836TIP3   OH211513   0.453   1.910   3.512
 3836TIP3    H111514   0.485   1.823   3.538
 3836TIP3    H211515   0.516   1.971   3.550
 3837TIP3   OH211516   4.183   0.411   4.387
 3837TIP3    H111517   4.187   0.455   4.302
 3837TIP3    H211518   4.275   0.406   4.415
 3838TIP3   OH211519   2.336   0.244   0.253
 3838TIP3    H111520   2.404   0.305   0.223
 3838TIP3    H211521   2.367   0.215   0.339
 3839TIP3   OH211522   1.927   5.033   3.398
 3839TIP3    H111523   1.906   4.942   3.380
 3839TIP3    H211524   1.854   5.082   3.361
 3840TIP3   OH211525   4.805   4.278   4.120
 3840TIP3    H111526   4.714   4.248   4.112
 3840TIP3    H211527   4.822   4.326   4.039
 3841TIP3   OH211528   5.117   4.475   2.353
 3841TIP3    H111529   5.151   4.505   2.437
 3841TIP3    H211530   5.193   4.439   2.307
 3842TIP3   OH211531   5.448   4.929   1.920
 3842TIP3    H111532   5.495   4.957   1.841
 3842TIP3    H211533   5.484   4.842   1.940
 3843TIP3   OH211534   4.208   4.054   1.562
 3843TIP3    H111535   4.246   4.095   1.484
 3843TIP3    H211536   4.282   4.043   1.622
 3844TIP3   OH211537   1.257   2.513   4.632
 3844TIP3    H111538   1.277   2.436   4.579
 3844TIP3    H211539   1.329   2.573   4.615
 3845TIP3   OH211540   0.523   4.007   1.942
 3845TIP3    H111541   0.434   3.989   1.973
 3845TIP3    H211542   0.580   3.969   2.009
 3846TIP3   OH211543   3.200   0.311   4.372
 3846TIP3    H111544   3.290   0.307   4.404
 3846TIP3    H211545   3.208   0.322   4.277
 3847TIP3   OH211546   4.585   4.500   2.831
 3847TIP3    H111547   4.662   4.443   2.833
 3847TIP3    H211548   4.571   4.518   2.738
 3848TIP3   OH211549   0.968   3.435   4.653
 3848TIP3    H111550   1.041   3.487   4.620
 3848TIP3    H211551   0.943   3.380   4.579
 3849TIP3   OH211552   1.108   4.923   4.908
 3849TIP3    H111553   1.086   5.006   4.951
 3849TIP3    H211554   1.153   4.873   4.976
 3850TIP3   OH211555   4.021   0.980   2.401
 3850TIP3    H111556   4.112   1.009   2.402
 3850TIP3    H211557   3.972   1.056   2.369
 3851TIP3   OH211558   1.255   4.703   3.521
 3851TIP3    H111559   1.204   4.622   3.518
 3851TIP3    H211560   1.334   4.680   3.569
 3852TIP3   OH211561   1.098   1.227   0.451
 3852TIP3    H111562   1.135   1.312   0.476
 3852TIP3    H211563   1.157   1.195   0.383
 3853TIP3   OH211564   0.691   5.383   0.524
 3853TIP3    H111565   0.628   5.373   0.596
 3853TIP3    H211566   0.776   5.364   0.565
 3854TIP3   OH211567   1.546   2.332   1.084
 3854TIP3    H111568   1.454   2.351   1.070
 3854TIP3    H211569   1.548   2.274   1.160
 3855TIP3   OH211570   4.576   2.522   1.029
 3855TIP3    H111571   4.517   2.467   0.977
 3855TIP3    H211572   4.648   2.542   0.970
 3856TIP3   OH211573   1.522   1.925   1.064
 3856TIP3    H111574   1.616   1.912   1.049
 3856TIP3    H211575   1.497   1.989   0.997
 3857TIP3   OH211576   3.404   1.306   4.466
 3857TIP3    H111577   3.457   1.257   4.529
 3857TIP3    H211578   3.435   1.278   4.380
 3858TIP3   OH211579   2.546   5.393   1.430
 3858TIP3    H111580   2.499   5.311   1.415
 3858TIP3    H211581   2.486   5.445   1.484
 3859TIP3   OH211582   5.239   0.983   1.707
 3859TIP3    H111583   5.242   1.028   1.623
 3859TIP3    H211584   5.168   1.026   1.754
 3860TIP3   OH211585   4.279   4.293   4.784
 3860TIP3    H111586   4.281   4.275   4.878
 3860TIP3    H211587   4.311   4.383   4.776
 3861TIP3   OH211588   2.325   2.758   3.465
 3861TIP3    H111589   2.333   2.844   3.505
 3861TIP3    H211590   2.238   2.728   3.490
 3862TIP3   OH211591   4.334   3.341   4.337
 3862TIP3    H111592   4.377   3.422   4.312
 3862TIP3    H211593   4.344   3.284   4.261
 3863TIP3   OH211594   1.374   4.958   2.561
 3863TIP3    H111595   1.370   4.925   2.471
 3863TIP3    H211596   1.332   5.044   2.557
 3864TIP3   OH211597   6.005   1.302   1.277
 3864TIP3    H111598   5.909   1.304   1.281
 3864TIP3    H211599   6.029   1.390   1.248
 3865TIP3   OH211600   3.063   2.853   3.558
 3865TIP3    H111601   3.156   2.844   3.579
 3865TIP3    H211602   3.058   2.847   3.463
 3866TIP3   OH211603   0.275   4.436   0.499
 3866TIP3    H111604   0.328   4.409   0.424
 3866TIP3    H211605   0.302   4.377   0.569
 3867TIP3   OH211606   0.047   5.936   2.109
 3867TIP3    H111607   0.002   6.020   2.118
 3867TIP3    H211608   0.024   5.905   2.022
 3868TIP3   OH211609   2.370   2.077   2.778
 3868TIP3    H111610   2.417   2.159   2.763
 3868TIP3    H211611   2.438   2.009   2.772
 3869TIP3   OH211612   0.578   5.124   0.069
 3869TIP3    H111613   0.656   5.155   0.115
 3869TIP3    H211614   0.508   5.182   0.098
 3870TIP3   OH211615   4.026   2.942   1.105
 3870TIP3    H111616   4.070   2.891   1.037
 3870TIP3    H211617   4.048   2.896   1.186
 3871TIP3   OH211618   6.245   3.814   5.073
 3871TIP3    H111619   6.274   3.819   4.982
 3871TIP3    H211620   6.165   3.762   5.070
 3872TIP3   OH211621   2.388   4.022   5.191
 3872TIP3    H111622   2.411   4.020   5.098
 3872TIP3    H211623   2.399   3.932   5.221
 3873TIP3   OH211624   3.382   3.505   4.200
 3873TIP3    H111625   3.318   3.507   4.271
 3873TIP3    H211626   3.445   3.574   4.222
 3874TIP3   OH211627   0.558   4.343   3.388
 3874TIP3    H111628   0.644   4.380   3.409
 3874TIP3    H211629   0.536   4.290   3.465
 3875TIP3   OH211630   5.282   2.235   2.764
 3875TIP3    H111631   5.329   2.204   2.842
 3875TIP3    H211632   5.257   2.155   2.718
 3876TIP3   OH211633   3.617   2.625   4.696
 3876TIP3    H111634   3.669   2.669   4.629
 3876TIP3    H211635   3.539   2.595   4.650
 3877TIP3   OH211636   2.155   5.249   4.220
 3877TIP3    H111637   2.187   5.163   4.249
 3877TIP3    H211638   2.140   5.297   4.301
 3878TIP3   OH211639   1.622  -0.006   2.070
 3878TIP3    H111640   1.697   0.052   2.087
 3878TIP3    H211641   1.640  -0.044   1.984
 3879TIP3   OH211642   1.015   4.336   0.680
 3879TIP3    H111643   1.110   4.338   0.694
 3879TIP3    H211644   1.000   4.255   0.631
 3880TIP3   OH211645   2.369   0.456   2.703
 3880TIP3    H111646   2.317   0.443   2.624
 3880TIP3    H211647   2.309   0.440   2.775
 3881TIP3   OH211648   4.532   1.211   1.384
 3881TIP3    H111649   4.476   1.182   1.456
 3881TIP3    H211650   4.601   1.144   1.378
 3882TIP3   OH211651   1.756   3.576   1.361
 3882TIP3    H111652   1.702   3.558   1.438
 3882TIP3    H211653   1.787   3.490   1.333
 3883TIP3   OH211654   2.542   0.712   2.542
 3883TIP3    H111655   2.487   0.652   2.592
 3883TIP3    H211656   2.588   0.656   2.480
 3884TIP3   OH211657   0.114   2.042   4.530
 3884TIP3    H111658   0.031   2.016   4.492
 3884TIP3    H211659   0.106   2.021   4.623
 3885TIP3   OH211660   3.255   4.608   0.240
 3885TIP3    H111661   3.171   4.562   0.235
 3885TIP3    H211662   3.242   4.686   0.185
 3886TIP3   OH211663   2.976   1.736   0.503
 3886TIP3    H111664   2.945   1.782   0.581
 3886TIP3    H211665   2.918   1.660   0.495
 3887TIP3   OH211666   3.171   3.392   2.291
 3887TIP3    H111667   3.227   3.469   2.287
 3887TIP3    H211668   3.220   3.324   2.244
 3888TIP3   OH211669   4.957   4.137   1.839
 3888TIP3    H111670   5.048   4.109   1.848
 3888TIP3    H211671   4.934   4.174   1.924
 3889TIP3   OH211672   2.547   5.755   2.721
 3889TIP3    H111673   2.452   5.753   2.727
 3889TIP3    H211674   2.575   5.787   2.807
 3890TIP3   OH211675   0.580   1.755   2.956
 3890TIP3    H111676   0.665   1.799   2.968
 3890TIP3    H211677   0.602   1.664   2.941
 3891TIP3   OH211678   1.866   0.198   3.696
 3891TIP3    H111679   1.923   0.242   3.632
 3891TIP3    H211680   1.928   0.157   3.757
 3892TIP3   OH211681   0.177   2.713   3.193
 3892TIP3    H111682   0.206   2.671   3.112
 3892TIP3    H211683   0.245   2.777   3.213
 3893TIP3   OH211684   5.368   3.009   4.792
 3893TIP3    H111685   5.285   2.992   4.837
 3893TIP3    H211686   5.420   2.930   4.808
 3894TIP3   OH211687   4.925   2.473   0.782
 3894TIP3    H111688   4.929   2.469   0.878
 3894TIP3    H211689   4.862   2.406   0.757
 3895TIP3   OH211690   0.852   3.276   5.026
 3895TIP3    H111691   0.921   3.250   4.965
 3895TIP3    H211692   0.806   3.346   4.982
 3896TIP3   OH211693   0.756   3.810   4.507
 3896TIP3    H111694   0.819   3.789   4.438
 3896TIP3    H211695   0.674   3.769   4.478
 3897TIP3   OH211696   5.543   4.357   2.045
 3897TIP3    H111697   5.559   4.264   2.033
 3897TIP3    H211698   5.629   4.394   2.065
 3898TIP3   OH211699   2.158   0.544   3.352
 3898TIP3    H111700   2.253   0.530   3.348
 3898TIP3    H211701   2.147   0.621   3.407
 3899TIP3   OH211702   2.244   1.793   3.051
 3899TIP3    H111703   2.262   1.887   3.050
 3899TIP3    H211704   2.182   1.779   2.980
 3900TIP3   OH211705   1.839   4.069   1.216
 3900TIP3    H111706   1.793   3.986   1.215
 3900TIP3    H211707   1.778   4.132   1.177
 3901TIP3   OH211708   6.344   5.862   1.849
 3901TIP3    H111709   6.313   5.933   1.792
 3901TIP3    H211710   6.278   5.793   1.839
 3902TIP3   OH211711   4.184   0.506   3.605
 3902TIP3    H111712   4.125   0.552   3.665
 3902TIP3    H211713   4.202   0.423   3.649
 3903TIP3   OH211714   1.938   2.403   0.810
 3903TIP3    H111715   1.864   2.360   0.855
 3903TIP3    H211716   1.990   2.441   0.880
 3904TIP3   OH211717   2.471   1.082   2.778
 3904TIP3    H111718   2.418   1.097   2.856
 3904TIP3    H211719   2.454   0.991   2.754
 3905TIP3   OH211720   2.445   3.897   0.876
 3905TIP3    H111721   2.404   3.924   0.793
 3905TIP3    H211722   2.530   3.942   0.876
 3906TIP3   OH211723   6.222   5.000   0.713
 3906TIP3    H111724   6.142   5.013   0.763
 3906TIP3    H211725   6.264   5.086   0.711
 3907TIP3   OH211726   5.307   3.632   3.311
 3907TIP3    H111727   5.278   3.614   3.400
 3907TIP3    H211728   5.388   3.683   3.322
 3908TIP3   OH211729   3.655   0.669   4.652
 3908TIP3    H111730   3.653   0.719   4.571
 3908TIP3    H211731   3.608   0.724   4.715
 3909TIP3   OH211732   4.021   4.722   2.335
 3909TIP3    H111733   4.086   4.666   2.378
 3909TIP3    H211734   4.016   4.800   2.392
 3910TIP3   OH211735   2.467   2.302   2.634
 3910TIP3    H111736   2.472   2.377   2.575
 3910TIP3    H211737   2.437   2.230   2.579
 3911TIP3   OH211738   2.693   4.221   2.876
 3911TIP3    H111739   2.616   4.209   2.932
 3911TIP3    H211740   2.670   4.177   2.795
 3912TIP3   OH211741   1.663   1.842   3.626
 3912TIP3    H111742   1.653   1.777   3.696
 3912TIP3    H211743   1.736   1.809   3.574
 3913TIP3   OH211744   1.302   0.149   4.263
 3913TIP3    H111745   1.336   0.238   4.257
 3913TIP3    H211746   1.363   0.103   4.321
 3914TIP3   OH211747   3.682   2.640   0.583
 3914TIP3    H111748   3.612   2.681   0.632
 3914TIP3    H211749   3.647   2.629   0.495
 3915TIP3   OH211750   0.600   4.749   3.492
 3915TIP3    H111751   0.517   4.713   3.462
 3915TIP3    H211752   0.627   4.690   3.563
 3916TIP3   OH211753   4.905   1.003   3.304
 3916TIP3    H111754   4.935   1.074   3.246
 3916TIP3    H211755   4.889   1.047   3.388
 3917TIP3   OH211756   2.457   1.630   4.202
 3917TIP3    H111757   2.473   1.708   4.256
 3917TIP3    H211758   2.482   1.557   4.257
 3918TIP3   OH211759   0.066   0.113   2.484
 3918TIP3    H111760   0.036   0.130   2.573
 3918TIP3    H211761   0.120   0.189   2.462
 3919TIP3   OH211762   6.005   0.313   3.182
 3919TIP3    H111763   5.941   0.243   3.195
 3919TIP3    H211764   6.087   0.267   3.163
 3920TIP3   OH211765   2.391   0.622   2.236
 3920TIP3    H111766   2.410   0.706   2.194
 3920TIP3    H211767   2.469   0.569   2.220
 3921TIP3   OH211768   1.181   3.501   1.359
 3921TIP3    H111769   1.104   3.467   1.405
 3921TIP3    H211770   1.160   3.491   1.266
 3922TIP3   OH211771   1.848   1.791   2.790
 3922TIP3    H111772   1.861   1.885   2.799
 3922TIP3    H211773   1.777   1.783   2.727
 3923TIP3   OH211774   2.813   1.937   1.558
 3923TIP3    H111775   2.835   1.987   1.479
 3923TIP3    H211776   2.718   1.947   1.566
 3924TIP3   OH211777   1.962   1.358   3.514
 3924TIP3    H111778   1.912   1.316   3.585
 3924TIP3    H211779   1.979   1.447   3.546
 3925TIP3   OH211780   3.818   4.649   3.033
 3925TIP3    H111781   3.856   4.600   3.106
 3925TIP3    H211782   3.876   4.724   3.022
 3926TIP3   OH211783   3.333   3.360   3.561
 3926TIP3    H111784   3.293   3.337   3.477
 3926TIP3    H211785   3.288   3.305   3.625
 3927TIP3   OH211786   3.423   5.164   3.667
 3927TIP3    H111787   3.474   5.216   3.605
 3927TIP3    H211788   3.352   5.127   3.615
 3928TIP3   OH211789   5.334   4.965   3.362
 3928TIP3    H111790   5.249   4.930   3.336
 3928TIP3    H211791   5.364   4.906   3.431
 3929TIP3   OH211792   5.019   0.612   1.061
 3929TIP3    H111793   4.928   0.638   1.075
 3929TIP3    H211794   5.029   0.532   1.112
 3930TIP3   OH211795   2.653   2.228   3.433
 3930TIP3    H111796   2.674   2.273   3.352
 3930TIP3    H211797   2.581   2.169   3.410
 3931TIP3   OH211798   4.936   5.358   2.716
 3931TIP3    H111799   4.886   5.438   2.733
 3931TIP3    H211800   5.019   5.390   2.681
 3932TIP3   OH211801   5.723   1.092   3.387
 3932TIP3    H111802   5.785   1.164   3.373
 3932TIP3    H211803   5.777   1.013   3.381
 3933TIP3   OH211804   2.910   0.262   3.847
 3933TIP3    H111805   2.855   0.184   3.837
 3933TIP3    H211806   2.858   0.334   3.811
 3934TIP3   OH211807   0.233   5.173   1.582
 3934TIP3    H111808   0.142   5.202   1.591
 3934TIP3    H211809   0.259   5.148   1.670
 3935TIP3   OH211810   2.373   4.281   1.273
 3935TIP3    H111811   2.369   4.377   1.272
 3935TIP3    H211812   2.291   4.254   1.315
 3936TIP3   OH211813   2.783   3.884   3.820
 3936TIP3    H111814   2.756   3.850   3.905
 3936TIP3    H211815   2.739   3.828   3.756
 3937TIP3   OH211816   5.375   4.084   0.737
 3937TIP3    H111817   5.380   4.156   0.799
 3937TIP3    H211818   5.294   4.039   0.760
 3938TIP3   OH211819   3.731   3.613   0.491
 3938TIP3    H111820   3.639   3.599   0.512
 3938TIP3    H211821   3.730   3.651   0.403
 3939TIP3   OH211822   0.069   1.428   2.758
 3939TIP3    H111823   0.010   1.428   2.833
 3939TIP3    H211824   0.053   1.344   2.715
 3940TIP3   OH211825   6.070   5.136   1.330
 3940TIP3    H111826   6.071   5.045   1.300
 3940TIP3    H211827   6.157   5.150   1.368
 3941TIP3   OH211828   0.970   5.814   3.582
 3941TIP3    H111829   1.058   5.814   3.544
 3941TIP3    H211830   0.980   5.853   3.669
 3942TIP3   OH211831   3.358   2.838   0.472
 3942TIP3    H111832   3.371   2.926   0.438
 3942TIP3    H211833   3.387   2.780   0.402
 3943TIP3   OH211834   0.379   0.376   4.112
 3943TIP3    H111835   0.440   0.379   4.038
 3943TIP3    H211836   0.309   0.317   4.084
 3944TIP3   OH211837   2.704   2.522   1.579
 3944TIP3    H111838   2.683   2.614   1.567
 3944TIP3    H211839   2.619   2.479   1.590
 3945TIP3   OH211840   2.788   3.371   1.949
 3945TIP3    H111841   2.816   3.396   1.861
 3945TIP3    H211842   2.705   3.417   1.962
 3946TIP3   OH211843   6.197   3.043   2.076
 3946TIP3    H111844   6.244   2.981   2.133
 3946TIP3    H211845   6.104   3.022   2.091
 3947TIP3   OH211846   2.110   1.579   3.616
 3947TIP3    H111847   2.057   1.637   3.671
 3947TIP3    H211848   2.179   1.636   3.581
 3948TIP3   OH211849   2.976   1.299   1.457
 3948TIP3    H111850   3.008   1.390   1.457
 3948TIP3    H211851   2.901   1.301   1.397
 3949TIP3   OH211852   5.586   0.332   2.502
 3949TIP3    H111853   5.582   0.291   2.589
 3949TIP3    H211854   5.538   0.271   2.446
 3950TIP3   OH211855   4.184   3.890   3.016
 3950TIP3    H111856   4.255   3.943   3.051
 3950TIP3    H211857   4.212   3.866   2.928
 3951TIP3   OH211858   0.497   3.370   0.591
 3951TIP3    H111859   0.531   3.284   0.566
 3951TIP3    H211860   0.549   3.433   0.541
 3952TIP3   OH211861   2.705   0.566   4.831
 3952TIP3    H111862   2.651   0.621   4.775
 3952TIP3    H211863   2.795   0.584   4.803
 3953TIP3   OH211864   4.362   4.505   4.415
 3953TIP3    H111865   4.362   4.579   4.354
 3953TIP3    H211866   4.412   4.437   4.369
 3954TIP3   OH211867   3.559   1.745   5.171
 3954TIP3    H111868   3.535   1.728   5.080
 3954TIP3    H211869   3.479   1.726   5.221
 3955TIP3   OH211870   4.734   5.505   4.617
 3955TIP3    H111871   4.829   5.505   4.609
 3955TIP3    H211872   4.703   5.461   4.538
 3956TIP3   OH211873   0.642   0.257   1.737
 3956TIP3    H111874   0.553   0.290   1.730
 3956TIP3    H211875   0.691   0.306   1.670
 3957TIP3   OH211876   5.133   0.121   1.265
 3957TIP3    H111877   5.173   0.040   1.235
 3957TIP3    H211878   5.099   0.101   1.352
 3958TIP3   OH211879   4.402   1.178   1.092
 3958TIP3    H111880   4.376   1.157   1.002
 3958TIP3    H211881   4.350   1.256   1.113
 3959TIP3   OH211882   2.501   4.467   0.811
 3959TIP3    H111883   2.468   4.384   0.776
 3959TIP3    H211884   2.431   4.499   0.868
 3960TIP3   OH211885   1.067   3.818   0.660
 3960TIP3    H111886   1.020   3.901   0.654
 3960TIP3    H211887   1.059   3.793   0.752
 3961TIP3   OH211888   4.956   5.155   2.517
 3961TIP3    H111889   5.026   5.090   2.509
 3961TIP3    H211890   4.997   5.228   2.564
 3962TIP3   OH211891   0.407   3.091   0.497
 3962TIP3    H111892   0.348   3.051   0.433
 3962TIP3    H211893   0.491   3.048   0.483
 3963TIP3   OH211894   3.521   5.359   0.189
 3963TIP3    H111895   3.512   5.273   0.230
 3963TIP3    H211896   3.601   5.395   0.226
 3964TIP3   OH211897   0.652   1.641   4.109
 3964TIP3    H111898   0.628   1.710   4.048
 3964TIP3    H211899   0.574   1.628   4.163
 3965TIP3   OH211900   0.177   2.260   3.186
 3965TIP3    H111901   0.266   2.232   3.207
 3965TIP3    H211902   0.126   2.179   3.186
 3966TIP3   OH211903   3.196   2.388   4.191
 3966TIP3    H111904   3.104   2.367   4.207
 3966TIP3    H211905   3.226   2.430   4.271
 3967TIP3   OH211906   6.113   0.020   2.553
 3967TIP3    H111907   6.162   0.068   2.620
 3967TIP3    H211908   6.094   0.085   2.485
 3968TIP3   OH211909   4.327   4.828   2.067
 3968TIP3    H111910   4.355   4.835   2.159
 3968TIP3    H211911   4.232   4.839   2.071
 3969TIP3   OH211912   5.375   4.778   4.917
 3969TIP3    H111913   5.286   4.791   4.885
 3969TIP3    H211914   5.369   4.703   4.977
 3970TIP3   OH211915   5.293   0.813   0.286
 3970TIP3    H111916   5.251   0.890   0.248
 3970TIP3    H211917   5.354   0.783   0.219
 3971TIP3   OH211918   0.676   0.427   4.626
 3971TIP3    H111919   0.665   0.412   4.533
 3971TIP3    H211920   0.619   0.363   4.668
 3972TIP3   OH211921   4.761   3.304   5.025
 3972TIP3    H111922   4.669   3.323   5.008
 3972TIP3    H211923   4.799   3.390   5.046
 3973TIP3   OH211924   4.394   5.530   2.964
 3973TIP3    H111925   4.328   5.460   2.969
 3973TIP3    H211926   4.474   5.486   2.935
 3974TIP3   OH211927   0.677   4.611   3.730
 3974TIP3    H111928   0.618   4.536   3.728
 3974TIP3    H211929   0.750   4.583   3.784
 3975TIP3   OH211930   5.740   5.323   4.586
 3975TIP3    H111931   5.800   5.254   4.560
 3975TIP3    H211932   5.689   5.285   4.658
 3976TIP3   OH211933   3.243   5.261   3.020
 3976TIP3    H111934   3.285   5.182   2.986
 3976TIP3    H211935   3.161   5.230   3.058
 3977TIP3   OH211936   0.009   2.369   1.830
 3977TIP3    H111937   0.079   2.336   1.886
 3977TIP3    H211938  -0.054   2.407   1.891
 3978TIP3   OH211939   1.029   3.521   3.610
 3978TIP3    H111940   1.124   3.533   3.610
 3978TIP3    H211941   0.998   3.571   3.685
 3979TIP3   OH211942   4.848   3.261   4.774
 3979TIP3    H111943   4.809   3.242   4.859
 3979TIP3    H211944   4.782   3.315   4.730
 3980TIP3   OH211945   4.771   0.539   1.907
 3980TIP3    H111946   4.826   0.616   1.919
 3980TIP3    H211947   4.696   0.554   1.964
 3981TIP3   OH211948   3.640   1.112   0.651
 3981TIP3    H111949   3.664   1.023   0.625
 3981TIP3    H211950   3.627   1.106   0.746
 3982TIP3   OH211951   1.216   5.478   4.607
 3982TIP3    H111952   1.229   5.419   4.682
 3982TIP3    H211953   1.241   5.565   4.641
 3983TIP3   OH211954   6.358   3.857   4.404
 3983TIP3    H111955   6.295   3.893   4.466
 3983TIP3    H211956   6.317   3.867   4.318
 3984TIP3   OH211957   4.543   2.217   0.570
 3984TIP3    H111958   4.460   2.179   0.544
 3984TIP3    H211959   4.603   2.143   0.579
 3985TIP3   OH211960   1.115   5.607   3.336
 3985TIP3    H111961   1.154   5.661   3.406
 3985TIP3    H211962   1.058   5.668   3.289
 3986TIP3   OH211963   4.910   0.488   3.854
 3986TIP3    H111964   4.991   0.461   3.812
 3986TIP3    H211965   4.887   0.416   3.912
 3987TIP3   OH211966   6.373   4.314   1.565
 3987TIP3    H111967   6.380   4.406   1.540
 3987TIP3    H211968   6.303   4.312   1.631
 3988TIP3   OH211969   5.830   2.842   4.066
 3988TIP3    H111970   5.917   2.802   4.074
 3988TIP3    H211971   5.812   2.877   4.153
 3989TIP3   OH211972   3.292   1.676  -0.018
 3989TIP3    H111973   3.216   1.734  -0.011
 3989TIP3    H211974   3.268   1.599   0.033
 3990TIP3   OH211975   2.864   0.856   2.386
 3990TIP3    H111976   2.776   0.895   2.393
 3990TIP3    H211977   2.898   0.857   2.475
 3991TIP3   OH211978   4.734   5.809   2.374
 3991TIP3    H111979   4.751   5.893   2.415
 3991TIP3    H211980   4.682   5.831   2.296
 3992TIP3   OH211981   5.382   5.281   2.233
 3992TIP3    H111982   5.367   5.188   2.213
 3992TIP3    H211983   5.464   5.302   2.188
 3993TIP3   OH211984   5.753   3.183   4.627
 3993TIP3    H111985   5.721   3.186   4.717
 3993TIP3    H211986   5.679   3.213   4.574
 3994TIP3   OH211987   6.283   1.388   0.571
 3994TIP3    H111988   6.356   1.387   0.633
 3994TIP3    H211989   6.301   1.463   0.514
 3995TIP3   OH211990   5.281   4.377   3.778
 3995TIP3    H111991   5.222   4.359   3.851
 3995TIP3    H211992   5.278   4.298   3.724
 3996TIP3   OH211993   0.132   1.222   1.152
 3996TIP3    H111994   0.215   1.271   1.151
 3996TIP3    H211995   0.155   1.137   1.114
 3997TIP3   OH211996   1.430   3.016   5.036
 3997TIP3    H111997   1.404   3.030   4.945
 3997TIP3    H211998   1.510   3.069   5.046
 3998TIP3   OH211999   0.898   2.082   3.645
 3998TIP3    H112000   0.915   2.002   3.596
 3998TIP3    H212001   0.898   2.055   3.737
 3999TIP3   OH212002   0.960   0.982   3.301
 3999TIP3    H112003   0.979   0.905   3.355
 3999TIP3    H212004   0.982   0.954   3.212
 4000TIP3   OH212005   4.415   3.033   3.341
 4000TIP3    H112006   4.455   2.991   3.265
 4000TIP3    H212007   4.478   3.018   3.412
 4001TIP3   OH212008   3.164   0.950   0.319
 4001TIP3    H112009   3.232   1.001   0.363
 4001TIP3    H212010   3.193   0.859   0.327
 4002TIP3   OH212011   5.392   3.476   0.241
 4002TIP3    H112012   5.466   3.433   0.285
 4002TIP3    H212013   5.416   3.475   0.148
 4003TIP3   OH212014   3.841   2.245   1.568
 4003TIP3    H112015   3.830   2.163   1.520
 4003TIP3    H212016   3.935   2.260   1.568
 4004TIP3   OH212017   4.347   2.278   3.808
 4004TIP3    H112018   4.301   2.298   3.890
 4004TIP3    H212019   4.345   2.360   3.758
 4005TIP3   OH212020   0.558   3.569   0.343
 4005TIP3    H112021   0.477   3.618   0.357
 4005TIP3    H212022   0.545   3.527   0.258
 4006TIP3   OH212023   5.175   1.244   3.795
 4006TIP3    H112024   5.166   1.339   3.784
 4006TIP3    H212025   5.250   1.233   3.854
 4007TIP3   OH212026   0.187   2.683   1.086
 4007TIP3    H112027   0.130   2.606   1.091
 4007TIP3    H212028   0.269   2.650   1.050
 4008TIP3   OH212029   0.276   0.363   4.448
 4008TIP3    H112030   0.230   0.443   4.473
 4008TIP3    H212031   0.208   0.307   4.410
 4009TIP3   OH212032   3.521   2.111   1.087
 4009TIP3    H112033   3.571   2.161   1.152
 4009TIP3    H212034   3.433   2.104   1.124
 4010TIP3   OH212035   2.723   4.898   3.638
 4010TIP3    H112036   2.762   4.984   3.655
 4010TIP3    H212037   2.727   4.888   3.543
 4011TIP3   OH212038   0.927   3.792   2.424
 4011TIP3    H112039   0.940   3.799   2.329
 4011TIP3    H212040   0.961   3.874   2.459
 4012TIP3   OH212041   4.113   4.256   3.451
 4012TIP3    H112042   4.183   4.304   3.496
 4012TIP3    H212043   4.154   4.177   3.418
 4013TIP3   OH212044   2.099   3.545   2.554
 4013TIP3    H112045   2.044   3.605   2.604
 4013TIP3    H212046   2.125   3.479   2.618
 4014TIP3   OH212047   1.935   3.355   1.330
 4014TIP3    H112048   1.996   3.321   1.395
 4014TIP3    H212049   1.936   3.289   1.260
 4015TIP3   OH212050   2.825   4.256   4.081
 4015TIP3    H112051   2.736   4.223   4.091
 4015TIP3    H212052   2.816   4.351   4.085
 4016TIP3   OH212053   5.537  -0.004   2.126
 4016TIP3    H112054   5.600   0.032   2.063
 4016TIP3    H212055   5.563   0.035   2.210
 4017TIP3   OH212056   4.363   3.790   3.405
 4017TIP3    H112057   4.453   3.765   3.425
 4017TIP3    H212058   4.336   3.730   3.336
 4018TIP3   OH212059   3.217   2.520   4.466
 4018TIP3    H112060   3.235   2.614   4.457
 4018TIP3    H212061   3.302   2.478   4.455
 4019TIP3   OH212062   1.232   2.403   5.118
 4019TIP3    H112063   1.225   2.335   5.051
 4019TIP3    H212064   1.276   2.360   5.191
 4020TIP3   OH212065   5.079   1.126   1.016
 4020TIP3    H112066   5.023   1.124   1.094
 4020TIP3    H212067   5.121   1.040   1.014
 4021TIP3   OH212068   5.272   1.662   0.105
 4021TIP3    H112069   5.249   1.662   0.198
 4021TIP3    H212070   5.279   1.755   0.082
 4022TIP3   OH212071   5.991   1.635   1.918
 4022TIP3    H112072   6.018   1.721   1.886
 4022TIP3    H212073   6.062   1.576   1.893
 4023TIP3   OH212074   4.028   0.883   3.458
 4023TIP3    H112075   3.974   0.956   3.487
 4023TIP3    H212076   4.113   0.897   3.500
 4024TIP3   OH212077   4.732   5.638   3.946
 4024TIP3    H112078   4.820   5.601   3.955
 4024TIP3    H212079   4.674   5.567   3.974
 4025TIP3   OH212080   5.894   0.835   1.173
 4025TIP3    H112081   5.842   0.895   1.226
 4025TIP3    H212082   5.979   0.830   1.217
 4026TIP3   OH212083   5.380   3.164   1.354
 4026TIP3    H112084   5.414   3.112   1.427
 4026TIP3    H212085   5.365   3.101   1.284
 4027TIP3   OH212086   4.652   5.478   3.474
 4027TIP3    H112087   4.730   5.456   3.525
 4027TIP3    H212088   4.663   5.571   3.454
 4028TIP3   OH212089   0.664   3.755   2.553
 4028TIP3    H112090   0.737   3.779   2.496
 4028TIP3    H212091   0.700   3.760   2.641
 4029TIP3   OH212092   2.188   5.400   4.671
 4029TIP3    H112093   2.203   5.482   4.717
 4029TIP3    H212094   2.269   5.350   4.683
 4030TIP3   OH212095   6.351   5.553   1.194
 4030TIP3    H112096   6.304   5.544   1.110
 4030TIP3    H212097   6.400   5.635   1.185
 4031TIP3   OH212098   0.052   0.081   3.509
 4031TIP3    H112099   0.055   0.060   3.602
 4031TIP3    H212100  -0.025   0.138   3.500
 4032TIP3   OH212101   2.398   5.822   3.229
 4032TIP3    H112102   2.334   5.839   3.299
 4032TIP3    H212103   2.429   5.909   3.205
 4033TIP3   OH212104   3.766   2.898   2.504
 4033TIP3    H112105   3.828   2.931   2.569
 4033TIP3    H212106   3.818   2.885   2.425
 4034TIP3   OH212107   0.846   1.312   0.527
 4034TIP3    H112108   0.924   1.260   0.542
 4034TIP3    H212109   0.825   1.351   0.612
 4035TIP3   OH212110   1.261   5.473   2.057
 4035TIP3    H112111   1.339   5.493   2.109
 4035TIP3    H212112   1.220   5.400   2.103
 4036TIP3   OH212113   4.052   1.027   0.053
 4036TIP3    H112114   4.078   0.962  -0.012
 4036TIP3    H212115   4.117   1.016   0.123
 4037TIP3   OH212116   4.012   4.871   2.968
 4037TIP3    H112117   4.041   4.933   3.035
 4037TIP3    H212118   4.088   4.817   2.950
 4038TIP3   OH212119   2.557   1.950   0.710
 4038TIP3    H112120   2.612   1.978   0.783
 4038TIP3    H212121   2.473   1.995   0.724
 4039TIP3   OH212122  -0.018   1.579   0.361
 4039TIP3    H112123  -0.058   1.660   0.330
 4039TIP3    H212124   0.065   1.573   0.312
 4040TIP3   OH212125   1.273   2.173   4.203
 4040TIP3    H112126   1.231   2.088   4.196
 4040TIP3    H212127   1.358   2.155   4.244
 4041TIP3   OH212128   3.696   3.641   3.159
 4041TIP3    H112129   3.773   3.628   3.214
 4041TIP3    H212130   3.698   3.734   3.137
 4042TIP3   OH212131   0.655   1.786   1.970
 4042TIP3    H112132   0.614   1.710   2.011
 4042TIP3    H212133   0.681   1.755   1.884
 4043TIP3   OH212134   3.168   0.160   3.666
 4043TIP3    H112135   3.088   0.186   3.712
 4043TIP3    H212136   3.141   0.149   3.575
 4044TIP3   OH212137   1.286   1.275   4.539
 4044TIP3    H112138   1.304   1.332   4.464
 4044TIP3    H212139   1.223   1.211   4.505
 4045TIP3   OH212140   4.975   2.867   0.717
 4045TIP3    H112141   4.918   2.807   0.669
 4045TIP3    H212142   4.924   2.948   0.725
 4046TIP3   OH212143   1.254   2.135   4.994
 4046TIP3    H112144   1.320   2.069   4.973
 4046TIP3    H212145   1.181   2.116   4.935
 4047TIP3   OH212146   2.086   4.858   3.147
 4047TIP3    H112147   2.001   4.843   3.106
 4047TIP3    H212148   2.114   4.943   3.113
 4048TIP3   OH212149   1.973   2.026   3.163
 4048TIP3    H112150   1.919   2.099   3.192
 4048TIP3    H212151   2.029   2.007   3.238
 4049TIP3   OH212152   0.702   3.816   5.008
 4049TIP3    H112153   0.774   3.865   5.049
 4049TIP3    H212154   0.743   3.769   4.935
 4050TIP3   OH212155   4.640   3.793   4.198
 4050TIP3    H112156   4.617   3.840   4.279
 4050TIP3    H212157   4.586   3.834   4.130
 4051TIP3   OH212158   3.263   0.532   0.050
 4051TIP3    H112159   3.215   0.614   0.062
 4051TIP3    H212160   3.303   0.515   0.135
 4052TIP3   OH212161   0.607   1.742   1.159
 4052TIP3    H112162   0.662   1.677   1.114
 4052TIP3    H212163   0.663   1.819   1.167
 4053TIP3   OH212164   2.743   5.199   3.036
 4053TIP3    H112165   2.656   5.166   3.059
 4053TIP3    H212166   2.750   5.185   2.942
 4054TIP3   OH212167   2.280   4.644   1.569
 4054TIP3    H112168   2.274   4.724   1.516
 4054TIP3    H212169   2.360   4.656   1.621
 4055TIP3   OH212170   0.149   2.791   0.782
 4055TIP3    H112171   0.176   2.810   0.692
 4055TIP3    H212172   0.140   2.877   0.822
 4056TIP3   OH212173   2.080   0.364   3.883
 4056TIP3    H112174   2.003   0.421   3.887
 4056TIP3    H212175   2.143   0.412   3.830
 4057TIP3   OH212176   4.767   3.604   3.731
 4057TIP3    H112177   4.858   3.614   3.759
 4057TIP3    H212178   4.768   3.529   3.672
 4058TIP3   OH212179   3.424   3.745   1.039
 4058TIP3    H112180   3.357   3.811   1.022
 4058TIP3    H212181   3.475   3.742   0.958
 4059TIP3   OH212182   0.376   1.794   2.749
 4059TIP3    H112183   0.327   1.855   2.804
 4059TIP3    H212184   0.434   1.749   2.810
 4060TIP3   OH212185   3.019   1.453   2.009
 4060TIP3    H112186   2.966   1.391   1.959
 4060TIP3    H212187   2.979   1.454   2.096
 4061TIP3   OH212188   0.464   4.331   2.103
 4061TIP3    H112189   0.383   4.318   2.055
 4061TIP3    H212190   0.533   4.313   2.039
 4062TIP3   OH212191   1.099   2.065   0.562
 4062TIP3    H112192   1.042   1.993   0.592
 4062TIP3    H212193   1.108   2.050   0.468
 4063TIP3   OH212194   1.981   4.738   1.540
 4063TIP3    H112195   2.041   4.705   1.474
 4063TIP3    H212196   1.902   4.684   1.531
 4064TIP3   OH212197   0.417   4.643   4.926
 4064TIP3    H112198   0.383   4.558   4.952
 4064TIP3    H212199   0.340   4.700   4.921
 4065TIP3   OH212200   5.596   3.741   0.279
 4065TIP3    H112201   5.568   3.750   0.370
 4065TIP3    H212202   5.578   3.827   0.240
 4066TIP3   OH212203   4.071   5.701   1.914
 4066TIP3    H112204   4.081   5.606   1.904
 4066TIP3    H212205   4.051   5.732   1.825
 4067TIP3   OH212206   2.771   2.382   5.061
 4067TIP3    H112207   2.701   2.429   5.017
 4067TIP3    H212208   2.767   2.293   5.027
 4068TIP3   OH212209   0.575   2.402   0.396
 4068TIP3    H112210   0.599   2.493   0.410
 4068TIP3    H212211   0.596   2.386   0.304
 4069TIP3   OH212212   5.381   3.110   2.268
 4069TIP3    H112213   5.332   3.103   2.186
 4069TIP3    H212214   5.313   3.117   2.336
 4070TIP3   OH212215   3.482   0.651   3.652
 4070TIP3    H112216   3.552   0.688   3.706
 4070TIP3    H212217   3.523   0.576   3.609
 4071TIP3   OH212218   3.777   3.070   4.961
 4071TIP3    H112219   3.751   2.979   4.947
 4071TIP3    H212220   3.696   3.116   4.983
 4072TIP3   OH212221   4.190   4.385   2.861
 4072TIP3    H112222   4.154   4.366   2.948
 4072TIP3    H212223   4.165   4.311   2.807
 4073TIP3   OH212224   5.540   3.160   2.763
 4073TIP3    H112225   5.557   3.074   2.725
 4073TIP3    H212226   5.445   3.166   2.767
 4074TIP3   OH212227   4.671   0.503   3.727
 4074TIP3    H112228   4.667   0.492   3.633
 4074TIP3    H212229   4.757   0.470   3.752
 4075TIP3   OH212230   4.073   2.458   0.794
 4075TIP3    H112231   4.025   2.525   0.746
 4075TIP3    H212232   4.058   2.378   0.743
 4076TIP3   OH212233   0.032   5.588   0.474
 4076TIP3    H112234   0.090   5.528   0.427
 4076TIP3    H212235  -0.055   5.550   0.466
 4077TIP3   OH212236   4.009   5.395   0.603
 4077TIP3    H112237   4.100   5.367   0.598
 4077TIP3    H212238   3.963   5.318   0.638
 4078TIP3   OH212239   4.314   2.930   3.606
 4078TIP3    H112240   4.269   2.906   3.525
 4078TIP3    H212241   4.407   2.930   3.583
 4079TIP3   OH212242   1.720   1.311   0.130
 4079TIP3    H112243   1.786   1.255   0.170
 4079TIP3    H212244   1.770   1.367   0.069
 4080TIP3   OH212245   2.000   3.088   2.894
 4080TIP3    H112246   2.005   2.995   2.916
 4080TIP3    H212247   1.958   3.090   2.808
 4081TIP3   OH212248   3.005   1.750   1.615
 4081TIP3    H112249   3.004   1.730   1.708
 4081TIP3    H212250   2.923   1.797   1.600
 4082TIP3   OH212251   1.300   3.633   3.596
 4082TIP3    H112252   1.351   3.688   3.537
 4082TIP3    H212253   1.360   3.610   3.667
 4083TIP3   OH212254   1.722   1.830   0.614
 4083TIP3    H112255   1.754   1.863   0.530
 4083TIP3    H212256   1.627   1.836   0.607
 4084TIP3   OH212257   0.088   4.667   0.827
 4084TIP3    H112258   0.001   4.697   0.803
 4084TIP3    H212259   0.088   4.573   0.807
 4085TIP3   OH212260   2.265   5.322   5.108
 4085TIP3    H112261   2.314   5.297   5.186
 4085TIP3    H212262   2.252   5.416   5.117
 4086TIP3   OH212263   4.620   1.349   0.409
 4086TIP3    H112264   4.529   1.325   0.426
 4086TIP3    H212265   4.648   1.292   0.337
 4087TIP3   OH212266   3.748   3.873   2.234
 4087TIP3    H112267   3.798   3.937   2.183
 4087TIP3    H212268   3.657   3.901   2.224
 4088TIP3   OH212269   1.820   2.599   1.441
 4088TIP3    H112270   1.738   2.596   1.490
 4088TIP3    H212271   1.816   2.523   1.383
 4089TIP3   OH212272   5.153   4.768   4.685
 4089TIP3    H112273   5.100   4.800   4.758
 4089TIP3    H212274   5.130   4.675   4.678
 4090TIP3   OH212275   5.476   2.123   1.517
 4090TIP3    H112276   5.428   2.205   1.530
 4090TIP3    H212277   5.536   2.119   1.591
 4091TIP3   OH212278   4.999   0.946   2.996
 4091TIP3    H112279   4.945   0.900   2.932
 4091TIP3    H212280   4.977   0.907   3.080
 4092TIP3   OH212281   1.977   1.039   1.561
 4092TIP3    H112282   2.009   1.057   1.650
 4092TIP3    H212283   1.886   1.014   1.572
 4093TIP3   OH212284   1.336   3.796   0.493
 4093TIP3    H112285   1.306   3.885   0.515
 4093TIP3    H212286   1.338   3.750   0.577
 4094TIP3   OH212287   1.402   2.759   3.006
 4094TIP3    H112288   1.357   2.745   3.089
 4094TIP3    H212289   1.336   2.742   2.939
 4095TIP3   OH212290   0.806   0.960   4.381
 4095TIP3    H112291   0.762   0.935   4.462
 4095TIP3    H212292   0.890   0.995   4.409
 4096TIP3   OH212293   2.740   0.192   0.401
 4096TIP3    H112294   2.682   0.232   0.466
 4096TIP3    H212295   2.828   0.199   0.439
 4097TIP3   OH212296   0.980   2.272   0.690
 4097TIP3    H112297   1.047   2.338   0.669
 4097TIP3    H212298   1.014   2.191   0.654
 4098TIP3   OH212299   0.562   1.005   0.370
 4098TIP3    H112300   0.559   1.092   0.408
 4098TIP3    H212301   0.539   1.018   0.278
 4099TIP3   OH212302   3.872   2.883   3.696
 4099TIP3    H112303   3.837   2.863   3.609
 4099TIP3    H212304   3.955   2.927   3.679
 4100TIP3   OH212305   4.943   1.006   0.305
 4100TIP3    H112306   4.975   1.083   0.352
 4100TIP3    H212307   4.850   1.001   0.330
 4101TIP3   OH212308   5.894   0.890   3.356
 4101TIP3    H112309   5.965   0.946   3.328
 4101TIP3    H212310   5.897   0.815   3.296
 4102TIP3   OH212311   1.317   1.549   1.497
 4102TIP3    H112312   1.295   1.460   1.525
 4102TIP3    H212313   1.347   1.539   1.406
 4103TIP3   OH212314   1.600   1.142   0.866
 4103TIP3    H112315   1.515   1.173   0.834
 4103TIP3    H212316   1.599   1.163   0.959
 4104TIP3   OH212317   2.931   2.597   4.028
 4104TIP3    H112318   2.854   2.596   3.971
 4104TIP3    H212319   2.954   2.504   4.038
 4105TIP3   OH212320   1.260   3.433   0.866
 4105TIP3    H112321   1.337   3.387   0.897
 4105TIP3    H212322   1.236   3.388   0.784
 4106TIP3   OH212323   0.086   4.022   0.567
 4106TIP3    H112324   0.005   3.982   0.599
 4106TIP3    H212325   0.113   4.082   0.636
 4107TIP3   OH212326   6.037   1.985   2.509
 4107TIP3    H112327   5.965   2.039   2.541
 4107TIP3    H212328   6.012   1.962   2.420
 4108TIP3   OH212329   2.466   4.198   2.629
 4108TIP3    H112330   2.527   4.253   2.580
 4108TIP3    H212331   2.380   4.217   2.591
 4109TIP3   OH212332   0.501   5.081   2.775
 4109TIP3    H112333   0.542   4.995   2.787
 4109TIP3    H212334   0.507   5.123   2.861
 4110TIP3   OH212335   1.650   1.216   4.221
 4110TIP3    H112336   1.579   1.186   4.278
 4110TIP3    H212337   1.616   1.204   4.132
 4111TIP3   OH212338   0.625   0.057   3.854
 4111TIP3    H112339   0.588   0.087   3.771
 4111TIP3    H212340   0.661   0.136   3.894
 4112TIP3   OH212341   2.695   2.610  -0.028
 4112TIP3    H112342   2.782   2.644  -0.049
 4112TIP3    H212343   2.663   2.668   0.042
 4113TIP3   OH212344   3.343   5.665   3.929
 4113TIP3    H112345   3.366   5.609   3.855
 4113TIP3    H212346   3.381   5.622   4.005
 4114TIP3   OH212347   3.537   3.737   4.982
 4114TIP3    H112348   3.513   3.659   5.031
 4114TIP3    H212349   3.629   3.751   5.004
 4115TIP3   OH212350   1.025   0.720   1.578
 4115TIP3    H112351   1.041   0.812   1.560
 4115TIP3    H212352   1.055   0.674   1.499
 4116TIP3   OH212353   4.285   3.403   2.545
 4116TIP3    H112354   4.258   3.365   2.628
 4116TIP3    H212355   4.216   3.380   2.484
 4117TIP3   OH212356   6.100   3.896   2.075
 4117TIP3    H112357   6.189   3.876   2.105
 4117TIP3    H212358   6.063   3.951   2.144
 4118TIP3   OH212359   0.651   1.247   4.564
 4118TIP3    H112360   0.605   1.270   4.483
 4118TIP3    H212361   0.598   1.288   4.633
 4119TIP3   OH212362   5.456   4.372   1.694
 4119TIP3    H112363   5.399   4.400   1.765
 4119TIP3    H212364   5.467   4.450   1.640
 4120TIP3   OH212365   4.244   3.344   1.012
 4120TIP3    H112366   4.304   3.415   1.035
 4120TIP3    H212367   4.243   3.344   0.916
 4121TIP3   OH212368   6.148   3.208   3.585
 4121TIP3    H112369   6.086   3.135   3.583
 4121TIP3    H212370   6.224   3.177   3.536
 4122TIP3   OH212371   3.028   4.140   3.012
 4122TIP3    H112372   3.025   4.100   3.099
 4122TIP3    H212373   3.088   4.214   3.021
 4123TIP3   OH212374   1.945   2.236   4.428
 4123TIP3    H112375   1.975   2.265   4.342
 4123TIP3    H212376   1.995   2.289   4.490
 4124TIP3   OH212377   5.551   2.952   4.508
 4124TIP3    H112378   5.537   3.047   4.500
 4124TIP3    H212379   5.537   2.919   4.419
 4125TIP3   OH212380   3.456   4.524   1.702
 4125TIP3    H112381   3.548   4.552   1.693
 4125TIP3    H212382   3.446   4.455   1.637
 4126TIP3   OH212383   5.394   4.620   1.629
 4126TIP3    H112384   5.370   4.607   1.720
 4126TIP3    H212385   5.315   4.655   1.588
 4127TIP3   OH212386   0.034   3.437   0.408
 4127TIP3    H112387   0.105   3.387   0.368
 4127TIP3    H212388   0.059   3.446   0.499
 4128TIP3   OH212389   5.452   4.238   3.493
 4128TIP3    H112390   5.520   4.271   3.552
 4128TIP3    H212391   5.378   4.219   3.550
 4129TIP3   OH212392   3.870   1.744   0.391
 4129TIP3    H112393   3.909   1.656   0.388
 4129TIP3    H212394   3.875   1.775   0.301
 4130TIP3   OH212395   5.995   4.613   3.041
 4130TIP3    H112396   6.077   4.641   3.082
 4130TIP3    H212397   5.968   4.537   3.093
 4131TIP3   OH212398   2.698   0.468   0.678
 4131TIP3    H112399   2.639   0.534   0.713
 4131TIP3    H212400   2.751   0.514   0.613
 4132TIP3   OH212401   2.267   1.067   0.385
 4132TIP3    H112402   2.201   0.998   0.381
 4132TIP3    H212403   2.348   1.025   0.356
 4133TIP3   OH212404   2.826   5.314   0.402
 4133TIP3    H112405   2.731   5.304   0.408
 4133TIP3    H212406   2.847   5.392   0.453
 4134TIP3   OH212407   4.543   4.586   0.735
 4134TIP3    H112408   4.502   4.503   0.710
 4134TIP3    H212409   4.543   4.639   0.656
 4135TIP3   OH212410   6.282   4.102   0.366
 4135TIP3    H112411   6.344   4.079   0.436
 4135TIP3    H212412   6.196   4.097   0.408
 4136TIP3   OH212413   4.631   1.453   4.892
 4136TIP3    H112414   4.620   1.385   4.825
 4136TIP3    H212415   4.547   1.455   4.938
 4137TIP3   OH212416   3.667   3.233   2.420
 4137TIP3    H112417   3.642   3.202   2.507
 4137TIP3    H212418   3.749   3.186   2.402
 4138TIP3   OH212419   5.635   4.235   4.507
 4138TIP3    H112420   5.720   4.253   4.468
 4138TIP3    H212421   5.653   4.167   4.572
 4139TIP3   OH212422   0.759   0.117   4.633
 4139TIP3    H112423   0.818   0.072   4.693
 4139TIP3    H212424   0.775   0.210   4.648
 4140TIP3   OH212425   5.092   2.465   1.024
 4140TIP3    H112426   5.123   2.547   0.986
 4140TIP3    H212427   5.155   2.400   0.995
 4141TIP3   OH212428   3.295   1.474   3.223
 4141TIP3    H112429   3.280   1.513   3.308
 4141TIP3    H212430   3.228   1.513   3.166
 4142TIP3   OH212431   2.117   0.623   0.925
 4142TIP3    H112432   2.176   0.693   0.953
 4142TIP3    H212433   2.083   0.586   1.007
 4143TIP3   OH212434   1.938   0.641   4.393
 4143TIP3    H112435   2.001   0.593   4.447
 4143TIP3    H212436   1.987   0.715   4.359
 4144TIP3   OH212437   3.685   2.823   3.456
 4144TIP3    H112438   3.683   2.729   3.435
 4144TIP3    H212439   3.658   2.866   3.375
 4145TIP3   OH212440   2.317   0.359   1.507
 4145TIP3    H112441   2.366   0.325   1.432
 4145TIP3    H212442   2.383   0.375   1.574
 4146TIP3   OH212443   5.565   1.823   4.318
 4146TIP3    H112444   5.511   1.894   4.281
 4146TIP3    H212445   5.516   1.794   4.395
 4147TIP3   OH212446   4.575   1.716   2.903
 4147TIP3    H112447   4.562   1.730   2.997
 4147TIP3    H212448   4.639   1.781   2.877
 4148TIP3   OH212449   3.630   5.756   1.212
 4148TIP3    H112450   3.584   5.676   1.186
 4148TIP3    H212451   3.565   5.825   1.200
 4149TIP3   OH212452   2.175   1.265   2.830
 4149TIP3    H112453   2.108   1.207   2.864
 4149TIP3    H212454   2.205   1.223   2.748
 4150TIP3   OH212455   2.160   2.616   2.163
 4150TIP3    H112456   2.164   2.564   2.243
 4150TIP3    H212457   2.073   2.655   2.163
 4151TIP3   OH212458   5.424   4.799   3.558
 4151TIP3    H112459   5.348   4.753   3.595
 4151TIP3    H212460   5.499   4.760   3.604
 4152TIP3   OH212461   0.940   4.251   4.017
 4152TIP3    H112462   0.878   4.253   4.090
 4152TIP3    H212463   0.936   4.160   3.986
 4153TIP3   OH212464   2.306   5.735   2.440
 4153TIP3    H112465   2.220   5.725   2.481
 4153TIP3    H212466   2.287   5.747   2.347
 4154TIP3   OH212467   4.093   2.309   2.822
 4154TIP3    H112468   4.141   2.280   2.744
 4154TIP3    H212469   4.019   2.358   2.787
 4155TIP3   OH212470   6.143   0.251   1.905
 4155TIP3    H112471   6.116   0.255   1.997
 4155TIP3    H212472   6.212   0.317   1.898
 4156TIP3   OH212473   4.391   3.578   3.218
 4156TIP3    H112474   4.305   3.571   3.175
 4156TIP3    H212475   4.453   3.585   3.145
 4157TIP3   OH212476   0.848   1.964   3.882
 4157TIP3    H112477   0.875   1.873   3.871
 4157TIP3    H212478   0.876   1.987   3.970
 4158TIP3   OH212479   3.056   0.395   0.402
 4158TIP3    H112480   3.032   0.331   0.469
 4158TIP3    H212481   2.999   0.376   0.328
 4159TIP3   OH212482   1.844   5.614   5.142
 4159TIP3    H112483   1.787   5.689   5.154
 4159TIP3    H212484   1.785   5.539   5.136
 4160TIP3   OH212485   0.998   4.706   4.175
 4160TIP3    H112486   0.922   4.671   4.222
 4160TIP3    H212487   0.965   4.784   4.131
 4161TIP3   OH212488   4.126   1.758   3.977
 4161TIP3    H112489   4.175   1.748   3.895
 4161TIP3    H212490   4.106   1.852   3.982
 4162TIP3   OH212491   0.732   0.280   3.976
 4162TIP3    H112492   0.811   0.293   3.922
 4162TIP3    H212493   0.765   0.278   4.066
 4163TIP3   OH212494   0.813   0.472   1.885
 4163TIP3    H112495   0.822   0.564   1.864
 4163TIP3    H212496   0.785   0.430   1.804
 4164TIP3   OH212497   2.805   2.926   1.770
 4164TIP3    H112498   2.753   2.999   1.803
 4164TIP3    H212499   2.894   2.946   1.798
 4165TIP3   OH212500   4.294   1.297   2.685
 4165TIP3    H112501   4.238   1.359   2.638
 4165TIP3    H212502   4.373   1.291   2.631
 4166TIP3   OH212503   2.949   3.967   1.091
 4166TIP3    H112504   2.886   3.899   1.116
 4166TIP3    H212505   2.906   4.049   1.115
 4167TIP3   OH212506   5.143   2.301   1.424
 4167TIP3    H112507   5.069   2.362   1.418
 4167TIP3    H212508   5.106   2.223   1.466
 4168TIP3   OH212509   4.503   3.093   2.793
 4168TIP3    H112510   4.417   3.122   2.763
 4168TIP3    H212511   4.531   3.028   2.729
 4169TIP3   OH212512   2.285   5.607   0.418
 4169TIP3    H112513   2.339   5.684   0.437
 4169TIP3    H212514   2.285   5.557   0.499
 4170TIP3   OH212515   5.739   1.351   1.281
 4170TIP3    H112516   5.724   1.445   1.270
 4170TIP3    H212517   5.679   1.326   1.351
 4171TIP3   OH212518   3.678   1.471   1.500
 4171TIP3    H112519   3.607   1.446   1.441
 4171TIP3    H212520   3.639   1.535   1.559
 4172TIP3   OH212521   4.411   3.621   3.963
 4172TIP3    H112522   4.367   3.623   3.878
 4172TIP3    H212523   4.438   3.711   3.978
 4173TIP3   OH212524   6.082   2.758   0.880
 4173TIP3    H112525   6.100   2.706   0.801
 4173TIP3    H212526   5.997   2.727   0.911
 4174TIP3   OH212527   3.273   4.362   4.800
 4174TIP3    H112528   3.343   4.351   4.737
 4174TIP3    H212529   3.294   4.443   4.846
 4175TIP3   OH212530   4.178   1.185   0.650
 4175TIP3    H112531   4.181   1.280   0.643
 4175TIP3    H212532   4.091   1.165   0.683
 4176TIP3   OH212533   0.190   0.471   0.056
 4176TIP3    H112534   0.129   0.397   0.056
 4176TIP3    H212535   0.203   0.490   0.149
 4177TIP3   OH212536   0.190   2.528   1.362
 4177TIP3    H112537   0.219   2.482   1.283
 4177TIP3    H212538   0.219   2.472   1.434
 4178TIP3   OH212539   4.615   0.215   1.628
 4178TIP3    H112540   4.623   0.144   1.692
 4178TIP3    H212541   4.703   0.253   1.623
 4179TIP3   OH212542   5.629   2.484   1.412
 4179TIP3    H112543   5.612   2.558   1.470
 4179TIP3    H212544   5.546   2.469   1.366
 4180TIP3   OH212545   0.822   5.015   0.384
 4180TIP3    H112546   0.910   5.015   0.421
 4180TIP3    H212547   0.764   5.006   0.460
 4181TIP3   OH212548   0.860   3.110   1.665
 4181TIP3    H112549   0.915   3.175   1.709
 4181TIP3    H212550   0.876   3.124   1.572
 4182TIP3   OH212551   3.116   1.490   1.084
 4182TIP3    H112552   3.164   1.416   1.123
 4182TIP3    H212553   3.025   1.475   1.111
 4183TIP3   OH212554   4.444   3.516   1.446
 4183TIP3    H112555   4.485   3.443   1.492
 4183TIP3    H212556   4.518   3.572   1.420
 4184TIP3   OH212557   2.215   0.069   4.557
 4184TIP3    H112558   2.168   0.042   4.636
 4184TIP3    H212559   2.168   0.146   4.526
 4185TIP3   OH212560   2.422   2.803   4.272
 4185TIP3    H112561   2.518   2.809   4.264
 4185TIP3    H212562   2.407   2.712   4.299
 4186TIP3   OH212563   5.819   1.836   3.367
 4186TIP3    H112564   5.853   1.768   3.308
 4186TIP3    H212565   5.776   1.899   3.309
 4187TIP3   OH212566   1.617   5.215   4.714
 4187TIP3    H112567   1.575   5.165   4.643
 4187TIP3    H212568   1.613   5.156   4.790
 4188TIP3   OH212569   0.884   2.815   3.064
 4188TIP3    H112570   0.811   2.800   3.003
 4188TIP3    H212571   0.847   2.869   3.133
 4189TIP3   OH212572   5.777   0.136   1.980
 4189TIP3    H112573   5.783   0.112   1.887
 4189TIP3    H212574   5.868   0.144   2.009
 4190TIP3   OH212575   0.617   4.197   4.460
 4190TIP3    H112576   0.625   4.292   4.456
 4190TIP3    H212577   0.534   4.178   4.418
 4191TIP3   OH212578   6.340   3.811   2.153
 4191TIP3    H112579   6.329   3.795   2.247
 4191TIP3    H212580   6.378   3.730   2.119
 4192TIP3   OH212581   2.838   2.991   0.442
 4192TIP3    H112582   2.827   3.071   0.390
 4192TIP3    H212583   2.931   2.992   0.467
 4193TIP3   OH212584   4.849   0.617   3.126
 4193TIP3    H112585   4.877   0.528   3.148
 4193TIP3    H212586   4.850   0.620   3.031
 4194TIP3   OH212587   3.798   1.408   1.155
 4194TIP3    H112588   3.721   1.447   1.114
 4194TIP3    H212589   3.780   1.314   1.155
 4195TIP3   OH212590   1.832   4.077   2.370
 4195TIP3    H112591   1.784   4.048   2.447
 4195TIP3    H212592   1.870   4.161   2.394
 4196TIP3   OH212593   1.725   4.147   3.537
 4196TIP3    H112594   1.700   4.237   3.556
 4196TIP3    H212595   1.796   4.128   3.597
 4197TIP3   OH212596   6.159   1.094   1.126
 4197TIP3    H112597   6.086   1.149   1.156
 4197TIP3    H212598   6.170   1.118   1.033
 4198TIP3   OH212599   0.055   4.529   3.493
 4198TIP3    H112600   0.120   4.579   3.443
 4198TIP3    H212601   0.008   4.594   3.544
 4199TIP3   OH212602   3.529   0.644   2.235
 4199TIP3    H112603   3.577   0.601   2.306
 4199TIP3    H212604   3.582   0.626   2.157
 4200TIP3   OH212605   4.519   2.516   2.790
 4200TIP3    H112606   4.499   2.452   2.858
 4200TIP3    H212607   4.446   2.510   2.729
 4201TIP3   OH212608   0.654   2.475   0.891
 4201TIP3    H112609   0.747   2.455   0.905
 4201TIP3    H212610   0.609   2.420   0.956
 4202TIP3   OH212611   0.438   1.629   3.463
 4202TIP3    H112612   0.396   1.675   3.391
 4202TIP3    H212613   0.529   1.620   3.436
 4203TIP3   OH212614   4.832   3.650   4.794
 4203TIP3    H112615   4.740   3.678   4.789
 4203TIP3    H212616   4.845   3.597   4.716
 4204TIP3   OH212617   5.777   2.355   3.175
 4204TIP3    H112618   5.835   2.335   3.248
 4204TIP3    H212619   5.732   2.436   3.201
 4205TIP3   OH212620   3.924   4.204   0.330
 4205TIP3    H112621   3.890   4.165   0.411
 4205TIP3    H212622   3.946   4.294   0.354
 4206TIP3   OH212623   2.185   0.871   2.151
 4206TIP3    H112624   2.260   0.914   2.110
 4206TIP3    H212625   2.183   0.784   2.113
 4207TIP3   OH212626   1.616   5.297   2.312
 4207TIP3    H112627   1.559   5.231   2.352
 4207TIP3    H212628   1.558   5.372   2.297
 4208TIP3   OH212629   0.728   4.751   4.384
 4208TIP3    H112630   0.659   4.817   4.371
 4208TIP3    H212631   0.683   4.667   4.371
 4209TIP3   OH212632   1.907   0.156   2.817
 4209TIP3    H112633   1.899   0.093   2.745
 4209TIP3    H212634   1.837   0.132   2.878
 4210TIP3   OH212635   1.782   5.960   4.191
 4210TIP3    H112636   1.779   5.872   4.229
 4210TIP3    H212637   1.785   6.019   4.266
 4211TIP3   OH212638   0.802   4.360   4.975
 4211TIP3    H112639   0.866   4.394   4.912
 4211TIP3    H212640   0.797   4.267   4.955
 4212TIP3   OH212641   3.466   5.525   1.208
 4212TIP3    H112642   3.539   5.468   1.233
 4212TIP3    H212643   3.416   5.536   1.289
 4213TIP3   OH212644   2.439   5.297   4.717
 4213TIP3    H112645   2.426   5.376   4.770
 4213TIP3    H212646   2.451   5.227   4.781
 4214TIP3   OH212647   2.762   3.715   5.121
 4214TIP3    H112648   2.839   3.770   5.131
 4214TIP3    H212649   2.796   3.627   5.107
 4215TIP3   OH212650   6.254   4.215   2.807
 4215TIP3    H112651   6.230   4.139   2.754
 4215TIP3    H212652   6.194   4.212   2.882
 4216TIP3   OH212653   1.679   4.852   5.174
 4216TIP3    H112654   1.628   4.892   5.245
 4216TIP3    H212655   1.660   4.907   5.098
 4217TIP3   OH212656   6.014   1.891   4.248
 4217TIP3    H112657   6.033   1.925   4.161
 4217TIP3    H212658   5.941   1.944   4.280
 4218TIP3   OH212659   4.951   2.722   4.996
 4218TIP3    H112660   4.860   2.698   5.009
 4218TIP3    H212661   5.001   2.656   5.045
 4219TIP3   OH212662   1.904   2.474   3.630
 4219TIP3    H112663   1.896   2.379   3.623
 4219TIP3    H212664   1.818   2.508   3.606
 4220TIP3   OH212665   2.992   1.757   4.787
 4220TIP3    H112666   3.038   1.728   4.708
 4220TIP3    H212667   2.956   1.843   4.763
 4221TIP3   OH212668   2.656   5.681   0.505
 4221TIP3    H112669   2.599   5.758   0.510
 4221TIP3    H212670   2.603   5.615   0.461
 4222TIP3   OH212671   5.368   3.399   1.496
 4222TIP3    H112672   5.371   3.319   1.443
 4222TIP3    H212673   5.328   3.372   1.578
 4223TIP3   OH212674   0.411   2.148   3.249
 4223TIP3    H112675   0.409   2.060   3.287
 4223TIP3    H212676   0.454   2.136   3.164
 4224TIP3   OH212677   6.087   1.960   5.024
 4224TIP3    H112678   5.993   1.942   5.020
 4224TIP3    H212679   6.128   1.877   5.002
 4225TIP3   OH212680   0.407   2.926   4.791
 4225TIP3    H112681   0.375   2.922   4.701
 4225TIP3    H212682   0.334   2.963   4.841
 4226TIP3   OH212683   3.713   3.681   1.402
 4226TIP3    H112684   3.713   3.774   1.381
 4226TIP3    H212685   3.631   3.648   1.367
 4227TIP3   OH212686   4.604   5.676   1.478
 4227TIP3    H112687   4.557   5.649   1.557
 4227TIP3    H212688   4.697   5.664   1.500
 4228TIP3   OH212689   3.972   5.930   2.078
 4228TIP3    H112690   4.023   5.866   2.028
 4228TIP3    H212691   4.034   6.000   2.098
 4229TIP3   OH212692   4.240   1.001   3.128
 4229TIP3    H112693   4.148   1.024   3.131
 4229TIP3    H212694   4.265   0.991   3.220
 4230TIP3   OH212695   1.501   3.024   1.040
 4230TIP3    H112696   1.522   3.090   1.105
 4230TIP3    H212697   1.488   3.073   0.959
 4231TIP3   OH212698   0.314   1.528   1.349
 4231TIP3    H112699   0.348   1.457   1.293
 4231TIP3    H212700   0.278   1.483   1.425
 4232TIP3   OH212701   4.897   2.251   2.790
 4232TIP3    H112702   4.855   2.292   2.865
 4232TIP3    H212703   4.884   2.313   2.718
 4233TIP3   OH212704   5.990   3.431   2.113
 4233TIP3    H112705   6.058   3.450   2.049
 4233TIP3    H212706   5.912   3.473   2.078
 4234TIP3   OH212707   4.962   1.030   3.909
 4234TIP3    H112708   5.026   0.964   3.933
 4234TIP3    H212709   4.988   1.108   3.958
 4235TIP3   OH212710   1.618   0.411   2.099
 4235TIP3    H112711   1.649   0.490   2.055
 4235TIP3    H212712   1.617   0.435   2.192
 4236TIP3   OH212713   3.791   5.381   2.012
 4236TIP3    H112714   3.732   5.456   1.999
 4236TIP3    H212715   3.796   5.340   1.925
 4237TIP3   OH212716   3.525   5.276   0.585
 4237TIP3    H112717   3.520   5.217   0.510
 4237TIP3    H212718   3.524   5.364   0.546
 4238TIP3   OH212719   4.100   2.029   4.342
 4238TIP3    H112720   4.011   2.002   4.319
 4238TIP3    H212721   4.156   1.958   4.309
 4239TIP3   OH212722   5.394   1.931   2.026
 4239TIP3    H112723   5.406   1.837   2.041
 4239TIP3    H212724   5.353   1.935   1.940
 4240TIP3   OH212725   2.415   1.180   2.063
 4240TIP3    H112726   2.493   1.139   2.026
 4240TIP3    H212727   2.422   1.163   2.157
 4241TIP3   OH212728   1.180   4.047   1.240
 4241TIP3    H112729   1.184   4.062   1.145
 4241TIP3    H212730   1.156   3.955   1.249
 4242TIP3   OH212731   1.068   2.716   0.141
 4242TIP3    H112732   1.070   2.812   0.138
 4242TIP3    H212733   1.106   2.689   0.058
 4243TIP3   OH212734   1.133   4.785   0.168
 4243TIP3    H112735   1.203   4.742   0.119
 4243TIP3    H212736   1.089   4.714   0.215
 4244TIP3   OH212737   5.120   4.289   3.317
 4244TIP3    H112738   5.064   4.365   3.300
 4244TIP3    H212739   5.208   4.326   3.321
 4245TIP3   OH212740   5.030   4.325   1.642
 4245TIP3    H112741   4.945   4.365   1.659
 4245TIP3    H212742   5.033   4.249   1.700
 4246TIP3   OH212743   4.572   1.720   4.775
 4246TIP3    H112744   4.508   1.749   4.710
 4246TIP3    H212745   4.563   1.625   4.777
 4247TIP3   OH212746   4.887   4.636   3.729
 4247TIP3    H112747   4.977   4.607   3.711
 4247TIP3    H212748   4.846   4.561   3.772
 4248TIP3   OH212749   5.373   0.254   2.273
 4248TIP3    H112750   5.282   0.258   2.246
 4248TIP3    H212751   5.379   0.176   2.327
 4249TIP3   OH212752   0.604   5.313   2.452
 4249TIP3    H112753   0.653   5.331   2.532
 4249TIP3    H212754   0.593   5.218   2.452
 4250TIP3   OH212755   0.604   2.359   2.215
 4250TIP3    H112756   0.637   2.273   2.242
 4250TIP3    H212757   0.514   2.343   2.186
 4251TIP3   OH212758   0.266   3.639   0.370
 4251TIP3    H112759   0.266   3.545   0.355
 4251TIP3    H212760   0.221   3.675   0.294
 4252TIP3   OH212761   4.972   5.553   2.048
 4252TIP3    H112762   5.009   5.625   1.997
 4252TIP3    H212763   5.029   5.478   2.030
 4253TIP3   OH212764   5.925   2.950   2.096
 4253TIP3    H112765   5.838   2.988   2.113
 4253TIP3    H212766   5.927   2.870   2.147
 4254TIP3   OH212767   0.486   3.423   5.025
 4254TIP3    H112768   0.430   3.376   4.962
 4254TIP3    H212769   0.575   3.398   5.001
 4255TIP3   OH212770   0.025   3.285   2.110
 4255TIP3    H112771  -0.060   3.277   2.152
 4255TIP3    H212772   0.035   3.204   2.059
 4256TIP3   OH212773   1.539   3.829   3.995
 4256TIP3    H112774   1.589   3.836   4.077
 4256TIP3    H212775   1.500   3.916   3.984
 4257TIP3   OH212776   4.439   5.247   4.303
 4257TIP3    H112777   4.430   5.219   4.212
 4257TIP3    H212778   4.421   5.341   4.301
 4258TIP3   OH212779   2.439   2.273   3.741
 4258TIP3    H112780   2.394   2.216   3.803
 4258TIP3    H212781   2.531   2.245   3.746
 4259TIP3   OH212782   5.930   0.550   4.586
 4259TIP3    H112783   5.861   0.615   4.581
 4259TIP3    H212784   5.938   0.516   4.497
 4260TIP3   OH212785   5.317   1.199   0.481
 4260TIP3    H112786   5.240   1.152   0.512
 4260TIP3    H212787   5.289   1.240   0.398
 4261TIP3   OH212788   2.091   2.465   2.392
 4261TIP3    H112789   2.002   2.435   2.377
 4261TIP3    H212790   2.141   2.385   2.407
 4262TIP3   OH212791   2.865   3.722   3.160
 4262TIP3    H112792   2.849   3.753   3.071
 4262TIP3    H212793   2.849   3.799   3.215
 4263TIP3   OH212794   5.721   4.057   4.681
 4263TIP3    H112795   5.797   3.999   4.675
 4263TIP3    H212796   5.677   4.031   4.762
 4264TIP3   OH212797   2.121   0.122   5.103
 4264TIP3    H112798   2.091   0.047   5.155
 4264TIP3    H212799   2.122   0.089   5.013
 4265TIP3   OH212800   5.091   0.669   2.672
 4265TIP3    H112801   5.174   0.707   2.703
 4265TIP3    H212802   5.051   0.633   2.752
 4266TIP3   OH212803   4.580   5.037   2.509
 4266TIP3    H112804   4.529   5.072   2.582
 4266TIP3    H212805   4.539   5.073   2.431
 4267TIP3   OH212806   4.360   5.548   4.576
 4267TIP3    H112807   4.417   5.597   4.636
 4267TIP3    H212808   4.380   5.457   4.594
 4268TIP3   OH212809   2.506   4.045   3.413
 4268TIP3    H112810   2.576   4.062   3.476
 4268TIP3    H212811   2.497   4.127   3.364
 4269TIP3   OH212812   3.367   5.166   5.107
 4269TIP3    H112813   3.286   5.129   5.141
 4269TIP3    H212814   3.389   5.236   5.169
 4270TIP3   OH212815   5.869   1.751   4.654
 4270TIP3    H112816   5.903   1.756   4.744
 4270TIP3    H212817   5.948   1.743   4.600
 4271TIP3   OH212818   5.919   1.549   2.553
 4271TIP3    H112819   5.940   1.640   2.574
 4271TIP3    H212820   5.863   1.555   2.476
 4272TIP3   OH212821   3.320   3.983   0.920
 4272TIP3    H112822   3.261   4.009   0.849
 4272TIP3    H212823   3.404   4.023   0.897
 4273TIP3   OH212824   0.318   5.432   4.404
 4273TIP3    H112825   0.361   5.516   4.421
 4273TIP3    H212826   0.390   5.371   4.386
 4274TIP3   OH212827   0.627   2.947   0.447
 4274TIP3    H112828   0.687   3.004   0.495
 4274TIP3    H212829   0.655   2.859   0.470
 4275TIP3   OH212830   6.151   4.241   4.665
 4275TIP3    H112831   6.114   4.247   4.576
 4275TIP3    H212832   6.245   4.255   4.653
 4276TIP3   OH212833   3.232   1.896   1.635
 4276TIP3    H112834   3.173   1.820   1.637
 4276TIP3    H212835   3.305   1.868   1.581
 4277TIP3   OH212836   6.087   4.222   0.641
 4277TIP3    H112837   6.028   4.232   0.566
 4277TIP3    H212838   6.158   4.285   0.625
 4278TIP3   OH212839   5.076   2.096   4.925
 4278TIP3    H112840   5.036   2.095   5.012
 4278TIP3    H212841   5.166   2.126   4.940
 4279TIP3   OH212842   1.814   5.439   2.554
 4279TIP3    H112843   1.907   5.418   2.548
 4279TIP3    H212844   1.770   5.365   2.513
 4280TIP3   OH212845   2.705   4.844   1.883
 4280TIP3    H112846   2.791   4.872   1.914
 4280TIP3    H212847   2.723   4.769   1.827
 4281TIP3   OH212848   5.105   4.829   2.433
 4281TIP3    H112849   5.112   4.745   2.479
 4281TIP3    H212850   5.099   4.805   2.341
 4282TIP3   OH212851   5.003   1.197   2.252
 4282TIP3    H112852   5.029   1.118   2.299
 4282TIP3    H212853   4.908   1.200   2.261
 4283TIP3   OH212854   3.818   0.909   0.727
 4283TIP3    H112855   3.796   0.891   0.818
 4283TIP3    H212856   3.873   0.988   0.730
 4284TIP3   OH212857   0.252   0.459   2.639
 4284TIP3    H112858   0.301   0.525   2.589
 4284TIP3    H212859   0.192   0.510   2.693
 4285TIP3   OH212860   4.083   0.125   1.225
 4285TIP3    H112861   4.113   0.096   1.139
 4285TIP3    H212862   4.157   0.175   1.260
 4286TIP3   OH212863   5.766   0.743   4.531
 4286TIP3    H112864   5.828   0.811   4.558
 4286TIP3    H212865   5.731   0.774   4.447
 4287TIP3   OH212866   2.822   4.559   5.154
 4287TIP3    H112867   2.764   4.600   5.089
 4287TIP3    H212868   2.877   4.500   5.103
 4288TIP3   OH212869   3.525   3.202   0.911
 4288TIP3    H112870   3.480   3.286   0.908
 4288TIP3    H212871   3.610   3.218   0.870
 4289TIP3   OH212872   0.673   2.890   3.905
 4289TIP3    H112873   0.589   2.884   3.858
 4289TIP3    H212874   0.694   2.799   3.926
 4290TIP3   OH212875   0.842   3.939   3.804
 4290TIP3    H112876   0.858   3.955   3.896
 4290TIP3    H212877   0.871   4.018   3.760
 4291TIP3   OH212878   2.843   3.529   0.365
 4291TIP3    H112879   2.795   3.460   0.412
 4291TIP3    H212880   2.886   3.579   0.434
 4292TIP3   OH212881   5.452   0.947   1.875
 4292TIP3    H112882   5.391   0.956   1.802
 4292TIP3    H212883   5.504   1.027   1.873
 4293TIP3   OH212884   0.200   2.391   1.622
 4293TIP3    H112885   0.173   2.308   1.582
 4293TIP3    H212886   0.143   2.400   1.699
 4294TIP3   OH212887   3.457   5.769   2.485
 4294TIP3    H112888   3.515   5.734   2.417
 4294TIP3    H212889   3.514   5.822   2.541
 4295TIP3   OH212890   4.654   0.913   4.377
 4295TIP3    H112891   4.660   0.924   4.282
 4295TIP3    H212892   4.661   1.002   4.412
 4296TIP3   OH212893   0.840   0.183   3.705
 4296TIP3    H112894   0.896   0.250   3.745
 4296TIP3    H212895   0.764   0.231   3.673
 4297TIP3   OH212896   3.444   3.976   1.230
 4297TIP3    H112897   3.454   3.903   1.169
 4297TIP3    H212898   3.485   4.050   1.185
 4298TIP3   OH212899   4.792   0.899   2.155
 4298TIP3    H112900   4.834   0.813   2.153
 4298TIP3    H212901   4.783   0.920   2.248
 4299TIP3   OH212902   1.335   4.938   3.026
 4299TIP3    H112903   1.280   4.994   2.971
 4299TIP3    H212904   1.279   4.914   3.100
 4300TIP3   OH212905   3.107   5.975   2.957
 4300TIP3    H112906   3.074   5.899   2.909
 4300TIP3    H212907   3.032   6.032   2.967
 4301TIP3   OH212908   6.166   3.603   3.423
 4301TIP3    H112909   6.171   3.699   3.414
 4301TIP3    H212910   6.255   3.573   3.407
 4302TIP3   OH212911   2.922   3.462   5.031
 4302TIP3    H112912   2.947   3.419   5.112
 4302TIP3    H212913   2.937   3.396   4.963
 4303TIP3   OH212914   5.693   5.063   1.538
 4303TIP3    H112915   5.664   5.004   1.608
 4303TIP3    H212916   5.700   5.007   1.461
 4304TIP3   OH212917   0.609   2.016   2.109
 4304TIP3    H112918   0.659   2.084   2.065
 4304TIP3    H212919   0.608   1.943   2.048
 4305TIP3   OH212920   5.350   2.522   3.736
 4305TIP3    H112921   5.304   2.577   3.674
 4305TIP3    H212922   5.443   2.540   3.720
 4306TIP3   OH212923   4.436   0.396   0.354
 4306TIP3    H112924   4.509   0.344   0.321
 4306TIP3    H212925   4.362   0.372   0.299
 4307TIP3   OH212926   4.924   4.942   1.118
 4307TIP3    H112927   5.017   4.934   1.140
 4307TIP3    H212928   4.880   4.956   1.202
 4308TIP3   OH212929   4.725   0.875   2.435
 4308TIP3    H112930   4.674   0.956   2.441
 4308TIP3    H212931   4.813   0.900   2.464
 4309TIP3   OH212932   0.287   2.997   2.122
 4309TIP3    H112933   0.358   3.060   2.108
 4309TIP3    H212934   0.330   2.912   2.114
 4310TIP3   OH212935   5.242   4.124   3.645
 4310TIP3    H112936   5.152   4.142   3.673
 4310TIP3    H212937   5.241   4.032   3.620
 4311TIP3   OH212938   2.245   1.427   4.059
 4311TIP3    H112939   2.197   1.349   4.086
 4311TIP3    H212940   2.273   1.468   4.141
 4312TIP3   OH212941   0.114   5.158   5.005
 4312TIP3    H112942   0.051   5.229   5.012
 4312TIP3    H212943   0.083   5.106   4.931
 4313TIP3   OH212944   0.316   4.277   0.719
 4313TIP3    H112945   0.312   4.187   0.751
 4313TIP3    H212946   0.347   4.328   0.794
 4314TIP3   OH212947   3.066   2.838   3.290
 4314TIP3    H112948   2.986   2.807   3.247
 4314TIP3    H212949   3.137   2.801   3.238
 4315TIP3   OH212950   1.133   0.703   2.802
 4315TIP3    H112951   1.113   0.662   2.718
 4315TIP3    H212952   1.062   0.766   2.816
 4316TIP3   OH212953   1.767   1.641   1.656
 4316TIP3    H112954   1.761   1.548   1.635
 4316TIP3    H212955   1.809   1.643   1.742
 4317TIP3   OH212956   3.614   5.028   2.846
 4317TIP3    H112957   3.607   4.953   2.906
 4317TIP3    H212958   3.708   5.038   2.832
 4318TIP3   OH212959   3.819   2.563   3.202
 4318TIP3    H112960   3.800   2.480   3.157
 4318TIP3    H212961   3.758   2.564   3.276
 4319TIP3   OH212962   1.197   0.823   1.102
 4319TIP3    H112963   1.222   0.881   1.030
 4319TIP3    H212964   1.230   0.867   1.180
 4320TIP3   OH212965   3.638   3.364   3.870
 4320TIP3    H112966   3.721   3.403   3.898
 4320TIP3    H212967   3.659   3.272   3.853
 4321TIP3   OH212968   1.525   2.648   0.827
 4321TIP3    H112969   1.614   2.656   0.791
 4321TIP3    H212970   1.468   2.668   0.753
 4322TIP3   OH212971   6.119   5.426   1.811
 4322TIP3    H112972   6.186   5.414   1.744
 4322TIP3    H212973   6.079   5.510   1.790
 4323TIP3   OH212974   3.523   4.317   4.594
 4323TIP3    H112975   3.520   4.320   4.689
 4323TIP3    H212976   3.617   4.317   4.573
 4324TIP3   OH212977   4.359   2.425   0.876
 4324TIP3    H112978   4.269   2.434   0.843
 4324TIP3    H212979   4.396   2.352   0.826
 4325TIP3   OH212980   0.305   2.458   4.981
 4325TIP3    H112981   0.238   2.478   5.046
 4325TIP3    H212982   0.385   2.499   5.014
 4326TIP3   OH212983   3.574   3.782   0.757
 4326TIP3    H112984   3.549   3.868   0.724
 4326TIP3    H212985   3.668   3.789   0.775
 4327TIP3   OH212986   5.351   0.229   4.588
 4327TIP3    H112987   5.433   0.225   4.538
 4327TIP3    H212988   5.375   0.197   4.675
 4328TIP3   OH212989   0.078   3.799   0.862
 4328TIP3    H112990   0.044   3.794   0.952
 4328TIP3    H212991   0.149   3.736   0.860
 4329TIP3   OH212992   1.577   2.072   3.779
 4329TIP3    H112993   1.599   2.159   3.813
 4329TIP3    H212994   1.569   2.017   3.856
 4330TIP3   OH212995   3.325   2.551   4.994
 4330TIP3    H112996   3.324   2.457   4.976
 4330TIP3    H212997   3.414   2.569   5.022
 4331TIP3   OH212998   0.923   0.119   0.929
 4331TIP3    H112999   1.013   0.119   0.960
 4331TIP3    H213000   0.925   0.170   0.848
 4332TIP3   OH213001   5.487   4.268   4.908
 4332TIP3    H113002   5.484   4.363   4.917
 4332TIP3    H213003   5.490   4.235   4.998
 4333TIP3   OH213004   4.688   5.287   2.529
 4333TIP3    H113005   4.782   5.265   2.529
 4333TIP3    H213006   4.644   5.203   2.537
 4334TIP3   OH213007   0.079   0.273   1.534
 4334TIP3    H113008   0.143   0.342   1.516
 4334TIP3    H213009   0.077   0.267   1.630
 4335TIP3   OH213010   5.860   3.789   2.591
 4335TIP3    H113011   5.899   3.718   2.641
 4335TIP3    H213012   5.784   3.749   2.547
 4336TIP3   OH213013   4.409   4.014   3.111
 4336TIP3    H113014   4.424   4.104   3.083
 4336TIP3    H213015   4.459   4.005   3.192
 4337TIP3   OH213016   2.143   0.212   3.450
 4337TIP3    H113017   2.073   0.153   3.419
 4337TIP3    H213018   2.096   0.288   3.483
 4338TIP3   OH213019   1.800   5.834   3.901
 4338TIP3    H113020   1.760   5.866   3.982
 4338TIP3    H213021   1.858   5.763   3.929
 4339TIP3   OH213022   3.330   2.946   1.129
 4339TIP3    H113023   3.355   2.959   1.221
 4339TIP3    H213024   3.385   2.874   1.099
 4340TIP3   OH213025   4.295   1.595   0.341
 4340TIP3    H113026   4.390   1.602   0.354
 4340TIP3    H213027   4.285   1.585   0.246
 4341TIP3   OH213028   0.103   1.299   3.167
 4341TIP3    H113029   0.096   1.269   3.077
 4341TIP3    H213030   0.193   1.277   3.193
 4342TIP3   OH213031   1.590   5.067   3.481
 4342TIP3    H113032   1.504   5.027   3.477
 4342TIP3    H213033   1.593   5.108   3.567
 4343TIP3   OH213034   2.859   2.057   2.730
 4343TIP3    H113035   2.845   1.964   2.742
 4343TIP3    H213036   2.931   2.062   2.667
 4344TIP3   OH213037   2.035   2.230   0.124
 4344TIP3    H113038   1.984   2.192   0.195
 4344TIP3    H213039   2.126   2.208   0.145
 4345TIP3   OH213040   0.545   1.554   2.048
 4345TIP3    H113041   0.513   1.483   2.103
 4345TIP3    H213042   0.572   1.511   1.967
 4346TIP3   OH213043   4.342   5.424   4.050
 4346TIP3    H113044   4.333   5.486   3.978
 4346TIP3    H213045   4.341   5.479   4.129
 4347TIP3   OH213046   3.438   4.477   2.725
 4347TIP3    H113047   3.450   4.426   2.805
 4347TIP3    H213048   3.504   4.546   2.730
 4348TIP3   OH213049   1.760   1.126   2.901
 4348TIP3    H113050   1.755   1.221   2.916
 4348TIP3    H213051   1.671   1.094   2.915
 4349TIP3   OH213052   4.489   1.448   1.857
 4349TIP3    H113053   4.435   1.375   1.888
 4349TIP3    H213054   4.502   1.430   1.764
 4350TIP3   OH213055   2.391   0.937   1.862
 4350TIP3    H113056   2.406   0.886   1.942
 4350TIP3    H213057   2.448   1.013   1.872
 4351TIP3   OH213058   2.430   3.317   1.839
 4351TIP3    H113059   2.415   3.268   1.920
 4351TIP3    H213060   2.510   3.281   1.803
 4352TIP3   OH213061   2.118   2.947   0.608
 4352TIP3    H113062   2.134   3.040   0.596
 4352TIP3    H213063   2.181   2.904   0.550
 4353TIP3   OH213064   4.631   3.163   0.326
 4353TIP3    H113065   4.709   3.185   0.377
 4353TIP3    H213066   4.566   3.229   0.353
 4354TIP3   OH213067   3.826   3.635   1.111
 4354TIP3    H113068   3.806   3.567   1.047
 4354TIP3    H213069   3.792   3.600   1.194
 4355TIP3   OH213070   3.796   1.444   4.886
 4355TIP3    H113071   3.870   1.404   4.932
 4355TIP3    H213072   3.825   1.533   4.867
 4356TIP3   OH213073   0.412   1.303   1.204
 4356TIP3    H113074   0.448   1.258   1.280
 4356TIP3    H213075   0.459   1.265   1.129
 4357TIP3   OH213076   0.662   2.654   0.353
 4357TIP3    H113077   0.718   2.616   0.285
 4357TIP3    H213078   0.582   2.679   0.307
 4358TIP3   OH213079   4.686   3.179   0.833
 4358TIP3    H113080   4.665   3.260   0.785
 4358TIP3    H213081   4.605   3.158   0.879
 4359TIP3   OH213082   6.126   0.744   3.043
 4359TIP3    H113083   6.093   0.817   2.990
 4359TIP3    H213084   6.219   0.738   3.020
 4360TIP3   OH213085   0.683   5.906   0.977
 4360TIP3    H113086   0.626   5.892   1.053
 4360TIP3    H213087   0.741   5.978   1.003
 4361TIP3   OH213088   0.944   0.380   3.340
 4361TIP3    H113089   0.943   0.288   3.314
 4361TIP3    H213090   1.004   0.383   3.415
 4362TIP3   OH213091   0.857   4.749   1.093
 4362TIP3    H113092   0.879   4.684   1.026
 4362TIP3    H213093   0.764   4.767   1.079
 4363TIP3   OH213094   0.487   5.305   3.779
 4363TIP3    H113095   0.562   5.253   3.807
 4363TIP3    H213096   0.413   5.244   3.786
 4364TIP3   OH213097   2.673   3.002   2.193
 4364TIP3    H113098   2.764   3.029   2.183
 4364TIP3    H213099   2.644   3.047   2.272
 4365TIP3   OH213100   4.740   5.321   4.178
 4365TIP3    H113101   4.712   5.235   4.210
 4365TIP3    H213102   4.727   5.316   4.083
 4366TIP3   OH213103   1.497   3.944   1.264
 4366TIP3    H113104   1.476   4.036   1.250
 4366TIP3    H213105   1.429   3.912   1.323
 4367TIP3   OH213106   5.278   5.962   1.445
 4367TIP3    H113107   5.195   5.997   1.478
 4367TIP3    H213108   5.254   5.878   1.406
 4368TIP3   OH213109   4.411   1.955   1.100
 4368TIP3    H113110   4.348   1.898   1.055
 4368TIP3    H213111   4.412   1.924   1.190
 4369TIP3   OH213112   5.283   5.776   3.833
 4369TIP3    H113113   5.222   5.758   3.762
 4369TIP3    H213114   5.236   5.750   3.912
 4370TIP3   OH213115   4.264   3.853   1.309
 4370TIP3    H113116   4.307   3.910   1.246
 4370TIP3    H213117   4.173   3.849   1.280
 4371TIP3   OH213118   1.847   3.170   4.494
 4371TIP3    H113119   1.851   3.208   4.406
 4371TIP3    H213120   1.938   3.173   4.525
 4372TIP3   OH213121   5.440   1.259   5.173
 4372TIP3    H113122   5.511   1.296   5.226
 4372TIP3    H213123   5.485   1.208   5.106
 4373TIP3   OH213124   4.615   2.777   1.270
 4373TIP3    H113125   4.604   2.711   1.201
 4373TIP3    H213126   4.554   2.750   1.338
 4374TIP3   OH213127   5.787   3.765   3.890
 4374TIP3    H113128   5.727   3.838   3.904
 4374TIP3    H213129   5.763   3.701   3.957
 4375TIP3   OH213130   0.142   3.303   1.031
 4375TIP3    H113131   0.051   3.315   1.060
 4375TIP3    H213132   0.176   3.235   1.088
 4376TIP3   OH213133   5.934   5.249   2.227
 4376TIP3    H113134   5.904   5.161   2.249
 4376TIP3    H213135   6.005   5.267   2.288
 4377TIP3   OH213136   1.378   5.358   2.486
 4377TIP3    H113137   1.305   5.348   2.425
 4377TIP3    H213138   1.382   5.452   2.503
 4378TIP3   OH213139   1.057   3.804   0.934
 4378TIP3    H113140   1.003   3.748   0.990
 4378TIP3    H213141   1.146   3.792   0.967
 4379TIP3   OH213142   0.641   0.807   0.771
 4379TIP3    H113143   0.589   0.729   0.758
 4379TIP3    H213144   0.699   0.811   0.695
 4380TIP3   OH213145   6.076   4.181   4.395
 4380TIP3    H113146   5.998   4.226   4.361
 4380TIP3    H213147   6.041   4.101   4.436
 4381TIP3   OH213148   0.688   5.789   2.814
 4381TIP3    H113149   0.723   5.705   2.785
 4381TIP3    H213150   0.758   5.827   2.867
 4382TIP3   OH213151   0.907   5.936   2.631
 4382TIP3    H113152   0.868   6.009   2.583
 4382TIP3    H213153   0.838   5.908   2.691
 4383TIP3   OH213154   0.168  -0.011   1.656
 4383TIP3    H113155   0.169   0.079   1.623
 4383TIP3    H213156   0.090  -0.049   1.618
 4384TIP3   OH213157   6.335   3.911   2.808
 4384TIP3    H113158   6.357   3.919   2.901
 4384TIP3    H213159   6.241   3.889   2.808
 4385TIP3   OH213160   5.038   3.676   3.798
 4385TIP3    H113161   5.085   3.721   3.868
 4385TIP3    H213162   5.071   3.586   3.801
 4386TIP3   OH213163   1.873   3.647   4.852
 4386TIP3    H113164   1.899   3.583   4.785
 4386TIP3    H213165   1.937   3.717   4.845
 4387TIP3   OH213166   1.026   1.269   3.290
 4387TIP3    H113167   1.001   1.178   3.303
 4387TIP3    H213168   0.986   1.294   3.207
 4388TIP3   OH213169   5.092   0.584   1.498
 4388TIP3    H113170   5.066   0.634   1.576
 4388TIP3    H213171   5.077   0.645   1.425
 4389TIP3   OH213172   3.918   0.443   2.144
 4389TIP3    H113173   3.998   0.483   2.109
 4389TIP3    H213174   3.848   0.485   2.095
 4390TIP3   OH213175   3.763   5.283   2.616
 4390TIP3    H113176   3.752   5.266   2.709
 4390TIP3    H213177   3.674   5.280   2.580
 4391TIP3   OH213178   0.842   4.383   4.670
 4391TIP3    H113179   0.758   4.424   4.691
 4391TIP3    H213180   0.823   4.290   4.664
 4392TIP3   OH213181   2.662   0.770   4.391
 4392TIP3    H113182   2.754   0.752   4.413
 4392TIP3    H213183   2.667   0.823   4.311
 4393TIP3   OH213184   2.102   4.138   1.236
 4393TIP3    H113185   2.006   4.137   1.231
 4393TIP3    H213186   2.123   4.060   1.288
 4394TIP3   OH213187   3.916   5.830   3.684
 4394TIP3    H113188   3.830   5.820   3.644
 4394TIP3    H213189   3.972   5.768   3.637
 4395TIP3   OH213190   3.745   0.481   2.364
 4395TIP3    H113191   3.822   0.454   2.313
 4395TIP3    H213192   3.772   0.469   2.455
 4396TIP3   OH213193   5.303   1.941   1.770
 4396TIP3    H113194   5.308   2.036   1.763
 4396TIP3    H213195   5.303   1.909   1.680
 4397TIP3   OH213196   6.118   2.226   0.243
 4397TIP3    H113197   6.198   2.242   0.193
 4397TIP3    H213198   6.118   2.132   0.259
 4398TIP3   OH213199   3.956   3.356   2.940
 4398TIP3    H113200   3.874   3.402   2.958
 4398TIP3    H213201   3.960   3.353   2.844
 4399TIP3   OH213202   0.048   4.325   3.322
 4399TIP3    H113203   0.129   4.310   3.275
 4399TIP3    H213204   0.068   4.395   3.384
 4400TIP3   OH213205   6.165   5.008   2.091
 4400TIP3    H113206   6.249   5.009   2.137
 4400TIP3    H213207   6.121   4.930   2.126
 4401TIP3   OH213208   0.790   2.394   2.796
 4401TIP3    H113209   0.793   2.398   2.701
 4401TIP3    H213210   0.829   2.309   2.818
 4402TIP3   OH213211   3.713   5.466   1.065
 4402TIP3    H113212   3.763   5.453   1.146
 4402TIP3    H213213   3.644   5.400   1.070
 4403TIP3   OH213214   6.058   0.399   4.763
 4403TIP3    H113215   6.016   0.440   4.688
 4403TIP3    H213216   6.126   0.460   4.790
 4404TIP3   OH213217   1.136   3.145   3.843
 4404TIP3    H113218   1.081   3.072   3.872
 4404TIP3    H213219   1.107   3.162   3.753
 4405TIP3   OH213220   5.632   4.720   3.723
 4405TIP3    H113221   5.632   4.635   3.767
 4405TIP3    H213222   5.723   4.750   3.727
 4406TIP3   OH213223   4.747   2.431   3.886
 4406TIP3    H113224   4.724   2.502   3.826
 4406TIP3    H213225   4.828   2.395   3.850
 4407TIP3   OH213226   1.313   1.520   2.530
 4407TIP3    H113227   1.389   1.524   2.588
 4407TIP3    H213228   1.240   1.550   2.584
 4408TIP3   OH213229   2.249   2.260   5.189
 4408TIP3    H113230   2.320   2.201   5.161
 4408TIP3    H213231   2.237   2.319   5.115
 4409TIP3   OH213232   4.960   5.165   2.930
 4409TIP3    H113233   4.959   5.230   2.860
 4409TIP3    H213234   4.966   5.081   2.884
 4410TIP3   OH213235   0.097   4.303   4.335
 4410TIP3    H113236   0.089   4.277   4.427
 4410TIP3    H213237   0.042   4.241   4.287
 4411TIP3   OH213238   0.336   3.633   3.261
 4411TIP3    H113239   0.407   3.694   3.281
 4411TIP3    H213240   0.376   3.546   3.269
 4412TIP3   OH213241   0.231   1.310   4.760
 4412TIP3    H113242   0.190   1.330   4.844
 4412TIP3    H213243   0.322   1.336   4.771
 4413TIP3   OH213244   2.001   5.229   5.135
 4413TIP3    H113245   2.082   5.230   5.084
 4413TIP3    H213246   2.020   5.285   5.210
 4414TIP3   OH213247   3.571   2.467   2.673
 4414TIP3    H113248   3.557   2.560   2.689
 4414TIP3    H213249   3.535   2.452   2.586
 4415TIP3   OH213250   1.286   5.735   4.711
 4415TIP3    H113251   1.249   5.743   4.799
 4415TIP3    H213252   1.355   5.801   4.708
 4416TIP3   OH213253   3.280   3.047   2.901
 4416TIP3    H113254   3.315   3.059   2.990
 4416TIP3    H213255   3.322   2.966   2.871
 4417TIP3   OH213256   6.030   2.440   1.722
 4417TIP3    H113257   6.107   2.495   1.739
 4417TIP3    H213258   6.048   2.400   1.637
 4418TIP3   OH213259   4.348   1.917   1.383
 4418TIP3    H113260   4.299   1.843   1.417
 4418TIP3    H213261   4.421   1.928   1.444
 4419TIP3   OH213262   2.535   0.674   0.816
 4419TIP3    H113263   2.486   0.723   0.750
 4419TIP3    H213264   2.607   0.732   0.841
 4420TIP3   OH213265   1.794   1.667   1.329
 4420TIP3    H113266   1.885   1.657   1.355
 4420TIP3    H213267   1.776   1.591   1.274
 4421TIP3   OH213268   2.248   0.521   3.719
 4421TIP3    H113269   2.316   0.455   3.706
 4421TIP3    H213270   2.292   0.605   3.704
 4422TIP3   OH213271   0.072   3.565   2.063
 4422TIP3    H113272   0.124   3.518   1.998
 4422TIP3    H213273   0.026   3.496   2.111
 4423TIP3   OH213274   3.456   1.178   3.602
 4423TIP3    H113275   3.429   1.102   3.551
 4423TIP3    H213276   3.462   1.249   3.537
 4424TIP3   OH213277   1.539   2.687   0.052
 4424TIP3    H113278   1.490   2.608   0.031
 4424TIP3    H213279   1.629   2.668   0.025
 4425TIP3   OH213280   6.226   2.236   3.767
 4425TIP3    H113281   6.231   2.227   3.862
 4425TIP3    H213282   6.269   2.320   3.748
 4426TIP3   OH213283   2.953   3.127   1.000
 4426TIP3    H113284   2.984   3.036   0.999
 4426TIP3    H213285   2.955   3.154   0.909
 4427TIP3   OH213286   5.559   5.166   4.723
 4427TIP3    H113287   5.509   5.097   4.679
 4427TIP3    H213288   5.504   5.192   4.797
 4428TIP3   OH213289   3.216   4.451   2.556
 4428TIP3    H113290   3.291   4.442   2.497
 4428TIP3    H213291   3.255   4.453   2.643
 4429TIP3   OH213292   1.233   4.739   5.069
 4429TIP3    H113293   1.174   4.766   5.139
 4429TIP3    H213294   1.278   4.661   5.104
 4430TIP3   OH213295   3.111   3.077   0.506
 4430TIP3    H113296   3.140   3.166   0.486
 4430TIP3    H213297   3.184   3.038   0.554
 4431TIP3   OH213298   2.338   1.966   0.549
 4431TIP3    H113299   2.371   2.050   0.517
 4431TIP3    H213300   2.403   1.902   0.520
 4432TIP3   OH213301   0.846   3.329   3.844
 4432TIP3    H113302   0.849   3.277   3.764
 4432TIP3    H213303   0.938   3.342   3.868
 4433TIP3   OH213304   5.963   1.106   2.656
 4433TIP3    H113305   6.011   1.187   2.636
 4433TIP3    H213306   5.872   1.128   2.639
 4434TIP3   OH213307   5.462   2.588   4.494
 4434TIP3    H113308   5.477   2.494   4.481
 4434TIP3    H213309   5.548   2.624   4.515
 4435TIP3   OH213310   0.511   5.559   2.340
 4435TIP3    H113311   0.548   5.490   2.395
 4435TIP3    H213312   0.585   5.595   2.292
 4436TIP3   OH213313   4.354   1.532   2.426
 4436TIP3    H113314   4.365   1.627   2.435
 4436TIP3    H213315   4.267   1.515   2.461
 4437TIP3   OH213316   4.886   4.196   4.616
 4437TIP3    H113317   4.891   4.163   4.526
 4437TIP3    H213318   4.955   4.149   4.662
 4438TIP3   OH213319   1.869   4.736   2.040
 4438TIP3    H113320   1.920   4.815   2.057
 4438TIP3    H213321   1.827   4.716   2.123
 4439TIP3   OH213322   4.917   2.993   0.056
 4439TIP3    H113323   4.874   3.079   0.059
 4439TIP3    H213324   4.887   2.949   0.135
 4440TIP3   OH213325   1.872   3.313   3.069
 4440TIP3    H113326   1.811   3.249   3.107
 4440TIP3    H213327   1.919   3.265   3.002
 4441TIP3   OH213328   2.694   5.882   3.892
 4441TIP3    H113329   2.692   5.975   3.871
 4441TIP3    H213330   2.776   5.850   3.854
 4442TIP3   OH213331   4.307   0.333   0.885
 4442TIP3    H113332   4.262   0.368   0.808
 4442TIP3    H213333   4.257   0.255   0.908
 4443TIP3   OH213334   5.384   2.511   2.730
 4443TIP3    H113335   5.314   2.446   2.741
 4443TIP3    H213336   5.409   2.534   2.820
 4444TIP3   OH213337   4.350   1.242   4.952
 4444TIP3    H113338   4.410   1.170   4.934
 4444TIP3    H213339   4.275   1.226   4.895
 4445TIP3   OH213340   1.350   1.775   1.647
 4445TIP3    H113341   1.423   1.764   1.708
 4445TIP3    H213342   1.351   1.696   1.594
 4446TIP3   OH213343   1.878   4.266   4.827
 4446TIP3    H113344   1.881   4.223   4.913
 4446TIP3    H213345   1.785   4.265   4.803
 4447TIP3   OH213346   2.055   5.520   2.262
 4447TIP3    H113347   1.984   5.581   2.282
 4447TIP3    H213348   2.017   5.433   2.277
 4448TIP3   OH213349   0.286   3.620   1.777
 4448TIP3    H113350   0.197   3.655   1.778
 4448TIP3    H213351   0.275   3.526   1.795
 4449TIP3   OH213352   3.701   4.374   2.972
 4449TIP3    H113353   3.746   4.455   2.996
 4449TIP3    H213354   3.661   4.345   3.054
 4450TIP3   OH213355   3.371   4.635   3.579
 4450TIP3    H113356   3.408   4.552   3.608
 4450TIP3    H213357   3.352   4.683   3.659
 4451TIP3   OH213358   1.521   4.240   2.855
 4451TIP3    H113359   1.509   4.282   2.940
 4451TIP3    H213360   1.440   4.191   2.841
 4452TIP3   OH213361   2.335   3.583   1.978
 4452TIP3    H113362   2.281   3.504   1.987
 4452TIP3    H213363   2.272   3.655   1.977
 4453TIP3   OH213364   3.892   5.126   2.139
 4453TIP3    H113365   3.875   5.197   2.078
 4453TIP3    H213366   3.912   5.170   2.222
 4454TIP3   OH213367   4.922   5.936   3.376
 4454TIP3    H113368   4.928   5.915   3.283
 4454TIP3    H213369   4.939   5.853   3.421
 4455TIP3   OH213370   0.173   3.952   1.508
 4455TIP3    H113371   0.218   4.014   1.452
 4455TIP3    H213372   0.240   3.889   1.534
 4456TIP3   OH213373   2.155   0.485   0.603
 4456TIP3    H113374   2.240   0.474   0.645
 4456TIP3    H213375   2.174   0.506   0.512
 4457TIP3   OH213376   1.571   3.807   3.108
 4457TIP3    H113377   1.621   3.881   3.143
 4457TIP3    H213378   1.616   3.785   3.026
 4458TIP3   OH213379   4.767   0.008   1.321
 4458TIP3    H113380   4.697  -0.009   1.259
 4458TIP3    H213381   4.771   0.103   1.328
 4459TIP3   OH213382   4.367   4.782   2.622
 4459TIP3    H113383   4.444   4.802   2.675
 4459TIP3    H213384   4.305   4.852   2.642
 4460TIP3   OH213385   4.499   1.208   4.596
 4460TIP3    H113386   4.581   1.192   4.643
 4460TIP3    H213387   4.434   1.156   4.643
 4461TIP3   OH213388   0.162   1.144   0.289
 4461TIP3    H113389   0.112   1.200   0.230
 4461TIP3    H213390   0.152   1.056   0.253
 4462TIP3   OH213391   3.238   1.801   3.134
 4462TIP3    H113392   3.253   1.741   3.207
 4462TIP3    H213393   3.184   1.871   3.171
 4463TIP3   OH213394   2.389   0.130   2.631
 4463TIP3    H113395   2.443   0.189   2.580
 4463TIP3    H213396   2.384   0.171   2.718
 4464TIP3   OH213397   1.896   4.846   2.415
 4464TIP3    H113398   1.913   4.940   2.411
 4464TIP3    H213399   1.808   4.838   2.451
 4465TIP3   OH213400   0.433   1.278   2.807
 4465TIP3    H113401   0.476   1.194   2.796
 4465TIP3    H213402   0.413   1.306   2.717
 4466TIP3   OH213403   4.996   5.374   4.658
 4466TIP3    H113404   4.945   5.329   4.590
 4466TIP3    H213405   5.025   5.455   4.616
 4467TIP3   OH213406   1.239   0.980   5.023
 4467TIP3    H113407   1.249   0.887   5.044
 4467TIP3    H213408   1.281   1.026   5.096
 4468TIP3   OH213409   4.957   2.488   1.369
 4468TIP3    H113410   4.970   2.469   1.276
 4468TIP3    H213411   4.957   2.584   1.374
 4469TIP3   OH213412   5.410   4.930   2.216
 4469TIP3    H113413   5.349   4.861   2.190
 4469TIP3    H213414   5.459   4.951   2.136
 4470TIP3   OH213415   1.679   0.060   4.229
 4470TIP3    H113416   1.763   0.098   4.203
 4470TIP3    H213417   1.666  -0.013   4.169
 4471TIP3   OH213418   2.189   3.362   2.790
 4471TIP3    H113419   2.128   3.300   2.831
 4471TIP3    H213420   2.215   3.421   2.860
 4472TIP3   OH213421   1.405   5.665   3.137
 4472TIP3    H113422   1.463   5.608   3.188
 4472TIP3    H213423   1.447   5.673   3.052
 4473TIP3   OH213424   1.273   0.647   4.145
 4473TIP3    H113425   1.286   0.704   4.069
 4473TIP3    H213426   1.191   0.601   4.128
 4474TIP3   OH213427   1.277   3.677   2.177
 4474TIP3    H113428   1.314   3.760   2.146
 4474TIP3    H213429   1.265   3.624   2.098
 4475TIP3   OH213430   1.938   0.884   4.148
 4475TIP3    H113431   2.029   0.855   4.149
 4475TIP3    H213432   1.938   0.966   4.197
 4476TIP3   OH213433   1.828   0.501   4.891
 4476TIP3    H113434   1.858   0.411   4.904
 4476TIP3    H213435   1.735   0.492   4.869
 4477TIP3   OH213436   6.088   1.589   4.469
 4477TIP3    H113437   6.067   1.602   4.376
 4477TIP3    H213438   6.083   1.495   4.482
 4478TIP3   OH213439   4.570   2.483   1.507
 4478TIP3    H113440   4.491   2.536   1.508
 4478TIP3    H213441   4.544   2.400   1.545
 4479TIP3   OH213442   1.956   0.161   4.725
 4479TIP3    H113443   1.886   0.104   4.693
 4479TIP3    H213444   2.013   0.103   4.775
 4480TIP3   OH213445   6.054   3.767   0.139
 4480TIP3    H113446   5.971   3.719   0.137
 4480TIP3    H213447   6.112   3.714   0.193
 4481TIP3   OH213448   3.019  -0.042   3.918
 4481TIP3    H113449   2.925  -0.052   3.909
 4481TIP3    H213450   3.031   0.051   3.938
 4482TIP3   OH213451   0.347   2.243   2.443
 4482TIP3    H113452   0.318   2.334   2.439
 4482TIP3    H213453   0.411   2.240   2.513
 4483TIP3   OH213454   4.867   4.432   2.405
 4483TIP3    H113455   4.953   4.465   2.378
 4483TIP3    H213456   4.807   4.467   2.340
 4484TIP3   OH213457   0.112   0.050   4.694
 4484TIP3    H113458   0.181   0.114   4.679
 4484TIP3    H213459   0.134   0.010   4.778
 4485TIP3   OH213460   5.734   3.827   1.857
 4485TIP3    H113461   5.786   3.868   1.788
 4485TIP3    H213462   5.794   3.766   1.900
 4486TIP3   OH213463   2.215   1.281   0.126
 4486TIP3    H113464   2.294   1.293   0.179
 4486TIP3    H213465   2.208   1.186   0.113
 4487TIP3   OH213466   4.818   2.137   2.207
 4487TIP3    H113467   4.814   2.222   2.164
 4487TIP3    H213468   4.901   2.099   2.179
 4488TIP3   OH213469   4.722   3.812   2.723
 4488TIP3    H113470   4.812   3.830   2.749
 4488TIP3    H213471   4.677   3.793   2.805
 4489TIP3   OH213472  -0.005   4.749   0.143
 4489TIP3    H113473   0.088   4.761   0.165
 4489TIP3    H213474  -0.016   4.655   0.137
 4490TIP3   OH213475   0.211   0.680   4.477
 4490TIP3    H113476   0.274   0.735   4.524
 4490TIP3    H213477   0.251   0.663   4.392
 4491TIP3   OH213478   2.537   3.646   1.029
 4491TIP3    H113479   2.470   3.578   1.036
 4491TIP3    H213480   2.491   3.727   1.051
 4492TIP3   OH213481   2.894   4.173   4.444
 4492TIP3    H113482   2.846   4.131   4.373
 4492TIP3    H213483   2.839   4.159   4.521
 4493TIP3   OH213484   2.801   0.473   3.304
 4493TIP3    H113485   2.810   0.378   3.301
 4493TIP3    H213486   2.709   0.488   3.328
 4494TIP3   OH213487   4.522   1.048   3.728
 4494TIP3    H113488   4.579   1.003   3.790
 4494TIP3    H213489   4.494   1.127   3.774
 4495TIP3   OH213490   2.982   2.062   3.487
 4495TIP3    H113491   3.071   2.060   3.451
 4495TIP3    H213492   2.954   2.153   3.477
 4496TIP3   OH213493   4.902   3.522   1.771
 4496TIP3    H113494   4.925   3.606   1.731
 4496TIP3    H213495   4.980   3.467   1.759
 4497TIP3   OH213496   1.607   5.377   1.643
 4497TIP3    H113497   1.532   5.359   1.701
 4497TIP3    H213498   1.567   5.399   1.559
 4498TIP3   OH213499   3.806   4.639   0.044
 4498TIP3    H113500   3.780   4.644   0.136
 4498TIP3    H213501   3.723   4.643  -0.004
 4499TIP3   OH213502   3.514   5.852   0.094
 4499TIP3    H113503   3.486   5.911   0.024
 4499TIP3    H213504   3.458   5.876   0.169
 4500TIP3   OH213505   0.452   0.195   0.696
 4500TIP3    H113506   0.357   0.204   0.698
 4500TIP3    H213507   0.471   0.120   0.751
 4501TIP3   OH213508   4.312   0.946   0.051
 4501TIP3    H113509   4.383   0.885   0.069
 4501TIP3    H213510   4.296   0.937  -0.043
 4502TIP3   OH213511   0.577   4.860   3.823
 4502TIP3    H113512   0.536   4.865   3.909
 4502TIP3    H213513   0.595   4.767   3.810
 4503TIP3   OH213514   0.496   1.036   0.737
 4503TIP3    H113515   0.569   1.096   0.750
 4503TIP3    H213516   0.533   0.949   0.756
 4504TIP3   OH213517   6.339   1.636   4.554
 4504TIP3    H113518   6.335   1.588   4.637
 4504TIP3    H213519   6.247   1.640   4.525
 4505TIP3   OH213520   6.334   2.735   3.363
 4505TIP3    H113521   6.408   2.707   3.309
 4505TIP3    H213522   6.287   2.799   3.308
 4506TIP3   OH213523   4.189   1.666   3.705
 4506TIP3    H113524   4.256   1.603   3.733
 4506TIP3    H213525   4.191   1.661   3.609
 4507TIP3   OH213526   6.108   4.203   3.041
 4507TIP3    H113527   6.158   4.211   3.122
 4507TIP3    H213528   6.057   4.123   3.051
 4508TIP3   OH213529   4.005   1.331   5.028
 4508TIP3    H113530   4.044   1.269   4.967
 4508TIP3    H213531   4.080   1.363   5.079
 4509TIP3   OH213532   2.543   4.129   1.080
 4509TIP3    H113533   2.485   4.196   1.115
 4509TIP3    H213534   2.513   4.048   1.121
 4510TIP3   OH213535   1.716   4.372   2.226
 4510TIP3    H113536   1.714   4.410   2.138
 4510TIP3    H213537   1.777   4.427   2.275
 4511TIP3   OH213538   5.114   4.174   0.114
 4511TIP3    H113539   5.201   4.176   0.155
 4511TIP3    H213540   5.078   4.088   0.139
 4512TIP3   OH213541   0.490   3.164   4.459
 4512TIP3    H113542   0.437   3.215   4.398
 4512TIP3    H213543   0.580   3.185   4.436
 4513TIP3   OH213544   2.046   2.999   1.115
 4513TIP3    H113545   1.977   3.037   1.169
 4513TIP3    H213546   2.029   3.033   1.027
 4514TIP3   OH213547   2.000   0.400   3.139
 4514TIP3    H113548   1.929   0.460   3.118
 4514TIP3    H213549   2.065   0.455   3.183
 4515TIP3   OH213550   0.661   1.301   1.388
 4515TIP3    H113551   0.717   1.272   1.460
 4515TIP3    H213552   0.642   1.222   1.337
 4516TIP3   OH213553   3.675   1.080   4.533
 4516TIP3    H113554   3.724   1.017   4.586
 4516TIP3    H213555   3.740   1.147   4.509
 4517TIP3   OH213556   3.652   2.763   2.724
 4517TIP3    H113557   3.736   2.732   2.757
 4517TIP3    H213558   3.667   2.779   2.630
 4518TIP3   OH213559   3.495   1.379   0.307
 4518TIP3    H113560   3.416   1.429   0.288
 4518TIP3    H213561   3.476   1.334   0.389
 4519TIP3   OH213562   4.322   4.811   5.165
 4519TIP3    H113563   4.285   4.892   5.130
 4519TIP3    H213564   4.283   4.802   5.251
 4520TIP3   OH213565   0.223   1.247   0.571
 4520TIP3    H113566   0.182   1.216   0.491
 4520TIP3    H213567   0.173   1.206   0.641
 4521TIP3   OH213568   2.959   1.353   0.290
 4521TIP3    H113569   2.930   1.262   0.281
 4521TIP3    H213570   3.037   1.349   0.345
 4522TIP3   OH213571   0.114   4.279   2.649
 4522TIP3    H113572   0.192   4.224   2.654
 4522TIP3    H213573   0.064   4.257   2.728
 4523TIP3   OH213574   0.138   1.947   0.367
 4523TIP3    H113575   0.163   1.861   0.333
 4523TIP3    H213576   0.179   1.952   0.454
 4524TIP3   OH213577   0.259   3.698   4.950
 4524TIP3    H113578   0.307   3.659   5.023
 4524TIP3    H213579   0.310   3.775   4.925
 4525TIP3   OH213580   1.321   0.983   0.614
 4525TIP3    H113581   1.300   0.890   0.608
 4525TIP3    H213582   1.383   0.999   0.542
 4526TIP3   OH213583   1.872   2.956   0.459
 4526TIP3    H113584   1.948   3.001   0.497
 4526TIP3    H213585   1.811   2.947   0.532
 4527TIP3   OH213586   2.239   1.641   3.291
 4527TIP3    H113587   2.249   1.695   3.212
 4527TIP3    H213588   2.160   1.590   3.276
 4528TIP3   OH213589   4.305   2.108   0.513
 4528TIP3    H113590   4.243   2.168   0.471
 4528TIP3    H213591   4.263   2.022   0.508
 4529TIP3   OH213592   4.420   3.008   4.799
 4529TIP3    H113593   4.459   3.057   4.727
 4529TIP3    H213594   4.480   2.935   4.815
 4530TIP3   OH213595   5.817   5.477   0.204
 4530TIP3    H113596   5.842   5.522   0.123
 4530TIP3    H213597   5.862   5.393   0.200
 4531TIP3   OH213598   6.062   4.166   0.168
 4531TIP3    H113599   6.142   4.128   0.130
 4531TIP3    H213600   6.011   4.195   0.093
 4532TIP3   OH213601   1.266   5.780   2.239
 4532TIP3    H113602   1.297   5.717   2.174
 4532TIP3    H213603   1.345   5.830   2.263
 4533TIP3   OH213604   0.694   0.748   3.323
 4533TIP3    H113605   0.725   0.704   3.244
 4533TIP3    H213606   0.676   0.838   3.294
 4534TIP3   OH213607   1.426   3.285   2.564
 4534TIP3    H113608   1.470   3.368   2.584
 4534TIP3    H213609   1.420   3.240   2.648
 4535TIP3   OH213610   5.239   1.594   3.544
 4535TIP3    H113611   5.321   1.545   3.541
 4535TIP3    H213612   5.265   1.684   3.522
 4536TIP3   OH213613   2.601   0.578   3.001
 4536TIP3    H113614   2.559   0.506   3.048
 4536TIP3    H213615   2.640   0.538   2.924
 4537TIP3   OH213616   0.746   0.551   0.518
 4537TIP3    H113617   0.740   0.643   0.493
 4537TIP3    H213618   0.829   0.545   0.566
 4538TIP3   OH213619   2.939   4.566   0.865
 4538TIP3    H113620   2.855   4.608   0.848
 4538TIP3    H213621   2.947   4.499   0.797
 4539TIP3   OH213622   2.688   2.798   1.546
 4539TIP3    H113623   2.770   2.804   1.498
 4539TIP3    H213624   2.701   2.852   1.624
 4540TIP3   OH213625   0.634   5.612   0.062
 4540TIP3    H113626   0.634   5.701   0.026
 4540TIP3    H213627   0.684   5.618   0.143
 4541TIP3   OH213628   2.380   0.274   4.950
 4541TIP3    H113629   2.386   0.238   5.039
 4541TIP3    H213630   2.341   0.360   4.962
 4542TIP3   OH213631   0.212   4.527   1.874
 4542TIP3    H113632   0.261   4.519   1.792
 4542TIP3    H213633   0.203   4.437   1.905
 4543TIP3   OH213634   2.381   3.011   3.559
 4543TIP3    H113635   2.314   3.044   3.618
 4543TIP3    H213636   2.436   3.086   3.540
 4544TIP3   OH213637   4.445   2.784   1.480
 4544TIP3    H113638   4.353   2.768   1.501
 4544TIP3    H213639   4.488   2.793   1.566
 4545TIP3   OH213640   5.142   5.620   2.567
 4545TIP3    H113641   5.088   5.634   2.489
 4545TIP3    H213642   5.229   5.651   2.542
 4546TIP3   OH213643   3.947   3.454   0.250
 4546TIP3    H113644   3.986   3.459   0.162
 4546TIP3    H213645   3.860   3.493   0.239
 4547TIP3   OH213646   2.348   1.004   3.013
 4547TIP3    H113647   2.258   0.989   3.041
 4547TIP3    H213648   2.397   1.016   3.094
 4548TIP3   OH213649   5.536   1.402   4.314
 4548TIP3    H113650   5.608   1.463   4.328
 4548TIP3    H213651   5.477   1.446   4.253
 4549TIP3   OH213652   2.858   5.240   3.527
 4549TIP3    H113653   2.825   5.307   3.586
 4549TIP3    H213654   2.832   5.270   3.439
 4550TIP3   OH213655   5.726   3.756   2.240
 4550TIP3    H113656   5.671   3.742   2.162
 4550TIP3    H213657   5.668   3.733   2.313
 4551TIP3   OH213658   2.939   5.972   1.511
 4551TIP3    H113659   2.907   6.018   1.589
 4551TIP3    H213660   2.876   5.902   1.497
 4552TIP3   OH213661   1.907   2.906   4.468
 4552TIP3    H113662   1.972   2.872   4.407
 4552TIP3    H213663   1.901   3.000   4.448
 4553TIP3   OH213664   4.211   2.405   1.905
 4553TIP3    H113665   4.178   2.345   1.838
 4553TIP3    H213666   4.139   2.411   1.969
 4554TIP3   OH213667   0.299   5.097   1.332
 4554TIP3    H113668   0.247   5.168   1.293
 4554TIP3    H213669   0.302   5.117   1.425
 4555TIP3   OH213670   5.232   3.186   0.061
 4555TIP3    H113671   5.191   3.154  -0.019
 4555TIP3    H213672   5.319   3.216   0.034
 4556TIP3   OH213673   6.185   1.292   2.606
 4556TIP3    H113674   6.139   1.325   2.682
 4556TIP3    H213675   6.256   1.354   2.591
 4557TIP3   OH213676   1.878   3.885   1.997
 4557TIP3    H113677   1.807   3.947   2.010
 4557TIP3    H213678   1.835   3.799   1.999
 4558TIP3   OH213679   3.689   3.314   0.102
 4558TIP3    H113680   3.702   3.243   0.165
 4558TIP3    H213681   3.728   3.281   0.021
 4559TIP3   OH213682   1.713   5.071   0.893
 4559TIP3    H113683   1.774   5.135   0.931
 4559TIP3    H213684   1.649   5.054   0.962
 4560TIP3   OH213685   4.846   0.258   0.924
 4560TIP3    H113686   4.867   0.288   0.836
 4560TIP3    H213687   4.751   0.258   0.928
 4561TIP3   OH213688   0.242   2.197   1.942
 4561TIP3    H113689   0.319   2.151   1.908
 4561TIP3    H213690   0.279   2.271   1.991
 4562TIP3   OH213691   3.527   1.474   2.471
 4562TIP3    H113692   3.474   1.495   2.394
 4562TIP3    H213693   3.572   1.393   2.448
 4563TIP3   OH213694   1.846   4.358   1.692
 4563TIP3    H113695   1.897   4.431   1.725
 4563TIP3    H213696   1.852   4.366   1.597
 4564TIP3   OH213697   4.787   0.160   3.793
 4564TIP3    H113698   4.718   0.159   3.726
 4564TIP3    H213699   4.864   0.192   3.747
 4565TIP3   OH213700   5.055   1.341   2.505
 4565TIP3    H113701   5.066   1.263   2.560
 4565TIP3    H213702   5.037   1.306   2.418
 4566TIP3   OH213703   2.250   2.486   3.713
 4566TIP3    H113704   2.283   2.549   3.777
 4566TIP3    H213705   2.175   2.445   3.755
 4567TIP3   OH213706   2.184   0.416   4.718
 4567TIP3    H113707   2.096   0.451   4.727
 4567TIP3    H213708   2.213   0.399   4.808
 4568TIP3   OH213709   4.776   1.585   0.068
 4568TIP3    H113710   4.860   1.541   0.057
 4568TIP3    H213711   4.798   1.676   0.087
 4569TIP3   OH213712   6.110   1.749   2.603
 4569TIP3    H113713   6.125   1.830   2.554
 4569TIP3    H213714   6.117   1.776   2.695
 4570TIP3   OH213715   2.804   0.475   3.711
 4570TIP3    H113716   2.889   0.503   3.675
 4570TIP3    H213717   2.791   0.531   3.787
 4571TIP3   OH213718   2.079   0.713   2.829
 4571TIP3    H113719   2.110   0.668   2.907
 4571TIP3    H213720   1.989   0.739   2.850
 4572TIP3   OH213721   1.573   5.598   2.478
 4572TIP3    H113722   1.553   5.691   2.489
 4572TIP3    H213723   1.668   5.595   2.470
 4573TIP3   OH213724   1.980   5.957  -0.017
 4573TIP3    H113725   1.904   5.941   0.039
 4573TIP3    H213726   2.040   5.885   0.003
 4574TIP3   OH213727   6.168   4.506   3.654
 4574TIP3    H113728   6.120   4.575   3.608
 4574TIP3    H213729   6.103   4.468   3.714
 4575TIP3   OH213730   1.828   5.683   3.626
 4575TIP3    H113731   1.769   5.610   3.612
 4575TIP3    H213732   1.777   5.746   3.677
 4576TIP3   OH213733   0.480   1.757   1.406
 4576TIP3    H113734   0.534   1.746   1.328
 4576TIP3    H213735   0.422   1.681   1.406
 4577TIP3   OH213736   0.375   5.311   0.277
 4577TIP3    H113737   0.333   5.273   0.200
 4577TIP3    H213738   0.371   5.405   0.262
 4578TIP3   OH213739   0.318   5.155   2.579
 4578TIP3    H113740   0.399   5.154   2.629
 4578TIP3    H213741   0.336   5.100   2.503
 4579TIP3   OH213742   2.512   3.419   2.663
 4579TIP3    H113743   2.533   3.488   2.725
 4579TIP3    H213744   2.543   3.339   2.705
 4580TIP3   OH213745   4.090   2.048   4.012
 4580TIP3    H113746   4.186   2.046   4.008
 4580TIP3    H213747   4.070   2.112   4.081
 4581TIP3   OH213748   1.494   1.708   3.342
 4581TIP3    H113749   1.529   1.628   3.382
 4581TIP3    H213750   1.559   1.775   3.361
 4582TIP3   OH213751   3.564   0.399   0.966
 4582TIP3    H113752   3.471   0.404   0.990
 4582TIP3    H213753   3.571   0.447   0.884
 4583TIP3   OH213754   3.497   1.840   3.023
 4583TIP3    H113755   3.458   1.922   2.993
 4583TIP3    H213756   3.426   1.795   3.068
 4584TIP3   OH213757   2.376   1.908   2.218
 4584TIP3    H113758   2.440   1.882   2.152
 4584TIP3    H213759   2.426   1.917   2.299
 4585TIP3   OH213760   4.304   4.315   2.113
 4585TIP3    H113761   4.373   4.265   2.158
 4585TIP3    H213762   4.223   4.267   2.134
 4586TIP3   OH213763   1.317   4.787   4.518
 4586TIP3    H113764   1.300   4.706   4.565
 4586TIP3    H213765   1.250   4.848   4.549
 4587TIP3   OH213766   0.364   1.464   0.897
 4587TIP3    H113767   0.352   1.375   0.932
 4587TIP3    H213768   0.417   1.452   0.818
 4588TIP3   OH213769   4.823   5.114   2.283
 4588TIP3    H113770   4.884   5.052   2.243
 4588TIP3    H213771   4.860   5.132   2.369
 4589TIP3   OH213772   6.024   4.506   4.797
 4589TIP3    H113773   5.958   4.441   4.823
 4589TIP3    H213774   6.061   4.471   4.716
 4590TIP3   OH213775   6.227   3.295   1.134
 4590TIP3    H113776   6.233   3.258   1.223
 4590TIP3    H213777   6.200   3.385   1.148
 4591TIP3   OH213778   0.627   5.489   3.913
 4591TIP3    H113779   0.592   5.572   3.882
 4591TIP3    H213780   0.589   5.424   3.853
 4592TIP3   OH213781   4.779   1.588   0.345
 4592TIP3    H113782   4.762   1.494   0.358
 4592TIP3    H213783   4.772   1.600   0.250
 4593TIP3   OH213784   1.700   0.273   4.464
 4593TIP3    H113785   1.682   0.183   4.434
 4593TIP3    H213786   1.715   0.264   4.558
 4594TIP3   OH213787   1.823   2.496   3.985
 4594TIP3    H113788   1.748   2.465   3.936
 4594TIP3    H213789   1.818   2.592   3.979
 4595TIP3   OH213790   1.937   5.342   3.439
 4595TIP3    H113791   1.929   5.296   3.356
 4595TIP3    H213792   1.868   5.408   3.437
 4596TIP3   OH213793   2.083   0.992   2.811
 4596TIP3    H113794   2.139   0.915   2.809
 4596TIP3    H213795   1.997   0.959   2.834
 4597TIP3   OH213796   3.477   1.823   2.420
 4597TIP3    H113797   3.440   1.887   2.360
 4597TIP3    H213798   3.405   1.765   2.441
 4598TIP3   OH213799   5.062   5.203   0.557
 4598TIP3    H113800   5.088   5.209   0.465
 4598TIP3    H213801   5.141   5.176   0.603
 4599TIP3   OH213802   2.942   5.592   1.436
 4599TIP3    H113803   2.917   5.504   1.464
 4599TIP3    H213804   2.881   5.650   1.482
 4600TIP3   OH213805   5.180   5.190   3.958
 4600TIP3    H113806   5.116   5.190   4.029
 4600TIP3    H213807   5.264   5.199   4.002
 4601TIP3   OH213808   2.821   0.632   3.935
 4601TIP3    H113809   2.828   0.567   4.005
 4601TIP3    H213810   2.893   0.693   3.952
 4602TIP3   OH213811   4.122   5.585   2.228
 4602TIP3    H113812   4.055   5.608   2.164
 4602TIP3    H213813   4.074   5.561   2.307
 4603TIP3   OH213814   5.289   1.521   5.145
 4603TIP3    H113815   5.372   1.494   5.185
 4603TIP3    H213816   5.284   1.470   5.064
 4604TIP3   OH213817   5.860   3.088   5.059
 4604TIP3    H113818   5.836   3.027   5.129
 4604TIP3    H213819   5.804   3.063   4.986
 4605TIP3   OH213820   4.568   4.946   5.090
 4605TIP3    H113821   4.562   5.024   5.146
 4605TIP3    H213822   4.493   4.893   5.115
 4606TIP3   OH213823   0.603   1.785   3.859
 4606TIP3    H113824   0.509   1.782   3.877
 4606TIP3    H213825   0.613   1.855   3.795
 4607TIP3   OH213826   5.987   3.317   1.521
 4607TIP3    H113827   5.923   3.285   1.586
 4607TIP3    H213828   5.947   3.395   1.484
 4608TIP3   OH213829   1.078   0.894   3.063
 4608TIP3    H113830   1.150   0.949   3.034
 4608TIP3    H213831   1.012   0.902   2.994
 4609TIP3   OH213832   2.540   0.126   3.688
 4609TIP3    H113833   2.481   0.090   3.622
 4609TIP3    H213834   2.526   0.221   3.684
 4610TIP3   OH213835   3.667   2.044   0.189
 4610TIP3    H113836   3.755   2.031   0.154
 4610TIP3    H213837   3.619   1.965   0.165
 4611TIP3   OH213838   0.095   0.052   3.249
 4611TIP3    H113839   0.118   0.121   3.187
 4611TIP3    H213840   0.116   0.089   3.335
 4612TIP3   OH213841   6.229   1.740   4.934
 4612TIP3    H113842   6.275   1.661   4.903
 4612TIP3    H213843   6.237   1.802   4.861
 4613TIP3   OH213844   5.305   0.457   3.524
 4613TIP3    H113845   5.384   0.511   3.515
 4613TIP3    H213846   5.333   0.382   3.577
 4614TIP3   OH213847   1.683   4.021   3.291
 4614TIP3    H113848   1.715   4.062   3.372
 4614TIP3    H213849   1.597   4.061   3.277
 4615TIP3   OH213850   1.763   4.102   2.099
 4615TIP3    H113851   1.685   4.159   2.100
 4615TIP3    H213852   1.772   4.074   2.190
 4616TIP3   OH213853   3.590   1.543   1.033
 4616TIP3    H113854   3.611   1.627   0.991
 4616TIP3    H213855   3.500   1.525   1.007
 4617TIP3   OH213856   4.312   1.880   4.223
 4617TIP3    H113857   4.286   1.794   4.256
 4617TIP3    H213858   4.402   1.869   4.194
 4618TIP3   OH213859   0.838   5.593   3.648
 4618TIP3    H113860   0.868   5.677   3.615
 4618TIP3    H213861   0.749   5.609   3.678
 4619TIP3   OH213862   3.724   1.010   2.369
 4619TIP3    H113863   3.739   0.927   2.413
 4619TIP3    H213864   3.795   1.067   2.400
 4620TIP3   OH213865   0.403   1.048   4.677
 4620TIP3    H113866   0.442   1.028   4.762
 4620TIP3    H213867   0.399   1.144   4.675
 4621TIP3   OH213868   1.083   4.574   2.812
 4621TIP3    H113869   1.025   4.618   2.750
 4621TIP3    H213870   1.140   4.643   2.846
 4622TIP3   OH213871   5.726   2.927   0.212
 4622TIP3    H113872   5.648   2.980   0.197
 4622TIP3    H213873   5.799   2.988   0.201
 4623TIP3   OH213874   2.998   5.532   4.668
 4623TIP3    H113875   3.085   5.542   4.631
 4623TIP3    H213876   3.012   5.537   4.763
 4624TIP3   OH213877   4.924   3.420   1.445
 4624TIP3    H113878   4.901   3.327   1.442
 4624TIP3    H213879   4.995   3.426   1.508
 4625TIP3   OH213880   1.271   4.695   1.853
 4625TIP3    H113881   1.226   4.771   1.816
 4625TIP3    H213882   1.313   4.653   1.778
 4626TIP3   OH213883   1.540   3.932   1.757
 4626TIP3    H113884   1.508   3.982   1.832
 4626TIP3    H213885   1.575   3.851   1.796
 4627TIP3   OH213886   5.134   4.395   0.980
 4627TIP3    H113887   5.067   4.445   0.933
 4627TIP3    H213888   5.137   4.310   0.936
 4628TIP3   OH213889   5.394   5.889   5.090
 4628TIP3    H113890   5.344   5.918   5.167
 4628TIP3    H213891   5.467   5.839   5.126
 4629TIP3   OH213892   1.784   4.957   1.267
 4629TIP3    H113893   1.768   4.871   1.228
 4629TIP3    H213894   1.785   5.017   1.193
 4630TIP3   OH213895   4.603   4.485   0.996
 4630TIP3    H113896   4.585   4.571   1.033
 4630TIP3    H213897   4.609   4.501   0.902
 4631TIP3   OH213898   0.970   1.966   4.600
 4631TIP3    H113899   1.023   1.889   4.580
 4631TIP3    H213900   0.889   1.954   4.550
 4632TIP3   OH213901   3.039   3.812   5.131
 4632TIP3    H113902   3.102   3.880   5.154
 4632TIP3    H213903   3.042   3.750   5.205
 4633TIP3   OH213904   1.052   0.995   0.844
 4633TIP3    H113905   1.134   1.020   0.886
 4633TIP3    H213906   0.984   1.027   0.904
 4634TIP3   OH213907   1.373   5.748   0.450
 4634TIP3    H113908   1.320   5.824   0.423
 4634TIP3    H213909   1.310   5.677   0.458
 4635TIP3   OH213910   4.193   0.761   4.476
 4635TIP3    H113911   4.278   0.739   4.439
 4635TIP3    H213912   4.138   0.685   4.459
 4636TIP3   OH213913   3.682   4.634   4.863
 4636TIP3    H113914   3.755   4.682   4.902
 4636TIP3    H213915   3.606   4.658   4.916
 4637TIP3   OH213916   3.357   0.577   4.561
 4637TIP3    H113917   3.434   0.610   4.607
 4637TIP3    H213918   3.390   0.550   4.475
 4638TIP3   OH213919   6.074   5.903   2.650
 4638TIP3    H113920   5.980   5.887   2.639
 4638TIP3    H213921   6.108   5.823   2.690
 4639TIP3   OH213922   2.973   2.090   1.939
 4639TIP3    H113923   2.991   2.007   1.984
 4639TIP3    H213924   3.048   2.146   1.961
 4640TIP3   OH213925   5.375   3.301   3.185
 4640TIP3    H113926   5.411   3.346   3.109
 4640TIP3    H213927   5.298   3.255   3.151
 4641TIP3   OH213928   2.337   0.210   1.120
 4641TIP3    H113929   2.379   0.177   1.041
 4641TIP3    H213930   2.394   0.181   1.192
 4642TIP3   OH213931   5.868   3.940   5.056
 4642TIP3    H113932   5.900   3.973   4.972
 4642TIP3    H213933   5.913   3.994   5.121
 4643TIP3   OH213934   5.600   3.286   2.334
 4643TIP3    H113935   5.608   3.299   2.239
 4643TIP3    H213936   5.527   3.226   2.344
 4644TIP3   OH213937   4.773   0.278   2.659
 4644TIP3    H113938   4.798   0.365   2.627
 4644TIP3    H213939   4.730   0.236   2.584
 4645TIP3   OH213940   3.483   2.951   1.749
 4645TIP3    H113941   3.560   2.996   1.713
 4645TIP3    H213942   3.494   2.860   1.720
 4646TIP3   OH213943   4.724   0.987   1.686
 4646TIP3    H113944   4.784   0.971   1.759
 4646TIP3    H213945   4.639   1.002   1.728
 4647TIP3   OH213946   1.371   2.266   2.261
 4647TIP3    H113947   1.358   2.356   2.291
 4647TIP3    H213948   1.348   2.267   2.168
 4648TIP3   OH213949   0.533   4.554   2.761
 4648TIP3    H113950   0.528   4.463   2.790
 4648TIP3    H213951   0.576   4.549   2.675
 4649TIP3   OH213952   0.297   4.106   3.445
 4649TIP3    H113953   0.228   4.051   3.407
 4649TIP3    H213954   0.372   4.096   3.385
 4650TIP3   OH213955   0.359   3.767   1.561
 4650TIP3    H113956   0.354   3.710   1.484
 4650TIP3    H213957   0.342   3.709   1.635
 4651TIP3   OH213958   2.814   0.403   4.114
 4651TIP3    H113959   2.718   0.402   4.117
 4651TIP3    H213960   2.841   0.381   4.203
 4652TIP3   OH213961   1.774   0.381   0.892
 4652TIP3    H113962   1.717   0.305   0.901
 4652TIP3    H213963   1.811   0.373   0.804
 4653TIP3   OH213964   2.061   0.093   3.857
 4653TIP3    H113965   2.079   0.187   3.852
 4653TIP3    H213966   2.139   0.056   3.899
 4654TIP3   OH213967   3.053   1.318   3.399
 4654TIP3    H113968   3.032   1.293   3.309
 4654TIP3    H213969   2.969   1.341   3.439
 4655TIP3   OH213970   4.076   0.444   5.058
 4655TIP3    H113971   3.980   0.449   5.056
 4655TIP3    H213972   4.095   0.370   5.116
 4656TIP3   OH213973   4.469   0.370   4.393
 4656TIP3    H113974   4.448   0.278   4.378
 4656TIP3    H213975   4.533   0.391   4.325
 4657TIP3   OH213976   4.291   0.861   1.901
 4657TIP3    H113977   4.298   0.855   1.996
 4657TIP3    H213978   4.356   0.799   1.868
 4658TIP3   OH213979   5.644   5.321   3.333
 4658TIP3    H113980   5.589   5.355   3.262
 4658TIP3    H213981   5.696   5.395   3.362
 4659TIP3   OH213982   0.599   5.140   2.010
 4659TIP3    H113983   0.657   5.192   1.954
 4659TIP3    H213984   0.656   5.072   2.047
 4660TIP3   OH213985   1.850   5.106   1.522
 4660TIP3    H113986   1.851   5.061   1.438
 4660TIP3    H213987   1.940   5.137   1.535
 4661TIP3   OH213988   3.864   4.343   2.466
 4661TIP3    H113989   3.855   4.389   2.550
 4661TIP3    H213990   3.867   4.251   2.490
 4662TIP3   OH213991   3.829   4.577   4.641
 4662TIP3    H113992   3.750   4.596   4.691
 4662TIP3    H213993   3.899   4.579   4.705
 4663TIP3   OH213994   3.880   0.682   2.778
 4663TIP3    H113995   3.952   0.643   2.826
 4663TIP3    H213996   3.898   0.776   2.777
 4664TIP3   OH213997   4.729   4.024   0.282
 4664TIP3    H113998   4.791   4.097   0.272
 4664TIP3    H213999   4.766   3.954   0.228
 4665TIP3   OH214000   0.981   3.916   4.048
 4665TIP3    H114001   0.941   3.832   4.069
 4665TIP3    H214002   0.999   3.957   4.132
 4666TIP3   OH214003   1.696   2.065   1.414
 4666TIP3    H114004   1.666   1.974   1.417
 4666TIP3    H214005   1.653   2.106   1.489
 4667TIP3   OH214006   1.435   3.802   1.519
 4667TIP3    H114007   1.377   3.731   1.547
 4667TIP3    H214008   1.475   3.834   1.600
 4668TIP3   OH214009   4.747   1.749   3.698
 4668TIP3    H114010   4.652   1.760   3.689
 4668TIP3    H214011   4.757   1.662   3.736
 4669TIP3   OH214012   2.894   1.369   2.219
 4669TIP3    H114013   2.897   1.442   2.281
 4669TIP3    H214014   2.803   1.366   2.189
 4670TIP3   OH214015   5.897   2.432   0.029
 4670TIP3    H114016   5.900   2.354  -0.026
 4670TIP3    H214017   5.855   2.403   0.110
 4671TIP3   OH214018   5.489   4.525   0.621
 4671TIP3    H114019   5.441   4.462   0.567
 4671TIP3    H214020   5.425   4.594   0.640
 4672TIP3   OH214021   4.623   3.745   3.455
 4672TIP3    H114022   4.672   3.670   3.489
 4672TIP3    H214023   4.658   3.757   3.366
 4673TIP3   OH214024   1.077   0.722   4.972
 4673TIP3    H114025   1.028   0.778   4.911
 4673TIP3    H214026   1.128   0.664   4.916
 4674TIP3   OH214027   5.796   4.157   2.525
 4674TIP3    H114028   5.878   4.182   2.569
 4674TIP3    H214029   5.809   4.065   2.503
 4675TIP3   OH214030   5.902   1.753   1.203
 4675TIP3    H114031   5.954   1.727   1.127
 4675TIP3    H214032   5.816   1.714   1.187
 4676TIP3   OH214033   3.894   3.217   1.360
 4676TIP3    H114034   3.897   3.154   1.432
 4676TIP3    H214035   3.819   3.190   1.308
 4677TIP3   OH214036   5.962   0.376   1.713
 4677TIP3    H114037   5.892   0.398   1.775
 4677TIP3    H214038   6.028   0.333   1.767
 4678TIP3   OH214039   4.913   0.724   0.588
 4678TIP3    H114040   4.924   0.720   0.493
 4678TIP3    H214041   4.919   0.818   0.608
 4679TIP3   OH214042   3.405   0.360   2.867
 4679TIP3    H114043   3.415   0.365   2.772
 4679TIP3    H214044   3.360   0.441   2.891
 4680TIP3   OH214045   0.133   5.709   4.930
 4680TIP3    H114046   0.207   5.768   4.947
 4680TIP3    H214047   0.129   5.703   4.834
 4681TIP3   OH214048   4.452   2.880   3.113
 4681TIP3    H114049   4.535   2.878   3.065
 4681TIP3    H214050   4.421   2.790   3.111
 4682TIP3   OH214051   0.586   3.898   4.066
 4682TIP3    H114052   0.533   3.970   4.031
 4682TIP3    H214053   0.555   3.821   4.020
 4683TIP3   OH214054   5.939   1.975   0.402
 4683TIP3    H114055   6.028   1.999   0.374
 4683TIP3    H214056   5.949   1.950   0.493
 4684TIP3   OH214057   4.483   1.127   1.860
 4684TIP3    H114058   4.496   1.108   1.953
 4684TIP3    H214059   4.394   1.162   1.854
 4685TIP3   OH214060   3.010   5.830   4.745
 4685TIP3    H114061   2.997   5.776   4.667
 4685TIP3    H214062   2.928   5.879   4.753
 4686TIP3   OH214063   2.979   0.673   3.348
 4686TIP3    H114064   2.960   0.713   3.263
 4686TIP3    H214065   2.920   0.598   3.353
 4687TIP3   OH214066   3.018   0.630   4.867
 4687TIP3    H114067   3.102   0.591   4.841
 4687TIP3    H214068   2.981   0.569   4.930
 4688TIP3   OH214069   0.774   2.618   3.635
 4688TIP3    H114070   0.839   2.664   3.687
 4688TIP3    H214071   0.800   2.526   3.639
 4689TIP3   OH214072   5.898   3.465   4.355
 4689TIP3    H114073   5.970   3.516   4.317
 4689TIP3    H214074   5.824   3.482   4.297
 4690TIP3   OH214075   0.338   1.112   1.470
 4690TIP3    H114076   0.284   1.190   1.483
 4690TIP3    H214077   0.275   1.041   1.456
 4691TIP3   OH214078   0.506   2.401   1.417
 4691TIP3    H114079   0.458   2.413   1.335
 4691TIP3    H214080   0.598   2.400   1.391
 4692TIP3   OH214081   5.590   1.408   2.033
 4692TIP3    H114082   5.638   1.476   1.986
 4692TIP3    H214083   5.565   1.450   2.116
 4693TIP3   OH214084   4.580   2.274   5.203
 4693TIP3    H114085   4.502   2.305   5.157
 4693TIP3    H214086   4.647   2.338   5.181
 4694TIP3   OH214087   4.044   4.609   2.731
 4694TIP3    H114088   3.958   4.566   2.730
 4694TIP3    H214089   4.090   4.567   2.804
 4695TIP3   OH214090   1.850   5.680   2.681
 4695TIP3    H114091   1.850   5.585   2.665
 4695TIP3    H214092   1.775   5.693   2.739
 4696TIP3   OH214093   5.645   0.472   1.502
 4696TIP3    H114094   5.659   0.542   1.564
 4696TIP3    H214095   5.709   0.488   1.432
 4697TIP3   OH214096   1.224   0.101   3.424
 4697TIP3    H114097   1.131   0.091   3.405
 4697TIP3    H214098   1.268   0.082   3.341
 4698TIP3   OH214099   4.596   3.573   2.010
 4698TIP3    H114100   4.641   3.657   2.004
 4698TIP3    H214101   4.519   3.590   2.063
 4699TIP3   OH214102   1.643   0.663   2.957
 4699TIP3    H114103   1.611   0.619   3.035
 4699TIP3    H214104   1.613   0.753   2.965
 4700TIP3   OH214105   3.139   4.260   0.148
 4700TIP3    H114106   3.087   4.185   0.119
 4700TIP3    H214107   3.083   4.336   0.132
 4701TIP3   OH214108   5.921   0.576   1.090
 4701TIP3    H114109   5.859   0.640   1.056
 4701TIP3    H214110   5.938   0.605   1.180
 4702TIP3   OH214111   0.421   1.920   4.683
 4702TIP3    H114112   0.366   1.958   4.752
 4702TIP3    H214113   0.470   1.994   4.648
 4703TIP3   OH214114   5.185   1.538   1.691
 4703TIP3    H114115   5.204   1.500   1.777
 4703TIP3    H214116   5.256   1.601   1.677
 4704TIP3   OH214117   3.762   0.261   0.398
 4704TIP3    H114118   3.843   0.289   0.356
 4704TIP3    H214119   3.763   0.165   0.391
 4705TIP3   OH214120   2.990   1.874   2.146
 4705TIP3    H114121   2.944   1.857   2.228
 4705TIP3    H214122   3.037   1.793   2.127
 4706TIP3   OH214123   0.421   3.096   3.461
 4706TIP3    H114124   0.446   3.072   3.551
 4706TIP3    H214125   0.325   3.096   3.462
 4707TIP3   OH214126   0.309   5.093   3.126
 4707TIP3    H114127   0.272   5.142   3.200
 4707TIP3    H214128   0.344   5.013   3.166
 4708TIP3   OH214129   5.811   0.469   2.258
 4708TIP3    H114130   5.805   0.542   2.319
 4708TIP3    H214131   5.722   0.460   2.222
 4709TIP3   OH214132   0.180   0.551   3.409
 4709TIP3    H114133   0.193   0.466   3.450
 4709TIP3    H214134   0.087   0.570   3.418
 4710TIP3   OH214135   5.180   5.185   1.242
 4710TIP3    H114136   5.166   5.196   1.148
 4710TIP3    H214137   5.255   5.126   1.249
 4711TIP3   OH214138   5.792   2.236   0.510
 4711TIP3    H114139   5.822   2.250   0.600
 4711TIP3    H214140   5.825   2.150   0.487
 4712TIP3   OH214141   1.269   5.336   4.841
 4712TIP3    H114142   1.346   5.323   4.896
 4712TIP3    H214143   1.202   5.280   4.880
 4713TIP3   OH214144   1.556   3.155   4.509
 4713TIP3    H114145   1.495   3.170   4.437
 4713TIP3    H214146   1.642   3.151   4.468
 4714TIP3   OH214147   3.726   0.083   2.700
 4714TIP3    H114148   3.758   0.048   2.783
 4714TIP3    H214149   3.803   0.086   2.644
 4715TIP3   OH214150   4.279   5.713   0.744
 4715TIP3    H114151   4.260   5.663   0.824
 4715TIP3    H214152   4.205   5.772   0.734
 4716TIP3   OH214153   3.424   5.859   4.308
 4716TIP3    H114154   3.516   5.840   4.288
 4716TIP3    H214155   3.415   5.833   4.400
 4717TIP3   OH214156   4.226   2.608   4.781
 4717TIP3    H114157   4.165   2.605   4.708
 4717TIP3    H214158   4.310   2.580   4.743
 4718TIP3   OH214159   0.381   2.600   0.915
 4718TIP3    H114160   0.361   2.663   0.846
 4718TIP3    H214161   0.473   2.576   0.899
 4719TIP3   OH214162   1.000   3.492   2.159
 4719TIP3    H114163   1.093   3.477   2.142
 4719TIP3    H214164   0.955   3.426   2.106
 4720TIP3   OH214165   1.332   0.871   2.651
 4720TIP3    H114166   1.279   0.890   2.729
 4720TIP3    H214167   1.399   0.811   2.682
 4721TIP3   OH214168   2.922   2.065   5.204
 4721TIP3    H114169   3.005   2.109   5.190
 4721TIP3    H214170   2.946   1.975   5.228
 4722TIP3   OH214171   5.084   0.195   4.923
 4722TIP3    H114172   5.106   0.239   5.005
 4722TIP3    H214173   5.140   0.117   4.922
 4723TIP3   OH214174   5.856   0.594   0.601
 4723TIP3    H114175   5.942   0.601   0.640
 4723TIP3    H214176   5.811   0.675   0.624
 4724TIP3   OH214177   1.395   4.595   1.609
 4724TIP3    H114178   1.450   4.518   1.600
 4724TIP3    H214179   1.455   4.669   1.603
 4725TIP3   OH214180   3.416   3.241   2.240
 4725TIP3    H114181   3.480   3.266   2.307
 4725TIP3    H214182   3.445   3.288   2.161
 4726TIP3   OH214183   2.289   4.387   5.161
 4726TIP3    H114184   2.243   4.359   5.240
 4726TIP3    H214185   2.231   4.453   5.122
 4727TIP3   OH214186   1.057   0.221   4.329
 4727TIP3    H114187   1.134   0.173   4.298
 4727TIP3    H214188   1.088   0.271   4.404
 4728TIP3   OH214189   1.419   4.143   3.235
 4728TIP3    H114190   1.373   4.072   3.190
 4728TIP3    H214191   1.409   4.218   3.177
 4729TIP3   OH214192   1.503   1.166   0.157
 4729TIP3    H114193   1.544   1.080   0.148
 4729TIP3    H214194   1.576   1.227   0.168
 4730TIP3   OH214195   2.135   1.206   4.139
 4730TIP3    H114196   2.118   1.178   4.049
 4730TIP3    H214197   2.068   1.163   4.192
 4731TIP3   OH214198   3.252   0.628   2.614
 4731TIP3    H114199   3.258   0.713   2.658
 4731TIP3    H214200   3.197   0.575   2.672
 4732TIP3   OH214201   3.670   0.358   2.647
 4732TIP3    H114202   3.699   0.267   2.656
 4732TIP3    H214203   3.676   0.393   2.736
 4733TIP3   OH214204   0.396   1.350   2.165
 4733TIP3    H114205   0.448   1.293   2.222
 4733TIP3    H214206   0.329   1.386   2.223
 4734TIP3   OH214207   0.166   2.293   3.847
 4734TIP3    H114208   0.239   2.326   3.900
 4734TIP3    H214209   0.125   2.226   3.902
 4735TIP3   OH214210   2.533   3.286   1.019
 4735TIP3    H114211   2.440   3.278   1.000
 4735TIP3    H214212   2.575   3.291   0.933
 4736TIP3   OH214213   6.057   0.708   4.161
 4736TIP3    H114214   6.144   0.747   4.148
 4736TIP3    H214215   6.061   0.671   4.248
 4737TIP3   OH214216   3.750   2.754   3.021
 4737TIP3    H114217   3.830   2.742   2.970
 4737TIP3    H214218   3.746   2.678   3.079
 4738TIP3   OH214219   3.710   2.427   1.406
 4738TIP3    H114220   3.756   2.357   1.453
 4738TIP3    H214221   3.773   2.499   1.404
 4739TIP3   OH214222   4.492   5.213   2.069
 4739TIP3    H114223   4.435   5.151   2.023
 4739TIP3    H214224   4.483   5.295   2.020
 4740TIP3   OH214225   2.628   0.348   2.268
 4740TIP3    H114226   2.564   0.305   2.212
 4740TIP3    H214227   2.632   0.295   2.347
 4741TIP3   OH214228   1.405   3.298   1.516
 4741TIP3    H114229   1.459   3.376   1.504
 4741TIP3    H214230   1.418   3.274   1.608
 4742TIP3   OH214231   1.694   2.558   1.064
 4742TIP3    H114232   1.619   2.504   1.040
 4742TIP3    H214233   1.680   2.641   1.017
 4743TIP3   OH214234   3.544   1.822   3.936
 4743TIP3    H114235   3.506   1.742   3.902
 4743TIP3    H214236   3.497   1.892   3.891
 4744TIP3   OH214237   5.745   2.634   5.152
 4744TIP3    H114238   5.670   2.693   5.159
 4744TIP3    H214239   5.786   2.638   5.238
 4745TIP3   OH214240   2.253   1.403   4.786
 4745TIP3    H114241   2.182   1.457   4.820
 4745TIP3    H214242   2.258   1.328   4.846
 4746TIP3   OH214243   5.737   3.357   0.722
 4746TIP3    H114244   5.772   3.327   0.639
 4746TIP3    H214245   5.794   3.318   0.788
 4747TIP3   OH214246   5.936   4.194   0.413
 4747TIP3    H114247   5.947   4.173   0.320
 4747TIP3    H214248   5.898   4.114   0.451
 4748TIP3   OH214249   5.632   4.571   2.282
 4748TIP3    H114250   5.658   4.627   2.356
 4748TIP3    H214251   5.623   4.484   2.320
 4749TIP3   OH214252   1.121   1.611   3.037
 4749TIP3    H114253   1.134   1.543   2.971
 4749TIP3    H214254   1.096   1.689   2.988
 4750TIP3   OH214255   5.705   5.412   2.350
 4750TIP3    H114256   5.784   5.362   2.328
 4750TIP3    H214257   5.675   5.447   2.267
 4751TIP3   OH214258   2.503   1.579   2.761
 4751TIP3    H114259   2.454   1.550   2.837
 4751TIP3    H214260   2.512   1.501   2.706
 4752TIP3   OH214261   3.790   0.556   1.058
 4752TIP3    H114262   3.724   0.491   1.034
 4752TIP3    H214263   3.868   0.504   1.081
 4753TIP3   OH214264   5.551   1.694   1.443
 4753TIP3    H114265   5.462   1.678   1.475
 4753TIP3    H214266   5.555   1.789   1.430
 4754TIP3   OH214267   1.710   0.413   3.490
 4754TIP3    H114268   1.687   0.469   3.415
 4754TIP3    H214269   1.651   0.338   3.484
 4755TIP3   OH214270   3.498   3.894   2.894
 4755TIP3    H114271   3.491   3.976   2.845
 4755TIP3    H214272   3.483   3.920   2.985
 4756TIP3   OH214273   4.966   5.433   3.879
 4756TIP3    H114274   4.927   5.352   3.912
 4756TIP3    H214275   5.015   5.468   3.954
 4757TIP3   OH214276   2.315   1.979   2.524
 4757TIP3    H114277   2.301   1.890   2.493
 4757TIP3    H214278   2.309   1.973   2.619
 4758TIP3   OH214279   1.099   5.764   4.928
 4758TIP3    H114280   1.021   5.796   4.972
 4758TIP3    H214281   1.156   5.733   4.998
 4759TIP3   OH214282   5.596   4.882   0.546
 4759TIP3    H114283   5.574   4.817   0.480
 4759TIP3    H214284   5.629   4.957   0.496
 4760TIP3   OH214285   0.476   0.885   4.217
 4760TIP3    H114286   0.533   0.829   4.270
 4760TIP3    H214287   0.450   0.829   4.144
 4761TIP3   OH214288   4.991   4.834   4.044
 4761TIP3    H114289   4.937   4.897   3.997
 4761TIP3    H214290   4.993   4.866   4.134
 4762TIP3   OH214291   3.186   5.721   1.843
 4762TIP3    H114292   3.180   5.770   1.761
 4762TIP3    H214293   3.274   5.742   1.876
 4763TIP3   OH214294   3.153   5.136   1.724
 4763TIP3    H114295   3.249   5.127   1.724
 4763TIP3    H214296   3.124   5.082   1.798
 4764TIP3   OH214297   1.915   2.192   2.493
 4764TIP3    H114298   1.863   2.272   2.484
 4764TIP3    H214299   1.860   2.123   2.456
 4765TIP3   OH214300   4.931   1.920   3.978
 4765TIP3    H114301   4.992   1.984   4.015
 4765TIP3    H214302   4.845   1.952   4.002
 4766TIP3   OH214303   5.018   5.591   0.013
 4766TIP3    H114304   4.990   5.503  -0.011
 4766TIP3    H214305   4.960   5.615   0.086
 4767TIP3   OH214306   4.649   4.301   0.523
 4767TIP3    H114307   4.560   4.334   0.536
 4767TIP3    H214308   4.706   4.372   0.552
 4768TIP3   OH214309   2.134   2.473   1.579
 4768TIP3    H114310   2.118   2.438   1.491
 4768TIP3    H214311   2.159   2.564   1.565
 4769TIP3   OH214312   3.443   3.259   1.207
 4769TIP3    H114313   3.468   3.212   1.127
 4769TIP3    H214314   3.351   3.237   1.220
 4770TIP3   OH214315   0.197   1.898   3.431
 4770TIP3    H114316   0.141   1.943   3.494
 4770TIP3    H214317   0.286   1.920   3.458
 4771TIP3   OH214318   3.296   1.033   1.642
 4771TIP3    H114319   3.290   0.971   1.569
 4771TIP3    H214320   3.225   1.009   1.701
 4772TIP3   OH214321   2.291   0.816   0.202
 4772TIP3    H114322   2.247   0.799   0.285
 4772TIP3    H214323   2.242   0.888   0.162
 4773TIP3   OH214324   2.616   5.061   1.748
 4773TIP3    H114325   2.690   5.097   1.797
 4773TIP3    H214326   2.641   4.970   1.731
 4774TIP3   OH214327   4.436   2.517   4.221
 4774TIP3    H114328   4.483   2.565   4.153
 4774TIP3    H214329   4.380   2.583   4.263
 4775TIP3   OH214330   5.114   3.099   2.408
 4775TIP3    H114331   5.069   3.070   2.488
 4775TIP3    H214332   5.045   3.142   2.356
 4776TIP3   OH214333   3.976   0.991   3.187
 4776TIP3    H114334   3.928   0.918   3.148
 4776TIP3    H214335   3.981   0.969   3.280
 4777TIP3   OH214336   5.917   5.828   3.952
 4777TIP3    H114337   5.949   5.785   3.872
 4777TIP3    H214338   5.996   5.858   3.996
 4778TIP3   OH214339   1.639  -0.004   0.519
 4778TIP3    H114340   1.551  -0.034   0.496
 4778TIP3    H214341   1.627   0.057   0.591
 4779TIP3   OH214342   2.172   2.040   0.782
 4779TIP3    H114343   2.207   2.002   0.701
 4779TIP3    H214344   2.079   2.054   0.764
 4780TIP3   OH214345   2.475   5.978   4.007
 4780TIP3    H114346   2.547   5.950   3.950
 4780TIP3    H214347   2.453   5.899   4.057
 4781TIP3   OH214348   0.255   0.684   3.914
 4781TIP3    H114349   0.345   0.692   3.944
 4781TIP3    H214350   0.262   0.683   3.818
 4782TIP3   OH214351   4.267   2.745   4.995
 4782TIP3    H114352   4.260   2.685   4.920
 4782TIP3    H214353   4.183   2.790   4.997
 4783TIP3   OH214354   4.290   2.217   2.614
 4783TIP3    H114355   4.360   2.230   2.550
 4783TIP3    H214356   4.300   2.126   2.643
 4784TIP3   OH214357   2.839   3.948   3.355
 4784TIP3    H114358   2.913   4.007   3.343
 4784TIP3    H214359   2.789   3.954   3.273
 4785TIP3   OH214360   5.048   4.824   0.783
 4785TIP3    H114361   5.129   4.790   0.746
 4785TIP3    H214362   5.071   4.910   0.819
 4786TIP3   OH214363   2.385   4.690   3.096
 4786TIP3    H114364   2.380   4.658   3.006
 4786TIP3    H214365   2.474   4.725   3.104
 4787TIP3   OH214366   5.286   3.836   0.441
 4787TIP3    H114367   5.282   3.930   0.462
 4787TIP3    H214368   5.210   3.799   0.485
 4788TIP3   OH214369   5.415   1.893   4.864
 4788TIP3    H114370   5.409   1.843   4.946
 4788TIP3    H214371   5.485   1.850   4.815
 4789TIP3   OH214372   2.189   5.851   2.030
 4789TIP3    H114373   2.232   5.768   2.048
 4789TIP3    H214374   2.142   5.837   1.948
 4790TIP3   OH214375   0.059   5.759   2.321
 4790TIP3    H114376   0.154   5.765   2.329
 4790TIP3    H214377   0.033   5.842   2.282
 4791TIP3   OH214378   6.153  -0.014   1.777
 4791TIP3    H114379   6.087  -0.046   1.838
 4791TIP3    H214380   6.149   0.081   1.785
 4792TIP3   OH214381   3.400   4.122   2.745
 4792TIP3    H114382   3.461   4.118   2.671
 4792TIP3    H214383   3.419   4.206   2.787
 4793TIP3   OH214384   4.993   0.277   0.394
 4793TIP3    H114385   4.918   0.337   0.394
 4793TIP3    H214386   5.028   0.282   0.305
 4794TIP3   OH214387   0.753   5.663   2.260
 4794TIP3    H114388   0.748   5.746   2.308
 4794TIP3    H214389   0.842   5.632   2.275
 4795TIP3   OH214390   0.191   2.700   2.568
 4795TIP3    H114391   0.171   2.640   2.641
 4795TIP3    H214392   0.129   2.772   2.579
 4796TIP3   OH214393   2.411   3.506   4.662
 4796TIP3    H114394   2.376   3.468   4.743
 4796TIP3    H214395   2.341   3.563   4.630
 4797TIP3   OH214396   2.219   5.077   3.347
 4797TIP3    H114397   2.125   5.067   3.354
 4797TIP3    H214398   2.232   5.164   3.310
 4798TIP3   OH214399   0.537   5.154   1.219
 4798TIP3    H114400   0.454   5.112   1.237
 4798TIP3    H214401   0.521   5.206   1.140
 4799TIP3   OH214402   1.921   4.805   0.858
 4799TIP3    H114403   1.936   4.900   0.860
 4799TIP3    H214404   1.875   4.786   0.940
 4800TIP3   OH214405   1.156   5.606   1.013
 4800TIP3    H114406   1.181   5.604   1.105
 4800TIP3    H214407   1.093   5.677   1.007
 4801TIP3   OH214408   4.322   2.156   0.785
 4801TIP3    H114409   4.367   2.131   0.704
 4801TIP3    H214410   4.231   2.170   0.760
 4802TIP3   OH214411   6.276   2.486   0.095
 4802TIP3    H114412   6.205   2.526   0.046
 4802TIP3    H214413   6.354   2.536   0.069
 4803TIP3   OH214414   4.504   1.118   2.142
 4803TIP3    H114415   4.492   1.042   2.199
 4803TIP3    H214416   4.597   1.140   2.150
 4804TIP3   OH214417   5.180   1.937   3.104
 4804TIP3    H114418   5.177   1.928   3.009
 4804TIP3    H214419   5.156   1.850   3.137
 4805TIP3   OH214420   2.742   2.146   0.581
 4805TIP3    H114421   2.789   2.093   0.517
 4805TIP3    H214422   2.681   2.085   0.624
 4806TIP3   OH214423   2.194   5.238   2.209
 4806TIP3    H114424   2.168   5.267   2.122
 4806TIP3    H214425   2.131   5.170   2.232
 4807TIP3   OH214426   3.469   5.423   2.732
 4807TIP3    H114427   3.496   5.354   2.672
 4807TIP3    H214428   3.412   5.480   2.680
 4808TIP3   OH214429   2.435  -0.039   4.432
 4808TIP3    H114430   2.512   0.007   4.467
 4808TIP3    H214431   2.361   0.004   4.476
 4809TIP3   OH214432   3.808   5.189   3.290
 4809TIP3    H114433   3.717   5.206   3.314
 4809TIP3    H214434   3.858   5.213   3.368
 4810TIP3   OH214435   4.921   4.736   2.183
 4810TIP3    H114436   4.890   4.673   2.118
 4810TIP3    H214437   4.934   4.817   2.133
 4811TIP3   OH214438   2.647   3.185   2.712
 4811TIP3    H114439   2.706   3.249   2.672
 4811TIP3    H214440   2.694   3.155   2.790
 4812TIP3   OH214441   4.544   2.012   0.841
 4812TIP3    H114442   4.485   2.086   0.832
 4812TIP3    H214443   4.522   1.974   0.927
 4813TIP3   OH214444   0.071   4.991   2.146
 4813TIP3    H114445   0.063   4.944   2.229
 4813TIP3    H214446   0.135   4.940   2.096
 4814TIP3   OH214447   3.606   5.058   1.363
 4814TIP3    H114448   3.654   5.010   1.431
 4814TIP3    H214449   3.519   5.071   1.400
 4815TIP3   OH214450   1.290   4.396   0.711
 4815TIP3    H114451   1.327   4.467   0.764
 4815TIP3    H214452   1.340   4.318   0.737
 4816TIP3   OH214453   0.950   1.092   1.096
 4816TIP3    H114454   0.990   1.064   1.178
 4816TIP3    H214455   0.889   1.021   1.075
 4817TIP3   OH214456   4.963   1.707   1.605
 4817TIP3    H114457   4.891   1.648   1.584
 4817TIP3    H214458   5.034   1.649   1.635
 4818TIP3   OH214459  -0.020   0.433   1.837
 4818TIP3    H114460   0.067   0.474   1.837
 4818TIP3    H214461  -0.065   0.473   1.762
 4819TIP3   OH214462   5.325   3.958   2.728
 4819TIP3    H114463   5.237   3.994   2.732
 4819TIP3    H214464   5.380   4.025   2.768
 4820TIP3   OH214465   5.821   4.300   4.827
 4820TIP3    H114466   5.738   4.261   4.799
 4820TIP3    H214467   5.813   4.307   4.922
 4821TIP3   OH214468   0.949   1.035   0.588
 4821TIP3    H114469   0.994   1.017   0.670
 4821TIP3    H214470   1.017   1.071   0.531
 4822TIP3   OH214471   6.171   2.669   3.901
 4822TIP3    H114472   6.104   2.619   3.854
 4822TIP3    H214473   6.180   2.750   3.850
 4823TIP3   OH214474   3.631   1.094   0.930
 4823TIP3    H114475   3.698   1.029   0.952
 4823TIP3    H214476   3.569   1.089   1.002
 4824TIP3   OH214477   2.217   1.495   4.337
 4824TIP3    H114478   2.129   1.463   4.357
 4824TIP3    H214479   2.238   1.551   4.412
 4825TIP3   OH214480   2.038   0.302   1.528
 4825TIP3    H114481   2.123   0.317   1.488
 4825TIP3    H214482   1.975   0.327   1.461
 4826TIP3   OH214483   4.040   4.396   1.654
 4826TIP3    H114484   4.089   4.337   1.711
 4826TIP3    H214485   4.082   4.387   1.568
 4827TIP3   OH214486   5.178   4.827   1.196
 4827TIP3    H114487   5.175   4.747   1.250
 4827TIP3    H214488   5.252   4.876   1.230
 4828TIP3   OH214489   3.258   2.891   4.979
 4828TIP3    H114490   3.232   2.883   4.887
 4828TIP3    H214491   3.211   2.822   5.024
 4829TIP3   OH214492   0.619   2.009   3.695
 4829TIP3    H114493   0.606   2.046   3.782
 4829TIP3    H214494   0.697   2.053   3.662
 4830TIP3   OH214495   1.705   4.439   2.678
 4830TIP3    H114496   1.686   4.529   2.705
 4830TIP3    H214497   1.792   4.444   2.637
 4831TIP3   OH214498   3.904   4.826   0.406
 4831TIP3    H114499   3.912   4.875   0.324
 4831TIP3    H214500   3.995   4.813   0.435
 4832TIP3   OH214501   2.312   4.572   3.873
 4832TIP3    H114502   2.360   4.652   3.853
 4832TIP3    H214503   2.297   4.531   3.788
 4833TIP3   OH214504   3.698   4.759   1.845
 4833TIP3    H114505   3.633   4.788   1.909
 4833TIP3    H214506   3.756   4.835   1.835
 4834TIP3   OH214507   2.663   5.007   3.371
 4834TIP3    H114508   2.603   5.029   3.442
 4834TIP3    H214509   2.615   5.031   3.291
 4835TIP3   OH214510   0.933   4.939   0.028
 4835TIP3    H114511   0.931   5.034   0.037
 4835TIP3    H214512   1.017   4.913   0.066
 4836TIP3   OH214513   3.041   3.611   3.763
 4836TIP3    H114514   3.055   3.675   3.693
 4836TIP3    H214515   3.125   3.605   3.807
 4837TIP3   OH214516   3.496   3.734   2.120
 4837TIP3    H114517   3.572   3.777   2.082
 4837TIP3    H214518   3.422   3.788   2.095
 4838TIP3   OH214519   2.530   2.387   2.921
 4838TIP3    H114520   2.613   2.351   2.951
 4838TIP3    H214521   2.512   2.344   2.838
 4839TIP3   OH214522   3.294   3.018   0.744
 4839TIP3    H114523   3.372   3.074   0.736
 4839TIP3    H214524   3.319   2.951   0.807
 4840TIP3   OH214525   5.827   4.927   4.765
 4840TIP3    H114526   5.811   4.987   4.839
 4840TIP3    H214527   5.858   4.984   4.695
 4841TIP3   OH214528   5.719   5.882   3.019
 4841TIP3    H114529   5.746   5.794   3.045
 4841TIP3    H214530   5.640   5.869   2.967
 4842TIP3   OH214531   4.673   2.675   3.153
 4842TIP3    H114532   4.688   2.611   3.222
 4842TIP3    H214533   4.723   2.752   3.180
 4843TIP3   OH214534   5.549   2.129   3.949
 4843TIP3    H114535   5.611   2.082   3.895
 4843TIP3    H214536   5.492   2.175   3.887
 4844TIP3   OH214537   1.119   5.643   1.892
 4844TIP3    H114538   1.201   5.690   1.899
 4844TIP3    H214539   1.144   5.550   1.894
 4845TIP3   OH214540   4.928   3.878   2.071
 4845TIP3    H114541   4.949   3.795   2.028
 4845TIP3    H214542   4.836   3.893   2.050
 4846TIP3   OH214543   2.503   0.778   3.456
 4846TIP3    H114544   2.430   0.809   3.403
 4846TIP3    H214545   2.579   0.826   3.423
 4847TIP3   OH214546   3.213   4.343   0.911
 4847TIP3    H114547   3.141   4.287   0.941
 4847TIP3    H214548   3.181   4.381   0.829
 4848TIP3   OH214549   1.751   4.917   1.679
 4848TIP3    H114550   1.766   4.989   1.617
 4848TIP3    H214551   1.826   4.859   1.666
 4849TIP3   OH214552   6.231   1.505   1.831
 4849TIP3    H114553   6.326   1.508   1.842
 4849TIP3    H214554   6.216   1.443   1.760
 4850TIP3   OH214555   2.914   3.425   3.560
 4850TIP3    H114556   2.904   3.424   3.465
 4850TIP3    H214557   2.969   3.502   3.578
 4851TIP3   OH214558   2.955   1.071   3.679
 4851TIP3    H114559   2.949   1.095   3.771
 4851TIP3    H214560   3.033   1.117   3.647
 4852TIP3   OH214561   2.669   4.902   0.632
 4852TIP3    H114562   2.638   4.913   0.542
 4852TIP3    H214563   2.756   4.941   0.633
 4853TIP3   OH214564   0.366   5.996   2.106
 4853TIP3    H114565   0.446   5.955   2.138
 4853TIP3    H214566   0.297   5.960   2.162
 4854TIP3   OH214567   2.526   5.065   3.154
 4854TIP3    H114568   2.480   5.147   3.172
 4854TIP3    H214569   2.477   5.026   3.081
 4855TIP3   OH214570   3.762   1.052   0.144
 4855TIP3    H114571   3.758   0.957   0.152
 4855TIP3    H214572   3.853   1.074   0.164
 4856TIP3   OH214573   4.290   4.759   3.002
 4856TIP3    H114574   4.337   4.774   2.921
 4856TIP3    H214575   4.337   4.811   3.068
 4857TIP3   OH214576   4.764   4.613   3.079
 4857TIP3    H114577   4.822   4.685   3.103
 4857TIP3    H214578   4.678   4.640   3.110
 4858TIP3   OH214579   1.791   2.182   3.570
 4858TIP3    H114580   1.813   2.167   3.478
 4858TIP3    H214581   1.705   2.141   3.581
 4859TIP3   OH214582   5.076   1.201   4.893
 4859TIP3    H114583   5.160   1.246   4.884
 4859TIP3    H214584   5.023   1.234   4.820
 4860TIP3   OH214585   5.448   4.926   4.664
 4860TIP3    H114586   5.387   4.857   4.640
 4860TIP3    H214587   5.530   4.880   4.683
 4861TIP3   OH214588   4.796   1.221   4.385
 4861TIP3    H114589   4.785   1.191   4.294
 4861TIP3    H214590   4.868   1.283   4.381
 4862TIP3   OH214591   0.626   2.915   1.623
 4862TIP3    H114592   0.677   2.990   1.655
 4862TIP3    H214593   0.648   2.843   1.682
 4863TIP3   OH214594   0.307   1.327   1.895
 4863TIP3    H114595   0.323   1.319   1.989
 4863TIP3    H214596   0.393   1.347   1.857
 4864TIP3   OH214597   4.543   1.647   1.042
 4864TIP3    H114598   4.553   1.557   1.014
 4864TIP3    H214599   4.628   1.688   1.024
 4865TIP3   OH214600   0.695   5.685   3.172
 4865TIP3    H114601   0.711   5.628   3.247
 4865TIP3    H214602   0.629   5.639   3.121
 4866TIP3   OH214603   5.100   2.005   4.170
 4866TIP3    H114604   5.095   2.098   4.192
 4866TIP3    H214605   5.045   1.962   4.236
 4867TIP3   OH214606   2.412   0.984   4.640
 4867TIP3    H114607   2.366   0.940   4.712
 4867TIP3    H214608   2.482   1.033   4.683
 4868TIP3   OH214609   5.744   2.253   0.212
 4868TIP3    H114610   5.772   2.280   0.300
 4868TIP3    H214611   5.655   2.285   0.204
 4869TIP3   OH214612   4.603   5.490   1.099
 4869TIP3    H114613   4.552   5.497   1.180
 4869TIP3    H214614   4.619   5.581   1.073
 4870TIP3   OH214615   5.227   3.817   1.966
 4870TIP3    H114616   5.232   3.722   1.982
 4870TIP3    H214617   5.206   3.854   2.051
 4871TIP3   OH214618   5.009   2.949   2.037
 4871TIP3    H114619   4.963   3.025   2.072
 4871TIP3    H214620   4.940   2.894   1.999
 4872TIP3   OH214621   1.091   2.754   1.122
 4872TIP3    H114622   1.046   2.673   1.096
 4872TIP3    H214623   1.022   2.809   1.158
 4873TIP3   OH214624   3.766   3.207   0.768
 4873TIP3    H114625   3.806   3.129   0.807
 4873TIP3    H214626   3.747   3.182   0.677
 4874TIP3   OH214627   5.048   0.519   0.731
 4874TIP3    H114628   4.977   0.575   0.700
 4874TIP3    H214629   5.051   0.534   0.826
 4875TIP3   OH214630   4.442   0.513   3.085
 4875TIP3    H114631   4.355   0.523   3.125
 4875TIP3    H214632   4.447   0.420   3.061
 4876TIP3   OH214633   2.103   0.914   0.829
 4876TIP3    H114634   2.128   0.894   0.919
 4876TIP3    H214635   2.030   0.976   0.838
 4877TIP3   OH214636   2.044   5.240   0.619
 4877TIP3    H114637   1.984   5.314   0.613
 4877TIP3    H214638   2.131   5.280   0.629
 4878TIP3   OH214639   2.688   4.994   1.204
 4878TIP3    H114640   2.721   4.980   1.115
 4878TIP3    H214641   2.699   5.088   1.220
 4879TIP3   OH214642   5.530   5.800   1.270
 4879TIP3    H114643   5.557   5.844   1.351
 4879TIP3    H214644   5.539   5.707   1.289
 4880TIP3   OH214645   4.888   2.132   3.685
 4880TIP3    H114646   4.918   2.120   3.595
 4880TIP3    H214647   4.798   2.101   3.684
 4881TIP3   OH214648   4.796   0.831   1.907
 4881TIP3    H114649   4.890   0.816   1.912
 4881TIP3    H214650   4.770   0.856   1.995
 4882TIP3   OH214651   1.685   5.649   2.130
 4882TIP3    H114652   1.700   5.743   2.120
 4882TIP3    H214653   1.764   5.617   2.175
 4883TIP3   OH214654   5.396   3.035   5.101
 4883TIP3    H114655   5.428   3.066   5.186
 4883TIP3    H214656   5.316   3.085   5.086
 4884TIP3   OH214657   4.511   4.187   2.250
 4884TIP3    H114658   4.579   4.123   2.270
 4884TIP3    H214659   4.491   4.228   2.335
 4885TIP3   OH214660   5.898   2.421   4.905
 4885TIP3    H114661   5.889   2.404   4.999
 4885TIP3    H214662   5.920   2.335   4.868
 4886TIP3   OH214663   4.611   1.604   4.014
 4886TIP3    H114664   4.520   1.586   4.036
 4886TIP3    H214665   4.640   1.525   3.967
 4887TIP3   OH214666   6.136   2.511   2.050
 4887TIP3    H114667   6.103   2.579   2.108
 4887TIP3    H214668   6.159   2.556   1.969
 4888TIP3   OH214669   1.299   0.665   4.418
 4888TIP3    H114670   1.291   0.651   4.324
 4888TIP3    H214671   1.365   0.602   4.446
 4889TIP3   OH214672   2.969   0.770   2.634
 4889TIP3    H114673   3.021   0.690   2.640
 4889TIP3    H214674   2.940   0.787   2.724
 4890TIP3   OH214675   1.791   5.468   4.549
 4890TIP3    H114676   1.711   5.509   4.581
 4890TIP3    H214677   1.769   5.434   4.462
 4891TIP3   OH214678   3.899   1.660   5.173
 4891TIP3    H114679   3.868   1.728   5.232
 4891TIP3    H214680   3.856   1.678   5.089
 4892TIP3   OH214681   3.362   4.352   3.232
 4892TIP3    H114682   3.306   4.368   3.308
 4892TIP3    H214683   3.449   4.335   3.269
 4893TIP3   OH214684   1.734   2.371   1.768
 4893TIP3    H114685   1.676   2.355   1.843
 4893TIP3    H214686   1.685   2.337   1.693
 4894TIP3   OH214687   3.576   5.422   5.143
 4894TIP3    H114688   3.656   5.371   5.156
 4894TIP3    H214689   3.587   5.461   5.056
 4895TIP3   OH214690   0.236   0.802   0.880
 4895TIP3    H114691   0.319   0.775   0.841
 4895TIP3    H214692   0.258   0.822   0.971
 4896TIP3   OH214693   3.448   1.592   4.650
 4896TIP3    H114694   3.520   1.633   4.603
 4896TIP3    H214695   3.480   1.505   4.673
 4897TIP3   OH214696   4.117   3.717   4.003
 4897TIP3    H114697   4.176   3.785   3.970
 4897TIP3    H214698   4.042   3.719   3.943
 4898TIP3   OH214699   3.775   4.362   1.715
 4898TIP3    H114700   3.733   4.374   1.630
 4898TIP3    H214701   3.867   4.380   1.700
 4899TIP3   OH214702   4.986   5.544   2.971
 4899TIP3    H114703   4.972   5.598   2.893
 4899TIP3    H214704   5.080   5.525   2.970
 4900TIP3   OH214705   5.030   2.078   2.605
 4900TIP3    H114706   4.957   2.041   2.555
 4900TIP3    H214707   4.989   2.139   2.666
 4901TIP3   OH214708   5.377   3.851   4.346
 4901TIP3    H114709   5.296   3.802   4.334
 4901TIP3    H214710   5.351   3.928   4.397
 4902TIP3   OH214711   1.933   1.116   3.897
 4902TIP3    H114712   2.008   1.159   3.856
 4902TIP3    H214713   1.859   1.175   3.882
 4903TIP3   OH214714   0.770   5.008   2.141
 4903TIP3    H114715   0.850   5.054   2.168
 4903TIP3    H214716   0.731   4.979   2.223
 4904TIP3   OH214717   4.068   3.602   1.672
 4904TIP3    H114718   4.057   3.654   1.593
 4904TIP3    H214719   4.150   3.633   1.710
 4905TIP3   OH214720   5.677   5.441   4.276
 4905TIP3    H114721   5.599   5.488   4.305
 4905TIP3    H214722   5.724   5.504   4.221
 4906TIP3   OH214723   4.630   4.094   0.036
 4906TIP3    H114724   4.632   4.176   0.086
 4906TIP3    H214725   4.581   4.034   0.092
 4907TIP3   OH214726   0.689   3.056   3.656
 4907TIP3    H114727   0.628   2.984   3.675
 4907TIP3    H214728   0.673   3.120   3.726
 4908TIP3   OH214729   4.474   5.822   3.685
 4908TIP3    H114730   4.445   5.793   3.772
 4908TIP3    H214731   4.404   5.795   3.626
 4909TIP3   OH214732   0.162   1.985   1.011
 4909TIP3    H114733   0.236   1.947   1.058
 4909TIP3    H214734   0.106   1.911   0.989
 4910TIP3   OH214735   5.634   2.245   2.253
 4910TIP3    H114736   5.673   2.280   2.333
 4910TIP3    H214737   5.576   2.175   2.283
 4911TIP3   OH214738   1.758   5.500   0.294
 4911TIP3    H114739   1.847   5.497   0.329
 4911TIP3    H214740   1.719   5.416   0.322
 4912TIP3   OH214741   2.932   0.422   3.002
 4912TIP3    H114742   2.849   0.406   2.957
 4912TIP3    H214743   2.939   0.350   3.065
 4913TIP3   OH214744   2.506   0.329   0.531
 4913TIP3    H114745   2.572   0.366   0.590
 4913TIP3    H214746   2.469   0.405   0.486
 4914TIP3   OH214747   2.465   5.140   1.359
 4914TIP3    H114748   2.552   5.151   1.322
 4914TIP3    H214749   2.410   5.116   1.285
 4915TIP3   OH214750   4.786   5.056   0.900
 4915TIP3    H114751   4.844   5.027   0.971
 4915TIP3    H214752   4.725   5.116   0.942
 4916TIP3   OH214753   2.227   2.493   4.128
 4916TIP3    H114754   2.310   2.445   4.127
 4916TIP3    H214755   2.180   2.459   4.051
 4917TIP3   OH214756   1.051   0.080   3.032
 4917TIP3    H114757   0.959   0.102   3.043
 4917TIP3    H214758   1.093   0.162   3.007
 4918TIP3   OH214759   4.998  -0.001   0.499
 4918TIP3    H114760   4.997   0.093   0.481
 4918TIP3    H214761   4.943  -0.011   0.576
 4919TIP3   OH214762   0.067   0.893   3.890
 4919TIP3    H114763   0.104   0.945   3.819
 4919TIP3    H214764   0.127   0.820   3.901
 4920TIP3   OH214765   3.514   4.706   5.120
 4920TIP3    H114766   3.567   4.645   5.171
 4920TIP3    H214767   3.499   4.780   5.179
 4921TIP3   OH214768   3.649   4.247   3.250
 4921TIP3    H114769   3.612   4.199   3.324
 4921TIP3    H214770   3.742   4.222   3.249
 4922TIP3   OH214771   4.126   4.441   0.891
 4922TIP3    H114772   4.164   4.523   0.923
 4922TIP3    H214773   4.108   4.391   0.971
 4923TIP3   OH214774   3.564   2.011   5.180
 4923TIP3    H114775   3.566   1.916   5.182
 4923TIP3    H214776   3.597   2.034   5.093
 4924TIP3   OH214777   2.593   2.166   0.917
 4924TIP3    H114778   2.525   2.224   0.885
 4924TIP3    H214779   2.666   2.223   0.938
 4925TIP3   OH214780   4.776   1.933   1.140
 4925TIP3    H114781   4.828   1.860   1.105
 4925TIP3    H214782   4.758   1.908   1.230
 4926TIP3   OH214783   3.773   5.144   0.996
 4926TIP3    H114784   3.753   5.156   1.089
 4926TIP3    H214785   3.848   5.201   0.980
 4927TIP3   OH214786   3.049   4.574   3.331
 4927TIP3    H114787   2.970   4.594   3.382
 4927TIP3    H214788   3.099   4.513   3.386
 4928TIP3   OH214789   3.287   5.554   2.542
 4928TIP3    H114790   3.248   5.555   2.455
 4928TIP3    H214791   3.336   5.636   2.548
 4929TIP3   OH214792   4.810   4.036   2.517
 4929TIP3    H114793   4.783   3.979   2.589
 4929TIP3    H214794   4.781   4.123   2.543
 4930TIP3   OH214795   5.682   4.451   2.784
 4930TIP3    H114796   5.716   4.362   2.795
 4930TIP3    H214797   5.684   4.488   2.872
 4931TIP3   OH214798   1.706   3.635   3.516
 4931TIP3    H114799   1.790   3.680   3.512
 4931TIP3    H214800   1.642   3.705   3.530
 4932TIP3   OH214801   3.132   4.983   0.757
 4932TIP3    H114802   3.205   5.013   0.811
 4932TIP3    H214803   3.098   4.906   0.802
 4933TIP3   OH214804   3.252   3.198   0.005
 4933TIP3    H114805   3.201   3.124   0.039
 4933TIP3    H214806   3.217   3.212  -0.083
 4934TIP3   OH214807   1.970   3.405   3.411
 4934TIP3    H114808   1.916   3.461   3.356
 4934TIP3    H214809   2.060   3.433   3.391
 4935TIP3   OH214810   2.451   0.273   2.066
 4935TIP3    H114811   2.470   0.189   2.106
 4935TIP3    H214812   2.415   0.252   1.980
 4936TIP3   OH214813   5.514   3.617   2.153
 4936TIP3    H114814   5.581   3.555   2.123
 4936TIP3    H214815   5.436   3.593   2.103
 4937TIP3   OH214816   0.861   3.320   1.050
 4937TIP3    H114817   0.833   3.293   1.138
 4937TIP3    H214818   0.953   3.295   1.047
 4938TIP3   OH214819   0.372   5.669   2.066
 4938TIP3    H114820   0.350   5.672   2.159
 4938TIP3    H214821   0.464   5.697   2.063
 4939TIP3   OH214822   1.797   5.838   3.177
 4939TIP3    H114823   1.718   5.889   3.195
 4939TIP3    H214824   1.864   5.903   3.159
 4940TIP3   OH214825   1.551   3.513   1.592
 4940TIP3    H114826   1.579   3.492   1.682
 4940TIP3    H214827   1.511   3.599   1.599
 4941TIP3   OH214828   5.292   1.578   1.005
 4941TIP3    H114829   5.289   1.550   0.913
 4941TIP3    H214830   5.218   1.639   1.013
 4942TIP3   OH214831   4.162   1.437   0.536
 4942TIP3    H114832   4.077   1.425   0.493
 4942TIP3    H214833   4.210   1.497   0.479
 4943TIP3   OH214834   3.035   5.487   3.465
 4943TIP3    H114835   2.955   5.535   3.447
 4943TIP3    H214836   3.013   5.428   3.538
 4944TIP3   OH214837   3.096   0.067   1.663
 4944TIP3    H114838   3.180   0.060   1.617
 4944TIP3    H214839   3.101   0.000   1.731
 4945TIP3   OH214840   0.368   4.463   3.191
 4945TIP3    H114841   0.448   4.413   3.210
 4945TIP3    H214842   0.319   4.406   3.131
 4946TIP3   OH214843   1.455   4.162   1.997
 4946TIP3    H114844   1.436   4.224   2.068
 4946TIP3    H214845   1.404   4.194   1.923
 4947TIP3   OH214846   4.916   4.251   0.294
 4947TIP3    H114847   4.976   4.263   0.220
 4947TIP3    H214848   4.850   4.319   0.283
 4948TIP3   OH214849   2.865   1.088   3.403
 4948TIP3    H114850   2.817   1.167   3.379
 4948TIP3    H214851   2.879   1.095   3.497
 4949TIP3   OH214852   2.093   4.373   1.112
 4949TIP3    H114853   2.097   4.397   1.205
 4949TIP3    H214854   2.113   4.280   1.110
 4950TIP3   OH214855   2.041   0.786   1.219
 4950TIP3    H114856   1.970   0.726   1.194
 4950TIP3    H214857   2.023   0.806   1.311
 4951TIP3   OH214858   5.033   3.761   3.264
 4951TIP3    H114859   5.085   3.683   3.283
 4951TIP3    H214860   4.945   3.728   3.247
 4952TIP3   OH214861   4.401   2.290   1.307
 4952TIP3    H114862   4.482   2.265   1.263
 4952TIP3    H214863   4.412   2.259   1.397
 4953TIP3   OH214864   2.085   3.877   5.100
 4953TIP3    H114865   2.128   3.864   5.184
 4953TIP3    H214866   2.140   3.830   5.037
 4954TIP3   OH214867   0.244   0.406   3.682
 4954TIP3    H114868   0.199   0.387   3.765
 4954TIP3    H214869   0.275   0.496   3.692
 4955TIP3   OH214870   1.094   3.961   0.132
 4955TIP3    H114871   1.034   4.033   0.150
 4955TIP3    H214872   1.098   3.957   0.036
 4956TIP3   OH214873   5.436   5.686   2.997
 4956TIP3    H114874   5.357   5.712   3.045
 4956TIP3    H214875   5.409   5.684   2.905
 4957TIP3   OH214876   0.291   4.935   4.474
 4957TIP3    H114877   0.235   5.011   4.458
 4957TIP3    H214878   0.298   4.930   4.569
 4958TIP3   OH214879   5.220   5.295   2.518
 4958TIP3    H114880   5.242   5.314   2.427
 4958TIP3    H214881   5.260   5.366   2.569
 4959TIP3   OH214882   1.936   4.406   0.237
 4959TIP3    H114883   1.989   4.382   0.161
 4959TIP3    H214884   1.852   4.434   0.201
 4960TIP3   OH214885   4.892   1.559   2.485
 4960TIP3    H114886   4.880   1.594   2.573
 4960TIP3    H214887   4.968   1.502   2.491
 4961TIP3   OH214888   5.564   5.709   4.104
 4961TIP3    H114889   5.653   5.712   4.140
 4961TIP3    H214890   5.507   5.709   4.181
 4962TIP3   OH214891   4.207   5.345   4.796
 4962TIP3    H114892   4.256   5.387   4.725
 4962TIP3    H214893   4.133   5.302   4.752
 4963TIP3   OH214894   0.578   4.958   3.277
 4963TIP3    H114895   0.598   4.873   3.237
 4963TIP3    H214896   0.659   5.008   3.268
 4964TIP3   OH214897   2.521   4.628   3.375
 4964TIP3    H114898   2.476   4.562   3.322
 4964TIP3    H214899   2.456   4.697   3.388
 4965TIP3   OH214900   4.208   2.224   1.090
 4965TIP3    H114901   4.281   2.240   1.150
 4965TIP3    H214902   4.239   2.257   1.006
 4966TIP3   OH214903   1.271   4.643   4.770
 4966TIP3    H114904   1.206   4.586   4.730
 4966TIP3    H214905   1.231   4.674   4.851
 4967TIP3   OH214906   2.179   5.892   4.968
 4967TIP3    H114907   2.088   5.914   4.989
 4967TIP3    H214908   2.192   5.804   5.003
 4968TIP3   OH214909   3.441   0.182   2.074
 4968TIP3    H114910   3.423   0.276   2.069
 4968TIP3    H214911   3.526   0.172   2.031
 4969TIP3   OH214912   4.562   5.560   4.980
 4969TIP3    H114913   4.625   5.632   4.989
 4969TIP3    H214914   4.567   5.513   5.063
 4970TIP3   OH214915   1.781   2.723   2.539
 4970TIP3    H114916   1.698   2.745   2.498
 4970TIP3    H214917   1.844   2.784   2.502
 4971TIP3   OH214918   6.044   4.916   1.167
 4971TIP3    H114919   5.986   4.959   1.104
 4971TIP3    H214920   6.023   4.823   1.159
 4972TIP3   OH214921   2.225   2.701   1.908
 4972TIP3    H114922   2.216   2.664   1.996
 4972TIP3    H214923   2.165   2.776   1.908
 4973TIP3   OH214924   2.378   3.479   3.905
 4973TIP3    H114925   2.349   3.439   3.823
 4973TIP3    H214926   2.341   3.423   3.973
 4974TIP3   OH214927   1.612   4.012   2.671
 4974TIP3    H114928   1.689   3.957   2.656
 4974TIP3    H214929   1.643   4.083   2.727
 4975TIP3   OH214930   4.237   5.750   1.317
 4975TIP3    H114931   4.168   5.765   1.252
 4975TIP3    H214932   4.218   5.812   1.388
 4976TIP3   OH214933   4.655   3.967   2.311
 4976TIP3    H114934   4.719   3.993   2.377
 4976TIP3    H214935   4.684   3.880   2.284
 4977TIP3   OH214936   3.145   0.189   0.804
 4977TIP3    H114937   3.146   0.117   0.740
 4977TIP3    H214938   3.237   0.202   0.827
 4978TIP3   OH214939   4.610   1.115   2.543
 4978TIP3    H114940   4.597   1.132   2.637
 4978TIP3    H214941   4.619   1.201   2.504
 4979TIP3   OH214942   0.818   2.403   2.519
 4979TIP3    H114943   0.837   2.488   2.479
 4979TIP3    H214944   0.901   2.355   2.513
 4980TIP3   OH214945   4.076   5.679   2.926
 4980TIP3    H114946   4.119   5.724   2.999
 4980TIP3    H214947   4.107   5.725   2.848
 4981TIP3   OH214948   2.014   5.499   0.454
 4981TIP3    H114949   2.066   5.578   0.437
 4981TIP3    H214950   2.035   5.441   0.380
 4982TIP3   OH214951   4.595   4.500   4.800
 4982TIP3    H114952   4.659   4.488   4.870
 4982TIP3    H214953   4.564   4.590   4.811
 4983TIP3   OH214954   0.408   3.169   1.849
 4983TIP3    H114955   0.458   3.113   1.909
 4983TIP3    H214956   0.342   3.111   1.811
 4984TIP3   OH214957   1.805   2.436   2.510
 4984TIP3    H114958   1.818   2.531   2.517
 4984TIP3    H214959   1.712   2.423   2.529
 4985TIP3   OH214960   1.096   5.207   3.864
 4985TIP3    H114961   1.143   5.198   3.947
 4985TIP3    H214962   1.029   5.272   3.881
 4986TIP3   OH214963   5.996   0.489   4.325
 4986TIP3    H114964   5.918   0.525   4.283
 4986TIP3    H214965   6.026   0.421   4.266
 4987TIP3   OH214966   2.174   0.435   1.127
 4987TIP3    H114967   2.220   0.351   1.125
 4987TIP3    H214968   2.102   0.421   1.187
 4988TIP3   OH214969   2.050   1.941   1.831
 4988TIP3    H114970   1.989   1.892   1.884
 4988TIP3    H214971   2.122   1.880   1.814
 4989TIP3   OH214972   0.118   1.198   1.746
 4989TIP3    H114973   0.097   1.115   1.790
 4989TIP3    H214974   0.208   1.217   1.774
 4990TIP3   OH214975   3.997   2.112   2.563
 4990TIP3    H114976   4.051   2.176   2.516
 4990TIP3    H214977   4.060   2.056   2.608
 4991TIP3   OH214978   2.689   1.297   0.460
 4991TIP3    H114979   2.750   1.241   0.412
 4991TIP3    H214980   2.698   1.269   0.551
 4992TIP3   OH214981   6.024   4.433   3.242
 4992TIP3    H114982   5.990   4.476   3.321
 4992TIP3    H214983   6.017   4.340   3.261
 4993TIP3   OH214984   0.136   1.658   3.555
 4993TIP3    H114985   0.196   1.716   3.508
 4993TIP3    H214986   0.108   1.708   3.631
 4994TIP3   OH214987   5.057   0.385   3.458
 4994TIP3    H114988   5.139   0.425   3.489
 4994TIP3    H214989   5.008   0.458   3.419
 4995TIP3   OH214990   4.696   0.659   1.607
 4995TIP3    H114991   4.637   0.711   1.552
 4995TIP3    H214992   4.683   0.692   1.696
 4996TIP3   OH214993   2.231   5.979   2.262
 4996TIP3    H114994   2.317   6.012   2.237
 4996TIP3    H214995   2.211   5.913   2.196
 4997TIP3   OH214996   3.013   0.090   2.140
 4997TIP3    H114997   2.984   0.070   2.051
 4997TIP3    H214998   3.095   0.041   2.150
 4998TIP3   OH214999   2.426   0.098   1.825
 4998TIP3    H115000   2.404   0.021   1.773
 4998TIP3    H215001   2.446   0.063   1.912
 4999TIP3   OH215002   2.417   5.064   3.546
 4999TIP3    H115003   2.339   5.100   3.502
 4999TIP3    H215004   2.396   4.973   3.562
 5000TIP3   OH215005   4.636   2.065   1.877
 5000TIP3    H115006   4.719   2.027   1.906
 5000TIP3    H215007   4.598   2.000   1.819
 5001TIP3   OH215008   0.976   2.721   2.699
 5001TIP3    H115009   1.021   2.766   2.627
 5001TIP3    H215010   0.928   2.649   2.656
 5002TIP3   OH215011   3.419   5.860   2.825
 5002TIP3    H115012   3.487   5.861   2.893
 5002TIP3    H215013   3.389   5.769   2.822
 5003TIP3   OH215014   0.536   0.173   3.367
 5003TIP3    H115015   0.595   0.098   3.379
 5003TIP3    H215016   0.591   0.239   3.325
 5004TIP3   OH215017   4.716   3.112   4.454
 5004TIP3    H115018   4.778   3.161   4.400
 5004TIP3    H215019   4.769   3.077   4.526
 5005TIP3   OH215020   0.917   5.721   4.467
 5005TIP3    H115021   0.970   5.782   4.416
 5005TIP3    H215022   0.949   5.634   4.442
 5006TIP3   OH215023   2.724   4.691   4.697
 5006TIP3    H115024   2.669   4.737   4.634
 5006TIP3    H215025   2.786   4.641   4.644
 5007TIP3   OH215026   0.692   1.744   0.199
 5007TIP3    H115027   0.694   1.676   0.131
 5007TIP3    H215028   0.748   1.813   0.164
 5008TIP3   OH215029   0.391   3.853   2.471
 5008TIP3    H115030   0.356   3.781   2.419
 5008TIP3    H215031   0.476   3.822   2.501
 5009TIP3   OH215032   6.075   0.229   2.380
 5009TIP3    H115033   6.129   0.258   2.453
 5009TIP3    H215034   6.126   0.252   2.302
 5010TIP3   OH215035   4.034   3.884   5.206
 5010TIP3    H115036   4.011   3.908   5.116
 5010TIP3    H215037   4.036   3.789   5.205
 5011TIP3   OH215038   2.054   4.356   2.831
 5011TIP3    H115039   2.083   4.414   2.761
 5011TIP3    H215040   2.129   4.297   2.846
 5012TIP3   OH215041   0.397   4.818   2.169
 5012TIP3    H115042   0.446   4.814   2.087
 5012TIP3    H215043   0.328   4.753   2.159
 5013TIP3   OH215044   1.110   1.685   0.177
 5013TIP3    H115045   1.070   1.667   0.092
 5013TIP3    H215046   1.056   1.637   0.240
 5014TIP3   OH215047   5.025   2.380   3.697
 5014TIP3    H115048   5.096   2.375   3.633
 5014TIP3    H215049   4.957   2.322   3.662
 5015TIP3   OH215050   3.450   4.392   1.241
 5015TIP3    H115051   3.384   4.425   1.180
 5015TIP3    H215052   3.400   4.351   1.311
 5016TIP3   OH215053   2.159   2.468   4.970
 5016TIP3    H115054   2.173   2.542   5.030
 5016TIP3    H215055   2.073   2.485   4.931
 5017TIP3   OH215056   1.456   2.985   3.276
 5017TIP3    H115057   1.374   3.024   3.246
 5017TIP3    H215058   1.468   3.019   3.365
 5018TIP3   OH215059   6.193   3.134   1.385
 5018TIP3    H115060   6.143   3.057   1.358
 5018TIP3    H215061   6.131   3.187   1.435
 5019TIP3   OH215062   5.599   3.344   0.338
 5019TIP3    H115063   5.689   3.326   0.366
 5019TIP3    H215064   5.545   3.321   0.413
 5020TIP3   OH215065   4.884   0.913   3.662
 5020TIP3    H115066   4.914   0.951   3.745
 5020TIP3    H215067   4.882   0.986   3.601
 5021TIP3   OH215068   3.101   0.704   2.262
 5021TIP3    H115069   3.025   0.760   2.247
 5021TIP3    H215070   3.161   0.757   2.313
 5022TIP3   OH215071   0.132   3.661   4.574
 5022TIP3    H115072   0.090   3.680   4.490
 5022TIP3    H215073   0.226   3.658   4.554
 5023TIP3   OH215074   3.658   5.399   2.936
 5023TIP3    H115075   3.623   5.431   2.853
 5023TIP3    H215076   3.599   5.327   2.961
 5024TIP3   OH215077   0.323   2.390   0.540
 5024TIP3    H115078   0.264   2.435   0.480
 5024TIP3    H215079   0.403   2.377   0.489
 5025TIP3   OH215080   2.940   5.354   1.191
 5025TIP3    H115081   2.961   5.281   1.133
 5025TIP3    H215082   2.929   5.429   1.133
 5026TIP3   OH215083   5.800   5.440   4.886
 5026TIP3    H115084   5.733   5.401   4.942
 5026TIP3    H215085   5.751   5.496   4.826
 5027TIP3   OH215086   0.678   0.688   5.007
 5027TIP3    H115087   0.642   0.744   5.076
 5027TIP3    H215088   0.753   0.737   4.973
 5028TIP3   OH215089   1.247   4.605   4.126
 5028TIP3    H115090   1.240   4.513   4.148
 5028TIP3    H215091   1.163   4.643   4.151
 5029TIP3   OH215092   2.685   4.482   1.265
 5029TIP3    H115093   2.704   4.539   1.339
 5029TIP3    H215094   2.594   4.454   1.278
 5030TIP3   OH215095   2.447   1.367   0.257
 5030TIP3    H115096   2.510   1.342   0.325
 5030TIP3    H215097   2.497   1.420   0.196
 5031TIP3   OH215098   5.219   2.639   1.543
 5031TIP3    H115099   5.234   2.649   1.449
 5031TIP3    H215100   5.136   2.591   1.549
 5032TIP3   OH215101   2.251   3.146   1.662
 5032TIP3    H115102   2.286   3.225   1.704
 5032TIP3    H215103   2.277   3.075   1.721
 5033TIP3   OH215104   5.669   1.703   0.360
 5033TIP3    H115105   5.666   1.782   0.306
 5033TIP3    H215106   5.704   1.733   0.444
 5034TIP3   OH215107   3.264   5.666   3.487
 5034TIP3    H115108   3.177   5.626   3.477
 5034TIP3    H215109   3.251   5.756   3.456
 5035TIP3   OH215110   0.566   5.686   1.710
 5035TIP3    H115111   0.621   5.676   1.787
 5035TIP3    H215112   0.519   5.603   1.702
 5036TIP3   OH215113   5.691   2.331   5.113
 5036TIP3    H115114   5.664   2.423   5.113
 5036TIP3    H215115   5.781   2.333   5.146
 5037TIP3   OH215116   3.845   5.585   3.041
 5037TIP3    H115117   3.762   5.554   3.005
 5037TIP3    H215118   3.896   5.613   2.965
 5038TIP3   OH215119   5.977   2.545   2.567
 5038TIP3    H115120   5.925   2.590   2.501
 5038TIP3    H215121   6.007   2.614   2.626
 5039TIP3   OH215122   2.547   2.739   4.687
 5039TIP3    H115123   2.570   2.765   4.598
 5039TIP3    H215124   2.631   2.731   4.733
 5040TIP3   OH215125   0.573   4.405   4.057
 5040TIP3    H115126   0.482   4.376   4.045
 5040TIP3    H215127   0.624   4.324   4.050
 5041TIP3   OH215128   2.953   3.510   2.152
 5041TIP3    H115129   3.018   3.463   2.203
 5041TIP3    H215130   2.903   3.442   2.108
 5042TIP3   OH215131   5.899   4.829   2.030
 5042TIP3    H115132   5.974   4.781   1.995
 5042TIP3    H215133   5.898   4.910   1.980
 5043TIP3   OH215134   4.532   5.810   0.643
 5043TIP3    H115135   4.440   5.790   0.660
 5043TIP3    H215136   4.560   5.745   0.580
 5044TIP3   OH215137   0.832   4.764   0.672
 5044TIP3    H115138   0.743   4.788   0.645
 5044TIP3    H215139   0.848   4.680   0.629
 5045TIP3   OH215140   0.488   4.703   1.915
 5045TIP3    H115141   0.411   4.648   1.932
 5045TIP3    H215142   0.560   4.658   1.960
 5046TIP3   OH215143   2.850   3.721   0.591
 5046TIP3    H115144   2.796   3.679   0.658
 5046TIP3    H215145   2.936   3.733   0.632
 5047TIP3   OH215146   1.572   3.211   1.212
 5047TIP3    H115147   1.557   3.302   1.187
 5047TIP3    H215148   1.494   3.187   1.262
 5048TIP3   OH215149   1.979   0.897   4.958
 5048TIP3    H115150   2.037   0.941   4.895
 5048TIP3    H215151   1.916   0.850   4.903
 5049TIP3   OH215152   5.553   0.843   0.413
 5049TIP3    H115153   5.496   0.810   0.344
 5049TIP3    H215154   5.602   0.914   0.371
 5050TIP3   OH215155   3.765   0.087   3.968
 5050TIP3    H115156   3.677   0.088   4.006
 5050TIP3    H215157   3.821   0.056   4.039
 5051TIP3   OH215158   3.657   1.888   1.670
 5051TIP3    H115159   3.734   1.841   1.639
 5051TIP3    H215160   3.583   1.844   1.628
 5052TIP3   OH215161   1.715   4.887   4.569
 5052TIP3    H115162   1.791   4.946   4.570
 5052TIP3    H215163   1.644   4.940   4.535
 5053TIP3   OH215164   3.482   4.176   0.414
 5053TIP3    H115165   3.528   4.250   0.373
 5053TIP3    H215166   3.393   4.209   0.430
 5054TIP3   OH215167   3.556   5.250   0.847
 5054TIP3    H115168   3.637   5.206   0.873
 5054TIP3    H215169   3.554   5.243   0.752
 5055TIP3   OH215170   1.452   3.237   1.780
 5055TIP3    H115171   1.410   3.183   1.847
 5055TIP3    H215172   1.494   3.308   1.829
 5056TIP3   OH215173   3.247   1.692   0.663
 5056TIP3    H115174   3.200   1.662   0.741
 5056TIP3    H215175   3.189   1.673   0.590
 5057TIP3   OH215176   4.860   0.054   5.043
 5057TIP3    H115177   4.812  -0.017   5.085
 5057TIP3    H215178   4.909   0.095   5.115
 5058TIP3   OH215179   3.584   1.057   1.356
 5058TIP3    H115180   3.597   0.996   1.428
 5058TIP3    H215181   3.531   1.009   1.292
 5059TIP3   OH215182   4.695   5.040   3.094
 5059TIP3    H115183   4.744   4.959   3.111
 5059TIP3    H215184   4.762   5.107   3.081
 5060TIP3   OH215185   6.355   2.962   1.697
 5060TIP3    H115186   6.342   2.971   1.603
 5060TIP3    H215187   6.266   2.955   1.733
 5061TIP3   OH215188   3.793   5.439   1.331
 5061TIP3    H115189   3.816   5.369   1.391
 5061TIP3    H215190   3.769   5.512   1.387
 5062TIP3   OH215191   0.982   5.437   0.223
 5062TIP3    H115192   1.002   5.398   0.308
 5062TIP3    H215193   1.067   5.451   0.182
 5063TIP3   OH215194   3.016   0.811   4.007
 5063TIP3    H115195   3.086   0.776   3.952
 5063TIP3    H215196   3.025   0.764   4.090
 5064TIP3   OH215197   3.537   1.816   0.141
 5064TIP3    H115198   3.459   1.775   0.104
 5064TIP3    H215199   3.608   1.756   0.120
 5065TIP3   OH215200   3.730   1.626   0.103
 5065TIP3    H115201   3.714   1.532   0.116
 5065TIP3    H215202   3.825   1.635   0.113
 5066TIP3   OH215203   4.109   5.464   1.297
 5066TIP3    H115204   4.014   5.467   1.287
 5066TIP3    H215205   4.128   5.528   1.366
 5067TIP3   OH215206   2.010   4.029   2.885
 5067TIP3    H115207   1.990   3.941   2.916
 5067TIP3    H215208   1.925   4.068   2.865
 5068TIP3   OH215209   5.577   2.587   3.234
 5068TIP3    H115210   5.540   2.540   3.308
 5068TIP3    H215211   5.571   2.679   3.258
 5069TIP3   OH215212   4.698   3.300   4.159
 5069TIP3    H115213   4.746   3.301   4.241
 5069TIP3    H215214   4.700   3.391   4.129
 5070TIP3   OH215215   5.556   4.909   3.926
 5070TIP3    H115216   5.516   4.856   3.994
 5070TIP3    H215217   5.551   4.854   3.847
 5071TIP3   OH215218   3.625   0.103   0.991
 5071TIP3    H115219   3.545   0.078   0.945
 5071TIP3    H215220   3.619   0.198   0.998
 5072TIP3   OH215221   1.424   1.737   1.249
 5072TIP3    H115222   1.441   1.812   1.191
 5072TIP3    H215223   1.462   1.762   1.333
 5073TIP3   OH215224   5.576   0.287   2.803
 5073TIP3    H115225   5.522   0.210   2.785
 5073TIP3    H215226   5.665   0.254   2.808
 5074TIP3   OH215227   4.623   0.370   4.643
 5074TIP3    H115228   4.544   0.361   4.589
 5074TIP3    H215229   4.631   0.287   4.689
 5075TIP3   OH215230   3.616   4.073   0.651
 5075TIP3    H115231   3.592   4.060   0.559
 5075TIP3    H215232   3.575   4.156   0.675
 5076TIP3   OH215233   3.571   0.823   1.539
 5076TIP3    H115234   3.599   0.745   1.490
 5076TIP3    H215235   3.492   0.795   1.585
 5077TIP3   OH215236   3.058   2.846   2.777
 5077TIP3    H115237   3.133   2.860   2.719
 5077TIP3    H215238   3.001   2.922   2.762
 5078TIP3   OH215239   1.971   1.419   2.619
 5078TIP3    H115240   1.954   1.325   2.627
 5078TIP3    H215241   1.911   1.459   2.682
 5079TIP3   OH215242   5.976   4.664   3.441
 5079TIP3    H115243   5.899   4.609   3.431
 5079TIP3    H215244   5.945   4.742   3.488
 5080TIP3   OH215245   3.893   5.579   5.151
 5080TIP3    H115246   3.951   5.609   5.222
 5080TIP3    H215247   3.934   5.498   5.120
 5081TIP3   OH215248   5.367   1.098   2.904
 5081TIP3    H115249   5.337   1.023   2.954
 5081TIP3    H215250   5.458   1.079   2.882
 5082TIP3   OH215251   2.097   5.199   1.570
 5082TIP3    H115252   2.101   5.294   1.561
 5082TIP3    H215253   2.187   5.173   1.590
 5083TIP3   OH215254   0.441   1.903   0.299
 5083TIP3    H115255   0.506   1.832   0.293
 5083TIP3    H215256   0.488   1.975   0.341
 5084TIP3   OH215257   2.456   5.443   2.875
 5084TIP3    H115258   2.401   5.521   2.871
 5084TIP3    H215259   2.543   5.475   2.898
 5085TIP3   OH215260   4.985   2.074   0.644
 5085TIP3    H115261   5.010   2.022   0.720
 5085TIP3    H215262   5.059   2.133   0.630
 5086TIP3   OH215263   3.515   2.187   3.769
 5086TIP3    H115264   3.537   2.202   3.677
 5086TIP3    H215265   3.427   2.222   3.779
 5087TIP3   OH215266   1.396   3.041   2.437
 5087TIP3    H115267   1.384   3.133   2.461
 5087TIP3    H215268   1.384   3.039   2.342
 5088TIP3   OH215269   4.146   3.863   0.706
 5088TIP3    H115270   4.105   3.940   0.746
 5088TIP3    H215271   4.124   3.869   0.613
 5089TIP3   OH215272   5.844   0.820   4.847
 5089TIP3    H115273   5.931   0.786   4.830
 5089TIP3    H215274   5.853   0.915   4.840
 5090TIP3   OH215275   0.049   4.384   4.045
 5090TIP3    H115276   0.025   4.305   4.094
 5090TIP3    H215277   0.125   4.357   3.993
 5091TIP3   OH215278   1.580   2.178   5.093
 5091TIP3    H115279   1.559   2.270   5.074
 5091TIP3    H215280   1.614   2.180   5.183
 5092TIP3   OH215281   0.885   0.897   2.538
 5092TIP3    H115282   0.941   0.852   2.476
 5092TIP3    H215283   0.812   0.836   2.553
 5093TIP3   OH215284   2.911   0.770   0.229
 5093TIP3    H115285   2.891   0.683   0.193
 5093TIP3    H215286   2.841   0.826   0.196
 5094TIP3   OH215287   2.717   3.602   4.153
 5094TIP3    H115288   2.740   3.691   4.177
 5094TIP3    H215289   2.782   3.576   4.088
 5095TIP3   OH215290   2.008   4.057   1.810
 5095TIP3    H115291   1.980   4.143   1.841
 5095TIP3    H215292   1.961   3.995   1.866
 5096TIP3   OH215293   6.202   5.861   3.008
 5096TIP3    H115294   6.216   5.781   3.057
 5096TIP3    H215295   6.275   5.865   2.946
 5097TIP3   OH215296   2.856   4.431   2.944
 5097TIP3    H115297   2.922   4.374   2.985
 5097TIP3    H215298   2.791   4.370   2.909
 5098TIP3   OH215299   4.688   1.927   0.350
 5098TIP3    H115300   4.780   1.900   0.343
 5098TIP3    H215301   4.680   1.963   0.438
 5099TIP3   OH215302   0.879   5.211   2.370
 5099TIP3    H115303   0.793   5.194   2.409
 5099TIP3    H215304   0.907   5.294   2.408
 5100TIP3   OH215305   0.262   4.439   3.684
 5100TIP3    H115306   0.194   4.425   3.618
 5100TIP3    H215307   0.241   4.524   3.721
 5101TIP3   OH215308   0.253   2.953   1.093
 5101TIP3    H115309   0.211   2.870   1.119
 5101TIP3    H215310   0.220   2.969   1.005
 5102TIP3   OH215311   3.434   4.368   2.387
 5102TIP3    H115312   3.503   4.346   2.449
 5102TIP3    H215313   3.478   4.416   2.317
 5103TIP3   OH215314   1.061   5.191   4.980
 5103TIP3    H115315   1.059   5.210   5.074
 5103TIP3    H215316   0.972   5.208   4.951
 5104TIP3   OH215317   4.557   3.041   2.037
 5104TIP3    H115318   4.578   3.129   2.005
 5104TIP3    H215319   4.475   3.052   2.084
 5105TIP3   OH215320   2.184   2.241   2.529
 5105TIP3    H115321   2.090   2.232   2.515
 5105TIP3    H215322   2.215   2.152   2.546
 5106TIP3   OH215323   1.562   5.478   1.196
 5106TIP3    H115324   1.649   5.497   1.160
 5106TIP3    H215325   1.502   5.521   1.135
 5107TIP3   OH215326   4.514   0.847   3.371
 5107TIP3    H115327   4.509   0.779   3.438
 5107TIP3    H215328   4.515   0.799   3.288
 5108TIP3   OH215329   5.627   5.160   0.455
 5108TIP3    H115330   5.619   5.147   0.361
 5108TIP3    H215331   5.537   5.163   0.487
 5109TIP3   OH215332   0.059   4.707   3.212
 5109TIP3    H115333   0.075   4.615   3.195
 5109TIP3    H215334   0.080   4.751   3.129
 5110TIP3   OH215335   0.716   0.705   2.686
 5110TIP3    H115336   0.804   0.672   2.705
 5110TIP3    H215337   0.683   0.736   2.770
 5111TIP3   OH215338   3.394   2.345   0.325
 5111TIP3    H115339   3.340   2.282   0.371
 5111TIP3    H215340   3.436   2.294   0.256
 5112TIP3   OH215341   0.043   1.933   3.186
 5112TIP3    H115342  -0.009   1.852   3.180
 5112TIP3    H215343   0.113   1.912   3.248
 5113TIP3   OH215344   4.052   3.685   4.693
 5113TIP3    H115345   4.103   3.732   4.760
 5113TIP3    H215346   4.114   3.623   4.655
 5114TIP3   OH215347   3.937   2.889   0.111
 5114TIP3    H115348   4.005   2.876   0.046
 5114TIP3    H215349   3.983   2.922   0.188
 5115TIP3   OH215350   2.937   2.657   4.911
 5115TIP3    H115351   2.939   2.618   4.998
 5115TIP3    H215352   3.007   2.611   4.863
 5116TIP3   OH215353   2.756   2.275   4.378
 5116TIP3    H115354   2.843   2.301   4.408
 5116TIP3    H215355   2.701   2.353   4.392
 5117TIP3   OH215356   4.636   0.250   3.117
 5117TIP3    H115357   4.721   0.277   3.151
 5117TIP3    H215358   4.612   0.173   3.169
 5118TIP3   OH215359   1.166   2.588   0.494
 5118TIP3    H115360   1.087   2.643   0.497
 5118TIP3    H215361   1.178   2.558   0.584
 5119TIP3   OH215362   1.704   5.889   0.717
 5119TIP3    H115363   1.630   5.834   0.743
 5119TIP3    H215364   1.714   5.952   0.788
 5120TIP3   OH215365   5.712   0.845   4.279
 5120TIP3    H115366   5.665   0.927   4.289
 5120TIP3    H215367   5.787   0.867   4.224
 5121TIP3   OH215368   0.754   2.126   0.622
 5121TIP3    H115369   0.809   2.197   0.658
 5121TIP3    H215370   0.812   2.050   0.620
 5122TIP3   OH215371   5.617   1.429   2.995
 5122TIP3    H115372   5.588   1.442   3.085
 5122TIP3    H215373   5.628   1.518   2.961
 5123TIP3   OH215374   5.044   5.576   4.110
 5123TIP3    H115375   5.101   5.512   4.152
 5123TIP3    H215376   5.089   5.660   4.123
 5124TIP3   OH215377   0.365   5.649   1.177
 5124TIP3    H115378   0.356   5.717   1.110
 5124TIP3    H215379   0.359   5.567   1.128
 5125TIP3   OH215380   0.199   4.819   4.960
 5125TIP3    H115381   0.171   4.897   4.911
 5125TIP3    H215382   0.118   4.782   4.994
 5126TIP3   OH215383   4.236   2.999   2.928
 5126TIP3    H115384   4.292   2.976   3.002
 5126TIP3    H215385   4.248   2.927   2.866
 5127TIP3   OH215386   6.241   4.183   4.195
 5127TIP3    H115387   6.172   4.179   4.128
 5127TIP3    H215388   6.194   4.191   4.278
 5128TIP3   OH215389   3.770   1.059   4.001
 5128TIP3    H115390   3.811   1.119   4.064
 5128TIP3    H215391   3.718   1.115   3.944
 5129TIP3   OH215392   1.185   1.065   2.164
 5129TIP3    H115393   1.168   1.029   2.077
 5129TIP3    H215394   1.213   0.990   2.216
 5130TIP3   OH215395   0.036   4.696   1.961
 5130TIP3    H115396   0.089   4.630   1.916
 5130TIP3    H215397   0.036   4.771   1.902
 5131TIP3   OH215398   2.101   0.079   1.654
 5131TIP3    H115399   2.195   0.075   1.637
 5131TIP3    H215400   2.072   0.159   1.609
 5132TIP3   OH215401   1.682   1.124   0.593
 5132TIP3    H115402   1.608   1.077   0.553
 5132TIP3    H215403   1.646   1.158   0.675
 5133TIP3   OH215404   4.906   1.734   0.561
 5133TIP3    H115405   4.871   1.678   0.492
 5133TIP3    H215406   4.903   1.680   0.640
 5134TIP3   OH215407   3.021   5.112   3.035
 5134TIP3    H115408   3.001   5.152   2.951
 5134TIP3    H215409   2.936   5.081   3.067
 5135TIP3   OH215410   3.596   0.469   3.241
 5135TIP3    H115411   3.571   0.443   3.330
 5135TIP3    H215412   3.574   0.562   3.236
 5136TIP3   OH215413   2.665   1.360   4.899
 5136TIP3    H115414   2.693   1.295   4.964
 5136TIP3    H215415   2.599   1.413   4.944
 5137TIP3   OH215416   0.060   5.451   5.056
 5137TIP3    H115417   0.059   5.545   5.036
 5137TIP3    H215418  -0.026   5.420   5.029
 5138TIP3   OH215419   3.060   1.960   3.868
 5138TIP3    H115420   3.033   2.048   3.843
 5138TIP3    H215421   3.010   1.941   3.948
 5139TIP3   OH215422   5.697   1.101   5.090
 5139TIP3    H115423   5.746   1.018   5.087
 5139TIP3    H215424   5.731   1.147   5.167
 5140TIP3   OH215425   4.678   1.216   0.148
 5140TIP3    H115426   4.688   1.125   0.174
 5140TIP3    H215427   4.755   1.234   0.093
 5141TIP3   OH215428   1.761   0.252   4.024
 5141TIP3    H115429   1.779   0.313   4.095
 5141TIP3    H215430   1.833   0.264   3.963
 5142TIP3   OH215431   2.982   1.678   2.534
 5142TIP3    H115432   2.905   1.662   2.478
 5142TIP3    H215433   2.946   1.687   2.622
 5143TIP3   OH215434   0.342   1.357   2.522
 5143TIP3    H115435   0.372   1.296   2.455
 5143TIP3    H215436   0.347   1.443   2.479
 5144TIP3   OH215437   5.929   0.978   0.343
 5144TIP3    H115438   5.905   0.977   0.435
 5144TIP3    H215439   5.998   0.912   0.335
 5145TIP3   OH215440   0.744   0.207   1.990
 5145TIP3    H115441   0.728   0.194   1.897
 5145TIP3    H215442   0.752   0.302   2.000
 5146TIP3   OH215443   1.560   4.718   4.763
 5146TIP3    H115444   1.468   4.739   4.748
 5146TIP3    H215445   1.599   4.717   4.676
 5147TIP3   OH215446   4.944   2.713   4.708
 5147TIP3    H115447   5.023   2.674   4.669
 5147TIP3    H215448   4.949   2.689   4.800
 5148TIP3   OH215449   5.165   1.119   2.036
 5148TIP3    H115450   5.254   1.137   2.066
 5148TIP3    H215451   5.108   1.156   2.104
 5149TIP3   OH215452   5.283   5.482   1.671
 5149TIP3    H115453   5.358   5.538   1.649
 5149TIP3    H215454   5.259   5.441   1.588
 5150TIP3   OH215455   0.033   2.453   3.102
 5150TIP3    H115456   0.085   2.375   3.124
 5150TIP3    H215457  -0.056   2.420   3.091
 5151TIP3   OH215458   4.521   0.917   0.743
 5151TIP3    H115459   4.458   0.945   0.809
 5151TIP3    H215460   4.474   0.928   0.660
 5152TIP3   OH215461   5.376   5.256   1.444
 5152TIP3    H115462   5.313   5.214   1.503
 5152TIP3    H215463   5.393   5.191   1.376
 5153TIP3   OH215464   4.106   2.269   1.497
 5153TIP3    H115465   4.134   2.215   1.423
 5153TIP3    H215466   4.167   2.342   1.498
 5154TIP3   OH215467   4.208   1.369   1.127
 5154TIP3    H115468   4.121   1.371   1.089
 5154TIP3    H215469   4.200   1.418   1.209
 5155TIP3   OH215470   4.777   4.431   3.893
 5155TIP3    H115471   4.712   4.485   3.940
 5155TIP3    H215472   4.726   4.387   3.825
 5156TIP3   OH215473   1.735   2.269   0.908
 5156TIP3    H115474   1.764   2.191   0.956
 5156TIP3    H215475   1.658   2.300   0.957
 5157TIP3   OH215476   6.068   2.385   1.165
 5157TIP3    H115477   6.012   2.334   1.107
 5157TIP3    H215478   6.132   2.322   1.198
 5158TIP3   OH215479   5.190   2.609   4.838
 5158TIP3    H115480   5.124   2.607   4.908
 5158TIP3    H215481   5.272   2.584   4.881
 5159TIP3   OH215482   1.094   1.169   2.681
 5159TIP3    H115483   1.155   1.231   2.721
 5159TIP3    H215484   1.105   1.089   2.731
 5160TIP3   OH215485   0.176   5.215   3.340
 5160TIP3    H115486   0.107   5.150   3.324
 5160TIP3    H215487   0.168   5.236   3.433
 5161TIP3   OH215488   0.291   0.672   3.652
 5161TIP3    H115489   0.325   0.759   3.630
 5161TIP3    H215490   0.273   0.631   3.567
 5162TIP3   OH215491   3.669   1.210   3.275
 5162TIP3    H115492   3.578   1.182   3.280
 5162TIP3    H215493   3.664   1.301   3.243
 5163TIP3   OH215494   3.498   5.277   2.511
 5163TIP3    H115495   3.482   5.302   2.420
 5163TIP3    H215496   3.498   5.182   2.510
 5164TIP3   OH215497   0.702   1.387   3.588
 5164TIP3    H115498   0.757   1.312   3.611
 5164TIP3    H215499   0.761   1.463   3.595
 5165TIP3   OH215500   1.489   1.604   0.401
 5165TIP3    H115501   1.564   1.581   0.346
 5165TIP3    H215502   1.502   1.554   0.481
 5166TIP3   OH215503   1.840   0.989   0.782
 5166TIP3    H115504   1.817   1.008   0.691
 5166TIP3    H215505   1.791   1.053   0.833
 5167TIP3   OH215506   4.623   0.235   4.957
 5167TIP3    H115507   4.693   0.178   4.987
 5167TIP3    H215508   4.605   0.206   4.868
 5168TIP3   OH215509   4.330   3.051   1.448
 5168TIP3    H115510   4.419   3.018   1.460
 5168TIP3    H215511   4.315   3.108   1.523
 5169TIP3   OH215512   4.028   3.163   4.415
 5169TIP3    H115513   3.986   3.249   4.426
 5169TIP3    H215514   4.076   3.170   4.333
 5170TIP3   OH215515   4.089   0.863   1.197
 5170TIP3    H115516   4.123   0.942   1.238
 5170TIP3    H215517   4.013   0.839   1.251
 5171TIP3   OH215518   1.409   1.265   3.712
 5171TIP3    H115519   1.500   1.266   3.743
 5171TIP3    H215520   1.406   1.333   3.645
 5172TIP3   OH215521   0.777   0.909   0.998
 5172TIP3    H115522   0.765   0.910   0.903
 5172TIP3    H215523   0.755   0.819   1.023
 5173TIP3   OH215524   4.311   1.688   1.903
 5173TIP3    H115525   4.245   1.655   1.964
 5173TIP3    H215526   4.383   1.625   1.910
 5174TIP3   OH215527   1.604   1.488   3.463
 5174TIP3    H115528   1.682   1.491   3.519
 5174TIP3    H215529   1.616   1.409   3.409
 5175TIP3   OH215530   3.737   3.842   1.682
 5175TIP3    H115531   3.778   3.790   1.613
 5175TIP3    H215532   3.651   3.802   1.695
 5176TIP3   OH215533   6.037   4.811   2.838
 5176TIP3    H115534   5.982   4.758   2.896
 5176TIP3    H215535   6.123   4.768   2.842
 5177TIP3   OH215536   3.674   5.796   3.582
 5177TIP3    H115537   3.620   5.723   3.552
 5177TIP3    H215538   3.625   5.874   3.557
 5178TIP3   OH215539   3.316   1.248   1.930
 5178TIP3    H115540   3.271   1.189   1.990
 5178TIP3    H215541   3.246   1.284   1.875
 5179TIP3   OH215542   5.391   3.580   2.409
 5179TIP3    H115543   5.436   3.602   2.328
 5179TIP3    H215544   5.304   3.552   2.380
 5180TIP3   OH215545   4.847   4.528   1.509
 5180TIP3    H115546   4.813   4.584   1.579
 5180TIP3    H215547   4.793   4.549   1.433
 5181TIP3   OH215548   5.357   1.531   4.153
 5181TIP3    H115549   5.429   1.515   4.093
 5181TIP3    H215550   5.295   1.583   4.103
 5182TIP3   OH215551   2.534   3.296   3.225
 5182TIP3    H115552   2.547   3.202   3.237
 5182TIP3    H215553   2.616   3.336   3.254
 5183TIP3   OH215554   4.560   4.651   3.246
 5183TIP3    H115555   4.484   4.594   3.232
 5183TIP3    H215556   4.522   4.737   3.263
 5184TIP3   OH215557   0.370   3.824   1.160
 5184TIP3    H115558   0.428   3.815   1.085
 5184TIP3    H215559   0.333   3.912   1.152
 5185TIP3   OH215560   1.979   3.039   0.219
 5185TIP3    H115561   1.933   3.014   0.139
 5185TIP3    H215562   1.935   2.990   0.288
 5186TIP3   OH215563   2.551   2.002   1.661
 5186TIP3    H115564   2.524   2.066   1.727
 5186TIP3    H215565   2.474   1.990   1.606
 5187TIP3   OH215566   5.610   4.063   2.076
 5187TIP3    H115567   5.553   4.037   2.004
 5187TIP3    H215568   5.691   4.012   2.062
 5188TIP3   OH215569   0.801   0.740   2.965
 5188TIP3    H115570   0.856   0.693   3.028
 5188TIP3    H215571   0.752   0.803   3.017
 5189TIP3   OH215572   5.059   3.405   3.787
 5189TIP3    H115573   5.108   3.330   3.822
 5189TIP3    H215574   4.977   3.367   3.756
 5190TIP3   OH215575   5.690   3.234   3.736
 5190TIP3    H115576   5.747   3.231   3.659
 5190TIP3    H215577   5.707   3.152   3.782
 5191TIP3   OH215578   3.781   5.660   4.094
 5191TIP3    H115579   3.846   5.599   4.129
 5191TIP3    H215580   3.771   5.634   4.002
 5192TIP3   OH215581   3.961   1.962   0.509
 5192TIP3    H115582   4.053   1.936   0.500
 5192TIP3    H215583   3.912   1.888   0.474
 5193TIP3   OH215584   5.508   5.753   4.781
 5193TIP3    H115585   5.571   5.710   4.723
 5193TIP3    H215586   5.549   5.753   4.867
 5194TIP3   OH215587   4.860   4.728   4.360
 5194TIP3    H115588   4.794   4.776   4.409
 5194TIP3    H215589   4.816   4.648   4.332
 5195TIP3   OH215590   6.170   2.021   1.877
 5195TIP3    H115591   6.250   1.975   1.852
 5195TIP3    H215592   6.186   2.049   1.967
 5196TIP3   OH215593   2.340   3.720   2.597
 5196TIP3    H115594   2.418   3.667   2.610
 5196TIP3    H215595   2.273   3.657   2.570
 5197TIP3   OH215596   1.520   3.441   4.475
 5197TIP3    H115597   1.447   3.475   4.424
 5197TIP3    H215598   1.479   3.394   4.547
 5198TIP3   OH215599   5.296   1.379   3.178
 5198TIP3    H115600   5.342   1.435   3.241
 5198TIP3    H215601   5.348   1.298   3.175
 5199TIP3   OH215602   1.027   1.318   0.963
 5199TIP3    H115603   1.091   1.301   1.032
 5199TIP3    H215604   0.956   1.257   0.980
 5200TIP3   OH215605   1.965   1.057   2.255
 5200TIP3    H115606   1.957   1.062   2.350
 5200TIP3    H215607   1.965   0.964   2.236
 5201TIP3   OH215608   1.620   4.639   4.204
 5201TIP3    H115609   1.564   4.604   4.134
 5201TIP3    H215610   1.678   4.567   4.227
 5202TIP3   OH215611   4.354   0.254   1.265
 5202TIP3    H115612   4.320   0.338   1.233
 5202TIP3    H215613   4.391   0.275   1.351
 5203TIP3   OH215614   3.772   1.341   2.944
 5203TIP3    H115615   3.818   1.422   2.922
 5203TIP3    H215616   3.810   1.314   3.028
 5204TIP3   OH215617   1.118   1.505   3.970
 5204TIP3    H115618   1.146   1.434   4.028
 5204TIP3    H215619   1.023   1.509   3.982
 5205TIP3   OH215620   1.874   5.321   2.200
 5205TIP3    H115621   1.800   5.291   2.253
 5205TIP3    H215622   1.835   5.367   2.126
 5206TIP3   OH215623   4.141   0.220   3.013
 5206TIP3    H115624   4.154   0.153   3.081
 5206TIP3    H215625   4.228   0.260   3.002
 5207TIP3   OH215626   0.999   4.397   2.532
 5207TIP3    H115627   1.089   4.372   2.550
 5207TIP3    H215628   1.007   4.484   2.492
 5208TIP3   OH215629   4.236   5.835   3.099
 5208TIP3    H115630   4.240   5.913   3.154
 5208TIP3    H215631   4.324   5.798   3.103
 5209TIP3   OH215632   0.616   5.045   0.879
 5209TIP3    H115633   0.586   4.980   0.943
 5209TIP3    H215634   0.613   5.128   0.926
 5210TIP3   OH215635   5.345   3.019   3.742
 5210TIP3    H115636   5.250   3.020   3.730
 5210TIP3    H215637   5.361   3.081   3.814
 5211TIP3   OH215638   5.515   1.503   0.299
 5211TIP3    H115639   5.565   1.421   0.292
 5211TIP3    H215640   5.580   1.568   0.327
 5212TIP3   OH215641   0.533   3.935   1.664
 5212TIP3    H115642   0.467   3.870   1.641
 5212TIP3    H215643   0.536   3.933   1.760
 5213TIP3   OH215644   4.623   0.682   4.057
 5213TIP3    H115645   4.534   0.660   4.083
 5213TIP3    H215646   4.677   0.613   4.096
 5214TIP3   OH215647   1.381   5.016   1.125
 5214TIP3    H115648   1.459   4.972   1.160
 5214TIP3    H215649   1.332   4.947   1.081
 5215TIP3   OH215650   2.769   1.049   1.764
 5215TIP3    H115651   2.814   0.967   1.783
 5215TIP3    H215652   2.702   1.026   1.700
 5216TIP3   OH215653   0.886   4.520   0.530
 5216TIP3    H115654   0.799   4.482   0.540
 5216TIP3    H215655   0.941   4.469   0.590
 5217TIP3   OH215656   0.873   1.781   1.461
 5217TIP3    H115657   0.910   1.804   1.546
 5217TIP3    H215658   0.899   1.690   1.447
 5218TIP3   OH215659   5.202   5.459   1.379
 5218TIP3    H115660   5.251   5.377   1.378
 5218TIP3    H215661   5.116   5.436   1.415
 5219TIP3   OH215662   4.040   5.512   2.489
 5219TIP3    H115663   3.960   5.564   2.481
 5219TIP3    H215664   4.104   5.572   2.529
 5220TIP3   OH215665   5.559   3.712   3.369
 5220TIP3    H115666   5.535   3.803   3.350
 5220TIP3    H215667   5.628   3.692   3.305
 5221TIP3   OH215668   5.206   5.725   3.181
 5221TIP3    H115669   5.111   5.717   3.172
 5221TIP3    H215670   5.219   5.801   3.238
 5222TIP3   OH215671   4.418   0.554   5.190
 5222TIP3    H115672   4.366   0.571   5.112
 5222TIP3    H215673   4.456   0.468   5.174
 5223TIP3   OH215674   6.019   2.695   4.994
 5223TIP3    H115675   5.980   2.619   4.951
 5223TIP3    H215676   5.987   2.691   5.084
 5224TIP3   OH215677   3.328   5.610   0.191
 5224TIP3    H115678   3.396   5.543   0.199
 5224TIP3    H215679   3.371   5.683   0.146
 5225TIP3   OH215680   3.091   0.570   0.926
 5225TIP3    H115681   3.028   0.632   0.962
 5225TIP3    H215682   3.053   0.543   0.842
 5226TIP3   OH215683   5.114   1.501   3.770
 5226TIP3    H115684   5.027   1.529   3.796
 5226TIP3    H215685   5.158   1.582   3.741
 5227TIP3   OH215686   3.133   4.650   5.101
 5227TIP3    H115687   3.050   4.646   5.053
 5227TIP3    H215688   3.198   4.620   5.038
 5228TIP3   OH215689   3.310   4.046   0.190
 5228TIP3    H115690   3.381   4.066   0.128
 5228TIP3    H215691   3.245   4.115   0.175
 5229TIP3   OH215692   4.899   5.741   0.920
 5229TIP3    H115693   4.900   5.677   0.849
 5229TIP3    H215694   4.899   5.689   1.000
 5230TIP3   OH215695   0.139   0.746   0.141
 5230TIP3    H115696   0.225   0.746   0.099
 5230TIP3    H215697   0.093   0.673   0.100
 5231TIP3   OH215698   5.835   0.118   3.293
 5231TIP3    H115699   5.822   0.025   3.310
 5231TIP3    H215700   5.793   0.162   3.366
 5232TIP3   OH215701   1.602   0.811   4.608
 5232TIP3    H115702   1.628   0.883   4.550
 5232TIP3    H215703   1.533   0.848   4.662
 5233TIP3   OH215704   0.411   1.942   5.085
 5233TIP3    H115705   0.479   1.972   5.145
 5233TIP3    H215706   0.329   1.964   5.129
 5234TIP3   OH215707   3.397   1.208   3.286
 5234TIP3    H115708   3.315   1.164   3.308
 5234TIP3    H215709   3.373   1.272   3.219
 5235TIP3   OH215710   5.974   5.633   0.785
 5235TIP3    H115711   5.948   5.716   0.825
 5235TIP3    H215712   5.958   5.645   0.691
 5236TIP3   OH215713   2.461   0.477   3.986
 5236TIP3    H115714   2.488   0.420   4.059
 5236TIP3    H215715   2.382   0.520   4.018
 5237TIP3   OH215716   1.535   1.548   0.656
 5237TIP3    H115717   1.625   1.537   0.686
 5237TIP3    H215718   1.513   1.638   0.681
 5238TIP3   OH215719   4.045   3.021   2.211
 5238TIP3    H115720   3.966   3.067   2.237
 5238TIP3    H215721   4.063   2.961   2.284
 5239TIP3   OH215722   4.916   0.533   5.096
 5239TIP3    H115723   4.860   0.485   5.035
 5239TIP3    H215724   4.856   0.566   5.163
 5240TIP3   OH215725   4.325   3.700   5.108
 5240TIP3    H115726   4.346   3.729   5.196
 5240TIP3    H215727   4.233   3.673   5.112
 5241TIP3   OH215728   0.963   3.174   4.500
 5241TIP3    H115729   1.011   3.098   4.468
 5241TIP3    H215730   0.897   3.138   4.560
 5242TIP3   OH215731   6.263   2.961   4.649
 5242TIP3    H115732   6.227   2.969   4.737
 5242TIP3    H215733   6.248   2.870   4.625
 5243TIP3   OH215734   2.982   5.766   3.876
 5243TIP3    H115735   3.004   5.673   3.887
 5243TIP3    H215736   2.966   5.775   3.782
 5244TIP3   OH215737   5.886   4.283   2.259
 5244TIP3    H115738   5.834   4.203   2.268
 5244TIP3    H215739   5.922   4.299   2.347
 5245TIP3   OH215740   1.871   0.501   1.125
 5245TIP3    H115741   1.806   0.547   1.179
 5245TIP3    H215742   1.828   0.491   1.040
 5246TIP3   OH215743   3.252   5.959   0.045
 5246TIP3    H115744   3.241   6.018   0.120
 5246TIP3    H215745   3.175   5.903   0.047
 5247TIP3   OH215746   0.607   5.886   0.600
 5247TIP3    H115747   0.675   5.890   0.532
 5247TIP3    H215748   0.527   5.864   0.553
 5248TIP3   OH215749   5.970   0.106   3.815
 5248TIP3    H115750   5.992   0.014   3.803
 5248TIP3    H215751   5.979   0.145   3.728
 5249TIP3   OH215752   0.189   2.041   0.637
 5249TIP3    H115753   0.261   2.041   0.700
 5249TIP3    H215754   0.178   2.133   0.613
 5250TIP3   OH215755   4.061   0.115   0.677
 5250TIP3    H115756   4.074   0.206   0.704
 5250TIP3    H215757   3.975   0.091   0.712
 5251TIP3   OH215758   5.344   0.715   2.786
 5251TIP3    H115759   5.332   0.620   2.776
 5251TIP3    H215760   5.428   0.733   2.743
 5252TIP3   OH215761   4.982   3.166   2.654
 5252TIP3    H115762   4.909   3.223   2.627
 5252TIP3    H215763   4.941   3.101   2.711
 5253TIP3   OH215764   4.271   1.080   2.429
 5253TIP3    H115765   4.342   1.039   2.380
 5253TIP3    H215766   4.280   1.046   2.517
 5254TIP3   OH215767   0.395   5.700   4.497
 5254TIP3    H115768   0.384   5.781   4.446
 5254TIP3    H215769   0.489   5.694   4.512
 5255TIP3   OH215770   0.783   0.979   4.115
 5255TIP3    H115771   0.829   1.063   4.111
 5255TIP3    H215772   0.799   0.948   4.204
 5256TIP3   OH215773   0.063   0.231   0.483
 5256TIP3    H115774   0.091   0.322   0.491
 5256TIP3    H215775   0.138   0.186   0.445
 5257TIP3   OH215776   5.441   0.358   4.079
 5257TIP3    H115777   5.446   0.263   4.095
 5257TIP3    H215778   5.532   0.384   4.064
 5258TIP3   OH215779   2.264   3.913   2.111
 5258TIP3    H115780   2.208   3.944   2.183
 5258TIP3    H215781   2.211   3.848   2.066
 5259TIP3   OH215782   5.892   0.674   3.162
 5259TIP3    H115783   5.871   0.596   3.110
 5259TIP3    H215784   5.970   0.711   3.120
 5260TIP3   OH215785   3.154   0.332   2.055
 5260TIP3    H115786   3.091   0.270   2.091
 5260TIP3    H215787   3.206   0.361   2.130
 5261TIP3   OH215788   4.318   1.036   3.398
 5261TIP3    H115789   4.386   0.975   3.425
 5261TIP3    H215790   4.253   1.033   3.468
 5262TIP3   OH215791   4.669   2.738   4.980
 5262TIP3    H115792   4.659   2.813   5.039
 5262TIP3    H215793   4.694   2.777   4.896
 5263TIP3   OH215794   1.722   0.942   1.611
 5263TIP3    H115795   1.672   0.861   1.620
 5263TIP3    H215796   1.689   0.982   1.530
 5264TIP3   OH215797   1.322   3.727   3.205
 5264TIP3    H115798   1.262   3.728   3.130
 5264TIP3    H215799   1.391   3.788   3.182
 5265TIP3   OH215800   4.623   5.790   2.937
 5265TIP3    H115801   4.529   5.778   2.924
 5265TIP3    H215802   4.664   5.715   2.893
 5266TIP3   OH215803   1.302   4.502   2.608
 5266TIP3    H115804   1.224   4.535   2.653
 5266TIP3    H215805   1.366   4.489   2.677
 5267TIP3   OH215806   2.832   3.810   1.562
 5267TIP3    H115807   2.781   3.829   1.483
 5267TIP3    H215808   2.786   3.857   1.632
 5268TIP3   OH215809   5.206   5.930   3.370
 5268TIP3    H115810   5.207   5.915   3.465
 5268TIP3    H215811   5.125   5.980   3.355
 5269TIP3   OH215812   2.168   0.660   1.989
 5269TIP3    H115813   2.242   0.637   1.933
 5269TIP3    H215814   2.092   0.656   1.931
 5270TIP3   OH215815   4.887   3.291   4.340
 5270TIP3    H115816   4.975   3.254   4.329
 5270TIP3    H215817   4.899   3.365   4.399
 5271TIP3   OH215818   0.682   2.627   4.001
 5271TIP3    H115819   0.608   2.600   4.055
 5271TIP3    H215820   0.750   2.562   4.018
 5272TIP3   OH215821   6.262   2.718   0.353
 5272TIP3    H115822   6.169   2.730   0.332
 5272TIP3    H215823   6.267   2.732   0.447
 5273TIP3   OH215824   5.926   1.187   3.788
 5273TIP3    H115825   5.975   1.146   3.860
 5273TIP3    H215826   5.981   1.175   3.711
 5274TIP3   OH215827   4.333   4.578   1.965
 5274TIP3    H115828   4.343   4.644   2.033
 5274TIP3    H215829   4.342   4.494   2.012
 5275TIP3   OH215830   3.459   3.774   0.073
 5275TIP3    H115831   3.376   3.762   0.119
 5275TIP3    H215832   3.489   3.861   0.101
 5276TIP3   OH215833   2.587   3.623   2.433
 5276TIP3    H115834   2.538   3.657   2.358
 5276TIP3    H215835   2.561   3.531   2.439
 5277TIP3   OH215836   1.703   1.854   4.559
 5277TIP3    H115837   1.734   1.916   4.492
 5277TIP3    H215838   1.737   1.890   4.642
 5278TIP3   OH215839   0.749   5.582   0.316
 5278TIP3    H115840   0.684   5.532   0.365
 5278TIP3    H215841   0.816   5.518   0.293
 5279TIP3   OH215842   1.398   4.860   0.875
 5279TIP3    H115843   1.311   4.892   0.900
 5279TIP3    H215844   1.424   4.915   0.801
 5280TIP3   OH215845   5.120   3.732   1.085
 5280TIP3    H115846   5.119   3.658   1.146
 5280TIP3    H215847   5.212   3.742   1.062
 5281TIP3   OH215848   1.283   2.444   1.068
 5281TIP3    H115849   1.197   2.422   1.103
 5281TIP3    H215850   1.301   2.532   1.101
 5282TIP3   OH215851   0.580   1.685   4.704
 5282TIP3    H115852   0.550   1.776   4.714
 5282TIP3    H215853   0.671   1.687   4.733
 5283TIP3   OH215854   4.168   3.324   0.341
 5283TIP3    H115855   4.094   3.379   0.317
 5283TIP3    H215856   4.137   3.271   0.414
 5284TIP3   OH215857   1.455   2.757   3.689
 5284TIP3    H115858   1.458   2.835   3.743
 5284TIP3    H215859   1.440   2.685   3.750
 5285TIP3   OH215860   1.485   3.419   2.190
 5285TIP3    H115861   1.520   3.491   2.242
 5285TIP3    H215862   1.524   3.340   2.228
 5286TIP3   OH215863   3.819   4.446   2.720
 5286TIP3    H115864   3.771   4.394   2.784
 5286TIP3    H215865   3.759   4.516   2.696
 5287TIP3   OH215866   5.188   4.824   1.904
 5287TIP3    H115867   5.276   4.850   1.932
 5287TIP3    H215868   5.202   4.745   1.851
 5288TIP3   OH215869   1.289   4.317   4.663
 5288TIP3    H115870   1.351   4.357   4.724
 5288TIP3    H215871   1.236   4.390   4.632
 5289TIP3   OH215872   4.256   5.299   0.900
 5289TIP3    H115873   4.335   5.339   0.864
 5289TIP3    H215874   4.230   5.235   0.833
 5290TIP3   OH215875   0.667   5.013   2.435
 5290TIP3    H115876   0.692   4.932   2.481
 5290TIP3    H215877   0.575   5.000   2.412
 5291TIP3   OH215878   5.898   0.862   1.472
 5291TIP3    H115879   5.914   0.840   1.564
 5291TIP3    H215880   5.907   0.778   1.426
 5292TIP3   OH215881   5.803   2.202   4.032
 5292TIP3    H115882   5.721   2.181   3.987
 5292TIP3    H215883   5.802   2.147   4.110
 5293TIP3   OH215884   3.152   1.738   3.672
 5293TIP3    H115885   3.098   1.756   3.749
 5293TIP3    H215886   3.232   1.700   3.708
 5294TIP3   OH215887   3.971   2.858   1.501
 5294TIP3    H115888   4.050   2.835   1.452
 5294TIP3    H215889   4.003   2.905   1.578
 5295TIP3   OH215890   1.001   4.201   1.381
 5295TIP3    H115891   1.062   4.169   1.314
 5295TIP3    H215892   1.002   4.133   1.449
 5296TIP3   OH215893   4.462   1.023   4.866
 5296TIP3    H115894   4.546   1.044   4.826
 5296TIP3    H215895   4.463   0.928   4.876
 5297TIP3   OH215896   4.415   3.957   3.651
 5297TIP3    H115897   4.499   3.927   3.687
 5297TIP3    H215898   4.402   3.904   3.572
 5298TIP3   OH215899   4.635   1.477   1.318
 5298TIP3    H115900   4.673   1.469   1.231
 5298TIP3    H215901   4.597   1.391   1.336
 5299TIP3   OH215902   2.484   0.505   3.418
 5299TIP3    H115903   2.492   0.600   3.426
 5299TIP3    H215904   2.469   0.474   3.507
 5300TIP3   OH215905   0.573   5.496   4.209
 5300TIP3    H115906   0.587   5.502   4.114
 5300TIP3    H215907   0.661   5.485   4.246
 5301TIP3   OH215908   1.452   0.476   2.361
 5301TIP3    H115909   1.414   0.435   2.283
 5301TIP3    H215910   1.429   0.416   2.433
 5302TIP3   OH215911   2.787   3.337   3.285
 5302TIP3    H115912   2.835   3.255   3.295
 5302TIP3    H215913   2.812   3.369   3.199
 5303TIP3   OH215914   3.609   5.778   3.091
 5303TIP3    H115915   3.544   5.730   3.143
 5303TIP3    H215916   3.689   5.774   3.143
 5304TIP3   OH215917   4.044   0.212   2.743
 5304TIP3    H115918   4.073   0.198   2.833
 5304TIP3    H215919   4.087   0.293   2.717
 5305TIP3   OH215920   4.478   2.312   4.436
 5305TIP3    H115921   4.565   2.307   4.475
 5305TIP3    H215922   4.489   2.369   4.360
 5306TIP3   OH215923   4.993   4.258   1.261
 5306TIP3    H115924   5.062   4.315   1.296
 5306TIP3    H215925   5.035   4.173   1.250
 5307TIP3   OH215926   4.751   3.017   1.065
 5307TIP3    H115927   4.771   3.065   0.985
 5307TIP3    H215928   4.779   3.075   1.136
 5308TIP3   OH215929   4.220   5.159   1.568
 5308TIP3    H115930   4.276   5.219   1.519
 5308TIP3    H215931   4.163   5.120   1.502
 5309TIP3   OH215932   2.022   5.930   0.481
 5309TIP3    H115933   1.968   5.863   0.521
 5309TIP3    H215934   2.016   6.005   0.541
 5310TIP3   OH215935   2.958   2.859   0.842
 5310TIP3    H115936   2.920   2.823   0.762
 5310TIP3    H215937   2.992   2.782   0.889
 5311TIP3   OH215938   3.601   0.132   5.016
 5311TIP3    H115939   3.587   0.175   5.100
 5311TIP3    H215940   3.696   0.121   5.010
 5312TIP3   OH215941   0.098   4.008   4.721
 5312TIP3    H115942   0.187   3.981   4.702
 5312TIP3    H215943   0.061   3.937   4.772
 5313TIP3   OH215944   4.990   5.206   1.914
 5313TIP3    H115945   5.028   5.261   1.983
 5313TIP3    H215946   4.961   5.268   1.847
 5314TIP3   OH215947   2.859   5.120   4.073
 5314TIP3    H115948   2.919   5.177   4.121
 5314TIP3    H215949   2.904   5.035   4.070
 5315TIP3   OH215950   5.924   5.612   1.766
 5315TIP3    H115951   5.842   5.586   1.808
 5315TIP3    H215952   5.901   5.623   1.674
 5316TIP3   OH215953   4.402   0.415   4.925
 5316TIP3    H115954   4.464   0.348   4.953
 5316TIP3    H215955   4.324   0.366   4.900
 5317TIP3   OH215956   5.469   3.635   0.516
 5317TIP3    H115957   5.429   3.557   0.478
 5317TIP3    H215958   5.404   3.704   0.502
 5318TIP3   OH215959   5.673   5.511   3.549
 5318TIP3    H115960   5.758   5.550   3.531
 5318TIP3    H215961   5.654   5.534   3.640
 5319TIP3   OH215962   2.527   4.980   2.079
 5319TIP3    H115963   2.598   4.917   2.065
 5319TIP3    H215964   2.462   4.931   2.129
 5320TIP3   OH215965   3.031   5.024   1.996
 5320TIP3    H115966   3.080   5.049   2.075
 5320TIP3    H215967   3.089   4.964   1.949
 5321TIP3   OH215968   4.728   1.870   1.423
 5321TIP3    H115969   4.720   1.776   1.404
 5321TIP3    H215970   4.766   1.873   1.512
 5322TIP3   OH215971   3.051   4.216   1.451
 5322TIP3    H115972   2.966   4.179   1.425
 5322TIP3    H215973   3.115   4.163   1.404
 5323TIP3   OH215974   4.446   4.014   0.258
 5323TIP3    H115975   4.533   4.049   0.273
 5323TIP3    H215976   4.416   3.987   0.345
 5324TIP3   OH215977   6.054   2.660   1.241
 5324TIP3    H115978   6.124   2.665   1.306
 5324TIP3    H215979   6.070   2.577   1.196
 5325TIP3   OH215980   0.789   4.803   0.211
 5325TIP3    H115981   0.833   4.837   0.134
 5325TIP3    H215982   0.789   4.876   0.273
 5326TIP3   OH215983   2.554   0.786   0.173
 5326TIP3    H115984   2.463   0.757   0.171
 5326TIP3    H215985   2.604   0.705   0.190
 5327TIP3   OH215986   5.414   4.636   4.568
 5327TIP3    H115987   5.411   4.541   4.564
 5327TIP3    H215988   5.501   4.656   4.603
 5328TIP3   OH215989   5.520   3.959   0.137
 5328TIP3    H115990   5.447   4.005   0.179
 5328TIP3    H215991   5.592   4.022   0.141
 5329TIP3   OH215992   0.381   2.105   0.118
 5329TIP3    H115993   0.385   2.039   0.187
 5329TIP3    H215994   0.473   2.120   0.093
 5330TIP3   OH215995   1.030   2.090   4.843
 5330TIP3    H115996   1.023   2.039   4.762
 5330TIP3    H215997   0.985   2.172   4.823
 5331TIP3   OH215998   2.806   1.703   4.028
 5331TIP3    H115999   2.879   1.752   4.065
 5331TIP3    H216000   2.806   1.620   4.075
 5332TIP3   OH216001   5.367   0.874   5.057
 5332TIP3    H116002   5.394   0.941   4.994
 5332TIP3    H216003   5.409   0.794   5.027
 5333TIP3   OH216004   2.600   2.818   3.662
 5333TIP3    H116005   2.646   2.896   3.696
 5333TIP3    H216006   2.515   2.819   3.706
 5334TIP3   OH216007   2.199   1.831   3.914
 5334TIP3    H116008   2.266   1.772   3.879
 5334TIP3    H216009   2.200   1.815   4.008
 5335TIP3   OH216010   1.401   0.528   1.369
 5335TIP3    H116011   1.435   0.443   1.396
 5335TIP3    H216012   1.414   0.531   1.275
 5336TIP3   OH216013   2.110   4.581   0.379
 5336TIP3    H116014   2.044   4.641   0.415
 5336TIP3    H216015   2.059   4.516   0.331
 5337TIP3   OH216016   3.169   3.153   1.171
 5337TIP3    H116017   3.101   3.173   1.107
 5337TIP3    H216018   3.215   3.077   1.134
 5338TIP3   OH216019   1.070   0.979   1.597
 5338TIP3    H116020   1.036   0.985   1.686
 5338TIP3    H216021   1.151   1.030   1.599
 5339TIP3   OH216022   1.028   0.549   0.629
 5339TIP3    H116023   1.051   0.600   0.707
 5339TIP3    H216024   1.101   0.563   0.569
 5340TIP3   OH216025   1.635   0.962   1.330
 5340TIP3    H116026   1.575   1.037   1.331
 5340TIP3    H216027   1.645   0.942   1.237
 5341TIP3   OH216028   0.272   3.026   4.569
 5341TIP3    H116029   0.212   3.098   4.588
 5341TIP3    H216030   0.354   3.068   4.545
 5342TIP3   OH216031   6.308   4.424   3.021
 5342TIP3    H116032   6.252   4.420   3.098
 5342TIP3    H216033   6.264   4.368   2.957
 5343TIP3   OH216034   5.593   4.402   0.270
 5343TIP3    H116035   5.639   4.338   0.216
 5343TIP3    H216036   5.506   4.364   0.283
 5344TIP3   OH216037   3.972   3.848   2.624
 5344TIP3    H116038   3.964   3.943   2.631
 5344TIP3    H216039   3.899   3.823   2.567
 5345TIP3   OH216040   1.300   1.539   3.266
 5345TIP3    H116041   1.344   1.624   3.266
 5345TIP3    H216042   1.270   1.528   3.175
 5346TIP3   OH216043   1.973   4.039   1.517
 5346TIP3    H116044   1.909   3.968   1.515
 5346TIP3    H216045   1.944   4.096   1.588
 5347TIP3   OH216046   4.593   0.140   0.302
 5347TIP3    H116047   4.621   0.209   0.242
 5347TIP3    H216048   4.529   0.089   0.252
 5348TIP3   OH216049   6.102   5.684   3.810
 5348TIP3    H116050   6.132   5.617   3.871
 5348TIP3    H216051   6.183   5.726   3.779
 5349TIP3   OH216052   1.591   3.511   3.112
 5349TIP3    H116053   1.554   3.594   3.143
 5349TIP3    H216054   1.562   3.505   3.021
 5350TIP3   OH216055   2.521   1.720   0.351
 5350TIP3    H116056   2.580   1.659   0.306
 5350TIP3    H216057   2.516   1.687   0.440
 5351TIP3   OH216058   2.801   1.557   4.366
 5351TIP3    H116059   2.800   1.635   4.422
 5351TIP3    H216060   2.717   1.514   4.384
 5352TIP3   OH216061   2.355   0.810   4.129
 5352TIP3    H116062   2.374   0.841   4.218
 5352TIP3    H216063   2.438   0.819   4.083
 5353TIP3   OH216064   4.508   3.547   0.054
 5353TIP3    H116065   4.436   3.484   0.046
 5353TIP3    H216066   4.558   3.517   0.130
 5354TIP3   OH216067   4.125   5.407   2.952
 5354TIP3    H116068   4.085   5.494   2.949
 5354TIP3    H216069   4.063   5.355   3.004
 5355TIP3   OH216070   1.818   4.768   3.393
 5355TIP3    H116071   1.774   4.742   3.474
 5355TIP3    H216072   1.790   4.703   3.328
 5356TIP3   OH216073   0.826   5.400   4.328
 5356TIP3    H116074   0.817   5.393   4.424
 5356TIP3    H216075   0.916   5.428   4.314
 5357TIP3   OH216076   0.286   3.196   0.712
 5357TIP3    H116077   0.332   3.169   0.633
 5357TIP3    H216078   0.250   3.282   0.691
 5358TIP3   OH216079   3.559   4.247   4.072
 5358TIP3    H116080   3.590   4.230   4.161
 5358TIP3    H216081   3.474   4.290   4.085
 5359TIP3   OH216082   5.266   2.199   1.760
 5359TIP3    H116083   5.290   2.283   1.722
 5359TIP3    H216084   5.171   2.195   1.753
 5360TIP3   OH216085   4.516   2.849   2.613
 5360TIP3    H116086   4.505   2.803   2.530
 5360TIP3    H216087   4.568   2.789   2.667
 5361TIP3   OH216088   4.475   5.105   0.445
 5361TIP3    H116089   4.551   5.136   0.494
 5361TIP3    H216090   4.406   5.094   0.510
 5362TIP3   OH216091   0.752   2.025   0.170
 5362TIP3    H116092   0.687   2.055   0.234
 5362TIP3    H216093   0.727   2.070   0.089
 5363TIP3   OH216094   2.108   4.886   2.779
 5363TIP3    H116095   2.018   4.905   2.752
 5363TIP3    H216096   2.101   4.806   2.830
 5364TIP3   OH216097   6.324   3.184   3.378
 5364TIP3    H116098   6.372   3.152   3.302
 5364TIP3    H216099   6.245   3.225   3.342
 5365TIP3   OH216100   6.029   3.585   0.893
 5365TIP3    H116101   6.086   3.654   0.927
 5365TIP3    H216102   6.027   3.600   0.798
 5366TIP3   OH216103   3.888   0.702   2.310
 5366TIP3    H116104   3.904   0.736   2.398
 5366TIP3    H216105   3.827   0.629   2.324
 5367TIP3   OH216106   6.192   1.764   3.178
 5367TIP3    H116107   6.218   1.722   3.260
 5367TIP3    H216108   6.097   1.756   3.177
 5368TIP3   OH216109   5.877   5.629   0.478
 5368TIP3    H116110   5.792   5.671   0.494
 5368TIP3    H216111   5.869   5.591   0.390
 5369TIP3   OH216112   0.734   3.907   0.149
 5369TIP3    H116113   0.759   3.835   0.091
 5369TIP3    H216114   0.639   3.906   0.150
 5370TIP3   OH216115   3.744   2.186   2.608
 5370TIP3    H116116   3.834   2.157   2.593
 5370TIP3    H216117   3.700   2.110   2.646
 5371TIP3   OH216118   5.467   3.673   3.787
 5371TIP3    H116119   5.469   3.583   3.753
 5371TIP3    H216120   5.551   3.711   3.759
 5372TIP3   OH216121   6.214   1.678   2.895
 5372TIP3    H116122   6.256   1.595   2.916
 5372TIP3    H216123   6.209   1.724   2.978
 5373TIP3   OH216124   3.026   5.855   2.704
 5373TIP3    H116125   2.999   5.779   2.653
 5373TIP3    H216126   2.997   5.930   2.653
 5374TIP3   OH216127   2.828   5.666   0.028
 5374TIP3    H116128   2.889   5.694   0.096
 5374TIP3    H216129   2.801   5.747  -0.015
 5375TIP3   OH216130   0.259   0.225   2.777
 5375TIP3    H116131   0.320   0.171   2.726
 5375TIP3    H216132   0.257   0.309   2.730
 5376TIP3   OH216133   0.344   0.991   3.914
 5376TIP3    H116134   0.361   1.082   3.892
 5376TIP3    H216135   0.276   0.994   3.981
 5377TIP3   OH216136   3.478   1.110   0.164
 5377TIP3    H116137   3.481   1.193   0.212
 5377TIP3    H216138   3.569   1.094   0.138
 5378TIP3   OH216139   1.363   5.011   4.731
 5378TIP3    H116140   1.282   4.971   4.700
 5378TIP3    H216141   1.336   5.071   4.800
 5379TIP3   OH216142   4.596   2.061   3.683
 5379TIP3    H116143   4.578   2.108   3.765
 5379TIP3    H216144   4.523   2.000   3.673
 5380TIP3   OH216145   4.194   0.482   2.741
 5380TIP3    H116146   4.257   0.548   2.770
 5380TIP3    H216147   4.125   0.484   2.807
 5381TIP3   OH216148   3.918   2.424  -0.012
 5381TIP3    H116149   3.968   2.369   0.049
 5381TIP3    H216150   3.830   2.387  -0.011
 5382TIP3   OH216151   0.041   2.911   2.213
 5382TIP3    H116152   0.042   2.827   2.168
 5382TIP3    H216153   0.116   2.958   2.175
 5383TIP3   OH216154   0.053   4.866   2.933
 5383TIP3    H116155   0.031   4.796   2.871
 5383TIP3    H216156   0.083   4.938   2.879
 5384TIP3   OH216157   1.475   5.256   3.185
 5384TIP3    H116158   1.422   5.217   3.115
 5384TIP3    H216159   1.413   5.311   3.233
 5385TIP3   OH216160   4.390   0.111   3.466
 5385TIP3    H116161   4.355   0.049   3.530
 5385TIP3    H216162   4.316   0.165   3.441
 5386TIP3   OH216163   5.015   4.089   3.076
 5386TIP3    H116164   5.068   4.162   3.110
 5386TIP3    H216165   5.077   4.034   3.029
 5387TIP3   OH216166   3.464   1.749   1.527
 5387TIP3    H116167   3.406   1.672   1.529
 5387TIP3    H216168   3.480   1.764   1.434
 5388TIP3   OH216169   5.939   4.189   1.507
 5388TIP3    H116170   5.958   4.273   1.465
 5388TIP3    H216171   6.024   4.147   1.516
 5389TIP3   OH216172   5.232   2.786   4.049
 5389TIP3    H116173   5.203   2.762   4.136
 5389TIP3    H216174   5.231   2.882   4.048
 5390TIP3   OH216175   4.030   4.450   2.273
 5390TIP3    H116176   3.994   4.537   2.286
 5390TIP3    H216177   3.979   4.394   2.332
 5391TIP3   OH216178   3.286   4.877   0.557
 5391TIP3    H116179   3.234   4.925   0.622
 5391TIP3    H216180   3.260   4.915   0.473
 5392TIP3   OH216181   2.192   4.816   3.620
 5392TIP3    H116182   2.124   4.749   3.615
 5392TIP3    H216183   2.211   4.825   3.713
 5393TIP3   OH216184   3.591   3.933   0.341
 5393TIP3    H116185   3.663   3.933   0.278
 5393TIP3    H216186   3.562   4.024   0.343
 5394TIP3   OH216187   4.493   0.127   1.053
 5394TIP3    H116188   4.470   0.192   0.987
 5394TIP3    H216189   4.480   0.172   1.137
 5395TIP3   OH216190   4.130   4.827   0.554
 5395TIP3    H116191   4.094   4.852   0.639
 5395TIP3    H216192   4.178   4.746   0.571
 5396TIP3   OH216193   0.414   2.011   0.864
 5396TIP3    H116194   0.408   2.084   0.925
 5396TIP3    H216195   0.507   1.989   0.861
 5397TIP3   OH216196   3.431   3.458   2.537
 5397TIP3    H116197   3.344   3.468   2.497
 5397TIP3    H216198   3.420   3.389   2.602
 5398TIP3   OH216199   2.363   2.589   4.410
 5398TIP3    H116200   2.420   2.530   4.460
 5398TIP3    H216201   2.285   2.536   4.392
 5399TIP3   OH216202   5.279   4.513   1.169
 5399TIP3    H116203   5.237   4.456   1.104
 5399TIP3    H216204   5.228   4.499   1.249
 5400TIP3   OH216205   3.654   5.956   0.850
 5400TIP3    H116206   3.561   5.936   0.861
 5400TIP3    H216207   3.680   5.995   0.933
 5401TIP3   OH216208   4.656   2.886   4.759
 5401TIP3    H116209   4.635   2.829   4.685
 5401TIP3    H216210   4.711   2.955   4.721
 5402TIP3   OH216211   4.454   1.239   3.220
 5402TIP3    H116212   4.384   1.195   3.268
 5402TIP3    H216213   4.528   1.179   3.225
 5403TIP3   OH216214   2.794   4.477   3.899
 5403TIP3    H116215   2.728   4.408   3.900
 5403TIP3    H216216   2.764   4.539   3.833
 5404TIP3   OH216217   5.363   0.548   1.785
 5404TIP3    H116218   5.444   0.555   1.836
 5404TIP3    H216219   5.355   0.455   1.765
 5405TIP3   OH216220   4.027   3.762   0.178
 5405TIP3    H116221   3.950   3.811   0.149
 5405TIP3    H216222   4.005   3.671   0.160
 5406TIP3   OH216223   0.860   5.076   1.057
 5406TIP3    H116224   0.923   5.047   0.991
 5406TIP3    H216225   0.779   5.029   1.036
 5407TIP3   OH216226   0.179   0.049   1.170
 5407TIP3    H116227   0.226   0.057   1.252
 5407TIP3    H216228   0.247   0.048   1.103
 5408TIP3   OH216229   2.835   3.401   1.667
 5408TIP3    H116230   2.885   3.483   1.671
 5408TIP3    H216231   2.816   3.389   1.574
 5409TIP3   OH216232   4.368   3.671   2.538
 5409TIP3    H116233   4.457   3.643   2.560
 5409TIP3    H216234   4.319   3.590   2.527
 5410TIP3   OH216235   3.332   3.427   0.916
 5410TIP3    H116236   3.280   3.487   0.969
 5410TIP3    H216237   3.273   3.400   0.846
 5411TIP3   OH216238   5.647   5.732   0.555
 5411TIP3    H116239   5.594   5.800   0.597
 5411TIP3    H216240   5.591   5.655   0.556
 5412TIP3   OH216241   5.551   5.418   0.306
 5412TIP3    H116242   5.638   5.436   0.272
 5412TIP3    H216243   5.554   5.448   0.397
 5413TIP3   OH216244   1.147   5.315   3.599
 5413TIP3    H116245   1.107   5.241   3.555
 5413TIP3    H216246   1.134   5.298   3.692
 5414TIP3   OH216247   2.972   5.475   3.822
 5414TIP3    H116248   2.898   5.464   3.762
 5414TIP3    H216249   2.931   5.491   3.907
 5415TIP3   OH216250   6.395   5.162   0.248
 5415TIP3    H116251   6.365   5.095   0.310
 5415TIP3    H216252   6.336   5.236   0.261
 5416TIP3   OH216253   4.806   4.503   0.271
 5416TIP3    H116254   4.782   4.588   0.235
 5416TIP3    H216255   4.840   4.522   0.359
 5417TIP3   OH216256   4.576   4.214   3.175
 5417TIP3    H116257   4.590   4.263   3.256
 5417TIP3    H216258   4.539   4.279   3.115
 5418TIP3   OH216259   1.786   5.216   1.144
 5418TIP3    H116260   1.876   5.240   1.167
 5418TIP3    H216261   1.732   5.278   1.193
 5419TIP3   OH216262   6.216   2.883   2.447
 5419TIP3    H116263   6.270   2.869   2.525
 5419TIP3    H216264   6.278   2.902   2.377
 5420TIP3   OH216265   4.514   2.918   0.993
 5420TIP3    H116266   4.460   2.949   1.066
 5420TIP3    H216267   4.604   2.931   1.023
 5421TIP3   OH216268   1.271   3.143   1.984
 5421TIP3    H116269   1.316   3.085   2.046
 5421TIP3    H216270   1.230   3.209   2.040
 5422TIP3   OH216271   2.151   0.032   4.153
 5422TIP3    H116272   2.206   0.010   4.077
 5422TIP3    H216273   2.201   0.098   4.200
 5423TIP3   OH216274   2.134   3.832   1.687
 5423TIP3    H116275   2.229   3.829   1.703
 5423TIP3    H216276   2.110   3.923   1.702
 5424TIP3   OH216277   3.430   2.199   0.094
 5424TIP3    H116278   3.479   2.123   0.125
 5424TIP3    H216279   3.346   2.164   0.064
 5425TIP3   OH216280   6.117   0.764   1.282
 5425TIP3    H116281   6.181   0.711   1.234
 5425TIP3    H216282   6.152   0.768   1.371
 5426TIP3   OH216283   6.241   1.858   1.122
 5426TIP3    H116284   6.322   1.873   1.169
 5426TIP3    H216285   6.269   1.835   1.033
 5427TIP3   OH216286   3.862   2.017   1.433
 5427TIP3    H116287   3.858   1.923   1.451
 5427TIP3    H216288   3.936   2.026   1.372
 5428TIP3   OH216289   2.002   3.434   4.675
 5428TIP3    H116290   2.026   3.378   4.600
 5428TIP3    H216291   2.063   3.507   4.671
 5429TIP3   OH216292   1.517   0.800   2.016
 5429TIP3    H116293   1.610   0.789   1.998
 5429TIP3    H216294   1.512   0.880   2.068
 5430TIP3   OH216295   5.349   3.332   4.248
 5430TIP3    H116296   5.432   3.289   4.228
 5430TIP3    H216297   5.371   3.425   4.250
 5431TIP3   OH216298   5.943   2.460   4.032
 5431TIP3    H116299   5.910   2.517   3.962
 5431TIP3    H216300   5.888   2.382   4.028
 5432TIP3   OH216301   6.236   4.505   4.482
 5432TIP3    H116302   6.303   4.492   4.414
 5432TIP3    H216303   6.283   4.495   4.564
 5433TIP3   OH216304   5.819   5.220   1.362
 5433TIP3    H116305   5.780   5.155   1.421
 5433TIP3    H216306   5.904   5.184   1.339
 5434TIP3   OH216307   6.222   0.813   1.530
 5434TIP3    H116308   6.205   0.885   1.591
 5434TIP3    H216309   6.214   0.734   1.584
 5435TIP3   OH216310   0.097   0.960   1.446
 5435TIP3    H116311   0.052   1.041   1.422
 5435TIP3    H216312   0.028   0.904   1.481
 5436TIP3   OH216313   5.385   3.763   1.007
 5436TIP3    H116314   5.430   3.786   1.089
 5436TIP3    H216315   5.450   3.779   0.939
 5437TIP3   OH216316   0.648   1.276   5.238
 5437TIP3    H116317   0.724   1.289   5.180
 5437TIP3    H216318   0.573   1.281   5.180
 5438TIP3   OH216319   4.848   5.333   3.114
 5438TIP3    H116320   4.898   5.414   3.103
 5438TIP3    H216321   4.892   5.269   3.059
 5439TIP3   OH216322   1.722   0.513   1.560
 5439TIP3    H116323   1.671   0.439   1.592
 5439TIP3    H216324   1.716   0.507   1.465
 5440TIP3   OH216325   4.319   0.178   0.004
 5440TIP3    H116326   4.350   0.121   0.075
 5440TIP3    H216327   4.236   0.138  -0.024
 5441TIP3   OH216328   2.540   5.270   3.666
 5441TIP3    H116329   2.464   5.298   3.718
 5441TIP3    H216330   2.522   5.179   3.645
 5442TIP3   OH216331   2.423   0.598   0.488
 5442TIP3    H116332   2.399   0.619   0.397
 5442TIP3    H216333   2.387   0.671   0.539
 5443TIP3   OH216334   4.587   2.709   4.102
 5443TIP3    H116335   4.561   2.779   4.162
 5443TIP3    H216336   4.672   2.736   4.068
 5444TIP3   OH216337   4.644   2.447   0.203
 5444TIP3    H116338   4.665   2.409   0.118
 5444TIP3    H216339   4.563   2.403   0.230
 5445TIP3   OH216340   3.267   4.845   0.102
 5445TIP3    H116341   3.210   4.893   0.043
 5445TIP3    H216342   3.267   4.896   0.183
 5446TIP3   OH216343   3.700   4.114   1.835
 5446TIP3    H116344   3.727   4.203   1.811
 5446TIP3    H216345   3.781   4.065   1.840
 5447TIP3   OH216346   3.051   4.911   4.519
 5447TIP3    H116347   3.144   4.911   4.541
 5447TIP3    H216348   3.011   4.964   4.588
 5448TIP3   OH216349   2.040   0.767   1.529
 5448TIP3    H116350   2.021   0.738   1.619
 5448TIP3    H216351   2.038   0.863   1.534
 5449TIP3   OH216352   0.415   1.275  -0.010
 5449TIP3    H116353   0.385   1.184  -0.008
 5449TIP3    H216354   0.338   1.326  -0.034
 5450TIP3   OH216355   4.479   2.066   3.389
 5450TIP3    H116356   4.392   2.078   3.428
 5450TIP3    H216357   4.522   2.001   3.445
 5451TIP3   OH216358   0.012   4.217   0.021
 5451TIP3    H116359   0.035   4.292   0.076
 5451TIP3    H216360   0.060   4.230  -0.060
 5452TIP3   OH216361   2.938   1.287   4.715
 5452TIP3    H116362   3.002   1.320   4.651
 5452TIP3    H216363   2.931   1.358   4.779
 5453TIP3   OH216364   1.506   4.997   0.163
 5453TIP3    H116365   1.595   5.013   0.131
 5453TIP3    H216366   1.514   5.001   0.258
 5454TIP3   OH216367   1.833   3.000   4.181
 5454TIP3    H116368   1.743   3.032   4.177
 5454TIP3    H216369   1.884   3.077   4.205
 5455TIP3   OH216370   3.856   2.619   1.513
 5455TIP3    H116371   3.764   2.646   1.514
 5455TIP3    H216372   3.904   2.700   1.531
 5456TIP3   OH216373   0.025   1.914   4.233
 5456TIP3    H116374   0.008   1.960   4.315
 5456TIP3    H216375   0.085   1.844   4.256
 5457TIP3   OH216376   5.658   4.757   0.886
 5457TIP3    H116377   5.594   4.800   0.828
 5457TIP3    H216378   5.625   4.668   0.895
 5458TIP3   OH216379   2.026   4.984   1.984
 5458TIP3    H116380   1.968   5.033   1.926
 5458TIP3    H216381   2.095   4.950   1.928
 5459TIP3   OH216382   0.559   4.074   1.269
 5459TIP3    H116383   0.472   4.108   1.294
 5459TIP3    H216384   0.577   4.006   1.334
 5460TIP3   OH216385   0.559   0.644   4.065
 5460TIP3    H116386   0.522   0.560   4.037
 5460TIP3    H216387   0.566   0.637   4.160
 5461TIP3   OH216388   1.016   0.758   3.431
 5461TIP3    H116389   1.099   0.730   3.469
 5461TIP3    H216390   0.949   0.717   3.486
 5462TIP3   OH216391   5.847   3.079   1.807
 5462TIP3    H116392   5.919   3.130   1.845
 5462TIP3    H216393   5.768   3.121   1.839
 5463TIP3   OH216394   2.059   4.630   2.911
 5463TIP3    H116395   2.046   4.536   2.922
 5463TIP3    H216396   1.978   4.669   2.946
 5464TIP3   OH216397   2.237   4.232   2.458
 5464TIP3    H116398   2.175   4.161   2.470
 5464TIP3    H216399   2.202   4.283   2.385
 5465TIP3   OH216400   4.147   0.680   0.143
 5465TIP3    H116401   4.183   0.751   0.090
 5465TIP3    H216402   4.080   0.640   0.088
 5466TIP3   OH216403   5.624   2.129   1.228
 5466TIP3    H116404   5.690   2.082   1.178
 5466TIP3    H216405   5.616   2.214   1.184
 5467TIP3   OH216406   2.092   3.964   2.301
 5467TIP3    H116407   2.103   3.971   2.396
 5467TIP3    H216408   2.004   3.999   2.285
 5468TIP3   OH216409   5.065   5.178   4.231
 5468TIP3    H116410   5.064   5.097   4.282
 5468TIP3    H216411   4.996   5.231   4.271
 5469TIP3   OH216412   3.409   0.131   0.128
 5469TIP3    H116413   3.376   0.209   0.172
 5469TIP3    H216414   3.504   0.137   0.138
 5470TIP3   OH216415   3.541   1.475   1.775
 5470TIP3    H116416   3.458   1.490   1.730
 5470TIP3    H216417   3.559   1.381   1.761
 5471TIP3   OH216418   1.268   5.947   3.240
 5471TIP3    H116419   1.302   6.025   3.197
 5471TIP3    H216420   1.265   5.881   3.170
 5472TIP3   OH216421   2.399   4.989   0.734
 5472TIP3    H116422   2.483   4.946   0.713
 5472TIP3    H216423   2.421   5.051   0.803
 5473TIP3   OH216424   3.184   5.313   3.850
 5473TIP3    H116425   3.103   5.364   3.848
 5473TIP3    H216426   3.157   5.225   3.825
 5474TIP3   OH216427   2.950   5.466   4.993
 5474TIP3    H116428   3.024   5.514   4.957
 5474TIP3    H216429   2.982   5.432   5.076
 5475TIP3   OH216430   6.278   1.419   2.973
 5475TIP3    H116431   6.335   1.427   3.049
 5475TIP3    H216432   6.217   1.349   2.996
 5476TIP3   OH216433   4.377   1.384   2.176
 5476TIP3    H116434   4.348   1.403   2.266
 5476TIP3    H216435   4.396   1.290   2.177
 5477TIP3   OH216436   1.388   4.917   4.294
 5477TIP3    H116437   1.299   4.949   4.275
 5477TIP3    H216438   1.376   4.855   4.365
 5478TIP3   OH216439   5.230   2.167   3.251
 5478TIP3    H116440   5.211   2.074   3.237
 5478TIP3    H216441   5.260   2.172   3.342
 5479TIP3   OH216442   4.541   1.150   2.813
 5479TIP3    H116443   4.452   1.183   2.804
 5479TIP3    H216444   4.535   1.080   2.878
 5480TIP3   OH216445   5.467   2.771   0.756
 5480TIP3    H116446   5.377   2.774   0.722
 5480TIP3    H216447   5.456   2.755   0.850
 5481TIP3   OH216448   1.816   2.472   3.325
 5481TIP3    H116449   1.851   2.522   3.251
 5481TIP3    H216450   1.786   2.539   3.386
 5482TIP3   OH216451   1.186   3.666   2.437
 5482TIP3    H116452   1.099   3.704   2.429
 5482TIP3    H216453   1.224   3.673   2.349
 5483TIP3   OH216454   5.053   1.753   0.839
 5483TIP3    H116455   5.059   1.820   0.908
 5483TIP3    H216456   5.100   1.790   0.765
 5484TIP3   OH216457   2.399   5.989   5.110
 5484TIP3    H116458   2.400   5.958   5.020
 5484TIP3    H216459   2.306   5.992   5.134
 5485TIP3   OH216460   4.446   1.745   0.101
 5485TIP3    H116461   4.476   1.655   0.089
 5485TIP3    H216462   4.513   1.799   0.061
 5486TIP3   OH216463   4.436   0.720   4.398
 5486TIP3    H116464   4.483   0.648   4.357
 5486TIP3    H216465   4.503   0.788   4.410
 5487TIP3   OH216466   3.242   0.676   3.854
 5487TIP3    H116467   3.318   0.619   3.848
 5487TIP3    H216468   3.197   0.667   3.770
 5488TIP3   OH216469   2.460   2.360   4.230
 5488TIP3    H116470   2.484   2.451   4.245
 5488TIP3    H216471   2.532   2.325   4.177
 5489TIP3   OH216472   1.191   2.509   2.537
 5489TIP3    H116473   1.216   2.523   2.445
 5489TIP3    H216474   1.253   2.563   2.587
 5490TIP3   OH216475   3.387   0.485   2.035
 5490TIP3    H116476   3.298   0.516   2.017
 5490TIP3    H216477   3.428   0.557   2.083
 5491TIP3   OH216478   0.516   1.005   4.939
 5491TIP3    H116479   0.521   0.935   5.005
 5491TIP3    H216480   0.566   1.077   4.978
 5492TIP3   OH216481   5.753   0.772   0.011
 5492TIP3    H116482   5.833   0.816  -0.020
 5492TIP3    H216483   5.786   0.700   0.065
 5493TIP3   OH216484   2.142   0.725   2.563
 5493TIP3    H116485   2.194   0.646   2.576
 5493TIP3    H216486   2.099   0.739   2.648
 5494TIP3   OH216487   5.393   4.207   1.005
 5494TIP3    H116488   5.398   4.302   1.003
 5494TIP3    H216489   5.472   4.180   1.053
 5495TIP3   OH216490   2.818   4.497   4.509
 5495TIP3    H116491   2.879   4.452   4.568
 5495TIP3    H216492   2.769   4.426   4.467
 5496TIP3   OH216493   3.166   1.353   2.336
 5496TIP3    H116494   3.176   1.286   2.403
 5496TIP3    H216495   3.097   1.320   2.279
 5497TIP3   OH216496   5.549   4.558   4.856
 5497TIP3    H116497   5.519   4.639   4.899
 5497TIP3    H216498   5.624   4.585   4.804
 5498TIP3   OH216499   6.349   3.835   1.135
 5498TIP3    H116500   6.254   3.828   1.133
 5498TIP3    H216501   6.377   3.766   1.196
 5499TIP3   OH216502   1.231   5.825   3.480
 5499TIP3    H116503   1.236   5.848   3.387
 5499TIP3    H216504   1.319   5.795   3.502
 5500TIP3   OH216505   3.709   3.071   0.291
 5500TIP3    H116506   3.732   3.094   0.381
 5500TIP3    H216507   3.712   2.975   0.289
 5501TIP3   OH216508   3.797   2.734   1.116
 5501TIP3    H116509   3.882   2.770   1.088
 5501TIP3    H216510   3.809   2.640   1.114
 5502TIP3   OH216511   6.066   1.126   3.558
 5502TIP3    H116512   6.138   1.186   3.538
 5502TIP3    H216513   6.051   1.079   3.476
 5503TIP3   OH216514   4.780   1.732   2.276
 5503TIP3    H116515   4.695   1.704   2.311
 5503TIP3    H216516   4.844   1.702   2.340
 5504TIP3   OH216517   5.216   4.554   2.624
 5504TIP3    H116518   5.239   4.630   2.678
 5504TIP3    H216519   5.285   4.490   2.640
 5505TIP3   OH216520  -0.004   4.612   2.824
 5505TIP3    H116521  -0.022   4.547   2.892
 5505TIP3    H216522   0.089   4.601   2.804
 5506TIP3   OH216523   6.129   3.310   2.305
 5506TIP3    H116524   6.096   3.222   2.323
 5506TIP3    H216525   6.058   3.353   2.258
 5507TIP3   OH216526   3.757   3.134   4.551
 5507TIP3    H116527   3.838   3.082   4.546
 5507TIP3    H216528   3.762   3.178   4.636
 5508TIP3   OH216529   5.965   5.806   2.279
 5508TIP3    H116530   5.914   5.725   2.270
 5508TIP3    H216531   5.931   5.864   2.211
 5509TIP3   OH216532   0.518   4.207   1.007
 5509TIP3    H116533   0.452   4.276   1.008
 5509TIP3    H216534   0.538   4.190   1.099
 5510TIP3   OH216535   5.334   0.454   2.768
 5510TIP3    H116536   5.274   0.408   2.708
 5510TIP3    H216537   5.412   0.399   2.770
 5511TIP3   OH216538   0.674   1.043   1.245
 5511TIP3    H116539   0.766   1.023   1.259
 5511TIP3    H216540   0.674   1.106   1.173
 5512TIP3   OH216541   0.189   0.780   1.683
 5512TIP3    H116542   0.222   0.731   1.608
 5512TIP3    H216543   0.198   0.720   1.757
 5513TIP3   OH216544   5.504   5.746   0.183
 5513TIP3    H116545   5.495   5.693   0.262
 5513TIP3    H216546   5.424   5.728   0.133
 5514TIP3   OH216547   0.959   0.053   3.976
 5514TIP3    H116548   0.940   0.077   3.886
 5514TIP3    H216549   1.043   0.094   3.995
 5515TIP3   OH216550   2.981   1.168   4.405
 5515TIP3    H116551   3.030   1.104   4.457
 5515TIP3    H216552   2.891   1.161   4.437
 5516TIP3   OH216553   3.327   0.242   2.529
 5516TIP3    H116554   3.391   0.242   2.457
 5516TIP3    H216555   3.272   0.318   2.511
 5517TIP3   OH216556   5.134   3.005   1.774
 5517TIP3    H116557   5.111   2.980   1.864
 5517TIP3    H216558   5.209   2.950   1.752
 5518TIP3   OH216559   5.152   3.420   2.400
 5518TIP3    H116560   5.176   3.365   2.325
 5518TIP3    H216561   5.080   3.474   2.369
 5519TIP3   OH216562   2.757   0.829   0.866
 5519TIP3    H116563   2.850   0.834   0.888
 5519TIP3    H216564   2.752   0.862   0.776
 5520TIP3   OH216565   0.788   5.393   4.608
 5520TIP3    H116566   0.857   5.449   4.642
 5520TIP3    H216567   0.709   5.419   4.655
 5521TIP3   OH216568   0.978   3.707   1.731
 5521TIP3    H116569   1.017   3.622   1.753
 5521TIP3    H216570   0.883   3.693   1.739
 5522TIP3   OH216571   5.095   3.221   3.128
 5522TIP3    H116572   5.060   3.136   3.104
 5522TIP3    H216573   5.085   3.275   3.049
 5523TIP3   OH216574   5.516   3.505   1.043
 5523TIP3    H116575   5.473   3.589   1.059
 5523TIP3    H216576   5.587   3.526   0.983
 5524TIP3   OH216577   4.629   2.881   1.681
 5524TIP3    H116578   4.712   2.896   1.726
 5524TIP3    H216579   4.633   2.937   1.604
 5525TIP3   OH216580   3.959   0.236   4.306
 5525TIP3    H116581   3.982   0.219   4.215
 5525TIP3    H216582   4.023   0.301   4.335
 5526TIP3   OH216583   0.532   1.200   2.351
 5526TIP3    H116584   0.547   1.109   2.378
 5526TIP3    H216585   0.613   1.225   2.307
 5527TIP3   OH216586   2.634   4.332   4.392
 5527TIP3    H116587   2.665   4.247   4.360
 5527TIP3    H216588   2.599   4.376   4.314
 5528TIP3   OH216589   0.791   5.250   4.901
 5528TIP3    H116590   0.825   5.302   4.828
 5528TIP3    H216591   0.711   5.294   4.927
 5529TIP3   OH216592   3.055   2.791   1.550
 5529TIP3    H116593   3.009   2.720   1.595
 5529TIP3    H216594   2.985   2.848   1.518
 5530TIP3   OH216595   3.494   2.919   2.471
 5530TIP3    H116596   3.582   2.882   2.469
 5530TIP3    H216597   3.506   3.011   2.450
 5531TIP3   OH216598   3.517   4.099   0.042
 5531TIP3    H116599   3.597   4.047   0.031
 5531TIP3    H216600   3.547   4.190   0.041
 5532TIP3   OH216601   5.387   0.904   4.652
 5532TIP3    H116602   5.475   0.877   4.678
 5532TIP3    H216603   5.355   0.956   4.727
 5533TIP3   OH216604   1.137   5.021   0.316
 5533TIP3    H116605   1.104   4.973   0.392
 5533TIP3    H216606   1.142   4.956   0.246
 5534TIP3   OH216607   0.432   2.496   1.672
 5534TIP3    H116608   0.351   2.446   1.671
 5534TIP3    H216609   0.478   2.468   1.592
 5535TIP3   OH216610   0.780   2.221   1.998
 5535TIP3    H116611   0.725   2.284   1.951
 5535TIP3    H216612   0.869   2.253   1.985
 5536TIP3   OH216613   5.894   1.273   3.246
 5536TIP3    H116614   5.896   1.252   3.153
 5536TIP3    H216615   5.971   1.329   3.259
 5537TIP3   OH216616   0.550   2.231   4.356
 5537TIP3    H116617   0.586   2.258   4.440
 5537TIP3    H216618   0.477   2.172   4.378
 5538TIP3   OH216619   0.295   3.837   0.581
 5538TIP3    H116620   0.232   3.908   0.569
 5538TIP3    H216621   0.270   3.772   0.515
 5539TIP3   OH216622   5.685   4.324   3.629
 5539TIP3    H116623   5.698   4.242   3.677
 5539TIP3    H216624   5.639   4.381   3.691
 5540TIP3   OH216625   4.882   0.011   4.772
 5540TIP3    H116626   4.898   0.051   4.857
 5540TIP3    H216627   4.824   0.073   4.727
 5541TIP3   OH216628   6.215   0.180   0.870
 5541TIP3    H116629   6.262   0.119   0.927
 5541TIP3    H216630   6.157   0.228   0.929
 5542TIP3   OH216631   3.070   0.533   3.628
 5542TIP3    H116632   3.052   0.627   3.622
 5542TIP3    H216633   3.101   0.509   3.540
 5543TIP3   OH216634   0.008   1.768   0.898
 5543TIP3    H116635  -0.020   1.792   0.810
 5543TIP3    H216636   0.063   1.690   0.885
 5544TIP3   OH216637   1.991   2.134   3.809
 5544TIP3    H116638   1.969   2.140   3.716
 5544TIP3    H216639   1.957   2.048   3.836
 5545TIP3   OH216640   5.170   5.461   0.711
 5545TIP3    H116641   5.227   5.536   0.732
 5545TIP3    H216642   5.227   5.398   0.668
 5546TIP3   OH216643   1.219   4.132   2.288
 5546TIP3    H116644   1.193   4.089   2.206
 5546TIP3    H216645   1.314   4.140   2.281
 5547TIP3   OH216646   5.325   1.672   0.430
 5547TIP3    H116647   5.359   1.732   0.496
 5547TIP3    H216648   5.401   1.622   0.401
 5548TIP3   OH216649   3.180   3.546   4.407
 5548TIP3    H116650   3.095   3.514   4.438
 5548TIP3    H216651   3.239   3.533   4.481
 5549TIP3   OH216652   1.775   3.516   2.536
 5549TIP3    H116653   1.829   3.463   2.594
 5549TIP3    H216654   1.837   3.569   2.486
 5550TIP3   OH216655   1.740   1.491   4.771
 5550TIP3    H116656   1.650   1.485   4.740
 5550TIP3    H216657   1.778   1.405   4.754
 5551TIP3   OH216658   3.902   4.348   0.772
 5551TIP3    H116659   3.990   4.373   0.800
 5551TIP3    H216660   3.853   4.430   0.771
 5552TIP3   OH216661   1.400   2.316   0.221
 5552TIP3    H116662   1.442   2.382   0.275
 5552TIP3    H216663   1.396   2.355   0.134
 5553TIP3   OH216664   3.401   3.559   3.180
 5553TIP3    H116665   3.487   3.583   3.213
 5553TIP3    H216666   3.363   3.642   3.151
 5554TIP3   OH216667   2.789   1.344   3.347
 5554TIP3    H116668   2.760   1.431   3.373
 5554TIP3    H216669   2.728   1.318   3.277
 5555TIP3   OH216670   1.196   5.217   3.066
 5555TIP3    H116671   1.124   5.184   3.012
 5555TIP3    H216672   1.248   5.270   3.006
 5556TIP3   OH216673   4.242   3.614   1.189
 5556TIP3    H116674   4.246   3.697   1.238
 5556TIP3    H216675   4.223   3.641   1.099
 5557TIP3   OH216676   0.386   5.410   2.831
 5557TIP3    H116677   0.369   5.316   2.821
 5557TIP3    H216678   0.331   5.452   2.765
 5558TIP3   OH216679   4.234   3.224   3.292
 5558TIP3    H116680   4.302   3.157   3.287
 5558TIP3    H216681   4.161   3.180   3.336
 5559TIP3   OH216682   0.430   2.671   0.643
 5559TIP3    H116683   0.359   2.730   0.619
 5559TIP3    H216684   0.452   2.625   0.562
 5560TIP3   OH216685   2.579   4.131   2.297
 5560TIP3    H116686   2.539   4.049   2.327
 5560TIP3    H216687   2.543   4.144   2.209
 5561TIP3   OH216688   1.496   3.251   3.041
 5561TIP3    H116689   1.469   3.335   3.077
 5561TIP3    H216690   1.584   3.236   3.076
 5562TIP3   OH216691   4.739   3.011   2.349
 5562TIP3    H116692   4.661   3.034   2.398
 5562TIP3    H216693   4.779   2.939   2.399
 5563TIP3   OH216694   1.341   5.417   0.602
 5563TIP3    H116695   1.298   5.501   0.589
 5563TIP3    H216696   1.279   5.367   0.655
 5564TIP3   OH216697   4.704   2.684   2.854
 5564TIP3    H116698   4.641   2.623   2.818
 5564TIP3    H216699   4.656   2.728   2.925
 5565TIP3   OH216700   2.408   2.456   1.600
 5565TIP3    H116701   2.446   2.528   1.650
 5565TIP3    H216702   2.313   2.466   1.611
 5566TIP3   OH216703   6.177   4.087   0.864
 5566TIP3    H116704   6.185   4.138   0.944
 5566TIP3    H216705   6.128   4.143   0.804
 5567TIP3   OH216706   5.163   3.231   0.496
 5567TIP3    H116707   5.078   3.247   0.539
 5567TIP3    H216708   5.159   3.280   0.415
 5568TIP3   OH216709   2.540   1.844   2.795
 5568TIP3    H116710   2.503   1.756   2.786
 5568TIP3    H216711   2.562   1.851   2.888
 5569TIP3   OH216712   4.253   2.348   0.383
 5569TIP3    H116713   4.277   2.430   0.426
 5569TIP3    H216714   4.285   2.358   0.293
 5570TIP3   OH216715   1.950   4.831   5.074
 5570TIP3    H116716   1.872   4.823   5.019
 5570TIP3    H216717   1.966   4.925   5.080
 5571TIP3   OH216718   2.046   3.153   4.273
 5571TIP3    H116719   2.121   3.111   4.231
 5571TIP3    H216720   2.065   3.147   4.367
 5572TIP3   OH216721   5.162   3.933   0.820
 5572TIP3    H116722   5.197   3.869   0.882
 5572TIP3    H216723   5.106   3.882   0.761
 5573TIP3   OH216724   3.727   0.329   3.830
 5573TIP3    H116725   3.778   0.259   3.871
 5573TIP3    H216726   3.792   0.393   3.801
 5574TIP3   OH216727   2.531   5.740   0.214
 5574TIP3    H116728   2.515   5.798   0.289
 5574TIP3    H216729   2.626   5.742   0.202
 5575TIP3   OH216730   5.673   5.873   1.508
 5575TIP3    H116731   5.613   5.943   1.534
 5575TIP3    H216732   5.760   5.914   1.511
 5576TIP3   OH216733   0.149   2.567   0.350
 5576TIP3    H116734   0.161   2.525   0.264
 5576TIP3    H216735   0.055   2.569   0.362
 5577TIP3   OH216736   0.358   1.198   0.933
 5577TIP3    H116737   0.278   1.147   0.925
 5577TIP3    H216738   0.421   1.153   0.875
 5578TIP3   OH216739   5.895   0.727   3.942
 5578TIP3    H116740   5.945   0.776   3.877
 5578TIP3    H216741   5.955   0.714   4.015
 5579TIP3   OH216742   1.907   1.728   1.926
 5579TIP3    H116743   1.969   1.655   1.921
 5579TIP3    H216744   1.849   1.705   1.998
 5580TIP3   OH216745   0.197   5.712   3.908
 5580TIP3    H116746   0.233   5.658   3.838
 5580TIP3    H216747   0.251   5.692   3.984
 5581TIP3   OH216748   0.007   2.011   3.616
 5581TIP3    H116749  -0.013   2.084   3.675
 5581TIP3    H216750   0.043   1.944   3.674
 5582TIP3   OH216751   1.254   4.925   3.947
 5582TIP3    H116752   1.242   4.955   4.037
 5582TIP3    H216753   1.179   4.960   3.900
 5583TIP3   OH216754   3.213   3.235   0.306
 5583TIP3    H116755   3.231   3.233   0.213
 5583TIP3    H216756   3.209   3.328   0.328
 5584TIP3   OH216757   3.761   3.122   1.120
 5584TIP3    H116758   3.821   3.062   1.075
 5584TIP3    H216759   3.688   3.132   1.059
 5585TIP3   OH216760   0.773   2.360   1.417
 5585TIP3    H116761   0.854   2.334   1.462
 5585TIP3    H216762   0.769   2.455   1.428
 5586TIP3   OH216763   5.104   4.245   4.354
 5586TIP3    H116764   5.154   4.326   4.340
 5586TIP3    H216765   5.016   4.275   4.374
 5587TIP3   OH216766   2.119   4.534   3.252
 5587TIP3    H116767   2.027   4.529   3.276
 5587TIP3    H216768   2.153   4.446   3.269
 5588TIP3   OH216769   0.721   2.861   2.044
 5588TIP3    H116770   0.737   2.769   2.064
 5588TIP3    H216771   0.776   2.879   1.968
 5589TIP3   OH216772   0.938   5.818   1.813
 5589TIP3    H116773   0.994   5.762   1.865
 5589TIP3    H216774   0.920   5.768   1.734
 5590TIP3   OH216775   0.559   1.063   2.734
 5590TIP3    H116776   0.528   1.018   2.656
 5590TIP3    H216777   0.643   1.100   2.708
 5591TIP3   OH216778   5.578   2.598   1.781
 5591TIP3    H116779   5.655   2.650   1.761
 5591TIP3    H216780   5.608   2.507   1.779
 5592TIP3   OH216781   3.702   0.461   2.893
 5592TIP3    H116782   3.622   0.428   2.933
 5592TIP3    H216783   3.689   0.556   2.886
 5593TIP3   OH216784   3.872   0.035   2.245
 5593TIP3    H116785   3.891   0.096   2.316
 5593TIP3    H216786   3.959   0.009   2.213
 5594TIP3   OH216787   5.840   2.386   2.780
 5594TIP3    H116788   5.874   2.459   2.832
 5594TIP3    H216789   5.842   2.417   2.690
 5595TIP3   OH216790   4.816   0.705   0.235
 5595TIP3    H116791   4.843   0.710   0.143
 5595TIP3    H216792   4.728   0.744   0.236
 5596TIP3   OH216793   4.936   2.107   0.040
 5596TIP3    H116794   4.988   2.056  -0.023
 5596TIP3    H216795   4.989   2.110   0.119
 5597TIP3   OH216796   5.204   2.458   0.683
 5597TIP3    H116797   5.116   2.457   0.722
 5597TIP3    H216798   5.255   2.401   0.741
 5598TIP3   OH216799   3.358   5.712   5.074
 5598TIP3    H116800   3.423   5.779   5.095
 5598TIP3    H216801   3.409   5.631   5.069
 5599TIP3   OH216802   4.827   3.801   0.148
 5599TIP3    H116803   4.738   3.793   0.181
 5599TIP3    H216804   4.835   3.730   0.083
 5600TIP3   OH216805   0.113   5.210   3.612
 5600TIP3    H116806   0.055   5.282   3.589
 5600TIP3    H216807   0.067   5.163   3.682
 5601TIP3   OH216808   1.878   2.443   2.205
 5601TIP3    H116809   1.903   2.515   2.147
 5601TIP3    H216810   1.784   2.455   2.218
 5602TIP3   OH216811   2.847   2.663   1.875
 5602TIP3    H116812   2.802   2.738   1.838
 5602TIP3    H216813   2.908   2.635   1.807
 5603TIP3   OH216814   6.000   4.078   1.853
 5603TIP3    H116815   6.046   4.009   1.901
 5603TIP3    H216816   5.950   4.031   1.786
 5604TIP3   OH216817   3.046   5.927   2.280
 5604TIP3    H116818   3.101   5.935   2.202
 5604TIP3    H216819   3.088   5.858   2.331
 5605TIP3   OH216820   1.829   3.531   3.219
 5605TIP3    H116821   1.734   3.532   3.206
 5605TIP3    H216822   1.862   3.472   3.152
 5606TIP3   OH216823   1.225   1.878   4.183
 5606TIP3    H116824   1.212   1.813   4.252
 5606TIP3    H216825   1.218   1.828   4.101
 5607TIP3   OH216826   2.442   4.891   1.079
 5607TIP3    H116827   2.533   4.892   1.048
 5607TIP3    H216828   2.442   4.826   1.149
 5608TIP3   OH216829   5.683   5.588   0.871
 5608TIP3    H116830   5.760   5.627   0.832
 5608TIP3    H216831   5.679   5.500   0.834
 5609TIP3   OH216832   1.629  -0.002   3.596
 5609TIP3    H116833   1.618   0.004   3.691
 5609TIP3    H216834   1.648   0.087   3.568
 5610TIP3   OH216835   3.549   5.567   4.916
 5610TIP3    H116836   3.484   5.519   4.864
 5610TIP3    H216837   3.575   5.640   4.861
 5611TIP3   OH216838   1.066   0.721   0.868
 5611TIP3    H116839   1.051   0.813   0.844
 5611TIP3    H216840   1.109   0.725   0.953
 5612TIP3   OH216841   0.451   2.627   2.584
 5612TIP3    H116842   0.369   2.664   2.549
 5612TIP3    H216843   0.474   2.686   2.656
 5613TIP3   OH216844   1.828   1.716   4.916
 5613TIP3    H116845   1.749   1.771   4.916
 5613TIP3    H216846   1.809   1.646   4.853
 5614TIP3   OH216847   3.064   4.394   0.666
 5614TIP3    H116848   3.019   4.320   0.626
 5614TIP3    H216849   3.034   4.470   0.616
 5615TIP3   OH216850   3.780   1.228   1.934
 5615TIP3    H116851   3.783   1.316   1.972
 5615TIP3    H216852   3.770   1.243   1.840
 5616TIP3   OH216853   0.700   3.892   2.128
 5616TIP3    H116854   0.785   3.856   2.103
 5616TIP3    H216855   0.655   3.819   2.170
 5617TIP3   OH216856   2.541   1.437   4.425
 5617TIP3    H116857   2.503   1.353   4.452
 5617TIP3    H216858   2.524   1.496   4.499
 5618TIP3   OH216859   3.336   2.905   3.548
 5618TIP3    H116860   3.344   2.847   3.472
 5618TIP3    H216861   3.420   2.896   3.593
 5619TIP3   OH216862   6.224   3.503   1.626
 5619TIP3    H116863   6.177   3.460   1.554
 5619TIP3    H216864   6.307   3.456   1.632
 5620TIP3   OH216865   4.299   4.235   0.392
 5620TIP3    H116866   4.267   4.322   0.368
 5620TIP3    H216867   4.336   4.200   0.311
 5621TIP3   OH216868   0.851   2.541   4.299
 5621TIP3    H116869   0.836   2.447   4.290
 5621TIP3    H216870   0.766   2.575   4.329
 5622TIP3   OH216871   4.720   2.676   0.346
 5622TIP3    H116872   4.713   2.595   0.295
 5622TIP3    H216873   4.779   2.653   0.418
 5623TIP3   OH216874   0.711   3.194   3.371
 5623TIP3    H116875   0.633   3.174   3.422
 5623TIP3    H216876   0.698   3.285   3.343
 5624TIP3   OH216877   4.775   5.924   3.632
 5624TIP3    H116878   4.843   5.933   3.564
 5624TIP3    H216879   4.825   5.914   3.713
 5625TIP3   OH216880   5.590   2.513   4.816
 5625TIP3    H116881   5.676   2.500   4.856
 5625TIP3    H216882   5.574   2.432   4.768
 5626TIP3   OH216883   5.283   0.638   3.788
 5626TIP3    H116884   5.224   0.572   3.824
 5626TIP3    H216885   5.257   0.647   3.696
 5627TIP3   OH216886   3.768   5.433   0.289
 5627TIP3    H116887   3.771   5.523   0.258
 5627TIP3    H216888   3.788   5.439   0.382
 5628TIP3   OH216889   1.965   3.598   0.229
 5628TIP3    H116890   2.028   3.563   0.292
 5628TIP3    H216891   1.888   3.540   0.237
 5629TIP3   OH216892   4.309   5.239   3.271
 5629TIP3    H116893   4.385   5.289   3.241
 5629TIP3    H216894   4.342   5.185   3.343
 5630TIP3   OH216895   3.115   1.586   1.430
 5630TIP3    H116896   3.129   1.618   1.341
 5630TIP3    H216897   3.060   1.653   1.471
 5631TIP3   OH216898   0.916   1.034   1.367
 5631TIP3    H116899   0.951   1.118   1.337
 5631TIP3    H216900   0.966   1.015   1.446
 5632TIP3   OH216901   6.160   4.928   3.516
 5632TIP3    H116902   6.082   4.898   3.562
 5632TIP3    H216903   6.143   5.021   3.499
 5633TIP3   OH216904   1.461   3.496   4.031
 5633TIP3    H116905   1.428   3.411   4.003
 5633TIP3    H216906   1.425   3.558   3.968
 5634TIP3   OH216907   3.855   0.097   2.943
 5634TIP3    H116908   3.941   0.140   2.944
 5634TIP3    H216909   3.810   0.133   3.019
 5635TIP3   OH216910   4.099   2.077   1.715
 5635TIP3    H116911   4.117   1.985   1.699
 5635TIP3    H216912   4.100   2.117   1.628
 5636TIP3   OH216913   0.351   4.723   3.102
 5636TIP3    H116914   0.326   4.775   3.179
 5636TIP3    H216915   0.365   4.635   3.137
 5637TIP3   OH216916   4.223   3.996   4.139
 5637TIP3    H116917   4.232   4.087   4.168
 5637TIP3    H216918   4.233   4.000   4.044
 5638TIP3   OH216919   5.291   4.672   2.156
 5638TIP3    H116920   5.318   4.593   2.201
 5638TIP3    H216921   5.218   4.644   2.100
 5639TIP3   OH216922   4.938   0.098   1.722
 5639TIP3    H116923   4.928   0.186   1.757
 5639TIP3    H216924   4.852   0.057   1.735
 5640TIP3   OH216925   2.182   4.991   2.502
 5640TIP3    H116926   2.173   4.928   2.574
 5640TIP3    H216927   2.112   4.969   2.442
 5641TIP3   OH216928   4.136   1.741   3.104
 5641TIP3    H116929   4.106   1.669   3.159
 5641TIP3    H216930   4.227   1.754   3.130
 5642TIP3   OH216931   5.714   1.506   4.055
 5642TIP3    H116932   5.783   1.524   3.991
 5642TIP3    H216933   5.632   1.520   4.006
 5643TIP3   OH216934   2.861   1.862   3.300
 5643TIP3    H116935   2.897   1.886   3.385
 5643TIP3    H216936   2.914   1.913   3.237
 5644TIP3   OH216937   5.575   1.701   2.597
 5644TIP3    H116938   5.523   1.750   2.661
 5644TIP3    H216939   5.562   1.610   2.620
 5645TIP3   OH216940   0.104   4.991   4.750
 5645TIP3    H116941   0.053   4.919   4.713
 5645TIP3    H216942   0.110   5.055   4.680
 5646TIP3   OH216943   3.329   1.601   0.959
 5646TIP3    H116944   3.349   1.693   0.943
 5646TIP3    H216945   3.268   1.602   1.033
 5647TIP3   OH216946   4.803   3.295   3.741
 5647TIP3    H116947   4.816   3.267   3.831
 5647TIP3    H216948   4.708   3.298   3.730
 5648TIP3   OH216949   4.453   1.889   3.118
 5648TIP3    H116950   4.431   1.955   3.052
 5648TIP3    H216951   4.465   1.939   3.199
 5649TIP3   OH216952   4.731   4.834   0.122
 5649TIP3    H116953   4.728   4.928   0.108
 5649TIP3    H216954   4.820   4.817   0.153
 5650TIP3   OH216955   1.256   2.286   1.617
 5650TIP3    H116956   1.204   2.267   1.695
 5650TIP3    H216957   1.278   2.200   1.582
 5651TIP3   OH216958   0.234   4.618   3.881
 5651TIP3    H116959   0.171   4.690   3.888
 5651TIP3    H216960   0.288   4.626   3.960
 5652TIP3   OH216961   2.252   1.343   3.559
 5652TIP3    H116962   2.192   1.418   3.556
 5652TIP3    H216963   2.211   1.276   3.504
 5653TIP3   OH216964   5.477   2.840   2.345
 5653TIP3    H116965   5.506   2.930   2.330
 5653TIP3    H216966   5.386   2.840   2.316
 5654TIP3   OH216967   4.772   0.653   0.855
 5654TIP3    H116968   4.838   0.699   0.802
 5654TIP3    H216969   4.769   0.702   0.937
 5655TIP3   OH216970   4.375   2.346   0.118
 5655TIP3    H116971   4.340   2.362   0.030
 5655TIP3    H216972   4.383   2.251   0.124
 5656TIP3   OH216973   1.823   3.585   0.702
 5656TIP3    H116974   1.897   3.562   0.758
 5656TIP3    H216975   1.839   3.539   0.620
 5657TIP3   OH216976   0.398   5.711   0.487
 5657TIP3    H116977   0.374   5.652   0.415
 5657TIP3    H216978   0.417   5.653   0.560
 5658TIP3   OH216979   0.527   2.288   1.061
 5658TIP3    H116980   0.442   2.321   1.090
 5658TIP3    H216981   0.555   2.229   1.131
 5659TIP3   OH216982   5.948   1.893   2.267
 5659TIP3    H116983   5.884   1.840   2.220
 5659TIP3    H216984   5.953   1.975   2.218
 5660TIP3   OH216985   4.387   5.944   2.781
 5660TIP3    H116986   4.414   6.023   2.828
 5660TIP3    H216987   4.464   5.919   2.730
 5661TIP3   OH216988   4.918   2.693   1.577
 5661TIP3    H116989   4.910   2.754   1.504
 5661TIP3    H216990   4.832   2.653   1.584
 5662TIP3   OH216991   5.597   0.692   1.913
 5662TIP3    H116992   5.558   0.779   1.917
 5662TIP3    H216993   5.616   0.679   1.820
 5663TIP3   OH216994   1.659   1.318   3.271
 5663TIP3    H116995   1.618   1.298   3.186
 5663TIP3    H216996   1.738   1.264   3.272
 5664TIP3   OH216997  -0.016   5.794   3.716
 5664TIP3    H116998   0.034   5.768   3.793
 5664TIP3    H216999  -0.017   5.889   3.718
 5665TIP3   OH217000   0.937   0.699   0.214
 5665TIP3    H117001   0.863   0.707   0.274
 5665TIP3    H217002   0.971   0.788   0.206
 5666TIP3   OH217003   4.872   0.044   3.475
 5666TIP3    H117004   4.918  -0.037   3.495
 5666TIP3    H217005   4.913   0.110   3.532
 5667TIP3   OH217006   3.961   0.535   1.648
 5667TIP3    H117007   3.965   0.604   1.714
 5667TIP3    H217008   4.035   0.553   1.590
 5668TIP3   OH217009   0.687   4.709   3.222
 5668TIP3    H117010   0.671   4.638   3.159
 5668TIP3    H217011   0.709   4.663   3.304
 5669TIP3   OH217012   1.278   1.305   1.808
 5669TIP3    H117013   1.238   1.280   1.725
 5669TIP3    H217014   1.353   1.246   1.818
 5670TIP3   OH217015   2.704   2.410   0.579
 5670TIP3    H117016   2.786   2.428   0.626
 5670TIP3    H217017   2.698   2.315   0.576
 5671TIP3   OH217018   0.398   3.049   2.529
 5671TIP3    H117019   0.438   2.968   2.498
 5671TIP3    H217020   0.354   3.086   2.452
 5672TIP3   OH217021   0.212   4.270   1.981
 5672TIP3    H117022   0.163   4.204   2.031
 5672TIP3    H217023   0.216   4.235   1.892
 5673TIP3   OH217024   3.536   3.264   1.467
 5673TIP3    H117025   3.505   3.256   1.377
 5673TIP3    H217026   3.470   3.319   1.510
 5674TIP3   OH217027   2.155   1.381   3.094
 5674TIP3    H117028   2.140   1.364   3.001
 5674TIP3    H217029   2.068   1.405   3.128
 5675TIP3   OH217030   5.031   3.771   0.614
 5675TIP3    H117031   4.959   3.794   0.555
 5675TIP3    H217032   4.988   3.744   0.695
 5676TIP3   OH217033   4.949   5.422   1.720
 5676TIP3    H117034   4.993   5.392   1.641
 5676TIP3    H217035   4.908   5.505   1.696
 5677TIP3   OH217036   3.358   4.981   3.848
 5677TIP3    H117037   3.401   5.054   3.803
 5677TIP3    H217038   3.428   4.938   3.898
 5678TIP3   OH217039   5.593   1.063   1.572
 5678TIP3    H117040   5.672   1.102   1.534
 5678TIP3    H217041   5.608   1.066   1.666
 5679TIP3   OH217042   5.070   2.356   3.076
 5679TIP3    H117043   4.981   2.366   3.040
 5679TIP3    H217044   5.078   2.262   3.092
 5680TIP3   OH217045   4.205   5.772   4.656
 5680TIP3    H117046   4.256   5.822   4.593
 5680TIP3    H217047   4.224   5.680   4.635
 5681TIP3   OH217048   3.893   1.116   1.191
 5681TIP3    H117049   3.976   1.125   1.238
 5681TIP3    H217050   3.840   1.058   1.246
 5682TIP3   OH217051   5.795   0.478   1.922
 5682TIP3    H117052   5.732   0.550   1.931
 5682TIP3    H217053   5.767   0.413   1.987
 5683TIP3   OH217054   2.063   0.694   3.601
 5683TIP3    H117055   1.975   0.677   3.634
 5683TIP3    H217056   2.112   0.614   3.620
 5684TIP3   OH217057   0.481   3.666   5.132
 5684TIP3    H117058   0.544   3.720   5.085
 5684TIP3    H217059   0.515   3.577   5.124
 5685TIP3   OH217060   1.171   3.177   1.570
 5685TIP3    H117061   1.123   3.253   1.603
 5685TIP3    H217062   1.260   3.209   1.557
 5686TIP3   OH217063   4.609   3.376   0.614
 5686TIP3    H117064   4.688   3.411   0.572
 5686TIP3    H217065   4.563   3.453   0.646
 5687TIP3   OH217066   0.322   0.118   3.682
 5687TIP3    H117067   0.248   0.099   3.738
 5687TIP3    H217068   0.307   0.208   3.652
 5688TIP3   OH217069   4.287   2.986   4.404
 5688TIP3    H117070   4.206   3.037   4.410
 5688TIP3    H217071   4.331   2.999   4.488
 5689TIP3   OH217072   5.968   1.970   0.668
 5689TIP3    H117073   5.875   1.969   0.690
 5689TIP3    H217074   6.004   2.044   0.716
 5690TIP3   OH217075   2.473   3.778   4.728
 5690TIP3    H117076   2.517   3.697   4.703
 5690TIP3    H217077   2.397   3.783   4.670
 5691TIP3   OH217078   0.859   0.179   1.519
 5691TIP3    H117079   0.839   0.272   1.519
 5691TIP3    H217080   0.890   0.161   1.607
 5692TIP3   OH217081   0.526   0.427   3.903
 5692TIP3    H117082   0.510   0.413   3.810
 5692TIP3    H217083   0.598   0.368   3.924
 5693TIP3   OH217084   2.116   3.443   2.062
 5693TIP3    H117085   2.140   3.450   2.154
 5693TIP3    H217086   2.022   3.460   2.060
 5694TIP3   OH217087   1.995   2.216   0.608
 5694TIP3    H117088   1.972   2.285   0.670
 5694TIP3    H217089   1.959   2.136   0.647
 5695TIP3   OH217090   3.621   1.005   3.096
 5695TIP3    H117091   3.686   0.936   3.083
 5695TIP3    H217092   3.669   1.075   3.140
 5696TIP3   OH217093   4.028   3.845   4.278
 5696TIP3    H117094   4.092   3.890   4.222
 5696TIP3    H217095   4.081   3.803   4.345
 5697TIP3   OH217096   2.993   4.905   2.336
 5697TIP3    H117097   2.928   4.860   2.390
 5697TIP3    H217098   3.072   4.852   2.344
 5698TIP3   OH217099   3.361   5.063   0.883
 5698TIP3    H117100   3.398   4.993   0.938
 5698TIP3    H217101   3.433   5.126   0.873
 5699TIP3   OH217102   4.663   4.847   1.614
 5699TIP3    H117103   4.590   4.788   1.635
 5699TIP3    H217104   4.737   4.812   1.663
 5700TIP3   OH217105   3.410   2.777   2.836
 5700TIP3    H117106   3.434   2.727   2.914
 5700TIP3    H217107   3.491   2.784   2.786
 5701TIP3   OH217108   5.748   5.841   0.116
 5701TIP3    H117109   5.726   5.927   0.080
 5701TIP3    H217110   5.663   5.801   0.137
 5702TIP3   OH217111   0.555   5.027   4.595
 5702TIP3    H117112   0.481   4.975   4.562
 5702TIP3    H217113   0.556   5.009   4.689
 5703TIP3   OH217114   1.070   0.161   1.240
 5703TIP3    H117115   1.114   0.116   1.168
 5703TIP3    H217116   1.058   0.094   1.307
 5704TIP3   OH217117   0.333   4.396   0.991
 5704TIP3    H117118   0.373   4.478   0.963
 5704TIP3    H217119   0.257   4.423   1.042
 5705TIP3   OH217120   0.733   1.932   4.868
 5705TIP3    H117121   0.711   1.878   4.944
 5705TIP3    H217122   0.821   1.903   4.843
 5706TIP3   OH217123   0.129   5.669   0.090
 5706TIP3    H117124   0.121   5.676  -0.005
 5706TIP3    H217125   0.056   5.721   0.125
 5707TIP3   OH217126   5.129   4.301   3.996
 5707TIP3    H117127   5.060   4.330   4.055
 5707TIP3    H217128   5.113   4.208   3.983
 5708TIP3   OH217129   2.416   4.518   2.839
 5708TIP3    H117130   2.395   4.585   2.774
 5708TIP3    H217131   2.492   4.473   2.803
 5709TIP3   OH217132   5.636   4.888   3.124
 5709TIP3    H117133   5.729   4.904   3.110
 5709TIP3    H217134   5.616   4.932   3.206
 5710TIP3   OH217135   2.755   0.636   1.062
 5710TIP3    H117136   2.742   0.693   0.986
 5710TIP3    H217137   2.683   0.574   1.059
 5711TIP3   OH217138   4.788   2.404   2.984
 5711TIP3    H117139   4.800   2.491   3.022
 5711TIP3    H217140   4.693   2.396   2.972
 5712TIP3   OH217141   0.220   1.717   4.190
 5712TIP3    H117142   0.278   1.721   4.266
 5712TIP3    H217143   0.216   1.624   4.168
 5713TIP3   OH217144   4.423   4.819   4.780
 5713TIP3    H117145   4.367   4.896   4.773
 5713TIP3    H217146   4.500   4.849   4.829
 5714TIP3   OH217147   1.651   0.323   3.019
 5714TIP3    H117148   1.702   0.242   3.015
 5714TIP3    H217149   1.607   0.320   3.104
 5715TIP3   OH217150   4.446   3.560   4.239
 5715TIP3    H117151   4.419   3.651   4.249
 5715TIP3    H217152   4.471   3.552   4.147
 5716TIP3   OH217153   3.113   0.904   1.816
 5716TIP3    H117154   3.035   0.856   1.788
 5716TIP3    H217155   3.098   0.922   1.909
 5717TIP3   OH217156   2.029   5.887   2.960
 5717TIP3    H117157   2.069   5.932   2.885
 5717TIP3    H217158   2.028   5.795   2.935
 5718TIP3   OH217159   0.259   1.347   4.211
 5718TIP3    H117160   0.178   1.391   4.236
 5718TIP3    H217161   0.276   1.285   4.282
 5719TIP3   OH217162   3.890   1.764   1.598
 5719TIP3    H117163   3.895   1.672   1.571
 5719TIP3    H217164   3.958   1.773   1.665
 5720TIP3   OH217165   4.354   1.266   0.403
 5720TIP3    H117166   4.288   1.311   0.455
 5720TIP3    H217167   4.313   1.251   0.318
 5721TIP3   OH217168   3.282   3.974   2.543
 5721TIP3    H117169   3.268   4.046   2.605
 5721TIP3    H217170   3.377   3.969   2.533
 5722TIP3   OH217171   4.375   3.988   2.434
 5722TIP3    H117172   4.375   4.083   2.442
 5722TIP3    H217173   4.457   3.967   2.390
 5723TIP3   OH217174   5.816   2.822   3.084
 5723TIP3    H117175   5.805   2.770   3.005
 5723TIP3    H217176   5.767   2.903   3.067
 5724TIP3   OH217177   2.877   4.264   1.204
 5724TIP3    H117178   2.940   4.276   1.132
 5724TIP3    H217179   2.828   4.346   1.207
 5725TIP3   OH217180   0.676   4.271   1.934
 5725TIP3    H117181   0.629   4.198   1.893
 5725TIP3    H217182   0.763   4.237   1.952
 5726TIP3   OH217183   5.914   4.894   3.089
 5726TIP3    H117184   5.960   4.829   3.142
 5726TIP3    H217185   5.955   4.889   3.003
 5727TIP3   OH217186   2.844   0.235   1.269
 5727TIP3    H117187   2.841   0.140   1.280
 5727TIP3    H217188   2.869   0.269   1.355
 5728TIP3   OH217189   2.293   2.058   3.041
 5728TIP3    H117190   2.306   2.092   2.953
 5728TIP3    H217191   2.204   2.085   3.065
 5729TIP3   OH217192   1.982   2.792   0.775
 5729TIP3    H117193   2.024   2.832   0.700
 5729TIP3    H217194   2.038   2.814   0.849
 5730TIP3   OH217195   1.297   1.045   2.904
 5730TIP3    H117196   1.372   1.010   2.951
 5730TIP3    H217197   1.333   1.114   2.849
 5731TIP3   OH217198   3.928   1.001   0.361
 5731TIP3    H117199   4.019   0.976   0.346
 5731TIP3    H217200   3.883   0.919   0.382
 5732TIP3   OH217201   1.902   2.816   3.353
 5732TIP3    H117202   1.923   2.743   3.410
 5732TIP3    H217203   1.979   2.872   3.356
 5733TIP3   OH217204   5.586   4.156   1.622
 5733TIP3    H117205   5.660   4.168   1.682
 5733TIP3    H217206   5.523   4.222   1.649
 5734TIP3   OH217207   5.618   1.435   1.516
 5734TIP3    H117208   5.596   1.528   1.504
 5734TIP3    H217209   5.682   1.435   1.588
 5735TIP3   OH217210   1.815   5.519   1.761
 5735TIP3    H117211   1.809   5.482   1.849
 5735TIP3    H217212   1.750   5.470   1.710
 5736TIP3   OH217213   1.902   4.031   4.483
 5736TIP3    H117214   1.959   4.052   4.557
 5736TIP3    H217215   1.906   3.936   4.476
 5737TIP3   OH217216   1.646   3.182   5.084
 5737TIP3    H117217   1.714   3.231   5.037
 5737TIP3    H217218   1.683   3.167   5.171
 5738TIP3   OH217219   1.049   5.202   1.255
 5738TIP3    H117220   0.959   5.189   1.225
 5738TIP3    H217221   1.050   5.291   1.289
 5739TIP3   OH217222   1.212   5.955   0.364
 5739TIP3    H117223   1.255   6.036   0.389
 5739TIP3    H217224   1.242   5.937   0.275
 5740TIP3   OH217225   5.890   3.489   0.283
 5740TIP3    H117226   5.850   3.519   0.202
 5740TIP3    H217227   5.963   3.434   0.255
 5741TIP3   OH217228   1.563   5.081   1.451
 5741TIP3    H117229   1.529   5.155   1.401
 5741TIP3    H217230   1.658   5.083   1.436
 5742TIP3   OH217231   1.332   0.063   0.125
 5742TIP3    H117232   1.304   0.047   0.215
 5742TIP3    H217233   1.270   0.013   0.071
 5743TIP3   OH217234   1.217   3.109   1.049
 5743TIP3    H117235   1.290   3.068   1.004
 5743TIP3    H217236   1.170   3.036   1.090
 5744TIP3   OH217237   4.726   0.900   4.796
 5744TIP3    H117238   4.763   0.817   4.765
 5744TIP3    H217239   4.794   0.965   4.778
 5745TIP3   OH217240   1.437   0.194   4.734
 5745TIP3    H117241   1.388   0.158   4.807
 5745TIP3    H217242   1.370   0.218   4.669
 5746TIP3   OH217243   0.295   3.258   2.955
 5746TIP3    H117244   0.344   3.277   2.876
 5746TIP3    H217245   0.362   3.244   3.022
 5747TIP3   OH217246   4.049   1.069   4.936
 5747TIP3    H117247   4.032   1.036   5.024
 5747TIP3    H217248   4.099   0.999   4.893
 5748TIP3   OH217249   3.253   2.901   4.226
 5748TIP3    H117250   3.165   2.879   4.195
 5748TIP3    H217251   3.256   2.997   4.221
 5749TIP3   OH217252   4.499   4.391   1.567
 5749TIP3    H117253   4.438   4.465   1.570
 5749TIP3    H217254   4.498   4.356   1.656
 5750TIP3   OH217255   1.879   0.510   3.990
 5750TIP3    H117256   1.801   0.553   3.955
 5750TIP3    H217257   1.861   0.498   4.083
 5751TIP3   OH217258   2.393   4.570   1.331
 5751TIP3    H117259   2.416   4.663   1.329
 5751TIP3    H217260   2.369   4.553   1.422
 5752TIP3   OH217261   3.192   4.544   2.886
 5752TIP3    H117262   3.142   4.536   2.967
 5752TIP3    H217263   3.247   4.466   2.884
 5753TIP3   OH217264   2.059   5.259   2.576
 5753TIP3    H117265   2.128   5.324   2.563
 5753TIP3    H217266   2.096   5.178   2.542
 5754TIP3   OH217267   4.650   0.353   0.124
 5754TIP3    H117268   4.701   0.322   0.049
 5754TIP3    H217269   4.577   0.401   0.085
 5755TIP3   OH217270   0.891   1.706   3.182
 5755TIP3    H117271   0.877   1.790   3.138
 5755TIP3    H217272   0.972   1.672   3.144
 5756TIP3   OH217273   1.903   5.968   5.077
 5756TIP3    H117274   1.834   5.911   5.109
 5756TIP3    H217275   1.858   6.032   5.021
 5757TIP3   OH217276   1.150   2.028   2.141
 5757TIP3    H117277   1.232   1.992   2.175
 5757TIP3    H217278   1.098   1.951   2.117
 5758TIP3   OH217279   0.236   3.444   0.637
 5758TIP3    H117280   0.330   3.433   0.624
 5758TIP3    H217281   0.229   3.509   0.708
 5759TIP3   OH217282   0.741   4.143   2.624
 5759TIP3    H117283   0.740   4.111   2.534
 5759TIP3    H217284   0.813   4.095   2.665
 5760TIP3   OH217285   5.872   3.258   0.916
 5760TIP3    H117286   5.862   3.173   0.959
 5760TIP3    H217287   5.915   3.313   0.982
 5761TIP3   OH217288   5.968   1.769   3.594
 5761TIP3    H117289   5.987   1.681   3.562
 5761TIP3    H217290   5.899   1.801   3.535
 5762TIP3   OH217291   5.119   2.995   1.505
 5762TIP3    H117292   5.123   3.029   1.595
 5762TIP3    H217293   5.176   2.919   1.506
 5763TIP3   OH217294   1.578   5.505   4.738
 5763TIP3    H117295   1.596   5.411   4.732
 5763TIP3    H217296   1.526   5.514   4.818
 5764TIP3   OH217297   3.179   4.751   4.102
 5764TIP3    H117298   3.265   4.709   4.101
 5764TIP3    H217299   3.198   4.845   4.091
 5765TIP3   OH217300   2.118   4.397   1.416
 5765TIP3    H117301   2.113   4.423   1.508
 5765TIP3    H217302   2.032   4.362   1.395
 5766TIP3   OH217303   1.873   2.711   1.728
 5766TIP3    H117304   1.908   2.626   1.704
 5766TIP3    H217305   1.941   2.773   1.702
 5767TIP3   OH217306   0.863   3.369   2.345
 5767TIP3    H117307   0.862   3.291   2.289
 5767TIP3    H217308   0.930   3.425   2.307
 5768TIP3   OH217309   2.946   3.090   3.271
 5768TIP3    H117310   3.033   3.055   3.289
 5768TIP3    H217311   2.935   3.081   3.176
 5769TIP3   OH217312   2.549   0.925   1.606
 5769TIP3    H117313   2.575   0.845   1.561
 5769TIP3    H217314   2.472   0.900   1.657
 5770TIP3   OH217315   0.153   1.508   1.798
 5770TIP3    H117316   0.183   1.419   1.817
 5770TIP3    H217317   0.187   1.561   1.870
 5771TIP3   OH217318   1.644   0.755   2.660
 5771TIP3    H117319   1.681   0.670   2.684
 5771TIP3    H217320   1.620   0.746   2.568
 5772TIP3   OH217321   2.508   4.402   4.678
 5772TIP3    H117322   2.544   4.386   4.591
 5772TIP3    H217323   2.480   4.494   4.676
 5773TIP3   OH217324   0.427   2.404   3.515
 5773TIP3    H117325   0.361   2.346   3.553
 5773TIP3    H217326   0.376   2.471   3.468
 5774TIP3   OH217327   5.509   1.839   2.357
 5774TIP3    H117328   5.459   1.907   2.403
 5774TIP3    H217329   5.556   1.792   2.426
 5775TIP3   OH217330   5.637   3.265   4.213
 5775TIP3    H117331   5.729   3.288   4.201
 5775TIP3    H217332   5.623   3.190   4.155
 5776TIP3   OH217333   3.048   2.386   2.905
 5776TIP3    H117334   3.131   2.383   2.857
 5776TIP3    H217335   3.005   2.466   2.874
 5777TIP3   OH217336   1.565   2.478   0.402
 5777TIP3    H117337   1.533   2.567   0.418
 5777TIP3    H217338   1.620   2.459   0.478
 5778TIP3   OH217339   2.429   3.028   5.078
 5778TIP3    H117340   2.523   3.046   5.086
 5778TIP3    H217341   2.390   3.074   5.151
 5779TIP3   OH217342   0.517   4.259   2.345
 5779TIP3    H117343   0.480   4.288   2.261
 5779TIP3    H217344   0.493   4.328   2.407
 5780TIP3   OH217345   0.243   2.637   4.729
 5780TIP3    H117346   0.181   2.574   4.765
 5780TIP3    H217347   0.288   2.672   4.806
 5781TIP3   OH217348   5.813   5.671   4.180
 5781TIP3    H117349   5.878   5.603   4.162
 5781TIP3    H217350   5.830   5.739   4.116
 5782TIP3   OH217351   3.173   5.394   2.167
 5782TIP3    H117352   3.263   5.426   2.166
 5782TIP3    H217353   3.178   5.310   2.214
 5783TIP3   OH217354   1.239   2.300   4.479
 5783TIP3    H117355   1.241   2.290   4.384
 5783TIP3    H217356   1.146   2.311   4.500
 5784TIP3   OH217357   2.883   3.174   2.114
 5784TIP3    H117358   2.878   3.223   2.197
 5784TIP3    H217359   2.851   3.235   2.048
 5785TIP3   OH217360   2.074   1.880   0.472
 5785TIP3    H117361   2.166   1.895   0.494
 5785TIP3    H217362   2.044   1.813   0.535
 5786TIP3   OH217363   4.771   4.632   4.992
 5786TIP3    H117364   4.838   4.606   4.928
 5786TIP3    H217365   4.803   4.715   5.027
 5787TIP3   OH217366   4.252   4.674   3.718
 5787TIP3    H117367   4.164   4.664   3.753
 5787TIP3    H217368   4.243   4.737   3.647
 5788TIP3   OH217369   1.694   3.620   0.968
 5788TIP3    H117370   1.714   3.605   0.876
 5788TIP3    H217371   1.778   3.640   1.009
 5789TIP3   OH217372   4.114   3.411   3.489
 5789TIP3    H117373   4.056   3.374   3.423
 5789TIP3    H217374   4.202   3.384   3.462
 5790TIP3   OH217375   5.814   1.815   2.660
 5790TIP3    H117376   5.746   1.765   2.615
 5790TIP3    H217377   5.869   1.849   2.589
 5791TIP3   OH217378   4.157   0.140   2.169
 5791TIP3    H117379   4.185   0.228   2.194
 5791TIP3    H217380   4.207   0.081   2.226
 5792TIP3   OH217381   4.327   5.179   1.117
 5792TIP3    H117382   4.275   5.220   1.047
 5792TIP3    H217383   4.417   5.183   1.084
 5793TIP3   OH217384   2.035   5.590   1.295
 5793TIP3    H117385   1.971   5.580   1.364
 5793TIP3    H217386   2.056   5.684   1.295
 5794TIP3   OH217387   0.431   3.417   1.075
 5794TIP3    H117388   0.449   3.348   1.011
 5794TIP3    H217389   0.364   3.380   1.132
 5795TIP3   OH217390   4.306   5.762   3.484
 5795TIP3    H117391   4.267   5.828   3.427
 5795TIP3    H217392   4.309   5.683   3.431
 5796TIP3   OH217393   4.415   4.191   3.771
 5796TIP3    H117394   4.342   4.249   3.751
 5796TIP3    H217395   4.404   4.116   3.712
 5797TIP3   OH217396   4.138   1.495   2.594
 5797TIP3    H117397   4.138   1.547   2.675
 5797TIP3    H217398   4.054   1.515   2.553
 5798TIP3   OH217399   0.786   0.701   1.735
 5798TIP3    H117400   0.861   0.717   1.678
 5798TIP3    H217401   0.733   0.780   1.727
 5799TIP3   OH217402   2.442   4.740   0.194
 5799TIP3    H117403   2.431   4.696   0.110
 5799TIP3    H217404   2.356   4.780   0.211
 5800TIP3   OH217405   1.938   2.372   2.779
 5800TIP3    H117406   1.872   2.385   2.712
 5800TIP3    H217407   1.891   2.379   2.862
 5801TIP3   OH217408   2.825   4.773   4.949
 5801TIP3    H117409   2.796   4.766   4.858
 5801TIP3    H217410   2.895   4.838   4.948
 5802TIP3   OH217411   3.525   3.572   1.237
 5802TIP3    H117412   3.581   3.503   1.202
 5802TIP3    H217413   3.486   3.613   1.159
 5803TIP3   OH217414   1.664   5.230   3.922
 5803TIP3    H117415   1.757   5.209   3.918
 5803TIP3    H217416   1.621   5.146   3.934
 5804TIP3   OH217417   4.088   5.447   0.092
 5804TIP3    H117418   4.036   5.523   0.065
 5804TIP3    H217419   4.118   5.408   0.009
 5805TIP3   OH217420   1.443   4.584   0.864
 5805TIP3    H117421   1.404   4.665   0.897
 5805TIP3    H217422   1.537   4.598   0.869
 5806TIP3   OH217423   4.900   1.913   4.356
 5806TIP3    H117424   4.860   1.839   4.311
 5806TIP3    H217425   4.846   1.988   4.330
 5807TIP3   OH217426   3.243   4.344   2.175
 5807TIP3    H117427   3.248   4.252   2.149
 5807TIP3    H217428   3.302   4.351   2.250
 5808TIP3   OH217429   3.652   4.563   0.892
 5808TIP3    H117430   3.590   4.537   0.824
 5808TIP3    H217431   3.712   4.623   0.848
 5809TIP3   OH217432   0.994   0.816   5.212
 5809TIP3    H117433   1.034   0.901   5.194
 5809TIP3    H217434   1.015   0.763   5.135
 5810TIP3   OH217435   5.984   4.464   1.340
 5810TIP3    H117436   5.931   4.414   1.278
 5810TIP3    H217437   5.927   4.535   1.369
 5811TIP3   OH217438   1.716   2.488   4.402
 5811TIP3    H117439   1.643   2.432   4.375
 5811TIP3    H217440   1.736   2.461   4.492
 5812TIP3   OH217441   6.088   5.418   3.248
 5812TIP3    H117442   6.086   5.337   3.197
 5812TIP3    H217443   5.996   5.440   3.262
 5813TIP3   OH217444   4.844   3.558   5.058
 5813TIP3    H117445   4.764   3.600   5.090
 5813TIP3    H217446   4.871   3.610   4.983
 5814TIP3   OH217447   5.230   3.554   1.975
 5814TIP3    H117448   5.190   3.473   2.007
 5814TIP3    H217449   5.272   3.528   1.892
 5815TIP3   OH217450   0.374   3.036   4.173
 5815TIP3    H117451   0.444   3.082   4.125
 5815TIP3    H217452   0.315   3.106   4.200
 5816TIP3   OH217453   4.450   5.146   2.929
 5816TIP3    H117454   4.505   5.087   2.982
 5816TIP3    H217455   4.507   5.220   2.909
 5817TIP3   OH217456   0.862   4.989   4.250
 5817TIP3    H117457   0.807   5.057   4.211
 5817TIP3    H217458   0.799   4.929   4.290
 5818TIP3   OH217459   4.372   5.255   4.979
 5818TIP3    H117460   4.439   5.232   4.915
 5818TIP3    H217461   4.296   5.280   4.926
 5819TIP3   OH217462   3.250   3.976   1.740
 5819TIP3    H117463   3.210   4.060   1.759
 5819TIP3    H217464   3.268   3.978   1.646
 5820TIP3   OH217465   1.059   4.327   1.045
 5820TIP3    H117466   0.964   4.324   1.057
 5820TIP3    H217467   1.078   4.249   0.992
 5821TIP3   OH217468   2.614   3.624   3.236
 5821TIP3    H117469   2.705   3.640   3.209
 5821TIP3    H217470   2.566   3.700   3.203
 5822TIP3   OH217471   3.164   5.577   4.883
 5822TIP3    H117472   3.239   5.518   4.879
 5822TIP3    H217473   3.200   5.659   4.918
 5823TIP3   OH217474   6.279   1.037   0.195
 5823TIP3    H117475   6.210   0.971   0.191
 5823TIP3    H217476   6.244   1.103   0.254
 5824TIP3   OH217477   4.573   0.934   1.100
 5824TIP3    H117478   4.534   1.020   1.082
 5824TIP3    H217479   4.502   0.881   1.134
 5825TIP3   OH217480   0.688   5.141   3.898
 5825TIP3    H117481   0.673   5.152   3.992
 5825TIP3    H217482   0.767   5.191   3.881
 5826TIP3   OH217483   6.094   3.079   0.689
 5826TIP3    H117484   6.009   3.073   0.732
 5826TIP3    H217485   6.156   3.097   0.759
 5827TIP3   OH217486   1.336   1.305   2.802
 5827TIP3    H117487   1.373   1.382   2.760
 5827TIP3    H217488   1.392   1.291   2.879
 5828TIP3   OH217489   3.063   1.556   0.830
 5828TIP3    H117490   3.088   1.467   0.808
 5828TIP3    H217491   3.093   1.568   0.920
 5829TIP3   OH217492   2.745   0.835   2.846
 5829TIP3    H117493   2.823   0.843   2.901
 5829TIP3    H217494   2.692   0.769   2.890
 5830TIP3   OH217495   2.493   0.203   1.368
 5830TIP3    H117496   2.554   0.260   1.319
 5830TIP3    H217497   2.548   0.132   1.401
 5831TIP3   OH217498   3.629   2.849   2.194
 5831TIP3    H117499   3.578   2.917   2.151
 5831TIP3    H217500   3.679   2.808   2.123
 5832TIP3   OH217501   5.801   5.868   2.629
 5832TIP3    H117502   5.791   5.790   2.574
 5832TIP3    H217503   5.728   5.925   2.604
 5833TIP3   OH217504   3.727   3.603   0.201
 5833TIP3    H117505   3.700   3.684   0.156
 5833TIP3    H217506   3.653   3.544   0.191
 5834TIP3   OH217507   0.909   3.450   1.451
 5834TIP3    H117508   0.820   3.485   1.459
 5834TIP3    H217509   0.934   3.426   1.540
 5835TIP3   OH217510   0.104   1.819   3.782
 5835TIP3    H117511   0.032   1.786   3.835
 5835TIP3    H217512   0.179   1.824   3.842
 5836TIP3   OH217513   0.286   0.662   3.182
 5836TIP3    H117514   0.327   0.588   3.138
 5836TIP3    H217515   0.261   0.628   3.268
 5837TIP3   OH217516   1.478   1.483   0.949
 5837TIP3    H117517   1.414   1.540   0.992
 5837TIP3    H217518   1.442   1.470   0.861
 5838TIP3   OH217519   1.703   1.509   4.298
 5838TIP3    H117520   1.659   1.438   4.251
 5838TIP3    H217521   1.633   1.551   4.349
 5839TIP3   OH217522   2.812   3.774   2.883
 5839TIP3    H117523   2.726   3.816   2.879
 5839TIP3    H217524   2.842   3.771   2.792
 5840TIP3   OH217525   0.961   2.891   3.553
 5840TIP3    H117526   0.908   2.916   3.629
 5840TIP3    H217527   1.051   2.891   3.586
 5841TIP3   OH217528   6.153   1.404   3.272
 5841TIP3    H117529   6.197   1.488   3.279
 5841TIP3    H217530   6.209   1.343   3.320
 5842TIP3   OH217531   1.617   0.607   3.905
 5842TIP3    H117532   1.631   0.662   3.829
 5842TIP3    H217533   1.611   0.518   3.870
 5843TIP3   OH217534   4.887   2.851   3.238
 5843TIP3    H117535   4.949   2.858   3.165
 5843TIP3    H217536   4.898   2.761   3.270
 5844TIP3   OH217537   5.068   2.799   1.013
 5844TIP3    H117538   5.100   2.887   1.031
 5844TIP3    H217539   5.065   2.793   0.918
 5845TIP3   OH217540   3.859   0.870   1.353
 5845TIP3    H117541   3.790   0.805   1.365
 5845TIP3    H217542   3.861   0.918   1.436
 5846TIP3   OH217543   1.290   2.019   1.519
 5846TIP3    H117544   1.310   1.956   1.588
 5846TIP3    H217545   1.314   1.974   1.438
 5847TIP3   OH217546   3.431   1.055   0.427
 5847TIP3    H117547   3.499   1.024   0.487
 5847TIP3    H217548   3.468   1.038   0.340
 5848TIP3   OH217549   2.848   1.390   1.187
 5848TIP3    H117550   2.802   1.421   1.265
 5848TIP3    H217551   2.779   1.371   1.124
 5849TIP3   OH217552   0.455   4.217   4.682
 5849TIP3    H117553   0.499   4.184   4.760
 5849TIP3    H217554   0.525   4.228   4.617
 5850TIP3   OH217555   3.195   4.014   0.431
 5850TIP3    H117556   3.255   4.050   0.364
 5850TIP3    H217557   3.108   4.023   0.392
 5851TIP3   OH217558   3.731   5.737   4.479
 5851TIP3    H117559   3.724   5.726   4.574
 5851TIP3    H217560   3.711   5.830   4.464
 5852TIP3   OH217561   0.100   5.299   1.299
 5852TIP3    H117562   0.058   5.372   1.253
 5852TIP3    H217563   0.033   5.268   1.360
 5853TIP3   OH217564   6.191   2.805   0.599
 5853TIP3    H117565   6.188   2.886   0.650
 5853TIP3    H217566   6.102   2.792   0.568
 5854TIP3   OH217567   1.893   0.701   1.797
 5854TIP3    H117568   1.901   0.796   1.803
 5854TIP3    H217569   1.842   0.677   1.874
 5855TIP3   OH217570   1.422   4.526   3.346
 5855TIP3    H117571   1.440   4.476   3.426
 5855TIP3    H217572   1.326   4.532   3.343
 5856TIP3   OH217573   5.600   0.397   4.483
 5856TIP3    H117574   5.574   0.467   4.422
 5856TIP3    H217575   5.624   0.324   4.427
 5857TIP3   OH217576   0.303   3.180   1.223
 5857TIP3    H117577   0.307   3.094   1.180
 5857TIP3    H217578   0.319   3.161   1.315
 5858TIP3   OH217579   1.751   0.105   1.189
 5858TIP3    H117580   1.687   0.177   1.190
 5858TIP3    H217581   1.699   0.027   1.169
 5859TIP3   OH217582   3.391   4.746   4.674
 5859TIP3    H117583   3.393   4.670   4.616
 5859TIP3    H217584   3.471   4.794   4.653
 5860TIP3   OH217585   4.222   5.091   0.558
 5860TIP3    H117586   4.206   4.998   0.545
 5860TIP3    H217587   4.170   5.134   0.491
 5861TIP3   OH217588   5.192   4.612   3.670
 5861TIP3    H117589   5.220   4.526   3.701
 5861TIP3    H217590   5.208   4.670   3.744
 5862TIP3   OH217591   3.839   3.452   0.894
 5862TIP3    H117592   3.851   3.522   0.830
 5862TIP3    H217593   3.826   3.373   0.842
 5863TIP3   OH217594   1.604   0.503   0.542
 5863TIP3    H117595   1.629   0.431   0.484
 5863TIP3    H217596   1.670   0.571   0.525
 5864TIP3   OH217597   2.539   1.535   5.138
 5864TIP3    H117598   2.511   1.601   5.201
 5864TIP3    H217599   2.490   1.555   5.058
 5865TIP3   OH217600   4.275   1.456   4.319
 5865TIP3    H117601   4.338   1.415   4.378
 5865TIP3    H217602   4.259   1.542   4.358
 5866TIP3   OH217603   3.230   3.176   4.483
 5866TIP3    H117604   3.225   3.191   4.388
 5866TIP3    H217605   3.307   3.121   4.494
 5867TIP3   OH217606   3.002   3.764   0.873
 5867TIP3    H117607   3.074   3.792   0.818
 5867TIP3    H217608   2.987   3.837   0.933
 5868TIP3   OH217609   0.975   4.656   4.441
 5868TIP3    H117610   0.893   4.703   4.456
 5868TIP3    H217611   1.008   4.691   4.359
 5869TIP3   OH217612   4.984   0.229   2.347
 5869TIP3    H117613   4.928   0.154   2.327
 5869TIP3    H217614   5.032   0.246   2.266
 5870TIP3   OH217615   0.883   2.326   0.933
 5870TIP3    H117616   0.927   2.319   0.849
 5870TIP3    H217617   0.813   2.261   0.929
 5871TIP3   OH217618   0.820   0.359   1.240
 5871TIP3    H117619   0.827   0.361   1.144
 5871TIP3    H217620   0.891   0.302   1.268
 5872TIP3   OH217621   1.974   1.641   2.493
 5872TIP3    H117622   2.050   1.671   2.444
 5872TIP3    H217623   2.004   1.562   2.537
 5873TIP3   OH217624   2.687   3.950   1.754
 5873TIP3    H117625   2.729   4.035   1.767
 5873TIP3    H217626   2.600   3.961   1.792
 5874TIP3   OH217627   0.510   2.991   1.057
 5874TIP3    H117628   0.496   3.052   0.985
 5874TIP3    H217629   0.426   2.946   1.068
 5875TIP3   OH217630   2.382   4.276   1.917
 5875TIP3    H117631   2.301   4.280   1.866
 5875TIP3    H217632   2.395   4.366   1.947
 5876TIP3   OH217633   0.404   5.038   2.327
 5876TIP3    H117634   0.374   5.107   2.267
 5876TIP3    H217635   0.405   4.959   2.273
 5877TIP3   OH217636   5.896   5.283   1.929
 5877TIP3    H117637   5.972   5.319   1.883
 5877TIP3    H217638   5.911   5.304   2.021
 5878TIP3   OH217639   3.601   3.384   3.441
 5878TIP3    H117640   3.603   3.328   3.363
 5878TIP3    H217641   3.522   3.357   3.488
 5879TIP3   OH217642   3.357   3.933   1.993
 5879TIP3    H117643   3.300   3.930   1.916
 5879TIP3    H217644   3.369   4.027   2.010
 5880TIP3   OH217645   2.777   4.465   0.421
 5880TIP3    H117646   2.749   4.378   0.450
 5880TIP3    H217647   2.714   4.525   0.461
 5881TIP3   OH217648   3.439   2.090   4.352
 5881TIP3    H117649   3.485   2.093   4.268
 5881TIP3    H217650   3.509   2.092   4.418
 5882TIP3   OH217651   3.702   2.164   3.126
 5882TIP3    H117652   3.729   2.093   3.068
 5882TIP3    H217653   3.655   2.119   3.197
 5883TIP3   OH217654   5.585   0.750   4.793
 5883TIP3    H117655   5.625   0.677   4.746
 5883TIP3    H217656   5.659   0.800   4.828
 5884TIP3   OH217657   6.315   5.055   3.803
 5884TIP3    H117658   6.351   4.974   3.841
 5884TIP3    H217659   6.244   5.079   3.862
 5885TIP3   OH217660   3.980   1.605   1.818
 5885TIP3    H117661   3.959   1.563   1.901
 5885TIP3    H217662   4.045   1.671   1.840
 5886TIP3   OH217663   2.731   4.115   3.606
 5886TIP3    H117664   2.718   4.068   3.688
 5886TIP3    H217665   2.797   4.064   3.559
 5887TIP3   OH217666   5.932   2.676   1.557
 5887TIP3    H117667   6.021   2.698   1.530
 5887TIP3    H217668   5.921   2.584   1.533
 5888TIP3   OH217669   3.130   1.345   1.736
 5888TIP3    H117670   3.115   1.298   1.654
 5888TIP3    H217671   3.045   1.342   1.781
 5889TIP3   OH217672   2.114   5.320   1.255
 5889TIP3    H117673   2.189   5.350   1.204
 5889TIP3    H217674   2.065   5.400   1.276
 5890TIP3   OH217675   6.154   0.796   0.247
 5890TIP3    H117676   6.225   0.787   0.312
 5890TIP3    H217677   6.183   0.743   0.173
 5891TIP3   OH217678   0.452   4.208   1.655
 5891TIP3    H117679   0.484   4.121   1.680
 5891TIP3    H217680   0.358   4.204   1.669
 5892TIP3   OH217681   2.191   4.857   3.891
 5892TIP3    H117682   2.251   4.929   3.911
 5892TIP3    H217683   2.202   4.796   3.964
 5893TIP3   OH217684   2.217   5.903   1.103
 5893TIP3    H117685   2.264   5.820   1.108
 5893TIP3    H217686   2.283   5.968   1.082
 5894TIP3   OH217687   2.696   3.909   1.335
 5894TIP3    H117688   2.609   3.897   1.298
 5894TIP3    H217689   2.751   3.846   1.289
 5895TIP3   OH217690   2.619   3.021   3.143
 5895TIP3    H117691   2.663   3.074   3.077
 5895TIP3    H217692   2.554   2.971   3.094
 5896TIP3   OH217693   0.287   5.281   4.150
 5896TIP3    H117694   0.376   5.248   4.142
 5896TIP3    H217695   0.295   5.359   4.205
 5897TIP3   OH217696   2.000   3.693   3.584
 5897TIP3    H117697   2.034   3.604   3.594
 5897TIP3    H217698   2.020   3.736   3.667
 5898TIP3   OH217699   2.908   4.912   0.361
 5898TIP3    H117700   2.914   4.954   0.447
 5898TIP3    H217701   2.821   4.871   0.360
 5899TIP3   OH217702   6.179   2.022   3.430
 5899TIP3    H117703   6.205   1.951   3.371
 5899TIP3    H217704   6.250   2.030   3.493
 5900TIP3   OH217705   0.889   5.204   0.042
 5900TIP3    H117706   0.967   5.247   0.007
 5900TIP3    H217707   0.867   5.256   0.120
 5901TIP3   OH217708   2.451   0.767   5.051
 5901TIP3    H117709   2.436   0.780   5.144
 5901TIP3    H217710   2.484   0.678   5.043
 5902TIP3   OH217711   5.384   4.654   2.989
 5902TIP3    H117712   5.362   4.711   2.915
 5902TIP3    H217713   5.341   4.571   2.970
 5903TIP3   OH217714   0.057   3.749   3.214
 5903TIP3    H117715   0.139   3.767   3.260
 5903TIP3    H217716   0.027   3.666   3.253
 5904TIP3   OH217717   4.047   3.043   3.426
 5904TIP3    H117718   4.119   2.985   3.403
 5904TIP3    H217719   3.971   3.007   3.379
 5905TIP3   OH217720   2.668   0.533   1.810
 5905TIP3    H117721   2.707   0.471   1.871
 5905TIP3    H217722   2.589   0.489   1.777
 5906TIP3   OH217723   5.728   0.268   3.946
 5906TIP3    H117724   5.806   0.261   3.892
 5906TIP3    H217725   5.702   0.360   3.939
 5907TIP3   OH217726   3.707   2.908   0.858
 5907TIP3    H117727   3.638   2.854   0.819
 5907TIP3    H217728   3.709   2.881   0.950
 5908TIP3   OH217729   1.815   4.654   4.460
 5908TIP3    H117730   1.785   4.740   4.490
 5908TIP3    H217731   1.756   4.592   4.502
 5909TIP3   OH217732   4.067   3.014   1.714
 5909TIP3    H117733   4.146   3.021   1.766
 5909TIP3    H217734   3.999   2.988   1.776
 5910TIP3   OH217735   0.568   1.347   1.825
 5910TIP3    H117736   0.535   1.377   1.740
 5910TIP3    H217737   0.651   1.305   1.805
 5911TIP3   OH217738   1.772   3.847   0.350
 5911TIP3    H117739   1.735   3.778   0.294
 5911TIP3    H217740   1.698   3.905   0.368
 5912TIP3   OH217741   2.025   0.033   0.453
 5912TIP3    H117742   2.016   0.072   0.366
 5912TIP3    H217743   1.962   0.081   0.507
 5913TIP3   OH217744   2.644   0.376   4.523
 5913TIP3    H117745   2.553   0.353   4.540
 5913TIP3    H217746   2.653   0.465   4.556
 5914TIP3   OH217747   1.119   4.927   4.636
 5914TIP3    H117748   1.102   4.917   4.730
 5914TIP3    H217749   1.037   4.962   4.601
 5915TIP3   OH217750   5.180   0.882   3.427
 5915TIP3    H117751   5.109   0.935   3.463
 5915TIP3    H217752   5.205   0.928   3.346
 5916TIP3   OH217753   2.127   4.119   4.939
 5916TIP3    H117754   2.040   4.135   4.975
 5916TIP3    H217755   2.173   4.070   5.007
 5917TIP3   OH217756   1.264   0.590   0.360
 5917TIP3    H117757   1.330   0.659   0.370
 5917TIP3    H217758   1.214   0.615   0.283
 5918TIP3   OH217759   1.720   3.515   4.104
 5918TIP3    H117760   1.787   3.541   4.041
 5918TIP3    H217761   1.638   3.522   4.055
 5919TIP3   OH217762   1.724   3.810   1.221
 5919TIP3    H117763   1.631   3.834   1.215
 5919TIP3    H217764   1.724   3.728   1.271
 5920TIP3   OH217765   5.656   0.381   0.749
 5920TIP3    H117766   5.567   0.403   0.721
 5920TIP3    H217767   5.710   0.396   0.672
 5921TIP3   OH217768   6.202   2.206   2.845
 5921TIP3    H117769   6.221   2.202   2.938
 5921TIP3    H217770   6.216   2.117   2.814
 5922TIP3   OH217771   0.850   0.008   4.405
 5922TIP3    H117772   0.798   0.053   4.471
 5922TIP3    H217773   0.902   0.077   4.364
 5923TIP3   OH217774   3.221   3.777   3.143
 5923TIP3    H117775   3.183   3.807   3.060
 5923TIP3    H217776   3.197   3.846   3.206
 5924TIP3   OH217777   3.081   2.721   2.008
 5924TIP3    H117778   3.085   2.816   2.001
 5924TIP3    H217779   2.998   2.697   1.967
 5925TIP3   OH217780   5.503   0.736   0.096
 5925TIP3    H117781   5.593   0.740   0.065
 5925TIP3    H217782   5.458   0.679   0.033
 5926TIP3   OH217783   5.160   1.753   1.924
 5926TIP3    H117784   5.210   1.804   1.861
 5926TIP3    H217785   5.208   1.670   1.931
 5927TIP3   OH217786   4.132   1.115   4.164
 5927TIP3    H117787   4.111   1.024   4.143
 5927TIP3    H217788   4.179   1.110   4.248
 5928TIP3   OH217789   5.138   0.601   4.628
 5928TIP3    H117790   5.057   0.636   4.666
 5928TIP3    H217791   5.138   0.508   4.651
 5929TIP3   OH217792   3.187   5.631   1.313
 5929TIP3    H117793   3.108   5.623   1.367
 5929TIP3    H217794   3.213   5.723   1.321
 5930TIP3   OH217795   3.207   3.115   3.449
 5930TIP3    H117796   3.123   3.086   3.484
 5930TIP3    H217797   3.270   3.053   3.483
 5931TIP3   OH217798   3.116   5.910   3.489
 5931TIP3    H117799   3.080   5.873   3.409
 5931TIP3    H217800   3.136   6.001   3.467
 5932TIP3   OH217801   6.296   5.155   2.777
 5932TIP3    H117802   6.286   5.078   2.722
 5932TIP3    H217803   6.387   5.150   2.808
 5933TIP3   OH217804   0.571   5.297   1.000
 5933TIP3    H117805   0.636   5.362   0.973
 5933TIP3    H217806   0.488   5.329   0.964
 5934TIP3   OH217807   0.297   3.895   4.399
 5934TIP3    H117808   0.203   3.883   4.384
 5934TIP3    H217809   0.306   3.901   4.494
 5935TIP3   OH217810   2.732   4.670   1.457
 5935TIP3    H117811   2.765   4.652   1.545
 5935TIP3    H217812   2.713   4.764   1.457
 5936TIP3   OH217813   1.509   5.066   4.482
 5936TIP3    H117814   1.439   5.053   4.547
 5936TIP3    H217815   1.481   5.016   4.406
 5937TIP3   OH217816   5.459   0.838   3.178
 5937TIP3    H117817   5.383   0.830   3.122
 5937TIP3    H217818   5.532   0.806   3.125
 5938TIP3   OH217819   1.710   1.216   2.232
 5938TIP3    H117820   1.630   1.165   2.233
 5938TIP3    H217821   1.779   1.153   2.213
 5939TIP3   OH217822   1.034   5.723   0.228
 5939TIP3    H117823   0.949   5.694   0.261
 5939TIP3    H217824   1.092   5.648   0.242
 5940TIP3   OH217825   0.010   1.993   2.125
 5940TIP3    H117826   0.099   1.958   2.126
 5940TIP3    H217827   0.021   2.087   2.122
 5941TIP3   OH217828   5.759   1.985   0.191
 5941TIP3    H117829   5.805   1.961   0.272
 5941TIP3    H217830   5.750   2.080   0.196
 5942TIP3   OH217831   4.077   2.769   2.388
 5942TIP3    H117832   4.034   2.712   2.324
 5942TIP3    H217833   4.056   2.730   2.472
 5943TIP3   OH217834   2.731   1.166   1.369
 5943TIP3    H117835   2.641   1.191   1.392
 5943TIP3    H217836   2.725   1.074   1.345
 5944TIP3   OH217837   3.564   0.876   2.793
 5944TIP3    H117838   3.626   0.866   2.721
 5944TIP3    H217839   3.569   0.969   2.816
 5945TIP3   OH217840   2.203   4.564   2.279
 5945TIP3    H117841   2.213   4.494   2.215
 5945TIP3    H217842   2.268   4.546   2.346
 5946TIP3   OH217843   1.876   3.167   3.495
 5946TIP3    H117844   1.914   3.252   3.474
 5946TIP3    H217845   1.935   3.103   3.453
 5947TIP3   OH217846   1.041   2.377   3.478
 5947TIP3    H117847   0.973   2.431   3.437
 5947TIP3    H217848   1.063   2.423   3.559
 5948TIP3   OH217849   2.281   3.251   4.063
 5948TIP3    H117850   2.231   3.207   3.994
 5948TIP3    H217851   2.303   3.182   4.125
 5949TIP3   OH217852   5.884   2.014   4.489
 5949TIP3    H117853   5.879   1.969   4.574
 5949TIP3    H217854   5.857   2.104   4.508
 5950TIP3   OH217855   2.453   3.372   3.642
 5950TIP3    H117856   2.534   3.383   3.691
 5950TIP3    H217857   2.438   3.458   3.601
 5951TIP3   OH217858   0.320   5.137   0.512
 5951TIP3    H117859   0.354   5.170   0.429
 5951TIP3    H217860   0.285   5.051   0.491
 5952TIP3   OH217861   2.948   3.535   4.014
 5952TIP3    H117862   3.025   3.566   4.061
 5952TIP3    H217863   2.958   3.567   3.925
 5953TIP3   OH217864   2.256   1.797   3.519
 5953TIP3    H117865   2.348   1.816   3.540
 5953TIP3    H217866   2.260   1.756   3.432
 5954TIP3   OH217867   5.395   2.903   1.223
 5954TIP3    H117868   5.470   2.876   1.278
 5954TIP3    H217869   5.435   2.952   1.151
 5955TIP3   OH217870   5.331   1.914   0.057
 5955TIP3    H117871   5.381   1.944   0.133
 5955TIP3    H217872   5.250   1.964   0.060
 5956TIP3   OH217873   4.153   5.765   0.229
 5956TIP3    H117874   4.191   5.695   0.282
 5956TIP3    H217875   4.073   5.791   0.275
 5957TIP3   OH217876   3.009   1.829   5.055
 5957TIP3    H117877   2.946   1.766   5.089
 5957TIP3    H217878   2.992   1.831   4.960
 5958TIP3   OH217879   6.076   1.295   4.060
 5958TIP3    H117880   5.988   1.270   4.087
 5958TIP3    H217881   6.120   1.212   4.041
 5959TIP3   OH217882   1.342   1.820   0.258
 5959TIP3    H117883   1.414   1.761   0.282
 5959TIP3    H217884   1.265   1.763   0.251
 5960TIP3   OH217885   2.849   3.474   3.005
 5960TIP3    H117886   2.887   3.557   3.033
 5960TIP3    H217887   2.925   3.420   2.982
 5961TIP3   OH217888   4.346   1.502   0.766
 5961TIP3    H117889   4.389   1.575   0.722
 5961TIP3    H217890   4.256   1.503   0.732
 5962TIP3   OH217891   3.591   1.741   0.403
 5962TIP3    H117892   3.685   1.756   0.414
 5962TIP3    H217893   3.573   1.765   0.312
 5963TIP3   OH217894   6.369   2.561   0.823
 5963TIP3    H117895   6.443   2.618   0.803
 5963TIP3    H217896   6.294   2.603   0.781
 5964TIP3   OH217897   1.593   0.737   0.350
 5964TIP3    H117898   1.569   0.755   0.259
 5964TIP3    H217899   1.589   0.642   0.358
 5965TIP3   OH217900   4.927   3.602   2.048
 5965TIP3    H117901   4.848   3.579   1.998
 5965TIP3    H217902   4.997   3.555   2.004
 5966TIP3   OH217903   5.867   5.133   3.816
 5966TIP3    H117904   5.782   5.145   3.858
 5966TIP3    H217905   5.850   5.145   3.723
 5967TIP3   OH217906   2.434   5.892   0.460
 5967TIP3    H117907   2.437   5.911   0.554
 5967TIP3    H217908   2.439   5.979   0.419
 5968TIP3   OH217909   3.599   4.921   3.999
 5968TIP3    H117910   3.663   4.851   4.009
 5968TIP3    H217911   3.560   4.931   4.086
 5969TIP3   OH217912   6.229   2.165   1.247
 5969TIP3    H117913   6.168   2.091   1.247
 5969TIP3    H217914   6.312   2.129   1.217
 5970TIP3   OH217915   0.075   0.701   2.011
 5970TIP3    H117916   0.001   0.644   2.029
 5970TIP3    H217917   0.127   0.653   1.946
 5971TIP3   OH217918   3.307   3.487   2.891
 5971TIP3    H117919   3.312   3.554   2.824
 5971TIP3    H217920   3.371   3.514   2.957
 5972TIP3   OH217921   5.246   0.606   0.539
 5972TIP3    H117922   5.175   0.576   0.596
 5972TIP3    H217923   5.201   0.639   0.462
 5973TIP3   OH217924   1.420   1.435   5.130
 5973TIP3    H117925   1.365   1.501   5.087
 5973TIP3    H217926   1.386   1.430   5.219
 5974TIP3   OH217927   2.904   4.788   4.113
 5974TIP3    H117928   2.996   4.769   4.095
 5974TIP3    H217929   2.904   4.832   4.198
 5975TIP3   OH217930   3.773   4.325   0.105
 5975TIP3    H117931   3.754   4.375   0.184
 5975TIP3    H217932   3.735   4.377   0.034
 5976TIP3   OH217933   6.275   2.845   1.024
 5976TIP3    H117934   6.349   2.809   0.975
 5976TIP3    H217935   6.197   2.816   0.975
 5977TIP3   OH217936   0.338   4.426   4.292
 5977TIP3    H117937   0.383   4.344   4.275
 5977TIP3    H217938   0.246   4.402   4.303
 5978TIP3   OH217939   6.076   5.630   2.834
 5978TIP3    H117940   6.137   5.602   2.766
 5978TIP3    H217941   6.124   5.618   2.916
 5979TIP3   OH217942   1.520   5.738   0.851
 5979TIP3    H117943   1.517   5.769   0.942
 5979TIP3    H217944   1.429   5.719   0.830
 5980TIP3   OH217945   0.973   2.080   4.127
 5980TIP3    H117946   0.973   2.001   4.182
 5980TIP3    H217947   1.064   2.090   4.100
 5981TIP3   OH217948   0.426   6.004   0.042
 5981TIP3    H117949   0.347   6.013  -0.013
 5981TIP3    H217950   0.394   6.016   0.131
 5982TIP3   OH217951   3.589   2.411   3.916
 5982TIP3    H117952   3.612   2.454   3.834
 5982TIP3    H217953   3.574   2.319   3.892
 5983TIP3   OH217954   1.383   4.375   2.155
 5983TIP3    H117955   1.314   4.391   2.219
 5983TIP3    H217956   1.386   4.455   2.102
 5984TIP3   OH217957   3.110   2.336   2.449
 5984TIP3    H117958   3.186   2.280   2.460
 5984TIP3    H217959   3.146   2.425   2.443
 5985TIP3   OH217960   4.720   1.902   2.769
 5985TIP3    H117961   4.776   1.905   2.692
 5985TIP3    H217962   4.688   1.992   2.780
 5986TIP3   OH217963   2.631   1.849   3.872
 5986TIP3    H117964   2.550   1.801   3.887
 5986TIP3    H217965   2.691   1.818   3.941
 5987TIP3   OH217966   4.925   2.663   2.698
 5987TIP3    H117967   5.012   2.667   2.739
 5987TIP3    H217968   4.865   2.654   2.772
 5988TIP3   OH217969   4.847   4.311   2.061
 5988TIP3    H117970   4.841   4.285   2.152
 5988TIP3    H217971   4.815   4.402   2.060
 5989TIP3   OH217972   5.356   0.509   5.040
 5989TIP3    H117973   5.428   0.453   5.009
 5989TIP3    H217974   5.328   0.558   4.962
 5990TIP3   OH217975   0.382   1.740   0.776
 5990TIP3    H117976   0.361   1.712   0.865
 5990TIP3    H217977   0.375   1.836   0.779
 5991TIP3   OH217978   2.621   1.293   3.125
 5991TIP3    H117979   2.591   1.372   3.081
 5991TIP3    H217980   2.708   1.277   3.089
 5992TIP3   OH217981   0.667   5.596   1.945
 5992TIP3    H117982   0.734   5.646   1.991
 5992TIP3    H217983   0.628   5.539   2.011
 5993TIP3   OH217984   3.067   5.142   1.035
 5993TIP3    H117985   3.034   5.052   1.037
 5993TIP3    H217986   3.153   5.137   1.078
 5994TIP3   OH217987   2.913   0.222   3.238
 5994TIP3    H117988   2.988   0.164   3.246
 5994TIP3    H217989   2.837   0.165   3.243
 5995TIP3   OH217990   1.659   0.982   3.992
 5995TIP3    H117991   1.737   1.029   4.023
 5995TIP3    H217992   1.656   0.903   4.045
 5996TIP3   OH217993   5.409   1.257   1.537
 5996TIP3    H117994   5.466   1.182   1.553
 5996TIP3    H217995   5.469   1.330   1.522
 5997TIP3   OH217996   4.673   3.669   1.398
 5997TIP3    H117997   4.678   3.764   1.391
 5997TIP3    H217998   4.755   3.645   1.442
 5998TIP3   OH217999   2.141   4.482   2.584
 5998TIP3    H118000   2.159   4.540   2.658
 5998TIP3    H218001   2.228   4.460   2.549
 5999TIP3   OH218002   0.277   0.727   4.782
 5999TIP3    H118003   0.370   0.717   4.762
 5999TIP3    H218004   0.247   0.638   4.801
 6000TIP3   OH218005   4.953   5.834   3.108
 6000TIP3    H118006   4.915   5.791   3.031
 6000TIP3    H218007   4.981   5.920   3.076
 6001TIP3   OH218008   5.876   1.005   0.620
 6001TIP3    H118009   5.803   1.038   0.672
 6001TIP3    H218010   5.888   0.915   0.649
 6002TIP3   OH218011   3.841   0.653   3.501
 6002TIP3    H118012   3.920   0.706   3.510
 6002TIP3    H218013   3.803   0.681   3.418
 6003TIP3   OH218014   5.681   1.063   0.309
 6003TIP3    H118015   5.665   1.144   0.358
 6003TIP3    H218016   5.776   1.052   0.310
 6004TIP3   OH218017   5.181   0.746   4.403
 6004TIP3    H118018   5.176   0.693   4.482
 6004TIP3    H218019   5.176   0.683   4.331
 6005TIP3   OH218020   3.920   1.587   2.464
 6005TIP3    H118021   3.849   1.577   2.401
 6005TIP3    H218022   3.976   1.655   2.426
 6006TIP3   OH218023   0.061   2.137   4.036
 6006TIP3    H118024   0.084   2.211   4.093
 6006TIP3    H218025  -0.023   2.107   4.071
 6007TIP3   OH218026   2.622   1.833   2.089
 6007TIP3    H118027   2.618   1.804   1.998
 6007TIP3    H218028   2.684   1.906   2.087
 6008TIP3   OH218029   1.489   3.601   0.365
 6008TIP3    H118030   1.487   3.511   0.398
 6008TIP3    H218031   1.449   3.653   0.435
 6009TIP3   OH218032   1.518   2.455   4.982
 6009TIP3    H118033   1.450   2.509   4.942
 6009TIP3    H218034   1.537   2.499   5.066
 6010TIP3   OH218035   0.736   0.967   3.124
 6010TIP3    H118036   0.794   0.990   3.196
 6010TIP3    H218037   0.678   1.042   3.114
 6011TIP3   OH218038   4.505   2.024   2.152
 6011TIP3    H118039   4.536   2.113   2.137
 6011TIP3    H218040   4.569   1.968   2.107
 6012TIP3   OH218041   5.097   2.932   3.038
 6012TIP3    H118042   5.104   2.873   2.964
 6012TIP3    H218043   5.149   2.891   3.107
 6013TIP3   OH218044   1.671   2.225   0.542
 6013TIP3    H118045   1.608   2.156   0.521
 6013TIP3    H218046   1.635   2.267   0.620
 6014TIP3   OH218047   2.425   5.371   2.240
 6014TIP3    H118048   2.361   5.313   2.200
 6014TIP3    H218049   2.388   5.392   2.326
 6015TIP3   OH218050   6.105   1.565   1.268
 6015TIP3    H118051   6.170   1.617   1.315
 6015TIP3    H218052   6.028   1.620   1.265
 6016TIP3   OH218053   2.374   4.626   4.344
 6016TIP3    H118054   2.389   4.613   4.437
 6016TIP3    H218055   2.431   4.699   4.320
 6017TIP3   OH218056   4.466   4.888   4.046
 6017TIP3    H118057   4.435   4.978   4.032
 6017TIP3    H218058   4.461   4.848   3.959
 6018TIP3   OH218059   1.393   4.687   0.557
 6018TIP3    H118060   1.407   4.692   0.463
 6018TIP3    H218061   1.476   4.656   0.592
 6019TIP3   OH218062   6.050   5.042   0.373
 6019TIP3    H118063   6.019   4.953   0.392
 6019TIP3    H218064   6.144   5.038   0.388
 6020TIP3   OH218065   0.606   1.482   3.150
 6020TIP3    H118066   0.654   1.526   3.221
 6020TIP3    H218067   0.522   1.528   3.146
 6021TIP3   OH218068   2.271   5.837   4.162
 6021TIP3    H118069   2.188   5.790   4.159
 6021TIP3    H218070   2.332   5.777   4.206
 6022TIP3   OH218071   5.993   0.152   4.825
 6022TIP3    H118072   6.053   0.126   4.755
 6022TIP3    H218073   5.994   0.248   4.823
 6023TIP3   OH218074   3.391   4.295   1.530
 6023TIP3    H118075   3.303   4.272   1.561
 6023TIP3    H218076   3.443   4.217   1.550
 6024TIP3   OH218077   5.723   2.188   2.921
 6024TIP3    H118078   5.650   2.234   2.962
 6024TIP3    H218079   5.771   2.256   2.874
 6025TIP3   OH218080   2.683   0.113   0.791
 6025TIP3    H118081   2.678   0.056   0.715
 6025TIP3    H218082   2.734   0.064   0.855
 6026TIP3   OH218083   5.258   5.059   0.378
 6026TIP3    H118084   5.328   5.091   0.435
 6026TIP3    H218085   5.257   4.965   0.392
 6027TIP3   OH218086   5.243   1.852   3.454
 6027TIP3    H118087   5.247   1.806   3.370
 6027TIP3    H218088   5.151   1.848   3.479
 6028TIP3   OH218089   0.831   5.462   1.277
 6028TIP3    H118090   0.746   5.429   1.305
 6028TIP3    H218091   0.882   5.467   1.358
 6029TIP3   OH218092   5.134   4.562   1.787
 6029TIP3    H118093   5.164   4.518   1.867
 6029TIP3    H218094   5.106   4.490   1.730
 6030TIP3   OH218095   0.100   1.065   0.860
 6030TIP3    H118096   0.067   1.017   0.935
 6030TIP3    H218097   0.042   1.041   0.788
 6031TIP3   OH218098   5.139   3.454   4.402
 6031TIP3    H118099   5.198   3.399   4.351
 6031TIP3    H218100   5.170   3.445   4.492
 6032TIP3   OH218101   5.590   1.506   0.741
 6032TIP3    H118102   5.604   1.432   0.800
 6032TIP3    H218103   5.495   1.511   0.730
 6033TIP3   OH218104   3.863   0.725   3.176
 6033TIP3    H118105   3.949   0.722   3.134
 6033TIP3    H218106   3.844   0.634   3.200
 6034TIP3   OH218107   4.004   3.589   2.744
 6034TIP3    H118108   3.973   3.670   2.704
 6034TIP3    H218109   3.945   3.522   2.709
 6035TIP3   OH218110   2.571   1.220   4.626
 6035TIP3    H118111   2.630   1.248   4.695
 6035TIP3    H218112   2.629   1.184   4.558
 6036TIP3   OH218113   3.985   4.877   4.343
 6036TIP3    H118114   3.976   4.782   4.332
 6036TIP3    H218115   4.069   4.888   4.387
 6037TIP3   OH218116   0.872   4.760   4.857
 6037TIP3    H118117   0.858   4.817   4.781
 6037TIP3    H218118   0.958   4.786   4.891
 6038TIP3   OH218119   0.677   1.661   0.803
 6038TIP3    H118120   0.645   1.668   0.713
 6038TIP3    H218121   0.598   1.664   0.856
 6039TIP3   OH218122   3.900   1.756   4.147
 6039TIP3    H118123   3.905   1.660   4.154
 6039TIP3    H218124   3.982   1.781   4.105
 6040TIP3   OH218125   5.491   1.971   0.286
 6040TIP3    H118126   5.509   1.970   0.380
 6040TIP3    H218127   5.577   1.984   0.246
 6041TIP3   OH218128   3.301   5.078   1.200
 6041TIP3    H118129   3.237   5.101   1.267
 6041TIP3    H218130   3.283   4.986   1.181
 6042TIP3   OH218131   4.847   2.956   2.724
 6042TIP3    H118132   4.818   2.927   2.811
 6042TIP3    H218133   4.884   2.878   2.684
 6043TIP3   OH218134   4.690   5.320   4.824
 6043TIP3    H118135   4.712   5.333   4.732
 6043TIP3    H218136   4.614   5.376   4.839
 6044TIP3   OH218137   5.619   2.867   1.363
 6044TIP3    H118138   5.674   2.801   1.321
 6044TIP3    H218139   5.673   2.901   1.435
 6045TIP3   OH218140   6.252   5.541   1.548
 6045TIP3    H118141   6.205   5.623   1.533
 6045TIP3    H218142   6.340   5.568   1.576
 6046TIP3   OH218143   1.053   5.269   2.059
 6046TIP3    H118144   1.077   5.226   2.141
 6046TIP3    H218145   1.084   5.210   1.990
 6047TIP3   OH218146   1.456   2.854   4.334
 6047TIP3    H118147   1.452   2.949   4.338
 6047TIP3    H218148   1.546   2.835   4.307
 6048TIP3   OH218149   2.761   5.666   0.797
 6048TIP3    H118150   2.765   5.740   0.736
 6048TIP3    H218151   2.741   5.590   0.742
 6049TIP3   OH218152   5.145   5.063   4.735
 6049TIP3    H118153   5.205   5.129   4.700
 6049TIP3    H218154   5.190   4.980   4.720
 6050TIP3   OH218155   1.808   2.058   2.759
 6050TIP3    H118156   1.733   2.032   2.706
 6050TIP3    H218157   1.864   2.108   2.699
 6051TIP3   OH218158   4.212   2.568   2.899
 6051TIP3    H118159   4.234   2.511   2.973
 6051TIP3    H218160   4.205   2.510   2.824
 6052TIP3   OH218161   0.824   3.134   2.812
 6052TIP3    H118162   0.887   3.160   2.745
 6052TIP3    H218163   0.808   3.041   2.794
 6053TIP3   OH218164   2.219   5.529   0.692
 6053TIP3    H118165   2.175   5.562   0.770
 6053TIP3    H218166   2.312   5.538   0.712
 6054TIP3   OH218167   1.087   4.505   4.640
 6054TIP3    H118168   1.004   4.465   4.667
 6054TIP3    H218169   1.061   4.584   4.594
 6055TIP3   OH218170   1.101   3.233   0.267
 6055TIP3    H118171   1.178   3.179   0.283
 6055TIP3    H218172   1.130   3.298   0.203
 6056TIP3   OH218173   0.864   4.786   3.575
 6056TIP3    H118174   0.783   4.815   3.532
 6056TIP3    H218175   0.839   4.704   3.618
 6057TIP3   OH218176   4.260   5.041   2.713
 6057TIP3    H118177   4.295   5.060   2.800
 6057TIP3    H218178   4.232   5.126   2.679
 6058TIP3   OH218179   1.816   4.391   0.523
 6058TIP3    H118180   1.786   4.440   0.447
 6058TIP3    H218181   1.813   4.299   0.496
 6059TIP3   OH218182   2.158   3.460   2.321
 6059TIP3    H118183   2.247   3.437   2.348
 6059TIP3    H218184   2.117   3.492   2.401
 6060TIP3   OH218185   1.322   3.023   4.084
 6060TIP3    H118186   1.298   2.930   4.082
 6060TIP3    H218187   1.283   3.060   4.005
 6061TIP3   OH218188   2.951   2.090   4.275
 6061TIP3    H118189   3.022   2.051   4.326
 6061TIP3    H218190   2.895   2.131   4.341
 6062TIP3   OH218191   3.917   1.414   3.958
 6062TIP3    H118192   3.824   1.434   3.968
 6062TIP3    H218193   3.955   1.435   4.044
 6063TIP3   OH218194   2.507   0.332   1.723
 6063TIP3    H118195   2.593   0.303   1.695
 6063TIP3    H218196   2.464   0.253   1.755
 6064TIP3   OH218197   5.674   3.046   2.965
 6064TIP3    H118198   5.621   3.111   2.919
 6064TIP3    H218199   5.751   3.034   2.909
 6065TIP3   OH218200   5.720   0.360   1.040
 6065TIP3    H118201   5.740   0.369   0.947
 6065TIP3    H218202   5.781   0.420   1.083
 6066TIP3   OH218203   2.521   2.437   1.181
 6066TIP3    H118204   2.483   2.438   1.270
 6066TIP3    H218205   2.460   2.384   1.130
 6067TIP3   OH218206   6.157   4.696   2.293
 6067TIP3    H118207   6.208   4.771   2.325
 6067TIP3    H218208   6.147   4.639   2.369
 6068TIP3   OH218209   3.830   2.823   4.799
 6068TIP3    H118210   3.745   2.779   4.801
 6068TIP3    H218211   3.847   2.838   4.706
 6069TIP3   OH218212   3.611   2.134   4.133
 6069TIP3    H118213   3.684   2.102   4.187
 6069TIP3    H218214   3.642   2.126   4.043
 6070TIP3   OH218215   6.008   3.728   1.901
 6070TIP3    H118216   6.070   3.769   1.841
 6070TIP3    H218217   6.028   3.767   1.986
 6071TIP3   OH218218   3.666   3.234   3.214
 6071TIP3    H118219   3.699   3.272   3.132
 6071TIP3    H218220   3.637   3.146   3.189
 6072TIP3   OH218221   5.229   2.731   0.647
 6072TIP3    H118222   5.154   2.789   0.662
 6072TIP3    H218223   5.200   2.645   0.679
 6073TIP3   OH218224   0.552   3.770   3.322
 6073TIP3    H118225   0.615   3.702   3.297
 6073TIP3    H218226   0.601   3.851   3.319
 6074TIP3   OH218227   2.456   3.860   1.215
 6074TIP3    H118228   2.444   3.765   1.216
 6074TIP3    H218229   2.378   3.894   1.172
 6075TIP3   OH218230   2.827   2.440   0.259
 6075TIP3    H118231   2.740   2.444   0.298
 6075TIP3    H218232   2.853   2.532   0.250
 6076TIP3   OH218233   6.041   0.322   1.032
 6076TIP3    H118234   6.066   0.321   1.124
 6076TIP3    H218235   6.006   0.410   1.018
 6077TIP3   OH218236   2.005   1.391   0.808
 6077TIP3    H118237   2.030   1.350   0.725
 6077TIP3    H218238   1.916   1.423   0.793
 6078TIP3   OH218239   0.212   2.762   4.480
 6078TIP3    H118240   0.262   2.841   4.500
 6078TIP3    H218241   0.224   2.706   4.557
 6079TIP3   OH218242   5.012   0.887   2.456
 6079TIP3    H118243   5.093   0.929   2.425
 6079TIP3    H218244   5.042   0.806   2.497
 6080TIP3   OH218245   2.678   1.051   1.040
 6080TIP3    H118246   2.699   1.008   1.123
 6080TIP3    H218247   2.711   0.992   0.972
 6081TIP3   OH218248   3.361   2.125   3.001
 6081TIP3    H118249   3.406   2.115   3.085
 6081TIP3    H218250   3.419   2.181   2.949
 6082TIP3   OH218251   1.844   0.869   2.855
 6082TIP3    H118252   1.815   0.953   2.892
 6082TIP3    H218253   1.769   0.838   2.805
 6083TIP3   OH218254   0.928   2.984   3.909
 6083TIP3    H118255   0.836   2.964   3.896
 6083TIP3    H218256   0.929   3.044   3.984
 6084TIP3   OH218257   6.351   5.021   1.157
 6084TIP3    H118258   6.389   5.081   1.221
 6084TIP3    H218259   6.309   5.078   1.092
 6085TIP3   OH218260   2.567   4.037   0.470
 6085TIP3    H118261   2.579   3.947   0.500
 6085TIP3    H218262   2.618   4.042   0.389
 6086TIP3   OH218263   1.396   3.326   4.758
 6086TIP3    H118264   1.418   3.366   4.843
 6086TIP3    H218265   1.467   3.265   4.741
 6087TIP3   OH218266   2.765   5.935   0.782
 6087TIP3    H118267   2.840   5.971   0.830
 6087TIP3    H218268   2.693   5.934   0.845
 6088TIP3   OH218269   2.145   2.713   3.996
 6088TIP3    H118270   2.049   2.715   4.000
 6088TIP3    H218271   2.169   2.631   4.039
 6089TIP3   OH218272   2.670   4.054   0.191
 6089TIP3    H118273   2.576   4.050   0.173
 6089TIP3    H218274   2.703   4.121   0.131
 6090TIP3   OH218275   1.689   5.677   2.921
 6090TIP3    H118276   1.707   5.750   2.982
 6090TIP3    H218277   1.597   5.655   2.936
 6091TIP3   OH218278   1.142   3.864   1.574
 6091TIP3    H118279   1.082   3.813   1.629
 6091TIP3    H218280   1.137   3.823   1.488
 6092TIP3   OH218281   0.405   1.995   1.843
 6092TIP3    H118282   0.494   2.026   1.829
 6092TIP3    H218283   0.386   1.942   1.765
 6093TIP3   OH218284   1.372   0.369   0.113
 6093TIP3    H118285   1.344   0.281   0.136
 6093TIP3    H218286   1.304   0.426   0.148
 6094TIP3   OH218287   4.610   2.126   3.168
 6094TIP3    H118288   4.679   2.062   3.153
 6094TIP3    H218289   4.567   2.098   3.248
 6095TIP3   OH218290   1.037   2.847   4.166
 6095TIP3    H118291   0.954   2.894   4.176
 6095TIP3    H218292   1.042   2.792   4.243
 6096TIP3   OH218293   5.085   3.285   1.738
 6096TIP3    H118294   5.171   3.320   1.762
 6096TIP3    H218295   5.093   3.191   1.748
 6097TIP3   OH218296   4.747   4.289   2.586
 6097TIP3    H118297   4.777   4.284   2.677
 6097TIP3    H218298   4.795   4.363   2.549
 6098TIP3   OH218299   0.627   4.505   0.403
 6098TIP3    H118300   0.592   4.448   0.334
 6098TIP3    H218301   0.613   4.456   0.484
 6099TIP3   OH218302   1.133   2.958   4.447
 6099TIP3    H118303   1.220   2.962   4.408
 6099TIP3    H218304   1.100   2.871   4.426
 6100TIP3   OH218305   5.454   1.449   3.453
 6100TIP3    H118306   5.533   1.430   3.502
 6100TIP3    H218307   5.397   1.373   3.468
 6101TIP3   OH218308   1.135   2.328   4.041
 6101TIP3    H118309   1.182   2.281   4.110
 6101TIP3    H218310   1.148   2.275   3.962
 6102TIP3   OH218311   2.828   4.645   2.763
 6102TIP3    H118312   2.843   4.577   2.828
 6102TIP3    H218313   2.785   4.715   2.811
 6103TIP3   OH218314   3.011   3.097   2.958
 6103TIP3    H118315   3.032   3.185   2.990
 6103TIP3    H218316   3.083   3.075   2.900
 6104TIP3   OH218317   2.875   2.935   3.739
 6104TIP3    H118318   2.930   2.881   3.682
 6104TIP3    H218319   2.894   3.025   3.713
 6105TIP3   OH218320   3.751   5.896   2.882
 6105TIP3    H118321   3.688   5.852   2.940
 6105TIP3    H218322   3.770   5.831   2.815
 6106TIP3   OH218323   0.092   2.118   2.528
 6106TIP3    H118324   0.079   2.027   2.503
 6106TIP3    H218325   0.177   2.141   2.491
 6107TIP3   OH218326   6.146   2.254   2.598
 6107TIP3    H118327   6.155   2.265   2.693
 6107TIP3    H218328   6.119   2.163   2.587
 6108TIP3   OH218329   5.212   5.798   0.320
 6108TIP3    H118330   5.149   5.786   0.390
 6108TIP3    H218331   5.274   5.725   0.331
 6109TIP3   OH218332   3.858   0.343   0.661
 6109TIP3    H118333   3.837   0.306   0.575
 6109TIP3    H218334   3.835   0.436   0.652
 6110TIP3   OH218335   6.059   1.314   0.155
 6110TIP3    H118336   5.995   1.385   0.151
 6110TIP3    H218337   6.047   1.276   0.242
 6111TIP3   OH218338   1.141   3.355   1.102
 6111TIP3    H118339   1.174   3.266   1.090
 6111TIP3    H218340   1.186   3.406   1.034
 6112TIP3   OH218341   0.555   4.596   1.469
 6112TIP3    H118342   0.614   4.660   1.430
 6112TIP3    H218343   0.592   4.577   1.556
 6113TIP3   OH218344   5.767   5.661   2.466
 6113TIP3    H118345   5.726   5.709   2.394
 6113TIP3    H218346   5.769   5.570   2.436
 6114TIP3   OH218347   6.247   1.306   2.140
 6114TIP3    H118348   6.206   1.335   2.221
 6114TIP3    H218349   6.282   1.386   2.100
 6115TIP3   OH218350   5.995   5.390   0.913
 6115TIP3    H118351   5.938   5.400   0.989
 6115TIP3    H218352   5.956   5.445   0.846
 6116TIP3   OH218353   2.104   3.528   5.039
 6116TIP3    H118354   2.175   3.465   5.025
 6116TIP3    H218355   2.119   3.597   4.974
 6117TIP3   OH218356   2.135   1.765   2.775
 6117TIP3    H118357   2.164   1.676   2.753
 6117TIP3    H218358   2.043   1.767   2.749
 6118TIP3   OH218359   3.166   2.285   0.891
 6118TIP3    H118360   3.191   2.338   0.815
 6118TIP3    H218361   3.143   2.200   0.855
 6119TIP3   OH218362   3.953   2.479   3.614
 6119TIP3    H118363   3.960   2.439   3.701
 6119TIP3    H218364   4.020   2.434   3.562
 6120TIP3   OH218365   3.097   3.545   4.702
 6120TIP3    H118366   3.086   3.621   4.759
 6120TIP3    H218367   3.024   3.551   4.641
 6121TIP3   OH218368   2.582   1.764   1.828
 6121TIP3    H118369   2.575   1.831   1.760
 6121TIP3    H218370   2.628   1.691   1.786
 6122TIP3   OH218371   1.568   0.081   3.887
 6122TIP3    H118372   1.639   0.030   3.926
 6122TIP3    H218373   1.594   0.172   3.901
 6123TIP3   OH218374   1.297   1.257   3.284
 6123TIP3    H118375   1.309   1.352   3.285
 6123TIP3    H218376   1.204   1.244   3.301
 6124TIP3   OH218377   5.381   0.290   1.251
 6124TIP3    H118378   5.295   0.250   1.259
 6124TIP3    H218379   5.388   0.313   1.158
 6125TIP3   OH218380   2.939   4.571   1.155
 6125TIP3    H118381   2.929   4.585   1.061
 6125TIP3    H218382   2.850   4.558   1.187
 6126TIP3   OH218383   1.723   1.094   4.972
 6126TIP3    H118384   1.748   1.124   4.884
 6126TIP3    H218385   1.802   1.051   5.005
 6127TIP3   OH218386   5.209   0.872   1.063
 6127TIP3    H118387   5.178   0.783   1.081
 6127TIP3    H218388   5.284   0.859   1.005
 6128TIP3   OH218389   0.864   1.335   5.047
 6128TIP3    H118390   0.856   1.370   4.958
 6128TIP3    H218391   0.903   1.249   5.036
 6129TIP3   OH218392   6.018   3.335   5.091
 6129TIP3    H118393   5.984   3.246   5.082
 6129TIP3    H218394   6.001   3.376   5.006
 6130TIP3   OH218395   4.714   3.218   1.252
 6130TIP3    H118396   4.755   3.304   1.258
 6130TIP3    H218397   4.637   3.232   1.197
 6131TIP3   OH218398   6.036   2.410   3.088
 6131TIP3    H118399   5.942   2.392   3.096
 6131TIP3    H218400   6.062   2.442   3.174
 6132TIP3   OH218401   0.459   0.904   3.213
 6132TIP3    H118402   0.447   0.941   3.126
 6132TIP3    H218403   0.426   0.815   3.206
 6133TIP3   OH218404   1.804   1.212   1.810
 6133TIP3    H118405   1.861   1.233   1.735
 6133TIP3    H218406   1.812   1.287   1.868
 6134TIP3   OH218407   5.217   2.656   4.563
 6134TIP3    H118408   5.216   2.634   4.656
 6134TIP3    H218409   5.305   2.631   4.534
 6135TIP3   OH218410   4.636   3.844   4.759
 6135TIP3    H118411   4.611   3.899   4.685
 6135TIP3    H218412   4.559   3.789   4.775
 6136TIP3   OH218413   4.371   2.098   4.600
 6136TIP3    H118414   4.391   2.170   4.540
 6136TIP3    H218415   4.380   2.135   4.687
 6137TIP3   OH218416   5.553   2.086   5.143
 6137TIP3    H118417   5.615   2.158   5.127
 6137TIP3    H218418   5.594   2.034   5.212
 6138TIP3   OH218419   5.826   1.379   1.672
 6138TIP3    H118420   5.848   1.301   1.622
 6138TIP3    H218421   5.909   1.406   1.712
 6139TIP3   OH218422   5.285   5.164   2.815
 6139TIP3    H118423   5.312   5.090   2.869
 6139TIP3    H218424   5.230   5.125   2.748
 6140TIP3   OH218425   4.773   1.886   3.447
 6140TIP3    H118426   4.728   1.869   3.530
 6140TIP3    H218427   4.810   1.801   3.422
 6141TIP3   OH218428   2.748   5.432   3.681
 6141TIP3    H118429   2.706   5.501   3.733
 6141TIP3    H218430   2.678   5.368   3.667
 6142TIP3   OH218431   0.784   5.471   2.886
 6142TIP3    H118432   0.750   5.396   2.837
 6142TIP3    H218433   0.712   5.495   2.945
 6143TIP3   OH218434   1.175   4.049   4.652
 6143TIP3    H118435   1.193   4.141   4.636
 6143TIP3    H218436   1.252   4.016   4.697
 6144TIP3   OH218437   4.069   3.082   3.692
 6144TIP3    H118438   4.065   3.093   3.597
 6144TIP3    H218439   4.161   3.064   3.710
 6145TIP3   OH218440   1.666   2.608   3.519
 6145TIP3    H118441   1.644   2.670   3.588
 6145TIP3    H218442   1.623   2.642   3.441
 6146TIP3   OH218443   0.448   4.132   3.985
 6146TIP3    H118444   0.517   4.159   3.923
 6146TIP3    H218445   0.366   4.149   3.938
 6147TIP3   OH218446   4.520   2.750   2.352
 6147TIP3    H118447   4.553   2.828   2.306
 6147TIP3    H218448   4.486   2.694   2.282
 6148TIP3   OH218449   3.866   4.119   2.633
 6148TIP3    H118450   3.943   4.145   2.683
 6148TIP3    H218451   3.803   4.091   2.700
 6149TIP3   OH218452   0.592   5.889   5.012
 6149TIP3    H118453   0.628   5.935   5.089
 6149TIP3    H218454   0.552   5.810   5.048
 6150TIP3   OH218455   2.030  -0.015   1.260
 6150TIP3    H118456   1.953  -0.070   1.245
 6150TIP3    H218457   2.009   0.068   1.217
 6151TIP3   OH218458   3.100   2.737   0.500
 6151TIP3    H118459   3.174   2.796   0.486
 6151TIP3    H218460   3.105   2.712   0.593
 6152TIP3   OH218461   5.883   4.351   1.109
 6152TIP3    H118462   5.889   4.446   1.100
 6152TIP3    H218463   5.841   4.322   1.029
 6153TIP3   OH218464   3.414   2.662   1.025
 6153TIP3    H118465   3.480   2.599   0.996
 6153TIP3    H218466   3.350   2.609   1.073
 6154TIP3   OH218467   3.577   4.985   4.880
 6154TIP3    H118468   3.671   4.991   4.891
 6154TIP3    H218469   3.541   5.046   4.945
 6155TIP3   OH218470   4.316   1.741   2.779
 6155TIP3    H118471   4.375   1.718   2.850
 6155TIP3    H218472   4.231   1.706   2.805
 6156TIP3   OH218473   1.452   0.223   1.399
 6156TIP3    H118474   1.490   0.230   1.487
 6156TIP3    H218475   1.391   0.149   1.405
 6157TIP3   OH218476   4.701   3.600   2.566
 6157TIP3    H118477   4.715   3.689   2.599
 6157TIP3    H218478   4.699   3.610   2.471
 6158TIP3   OH218479   2.159   0.007   0.140
 6158TIP3    H118480   2.194  -0.002   0.051
 6158TIP3    H218481   2.219   0.069   0.182
 6159TIP3   OH218482   1.284   3.592   1.639
 6159TIP3    H118483   1.244   3.544   1.711
 6159TIP3    H218484   1.249   3.550   1.560
 6160TIP3   OH218485   3.363   5.356   4.877
 6160TIP3    H118486   3.287   5.308   4.843
 6160TIP3    H218487   3.408   5.294   4.933
 6161TIP3   OH218488   2.391   2.131   3.286
 6161TIP3    H118489   2.429   2.044   3.294
 6161TIP3    H218490   2.332   2.126   3.211
 6162TIP3   OH218491   0.068   0.572   0.916
 6162TIP3    H118492   0.105   0.656   0.889
 6162TIP3    H218493   0.127   0.507   0.878
 6163TIP3   OH218494   5.823   1.272   2.903
 6163TIP3    H118495   5.752   1.322   2.944
 6163TIP3    H218496   5.881   1.338   2.865
 6164TIP3   OH218497   3.949   0.915   3.872
 6164TIP3    H118498   3.976   0.870   3.951
 6164TIP3    H218499   3.878   0.973   3.901
 6165TIP3   OH218500   4.906   2.755   1.300
 6165TIP3    H118501   4.813   2.774   1.293
 6165TIP3    H218502   4.945   2.792   1.221
 6166TIP3   OH218503   2.065   3.481   0.807
 6166TIP3    H118504   2.151   3.511   0.778
 6166TIP3    H218505   2.057   3.392   0.772
 6167TIP3   OH218506   4.641   0.099   4.439
 6167TIP3    H118507   4.639   0.165   4.370
 6167TIP3    H218508   4.721   0.049   4.422
 6168TIP3   OH218509   6.230   0.806   3.594
 6168TIP3    H118510   6.141   0.812   3.630
 6168TIP3    H218511   6.271   0.888   3.619
 6169TIP3   OH218512   3.263   1.637   5.121
 6169TIP3    H118513   3.213   1.699   5.068
 6169TIP3    H218514   3.200   1.569   5.145
 6170TIP3   OH218515   3.525   3.127   4.392
 6170TIP3    H118516   3.617   3.134   4.420
 6170TIP3    H218517   3.510   3.204   4.338
 6171TIP3   OH218518   1.819   1.605   3.597
 6171TIP3    H118519   1.806   1.670   3.666
 6171TIP3    H218520   1.872   1.650   3.531
 6172TIP3   OH218521   1.131   5.497   5.065
 6172TIP3    H118522   1.170   5.448   4.993
 6172TIP3    H218523   1.143   5.441   5.141
 6173TIP3   OH218524   3.006   0.792   3.624
 6173TIP3    H118525   2.955   0.801   3.543
 6173TIP3    H218526   3.003   0.878   3.664
 6174TIP3   OH218527   4.425   5.154   4.021
 6174TIP3    H118528   4.374   5.135   3.942
 6174TIP3    H218529   4.430   5.249   4.024
 6175TIP3   OH218530   1.890   0.038   2.416
 6175TIP3    H118531   1.886  -0.022   2.490
 6175TIP3    H218532   1.840  -0.006   2.347
 6176TIP3   OH218533   1.583   3.148   4.140
 6176TIP3    H118534   1.496   3.114   4.119
 6176TIP3    H218535   1.617   3.179   4.056
 6177TIP3   OH218536   5.289   1.903   0.695
 6177TIP3    H118537   5.250   1.964   0.632
 6177TIP3    H218538   5.310   1.957   0.771
 6178TIP3   OH218539   0.070   0.836   2.291
 6178TIP3    H118540   0.001   0.808   2.231
 6178TIP3    H218541   0.151   0.806   2.249
 6179TIP3   OH218542   3.321   2.430   2.795
 6179TIP3    H118543   3.336   2.511   2.846
 6179TIP3    H218544   3.404   2.383   2.802
 6180TIP3   OH218545   0.704   1.442   2.888
 6180TIP3    H118546   0.717   1.463   2.980
 6180TIP3    H218547   0.618   1.401   2.884
 6181TIP3   OH218548   1.483   3.009   3.817
 6181TIP3    H118549   1.507   2.964   3.898
 6181TIP3    H218550   1.563   3.011   3.766
 6182TIP3   OH218551   0.772   0.836   0.496
 6182TIP3    H118552   0.831   0.907   0.521
 6182TIP3    H218553   0.694   0.880   0.463
 6183TIP3   OH218554   4.631   3.551   1.718
 6183TIP3    H118555   4.723   3.578   1.713
 6183TIP3    H218556   4.607   3.565   1.810
 6184TIP3   OH218557   2.290   5.634   2.181
 6184TIP3    H118558   2.215   5.575   2.175
 6184TIP3    H218559   2.366   5.576   2.187
 6185TIP3   OH218560   5.737   3.585   4.757
 6185TIP3    H118561   5.707   3.609   4.844
 6185TIP3    H218562   5.668   3.528   4.723
 6186TIP3   OH218563   5.616   3.621   4.495
 6186TIP3    H118564   5.684   3.636   4.561
 6186TIP3    H218565   5.534   3.628   4.543
 6187TIP3   OH218566   4.075   4.694   5.064
 6187TIP3    H118567   4.025   4.752   5.121
 6187TIP3    H218568   4.166   4.720   5.078
 6188TIP3   OH218569   4.764   0.408   0.673
 6188TIP3    H118570   4.745   0.396   0.580
 6188TIP3    H218571   4.796   0.497   0.680
 6189TIP3   OH218572   1.362   4.516   1.270
 6189TIP3    H118573   1.278   4.534   1.311
 6189TIP3    H218574   1.358   4.423   1.246
 6190TIP3   OH218575   5.449   2.413   3.419
 6190TIP3    H118576   5.529   2.441   3.465
 6190TIP3    H218577   5.433   2.324   3.451
 6191TIP3   OH218578   3.437   2.071   1.715
 6191TIP3    H118579   3.357   2.021   1.696
 6191TIP3    H218580   3.508   2.009   1.699
 6192TIP3   OH218581   3.565   2.619   2.361
 6192TIP3    H118582   3.580   2.701   2.315
 6192TIP3    H218583   3.510   2.568   2.302
 6193TIP3   OH218584   1.670   2.957   1.570
 6193TIP3    H118585   1.594   2.900   1.565
 6193TIP3    H218586   1.732   2.920   1.508
 6194TIP3   OH218587   4.290   3.238   1.630
 6194TIP3    H118588   4.381   3.247   1.601
 6194TIP3    H218589   4.292   3.269   1.721
 6195TIP3   OH218590   0.531   3.789   0.935
 6195TIP3    H118591   0.567   3.708   0.971
 6195TIP3    H218592   0.562   3.791   0.844
 6196TIP3   OH218593   0.279   4.612   2.848
 6196TIP3    H118594   0.366   4.599   2.810
 6196TIP3    H218595   0.294   4.668   2.924
 6197TIP3   OH218596   3.537   4.365   4.863
 6197TIP3    H118597   3.502   4.320   4.941
 6197TIP3    H218598   3.623   4.397   4.890
 6198TIP3   OH218599   1.801   1.588   0.769
 6198TIP3    H118600   1.766   1.671   0.734
 6198TIP3    H218601   1.864   1.615   0.836
 6199TIP3   OH218602   0.335   0.160   5.030
 6199TIP3    H118603   0.333   0.067   5.006
 6199TIP3    H218604   0.243   0.182   5.048
 6200TIP3   OH218605   5.661   4.731   4.639
 6200TIP3    H118606   5.726   4.788   4.679
 6200TIP3    H218607   5.712   4.659   4.602
 6201TIP3   OH218608   0.988   4.172   2.988
 6201TIP3    H118609   0.994   4.131   2.901
 6201TIP3    H218610   0.904   4.143   3.023
 6202TIP3   OH218611  -0.029   0.656   1.141
 6202TIP3    H118612  -0.008   0.611   1.059
 6202TIP3    H218613   0.006   0.599   1.209
 6203TIP3   OH218614   1.506   1.050   2.121
 6203TIP3    H118615   1.426   1.091   2.153
 6203TIP3    H218616   1.504   1.063   2.027
 6204TIP3   OH218617   2.686   0.118   4.111
 6204TIP3    H118618   2.634   0.189   4.148
 6204TIP3    H218619   2.766   0.116   4.164
 6205TIP3   OH218620   0.414   0.027   2.654
 6205TIP3    H118621   0.419   0.061   2.565
 6205TIP3    H218622   0.492   0.060   2.697
 6206TIP3   OH218623   3.124   5.002   3.961
 6206TIP3    H118624   3.213   5.000   3.926
 6206TIP3    H218625   3.125   5.072   4.027
 6207TIP3   OH218626   5.426   3.019   3.488
 6207TIP3    H118627   5.331   3.028   3.478
 6207TIP3    H218628   5.439   2.996   3.580
 6208TIP3   OH218629   3.100   4.414   3.125
 6208TIP3    H118630   3.190   4.392   3.151
 6208TIP3    H218631   3.064   4.461   3.201
 6209TIP3   OH218632   3.433   3.010   1.390
 6209TIP3    H118633   3.479   3.085   1.428
 6209TIP3    H218634   3.498   2.968   1.333
 6210TIP3   OH218635   6.123   1.036   1.750
 6210TIP3    H118636   6.209   1.018   1.788
 6210TIP3    H218637   6.127   1.129   1.726
 6211TIP3   OH218638   4.469   5.863   4.915
 6211TIP3    H118639   4.397   5.802   4.928
 6211TIP3    H218640   4.525   5.821   4.850
 6212TIP3   OH218641   2.696   0.946   2.595
 6212TIP3    H118642   2.624   0.884   2.591
 6212TIP3    H218643   2.744   0.922   2.675
 6213TIP3   OH218644   3.801   3.759   4.960
 6213TIP3    H118645   3.872   3.698   4.981
 6213TIP3    H218646   3.844   3.831   4.915
 6214TIP3   OH218647   4.795   1.794   4.879
 6214TIP3    H118648   4.779   1.888   4.869
 6214TIP3    H218649   4.715   1.753   4.845
 6215TIP3   OH218650   1.924   5.284   3.188
 6215TIP3    H118651   1.924   5.259   3.095
 6215TIP3    H218652   1.844   5.244   3.223
 6216TIP3   OH218653   5.508   3.106   0.209
 6216TIP3    H118654   5.538   3.183   0.257
 6216TIP3    H218655   5.471   3.048   0.277
 6217TIP3   OH218656   1.727   2.009   2.427
 6217TIP3    H118657   1.677   2.043   2.353
 6217TIP3    H218658   1.660   1.984   2.492
 6218TIP3   OH218659   2.323   3.850   0.329
 6218TIP3    H118660   2.270   3.800   0.268
 6218TIP3    H218661   2.359   3.785   0.390
 6219TIP3   OH218662   5.515   5.324   0.055
 6219TIP3    H118663   5.544   5.236   0.078
 6219TIP3    H218664   5.485   5.362   0.138
 6220TIP3   OH218665   1.909   4.341   3.723
 6220TIP3    H118666   1.939   4.250   3.729
 6220TIP3    H218667   1.862   4.356   3.805
 6221TIP3   OH218668   1.210   3.379   0.589
 6221TIP3    H118669   1.176   3.453   0.537
 6221TIP3    H218670   1.289   3.351   0.543
 6222TIP3   OH218671   2.232   0.258   4.276
 6222TIP3    H118672   2.244   0.348   4.247
 6222TIP3    H218673   2.154   0.261   4.331
 6223TIP3   OH218674   1.074   5.699   2.511
 6223TIP3    H118675   1.037   5.767   2.567
 6223TIP3    H218676   1.139   5.744   2.457
 6224TIP3   OH218677   2.900   5.369   0.724
 6224TIP3    H118678   2.991   5.357   0.752
 6224TIP3    H218679   2.905   5.436   0.655
 6225TIP3   OH218680   5.150   1.796   4.508
 6225TIP3    H118681   5.060   1.811   4.482
 6225TIP3    H218682   5.153   1.822   4.600
 6226TIP3   OH218683   4.138   2.293   3.439
 6226TIP3    H118684   4.139   2.216   3.496
 6226TIP3    H218685   4.076   2.270   3.370
 6227TIP3   OH218686   2.770   1.020   4.528
 6227TIP3    H118687   2.797   0.928   4.522
 6227TIP3    H218688   2.740   1.042   4.440
 6228TIP3   OH218689   0.107   1.157   2.918
 6228TIP3    H118690   0.195   1.123   2.930
 6228TIP3    H218691   0.100   1.176   2.825
 6229TIP3   OH218692   1.163   2.733   0.812
 6229TIP3    H118693   1.089   2.768   0.860
 6229TIP3    H218694   1.220   2.809   0.796
 6230TIP3   OH218695   0.478   2.844   2.371
 6230TIP3    H118696   0.519   2.758   2.384
 6230TIP3    H218697   0.445   2.842   2.281
 6231TIP3   OH218698   5.815   0.150   2.357
 6231TIP3    H118699   5.903   0.160   2.395
 6231TIP3    H218700   5.789   0.238   2.332
 6232TIP3   OH218701   0.331   2.426   2.118
 6232TIP3    H118702   0.271   2.458   2.186
 6232TIP3    H218703   0.405   2.486   2.121
 6233TIP3   OH218704   1.115   4.419   3.057
 6233TIP3    H118705   1.065   4.338   3.044
 6233TIP3    H218706   1.091   4.474   2.982
 6234TIP3   OH218707   2.358   1.885   5.000
 6234TIP3    H118708   2.374   1.978   5.013
 6234TIP3    H218709   2.385   1.844   5.083
 6235TIP3   OH218710   3.148   1.347   4.566
 6235TIP3    H118711   3.094   1.309   4.496
 6235TIP3    H218712   3.237   1.318   4.547
 6236TIP3   OH218713   2.665   5.106   0.235
 6236TIP3    H118714   2.606   5.165   0.188
 6236TIP3    H218715   2.745   5.156   0.247
 6237TIP3   OH218716   0.845   3.062   3.189
 6237TIP3    H118717   0.933   3.081   3.222
 6237TIP3    H218718   0.786   3.105   3.252
 6238TIP3   OH218719   5.768   3.964   2.815
 6238TIP3    H118720   5.678   3.937   2.831
 6238TIP3    H218721   5.796   3.912   2.740
 6239TIP3   OH218722   0.677   3.525   1.117
 6239TIP3    H118723   0.584   3.501   1.115
 6239TIP3    H218724   0.723   3.447   1.086
 6240TIP3   OH218725   3.075   3.562   1.043
 6240TIP3    H118726   2.994   3.511   1.048
 6240TIP3    H218727   3.069   3.610   0.961
 6241TIP3   OH218728   5.259   5.433   2.914
 6241TIP3    H118729   5.323   5.492   2.873
 6241TIP3    H218730   5.269   5.351   2.867
 6242TIP3   OH218731   0.390   3.634   4.492
 6242TIP3    H118732   0.448   3.558   4.486
 6242TIP3    H218733   0.416   3.689   4.418
 6243TIP3   OH218734   4.744   5.130   0.591
 6243TIP3    H118735   4.832   5.134   0.555
 6243TIP3    H218736   4.736   5.042   0.627
 6244TIP3   OH218737   2.518   4.805   1.642
 6244TIP3    H118738   2.532   4.714   1.616
 6244TIP3    H218739   2.576   4.856   1.586
 6245TIP3   OH218740   5.598   3.331   4.811
 6245TIP3    H118741   5.523   3.303   4.757
 6245TIP3    H218742   5.582   3.291   4.896
 6246TIP3   OH218743   2.942   1.150   0.728
 6246TIP3    H118744   2.878   1.218   0.747
 6246TIP3    H218745   3.024   1.184   0.765
 6247TIP3   OH218746   2.103   4.288   0.517
 6247TIP3    H118747   2.193   4.275   0.545
 6247TIP3    H218748   2.092   4.383   0.510
 6248TIP3   OH218749   5.722   3.350   2.588
 6248TIP3    H118750   5.658   3.297   2.634
 6248TIP3    H218751   5.687   3.360   2.499
 6249TIP3   OH218752   0.126   5.701   4.590
 6249TIP3    H118753   0.213   5.661   4.587
 6249TIP3    H218754   0.139   5.790   4.557
 6250TIP3   OH218755   1.547   5.314   0.464
 6250TIP3    H118756   1.619   5.324   0.527
 6250TIP3    H218757   1.471   5.350   0.509
 6251TIP3   OH218758   5.630   0.685   2.513
 6251TIP3    H118759   5.628   0.744   2.588
 6251TIP3    H218760   5.622   0.598   2.551
 6252TIP3   OH218761   5.970   6.024   3.019
 6252TIP3    H118762   5.882   5.986   3.020
 6252TIP3    H218763   6.029   5.948   3.015
 6253TIP3   OH218764   4.945   3.736   0.885
 6253TIP3    H118765   4.997   3.747   0.964
 6253TIP3    H218766   4.860   3.776   0.906
 6254TIP3   OH218767   4.194   3.468   4.545
 6254TIP3    H118768   4.110   3.452   4.502
 6254TIP3    H218769   4.258   3.419   4.493
 6255TIP3   OH218770   5.761   5.430   3.969
 6255TIP3    H118771   5.734   5.482   3.893
 6255TIP3    H218772   5.715   5.347   3.959
 6256TIP3   OH218773   1.305   1.707   2.078
 6256TIP3    H118774   1.260   1.768   2.137
 6256TIP3    H218775   1.392   1.744   2.067
 6257TIP3   OH218776   6.105   2.965   4.079
 6257TIP3    H118777   6.059   3.045   4.105
 6257TIP3    H218778   6.124   2.978   3.986
 6258TIP3   OH218779   0.733   4.154   4.188
 6258TIP3    H118780   0.725   4.134   4.281
 6258TIP3    H218781   0.692   4.079   4.144
 6259TIP3   OH218782   2.280   1.464   0.440
 6259TIP3    H118783   2.326   1.418   0.370
 6259TIP3    H218784   2.251   1.395   0.499
 6260TIP3   OH218785   4.707   4.257   2.880
 6260TIP3    H118786   4.615   4.248   2.857
 6260TIP3    H218787   4.729   4.176   2.926
 6261TIP3   OH218788   2.088   5.620   3.703
 6261TIP3    H118789   2.086   5.525   3.717
 6261TIP3    H218790   1.998   5.641   3.675
 6262TIP3   OH218791   5.276   5.514   0.270
 6262TIP3    H118792   5.220   5.440   0.247
 6262TIP3    H218793   5.359   5.474   0.299
 6263TIP3   OH218794   1.741   2.218   2.980
 6263TIP3    H118795   1.655   2.210   3.022
 6263TIP3    H218796   1.737   2.157   2.907
 6264TIP3   OH218797   4.505   1.782   2.560
 6264TIP3    H118798   4.565   1.840   2.607
 6264TIP3    H218799   4.458   1.735   2.629
 6265TIP3   OH218800   5.623   5.524   3.114
 6265TIP3    H118801   5.647   5.459   3.048
 6265TIP3    H218802   5.561   5.582   3.070
 6266TIP3   OH218803   2.283   2.282   0.932
 6266TIP3    H118804   2.245   2.365   0.959
 6266TIP3    H218805   2.325   2.301   0.848
 6267TIP3   OH218806   2.420   4.539   1.975
 6267TIP3    H118807   2.493   4.571   2.027
 6267TIP3    H218808   2.385   4.618   1.933
 6268TIP3   OH218809   1.536   4.022   4.662
 6268TIP3    H118810   1.583   3.942   4.685
 6268TIP3    H218811   1.553   4.081   4.736
 6269TIP3   OH218812   2.711   0.834   1.256
 6269TIP3    H118813   2.722   0.800   1.344
 6269TIP3    H218814   2.734   0.760   1.199
 6270TIP3   OH218815   1.470   4.183   0.721
 6270TIP3    H118816   1.543   4.123   0.706
 6270TIP3    H218817   1.399   4.149   0.666
 6271TIP3   OH218818   0.235   1.046   5.078
 6271TIP3    H118819   0.257   0.957   5.050
 6271TIP3    H218820   0.243   1.043   5.173
 6272TIP3   OH218821   2.234   2.972   4.123
 6272TIP3    H118822   2.177   2.900   4.097
 6272TIP3    H218823   2.310   2.929   4.163
 6273TIP3   OH218824   2.530   2.590   4.092
 6273TIP3    H118825   2.591   2.603   4.020
 6273TIP3    H218826   2.447   2.627   4.061
 6274TIP3   OH218827   3.785   1.965   4.488
 6274TIP3    H118828   3.813   1.991   4.400
 6274TIP3    H218829   3.715   2.027   4.510
 6275TIP3   OH218830   0.959   3.608   1.147
 6275TIP3    H118831   0.912   3.560   1.215
 6275TIP3    H218832   0.943   3.556   1.067
 6276TIP3   OH218833   5.979   5.459   4.107
 6276TIP3    H118834   6.046   5.453   4.039
 6276TIP3    H218835   5.897   5.448   4.060
 6277TIP3   OH218836   6.018   1.986   1.321
 6277TIP3    H118837   5.966   1.912   1.290
 6277TIP3    H218838   6.003   1.989   1.415
 6278TIP3   OH218839   1.442   5.146   3.709
 6278TIP3    H118840   1.433   5.101   3.793
 6278TIP3    H218841   1.369   5.113   3.657
 6279TIP3   OH218842   1.150   0.428   1.107
 6279TIP3    H118843   1.066   0.467   1.084
 6279TIP3    H218844   1.129   0.361   1.172
 6280TIP3   OH218845   3.641   0.089   1.265
 6280TIP3    H118846   3.643   0.077   1.170
 6280TIP3    H218847   3.578   0.159   1.279
 6281TIP3   OH218848   2.736   5.779   4.223
 6281TIP3    H118849   2.773   5.848   4.168
 6281TIP3    H218850   2.781   5.788   4.307
 6282TIP3   OH218851   4.995   5.791   3.836
 6282TIP3    H118852   4.997   5.831   3.923
 6282TIP3    H218853   5.001   5.697   3.853
 6283TIP3   OH218854   4.262   3.442   2.180
 6283TIP3    H118855   4.332   3.505   2.199
 6283TIP3    H218856   4.230   3.468   2.094
 6284TIP3   OH218857   3.708   3.374   1.196
 6284TIP3    H118858   3.658   3.328   1.264
 6284TIP3    H218859   3.749   3.304   1.145
 6285TIP3   OH218860   6.253   1.662   3.412
 6285TIP3    H118861   6.330   1.650   3.467
 6285TIP3    H218862   6.179   1.649   3.471
 6286TIP3   OH218863   5.797   5.611   2.164
 6286TIP3    H118864   5.809   5.567   2.080
 6286TIP3    H218865   5.729   5.677   2.147
 6287TIP3   OH218866   2.215   2.691   2.538
 6287TIP3    H118867   2.171   2.662   2.617
 6287TIP3    H218868   2.200   2.620   2.475
 6288TIP3   OH218869   2.760   3.203   2.959
 6288TIP3    H118870   2.766   3.298   2.961
 6288TIP3    H218871   2.850   3.172   2.969
 6289TIP3   OH218872   1.209   0.702   3.215
 6289TIP3    H118873   1.205   0.728   3.307
 6289TIP3    H218874   1.183   0.781   3.167
 6290TIP3   OH218875   4.453   0.883   2.242
 6290TIP3    H118876   4.502   0.816   2.194
 6290TIP3    H218877   4.363   0.874   2.210
 6291TIP3   OH218878   3.963   3.980   1.790
 6291TIP3    H118879   4.009   4.005   1.710
 6291TIP3    H218880   3.891   3.924   1.760
 6292TIP3   OH218881   3.591   1.773   0.912
 6292TIP3    H118882   3.517   1.830   0.934
 6292TIP3    H218883   3.663   1.833   0.895
 6293TIP3   OH218884   4.863   1.948   3.133
 6293TIP3    H118885   4.939   1.966   3.078
 6293TIP3    H218886   4.845   1.855   3.118
 6294TIP3   OH218887   4.990   4.562   4.037
 6294TIP3    H118888   4.991   4.656   4.017
 6294TIP3    H218889   4.917   4.528   3.986
 6295TIP3   OH218890   3.385   2.790   3.299
 6295TIP3    H118891   3.335   2.746   3.230
 6295TIP3    H218892   3.453   2.727   3.323
 6296TIP3   OH218893   1.561   3.786   0.153
 6296TIP3    H118894   1.544   3.709   0.207
 6296TIP3    H218895   1.548   3.860   0.211
 6297TIP3   OH218896   3.685   0.830   3.749
 6297TIP3    H118897   3.664   0.885   3.824
 6297TIP3    H218898   3.737   0.887   3.692
 6298TIP3   OH218899   1.717   2.654   2.808
 6298TIP3    H118900   1.726   2.696   2.722
 6298TIP3    H218901   1.639   2.694   2.847
 6299TIP3   OH218902   0.987   2.128   2.328
 6299TIP3    H118903   1.025   2.214   2.344
 6299TIP3    H218904   1.053   2.082   2.275
 6300TIP3   OH218905   2.861   2.450   0.789
 6300TIP3    H118906   2.884   2.359   0.808
 6300TIP3    H218907   2.786   2.468   0.846
 6301TIP3   OH218908   1.192   4.038   3.881
 6301TIP3    H118909   1.286   4.025   3.892
 6301TIP3    H218910   1.152   3.972   3.939
 6302TIP3   OH218911   2.904   5.035   0.619
 6302TIP3    H118912   2.989   5.036   0.662
 6302TIP3    H218913   2.869   5.123   0.630
 6303TIP3   OH218914   3.723   1.353   0.166
 6303TIP3    H118915   3.653   1.362   0.230
 6303TIP3    H218916   3.787   1.295   0.208
 6304TIP3   OH218917   4.571   5.889   3.388
 6304TIP3    H118918   4.642   5.885   3.323
 6304TIP3    H218919   4.491   5.892   3.335
 6305TIP3   OH218920   0.075   3.719   0.188
 6305TIP3    H118921   0.101   3.646   0.132
 6305TIP3    H218922  -0.011   3.693   0.222
 6306TIP3   OH218923   1.317   1.677   4.796
 6306TIP3    H118924   1.360   1.595   4.773
 6306TIP3    H218925   1.300   1.669   4.890
 6307TIP3   OH218926   5.909   3.925   4.434
 6307TIP3    H118927   5.918   3.883   4.520
 6307TIP3    H218928   5.815   3.925   4.418
 6308TIP3   OH218929   2.675   5.193   0.860
 6308TIP3    H118930   2.752   5.239   0.827
 6308TIP3    H218931   2.629   5.259   0.913
 6309TIP3   OH218932   3.877   5.251   0.131
 6309TIP3    H118933   3.813   5.298   0.185
 6309TIP3    H218934   3.948   5.313   0.118
 6310TIP3   OH218935   6.218   5.303   4.936
 6310TIP3    H118936   6.168   5.227   4.966
 6310TIP3    H218937   6.169   5.336   4.861
 6311TIP3   OH218938   4.322   3.061   1.166
 6311TIP3    H118939   4.233   3.053   1.132
 6311TIP3    H218940   4.311   3.103   1.252
 6312TIP3   OH218941   2.471   4.835   1.339
 6312TIP3    H118942   2.411   4.883   1.396
 6312TIP3    H218943   2.541   4.898   1.320
 6313TIP3   OH218944   5.882   0.226   4.181
 6313TIP3    H118945   5.823   0.259   4.113
 6313TIP3    H218946   5.953   0.184   4.133
 6314TIP3   OH218947   2.440   5.809   0.824
 6314TIP3    H118948   2.379   5.881   0.808
 6314TIP3    H218949   2.495   5.841   0.896
 6315TIP3   OH218950   4.465   5.458   0.815
 6315TIP3    H118951   4.530   5.461   0.745
 6315TIP3    H218952   4.497   5.521   0.880
 6316TIP3   OH218953   6.271   1.479   4.121
 6316TIP3    H118954   6.206   1.410   4.134
 6316TIP3    H218955   6.338   1.462   4.187
 6317TIP3   OH218956   5.625   2.933   2.636
 6317TIP3    H118957   5.640   2.839   2.626
 6317TIP3    H218958   5.676   2.973   2.565
 6318TIP3   OH218959   2.490   3.947   2.488
 6318TIP3    H118960   2.429   3.888   2.531
 6318TIP3    H218961   2.485   4.028   2.539
 6319TIP3   OH218962   5.107   0.738   5.167
 6319TIP3    H118963   5.177   0.776   5.115
 6319TIP3    H218964   5.076   0.663   5.116
 6320TIP3   OH218965   4.364   3.194   2.386
 6320TIP3    H118966   4.328   3.255   2.450
 6320TIP3    H218967   4.320   3.111   2.403
 6321TIP3   OH218968   5.432   0.143   3.112
 6321TIP3    H118969   5.522   0.125   3.084
 6321TIP3    H218970   5.379   0.079   3.066
 6322TIP3   OH218971   4.317   2.947   1.912
 6322TIP3    H118972   4.407   2.972   1.894
 6322TIP3    H218973   4.297   2.988   1.996
 6323TIP3   OH218974   2.304   0.224   0.680
 6323TIP3    H118975   2.285   0.284   0.752
 6323TIP3    H218976   2.371   0.269   0.628
 6324TIP3   OH218977   5.908   2.106   1.608
 6324TIP3    H118978   5.849   2.167   1.563
 6324TIP3    H218979   5.983   2.159   1.633
 6325TIP3   OH218980   2.760   5.175   5.136
 6325TIP3    H118981   2.811   5.130   5.069
 6325TIP3    H218982   2.693   5.223   5.087
 6326TIP3   OH218983   0.782   3.948   1.059
 6326TIP3    H118984   0.771   3.875   0.997
 6326TIP3    H218985   0.702   3.946   1.111
 6327TIP3   OH218986   5.303   1.969   2.549
 6327TIP3    H118987   5.222   2.017   2.563
 6327TIP3    H218988   5.277   1.877   2.549
 6328TIP3   OH218989   3.549   0.755   4.417
 6328TIP3    H118990   3.454   0.769   4.418
 6328TIP3    H218991   3.582   0.822   4.357
 6329TIP3   OH218992   5.748   1.493   3.259
 6329TIP3    H118993   5.746   1.522   3.350
 6329TIP3    H218994   5.789   1.406   3.262
 6330TIP3   OH218995   2.003   4.640   3.610
 6330TIP3    H118996   1.988   4.546   3.604
 6330TIP3    H218997   1.986   4.672   3.521
 6331TIP3   OH218998   2.607   3.595   2.854
 6331TIP3    H118999   2.702   3.601   2.863
 6331TIP3    H219000   2.572   3.635   2.934
 6332TIP3   OH219001   1.208   1.987   0.901
 6332TIP3    H119002   1.144   2.052   0.873
 6332TIP3    H219003   1.284   2.038   0.930
 6333TIP3   OH219004   3.869   1.257   2.521
 6333TIP3    H119005   3.839   1.279   2.433
 6333TIP3    H219006   3.948   1.310   2.533
 6334TIP3   OH219007   5.979   2.952   2.564
 6334TIP3    H119008   6.064   2.968   2.523
 6334TIP3    H219009   5.916   2.962   2.492
 6335TIP3   OH219010   0.181   1.623   2.603
 6335TIP3    H119011   0.173   1.544   2.658
 6335TIP3    H219012   0.239   1.680   2.653
 6336TIP3   OH219013   4.613   2.175   3.925
 6336TIP3    H119014   4.530   2.220   3.912
 6336TIP3    H219015   4.679   2.242   3.910
 6337TIP3   OH219016   0.773   2.351   3.613
 6337TIP3    H119017   0.755   2.338   3.520
 6337TIP3    H219018   0.845   2.291   3.632
 6338TIP3   OH219019   1.513   3.547   2.580
 6338TIP3    H119020   1.479   3.590   2.501
 6338TIP3    H219021   1.604   3.528   2.560
 6339TIP3   OH219022   2.313   2.860   0.446
 6339TIP3    H119023   2.302   2.891   0.356
 6339TIP3    H219024   2.404   2.881   0.468
 6340TIP3   OH219025   1.915   5.608   4.009
 6340TIP3    H119026   1.976   5.625   4.080
 6340TIP3    H219027   1.954   5.535   3.960
 6341TIP3   OH219028   2.602   2.075   4.299
 6341TIP3    H119029   2.663   2.139   4.335
 6341TIP3    H219030   2.593   2.099   4.207
 6342TIP3   OH219031   2.514   2.997   3.904
 6342TIP3    H119032   2.550   3.049   3.832
 6342TIP3    H219033   2.530   3.049   3.982
 6343TIP3   OH219034   1.807   3.010   4.737
 6343TIP3    H119035   1.788   3.100   4.764
 6343TIP3    H219036   1.836   3.018   4.647
 6344TIP3   OH219037   0.381   1.730   4.435
 6344TIP3    H119038   0.429   1.672   4.494
 6344TIP3    H219039   0.369   1.811   4.484
 6345TIP3   OH219040   3.922   1.162   0.776
 6345TIP3    H119041   3.934   1.172   0.870
 6345TIP3    H219042   3.875   1.241   0.749
 6346TIP3   OH219043   1.635   4.620   3.223
 6346TIP3    H119044   1.619   4.713   3.203
 6346TIP3    H219045   1.557   4.591   3.269
 6347TIP3   OH219046   5.911   3.103   0.092
 6347TIP3    H119047   5.860   3.182   0.077
 6347TIP3    H219048   6.002   3.129   0.075
 6348TIP3   OH219049   2.320   0.836   0.644
 6348TIP3    H119050   2.264   0.870   0.713
 6348TIP3    H219051   2.372   0.911   0.615
 6349TIP3   OH219052   3.645   1.588   3.612
 6349TIP3    H119053   3.728   1.626   3.642
 6349TIP3    H219054   3.637   1.618   3.521
 6350TIP3   OH219055   0.984   4.650   1.909
 6350TIP3    H119056   0.889   4.642   1.915
 6350TIP3    H219057   1.006   4.608   1.825
 6351TIP3   OH219058   4.029   2.129   3.622
 6351TIP3    H119059   3.980   2.194   3.673
 6351TIP3    H219060   3.968   2.056   3.612
 6352TIP3   OH219061   4.257   1.287   1.879
 6352TIP3    H119062   4.187   1.283   1.814
 6352TIP3    H219063   4.222   1.341   1.949
 6353TIP3   OH219064   5.517   2.783   4.790
 6353TIP3    H119065   5.544   2.816   4.704
 6353TIP3    H219066   5.514   2.688   4.780
 6354TIP3   OH219067   2.496   5.644   1.884
 6354TIP3    H119068   2.430   5.575   1.891
 6354TIP3    H219069   2.528   5.656   1.974
 6355TIP3   OH219070   3.150   0.237   1.207
 6355TIP3    H119071   3.054   0.235   1.198
 6355TIP3    H219072   3.170   0.158   1.257
 6356TIP3   OH219073   2.099   2.326   1.316
 6356TIP3    H119074   2.058   2.240   1.325
 6356TIP3    H219075   2.045   2.371   1.251
 6357TIP3   OH219076   3.104   3.800   4.785
 6357TIP3    H119077   3.166   3.828   4.852
 6357TIP3    H219078   3.135   3.842   4.705
 6358TIP3   OH219079   2.555   0.680   4.637
 6358TIP3    H119080   2.488   0.723   4.690
 6358TIP3    H219081   2.559   0.732   4.557
 6359TIP3   OH219082   3.273   1.790   4.240
 6359TIP3    H119083   3.290   1.830   4.325
 6359TIP3    H219084   3.300   1.698   4.251
 6360TIP3   OH219085   3.320   5.454   1.915
 6360TIP3    H119086   3.312   5.469   1.821
 6360TIP3    H219087   3.259   5.515   1.955
 6361TIP3   OH219088   5.351   3.389   1.779
 6361TIP3    H119089   5.422   3.324   1.788
 6361TIP3    H219090   5.397   3.472   1.765
 6362TIP3   OH219091   2.856   5.127   3.803
 6362TIP3    H119092   2.889   5.125   3.713
 6362TIP3    H219093   2.927   5.090   3.855
 6363TIP3   OH219094   3.564   2.266   3.519
 6363TIP3    H119095   3.605   2.199   3.464
 6363TIP3    H219096   3.569   2.346   3.466
 6364TIP3   OH219097   0.320   5.409   0.964
 6364TIP3    H119098   0.295   5.318   0.983
 6364TIP3    H219099   0.250   5.441   0.906
 6365TIP3   OH219100   4.408   0.638   3.541
 6365TIP3    H119101   4.328   0.597   3.574
 6365TIP3    H219102   4.459   0.657   3.620
 6366TIP3   OH219103   6.147   3.495   1.909
 6366TIP3    H119104   6.144   3.587   1.936
 6366TIP3    H219105   6.168   3.498   1.816
 6367TIP3   OH219106   2.372   1.052   1.188
 6367TIP3    H119107   2.426   1.066   1.265
 6367TIP3    H219108   2.358   0.957   1.185
 6368TIP3   OH219109   3.781   5.502   3.350
 6368TIP3    H119110   3.686   5.514   3.353
 6368TIP3    H219111   3.807   5.538   3.265
 6369TIP3   OH219112   2.596   3.278   3.982
 6369TIP3    H119113   2.510   3.320   3.989
 6369TIP3    H219114   2.644   3.333   3.920
 6370TIP3   OH219115   2.659   4.255   0.573
 6370TIP3    H119116   2.603   4.188   0.534
 6370TIP3    H219117   2.652   4.241   0.667
 6371TIP3   OH219118   1.514   2.112   4.350
 6371TIP3    H119119   1.599   2.068   4.343
 6371TIP3    H219120   1.491   2.104   4.442
 6372TIP3   OH219121   5.000   5.901   1.868
 6372TIP3    H119122   4.912   5.919   1.901
 6372TIP3    H219123   4.988   5.895   1.773
 6373TIP3   OH219124   0.925   5.857   5.178
 6373TIP3    H119125   0.850   5.915   5.195
 6373TIP3    H219126   0.885   5.772   5.158
 6374TIP3   OH219127   1.065   0.535   2.199
 6374TIP3    H119128   1.064   0.500   2.110
 6374TIP3    H219129   1.110   0.619   2.191
 6375TIP3   OH219130   0.042   4.454   2.250
 6375TIP3    H119131  -0.014   4.377   2.241
 6375TIP3    H219132  -0.005   4.511   2.311
 6376TIP3   OH219133   2.781   1.089   5.120
 6376TIP3    H119134   2.815   1.177   5.132
 6376TIP3    H219135   2.697   1.088   5.167
 6377TIP3   OH219136   1.745   4.598   1.483
 6377TIP3    H119137   1.701   4.515   1.497
 6377TIP3    H219138   1.785   4.591   1.397
 6378TIP3   OH219139   6.175   0.345   4.018
 6378TIP3    H119140   6.174   0.250   4.033
 6378TIP3    H219141   6.122   0.357   3.940
 6379TIP3   OH219142   4.881   3.033   3.604
 6379TIP3    H119143   4.848   3.106   3.655
 6379TIP3    H219144   4.955   2.999   3.655
 6380TIP3   OH219145   2.395   1.689   2.514
 6380TIP3    H119146   2.469   1.673   2.572
 6380TIP3    H219147   2.324   1.637   2.551
 6381TIP3   OH219148   5.155   1.381   4.519
 6381TIP3    H119149   5.251   1.372   4.517
 6381TIP3    H219150   5.138   1.430   4.599
 6382TIP3   OH219151   4.691   2.501   5.090
 6382TIP3    H119152   4.660   2.576   5.039
 6382TIP3    H219153   4.759   2.537   5.147
 6383TIP3   OH219154   3.395   0.629   0.422
 6383TIP3    H119155   3.367   0.565   0.487
 6383TIP3    H219156   3.315   0.655   0.377
 6384TIP3   OH219157   3.290   0.390   3.242
 6384TIP3    H119158   3.309   0.317   3.183
 6384TIP3    H219159   3.353   0.380   3.313
 6385TIP3   OH219160   4.438   5.080   3.475
 6385TIP3    H119161   4.470   4.992   3.495
 6385TIP3    H219162   4.496   5.138   3.524
 6386TIP3   OH219163   0.977   3.847   4.317
 6386TIP3    H119164   0.961   3.941   4.326
 6386TIP3    H219165   1.040   3.826   4.386
 6387TIP3   OH219166   4.374   1.631   1.276
 6387TIP3    H119167   4.436   1.597   1.340
 6387TIP3    H219168   4.426   1.643   1.196
 6388TIP3   OH219169   1.192   1.669   1.142
 6388TIP3    H119170   1.150   1.751   1.166
 6388TIP3    H219171   1.279   1.674   1.180
 6389TIP3   OH219172   3.591   3.599   4.662
 6389TIP3    H119173   3.573   3.666   4.728
 6389TIP3    H219174   3.562   3.517   4.702
 6390TIP3   OH219175   2.415   2.822   1.440
 6390TIP3    H119176   2.490   2.770   1.470
 6390TIP3    H219177   2.441   2.913   1.455
 6391TIP3   OH219178   4.336   1.146   1.585
 6391TIP3    H119179   4.256   1.183   1.623
 6391TIP3    H219180   4.315   1.054   1.571
 6392TIP3   OH219181   4.232   0.502   1.242
 6392TIP3    H119182   4.159   0.546   1.198
 6392TIP3    H219183   4.297   0.571   1.257
 6393TIP3   OH219184   5.777   2.660   2.833
 6393TIP3    H119185   5.706   2.673   2.769
 6393TIP3    H219186   5.856   2.688   2.788
 6394TIP3   OH219187   0.333   2.977   0.234
 6394TIP3    H119188   0.260   2.922   0.208
 6394TIP3    H219189   0.394   2.974   0.160
 6395TIP3   OH219190   3.584   5.791   1.576
 6395TIP3    H119191   3.560   5.879   1.548
 6395TIP3    H219192   3.505   5.739   1.563
 6396TIP3   OH219193   4.250   4.977   1.263
 6396TIP3    H119194   4.279   5.051   1.209
 6396TIP3    H219195   4.323   4.960   1.322
 6397TIP3   OH219196   5.313   4.091   1.270
 6397TIP3    H119197   5.367   4.093   1.191
 6397TIP3    H219198   5.369   4.129   1.338
 6398TIP3   OH219199   5.198   2.861   0.296
 6398TIP3    H119200   5.148   2.780   0.287
 6398TIP3    H219201   5.165   2.917   0.225
 6399TIP3   OH219202   4.735   4.465   4.333
 6399TIP3    H119203   4.693   4.420   4.406
 6399TIP3    H219204   4.736   4.400   4.262
 6400TIP3   OH219205   5.151   3.846   1.704
 6400TIP3    H119206   5.188   3.836   1.792
 6400TIP3    H219207   5.154   3.757   1.667
 6401TIP3   OH219208   2.073   1.120   1.286
 6401TIP3    H119209   2.069   1.066   1.365
 6401TIP3    H219210   2.156   1.096   1.245
 6402TIP3   OH219211   6.021   3.658   2.335
 6402TIP3    H119212   6.052   3.575   2.299
 6402TIP3    H219213   5.926   3.656   2.323
 6403TIP3   OH219214   3.907   0.282   1.594
 6403TIP3    H119215   3.881   0.250   1.680
 6403TIP3    H219216   3.911   0.377   1.604
 6404TIP3   OH219217   3.853   5.643   0.587
 6404TIP3    H119218   3.799   5.636   0.665
 6404TIP3    H219219   3.908   5.564   0.588
 6405TIP3   OH219220   2.765   4.147   1.416
 6405TIP3    H119221   2.752   4.054   1.400
 6405TIP3    H219222   2.795   4.182   1.332
 6406TIP3   OH219223   0.607   3.631   2.243
 6406TIP3    H119224   0.663   3.578   2.299
 6406TIP3    H219225   0.519   3.616   2.277
 6407TIP3   OH219226   1.716   2.860   0.710
 6407TIP3    H119227   1.689   2.870   0.801
 6407TIP3    H219228   1.801   2.816   0.715
 6408TIP3   OH219229   5.546   2.330   4.449
 6408TIP3    H119230   5.593   2.247   4.453
 6408TIP3    H219231   5.575   2.370   4.367
 6409TIP3   OH219232   5.685   4.869   1.750
 6409TIP3    H119233   5.727   4.798   1.702
 6409TIP3    H219234   5.758   4.920   1.787
 6410TIP3   OH219235   0.629   2.028   2.808
 6410TIP3    H119236   0.551   1.973   2.817
 6410TIP3    H219237   0.617   2.074   2.725
 6411TIP3   OH219238   3.300   4.110   3.947
 6411TIP3    H119239   3.389   4.076   3.954
 6411TIP3    H219240   3.300   4.190   3.999
 6412TIP3   OH219241   2.113   5.269   1.958
 6412TIP3    H119242   2.169   5.198   1.929
 6412TIP3    H219243   2.025   5.244   1.929
 6413TIP3   OH219244   5.575   3.148   0.799
 6413TIP3    H119245   5.582   3.232   0.753
 6413TIP3    H219246   5.636   3.091   0.753
 6414TIP3   OH219247   1.765   2.095   1.141
 6414TIP3    H119248   1.757   2.019   1.084
 6414TIP3    H219249   1.729   2.065   1.225
 6415TIP3   OH219250   5.596   4.472   0.876
 6415TIP3    H119251   5.556   4.483   0.790
 6415TIP3    H219252   5.676   4.421   0.859
 6416TIP3   OH219253   4.389   4.864   2.341
 6416TIP3    H119254   4.484   4.856   2.346
 6416TIP3    H219255   4.358   4.844   2.429
 6417TIP3   OH219256   4.302   3.631   3.704
 6417TIP3    H119257   4.308   3.600   3.614
 6417TIP3    H219258   4.211   3.659   3.714
 6418TIP3   OH219259   3.661   5.060   0.218
 6418TIP3    H119260   3.709   5.082   0.298
 6418TIP3    H219261   3.682   4.968   0.203
 6419TIP3   OH219262   2.381   2.983   4.751
 6419TIP3    H119263   2.416   3.042   4.818
 6419TIP3    H219264   2.457   2.933   4.722
 6420TIP3   OH219265   3.423   2.364   2.374
 6420TIP3    H119266   3.392   2.371   2.284
 6420TIP3    H219267   3.394   2.446   2.416
 6421TIP3   OH219268   3.483   1.197   1.731
 6421TIP3    H119269   3.432   1.206   1.811
 6421TIP3    H219270   3.438   1.128   1.681
 6422TIP3   OH219271   4.976   1.296   1.413
 6422TIP3    H119272   4.941   1.249   1.337
 6422TIP3    H219273   4.901   1.303   1.472
 6423TIP3   OH219274   4.776   2.594   4.520
 6423TIP3    H119275   4.691   2.634   4.539
 6423TIP3    H219276   4.839   2.646   4.569
 6424TIP3   OH219277   1.708   4.770   1.058
 6424TIP3    H119278   1.619   4.785   1.091
 6424TIP3    H219279   1.739   4.694   1.107
 6425TIP3   OH219280   2.219   1.481   2.136
 6425TIP3    H119281   2.255   1.428   2.207
 6425TIP3    H219282   2.175   1.554   2.180
 6426TIP3   OH219283   0.150   0.230   2.110
 6426TIP3    H119284   0.230   0.191   2.074
 6426TIP3    H219285   0.117   0.286   2.039
 6427TIP3   OH219286   2.187   3.588   1.478
 6427TIP3    H119287   2.099   3.600   1.442
 6427TIP3    H219288   2.211   3.674   1.512
 6428TIP3   OH219289   0.978   4.135   4.412
 6428TIP3    H119290   0.925   4.211   4.436
 6428TIP3    H219291   1.058   4.173   4.374
 6429TIP3   OH219292   3.932   5.433   3.571
 6429TIP3    H119293   3.976   5.353   3.544
 6429TIP3    H219294   3.887   5.464   3.493
 6430TIP3   OH219295   6.070   0.753   4.714
 6430TIP3    H119296   6.037   0.672   4.675
 6430TIP3    H219297   6.159   0.731   4.743
 6431TIP3   OH219298   3.287   0.446   4.123
 6431TIP3    H119299   3.376   0.419   4.103
 6431TIP3    H219300   3.255   0.486   4.043
 6432TIP3   OH219301   2.631   3.129   3.699
 6432TIP3    H119302   2.683   3.124   3.619
 6432TIP3    H219303   2.673   3.198   3.750
 6433TIP3   OH219304   4.480   3.497   0.963
 6433TIP3    H119305   4.491   3.537   0.877
 6433TIP3    H219306   4.554   3.530   1.014
 6434TIP3   OH219307   3.952   2.275   4.156
 6434TIP3    H119308   4.010   2.304   4.227
 6434TIP3    H219309   3.888   2.346   4.147
 6435TIP3   OH219310   2.184   1.210   3.834
 6435TIP3    H119311   2.256   1.148   3.819
 6435TIP3    H219312   2.198   1.279   3.769
 6436TIP3   OH219313   0.304   5.701   3.519
 6436TIP3    H119314   0.307   5.694   3.424
 6436TIP3    H219315   0.240   5.771   3.536
 6437TIP3   OH219316   1.883   5.713   0.593
 6437TIP3    H119317   1.788   5.717   0.599
 6437TIP3    H219318   1.901   5.628   0.552
 6438TIP3   OH219319   6.150   2.942   3.802
 6438TIP3    H119320   6.080   2.962   3.740
 6438TIP3    H219321   6.224   2.918   3.748
 6439TIP3   OH219322   4.037   4.220   0.026
 6439TIP3    H119323   4.050   4.271  -0.054
 6439TIP3    H219324   4.120   4.176   0.040
 6440TIP3   OH219325   2.719   2.607   3.861
 6440TIP3    H119326   2.696   2.688   3.816
 6440TIP3    H219327   2.719   2.540   3.792
 6441TIP3   OH219328   5.621   5.266   1.831
 6441TIP3    H119329   5.713   5.255   1.855
 6441TIP3    H219330   5.623   5.317   1.751
 6442TIP3   OH219331   6.105   1.007   2.415
 6442TIP3    H119332   6.053   1.073   2.461
 6442TIP3    H219333   6.189   1.006   2.461
 6443TIP3   OH219334   2.892   2.237   4.716
 6443TIP3    H119335   2.797   2.250   4.725
 6443TIP3    H219336   2.919   2.303   4.652
 6444TIP3   OH219337   0.058   3.410   4.133
 6444TIP3    H119338  -0.002   3.347   4.174
 6444TIP3    H219339   0.007   3.491   4.127
 6445TIP3   OH219340   2.460   1.142   1.439
 6445TIP3    H119341   2.401   1.209   1.472
 6445TIP3    H219342   2.480   1.089   1.516
 6446TIP3   OH219343   0.750   5.262   0.282
 6446TIP3    H119344   0.684   5.290   0.346
 6446TIP3    H219345   0.785   5.180   0.318
 6447TIP3   OH219346   4.752   3.698   2.289
 6447TIP3    H119347   4.777   3.617   2.244
 6447TIP3    H219348   4.831   3.726   2.335
 6448TIP3   OH219349  -0.001   2.186   0.929
 6448TIP3    H119350   0.062   2.115   0.933
 6448TIP3    H219351   0.039   2.257   0.980
 6449TIP3   OH219352   3.971   4.319   2.031
 6449TIP3    H119353   3.935   4.380   1.966
 6449TIP3    H219354   4.002   4.375   2.102
 6450TIP3   OH219355   0.577   1.583   0.553
 6450TIP3    H119356   0.541   1.569   0.465
 6450TIP3    H219357   0.511   1.545   0.612
 6451TIP3   OH219358   0.851   1.214   1.828
 6451TIP3    H119359   0.884   1.276   1.894
 6451TIP3    H219360   0.899   1.133   1.845
 6452TIP3   OH219361   6.328   2.002   1.517
 6452TIP3    H119362   6.276   1.927   1.490
 6452TIP3    H219363   6.376   1.971   1.594
 6453TIP3   OH219364   3.235   0.819   1.480
 6453TIP3    H119365   3.202   0.754   1.542
 6453TIP3    H219366   3.273   0.767   1.409
 6454TIP3   OH219367   5.951   2.536   3.516
 6454TIP3    H119368   6.034   2.492   3.503
 6454TIP3    H219369   5.946   2.600   3.444
 6455TIP3   OH219370   2.354   3.715   4.307
 6455TIP3    H119371   2.291   3.711   4.379
 6455TIP3    H219372   2.406   3.635   4.316
 6456TIP3   OH219373   0.440   1.447   1.613
 6456TIP3    H119374   0.365   1.503   1.595
 6456TIP3    H219375   0.483   1.437   1.528
 6457TIP3   OH219376   2.931   2.320   2.240
 6457TIP3    H119377   2.995   2.317   2.311
 6457TIP3    H219378   2.851   2.284   2.279
 6458TIP3   OH219379   1.738   5.707   4.288
 6458TIP3    H119380   1.729   5.639   4.221
 6458TIP3    H219381   1.690   5.672   4.364
 6459TIP3   OH219382   5.502   4.871   2.510
 6459TIP3    H119383   5.486   4.961   2.538
 6459TIP3    H219384   5.459   4.865   2.424
 6460TIP3   OH219385   3.155   2.230   0.438
 6460TIP3    H119386   3.153   2.162   0.504
 6460TIP3    H219387   3.125   2.309   0.483
 6461TIP3   OH219388   6.009   4.094   4.028
 6461TIP3    H119389   5.941   4.081   4.094
 6461TIP3    H219390   5.979   4.170   3.977
 6462TIP3   OH219391   5.898   4.670   1.053
 6462TIP3    H119392   5.830   4.731   1.026
 6462TIP3    H219393   5.933   4.635   0.970
 6463TIP3   OH219394   4.847   5.170   3.332
 6463TIP3    H119395   4.834   5.242   3.271
 6463TIP3    H219396   4.891   5.209   3.407
 6464TIP3   OH219397   2.275   5.765   3.798
 6464TIP3    H119398   2.333   5.702   3.840
 6464TIP3    H219399   2.198   5.714   3.773
 6465TIP3   OH219400   5.690   1.104   3.894
 6465TIP3    H119401   5.629   1.092   3.820
 6465TIP3    H219402   5.766   1.146   3.855
 6466TIP3   OH219403   1.180   4.061   5.086
 6466TIP3    H119404   1.261   4.073   5.137
 6466TIP3    H219405   1.199   4.100   5.001
 6467TIP3   OH219406   1.968   4.739   0.537
 6467TIP3    H119407   1.951   4.832   0.549
 6467TIP3    H219408   1.993   4.707   0.623
 6468TIP3   OH219409   1.198   5.266   4.122
 6468TIP3    H119410   1.289   5.259   4.150
 6468TIP3    H219411   1.179   5.360   4.126
 6469TIP3   OH219412   4.630   1.448   3.194
 6469TIP3    H119413   4.573   1.373   3.210
 6469TIP3    H219414   4.701   1.440   3.258
 6470TIP3   OH219415  -0.009   0.897   1.808
 6470TIP3    H119416   0.012   0.868   1.896
 6470TIP3    H219417   0.066   0.871   1.754
 6471TIP3   OH219418   2.610   0.001   2.457
 6471TIP3    H119419   2.691   0.044   2.433
 6471TIP3    H219420   2.581   0.047   2.537
 6472TIP3   OH219421   0.963   4.902   1.708
 6472TIP3    H119422   0.979   4.901   1.802
 6472TIP3    H219423   0.876   4.863   1.698
 6473TIP3   OH219424   3.249   1.708   2.522
 6473TIP3    H119425   3.289   1.630   2.559
 6473TIP3    H219426   3.155   1.689   2.523
 6474TIP3   OH219427   3.006   4.476   0.215
 6474TIP3    H119428   2.974   4.496   0.303
 6474TIP3    H219429   2.927   4.463   0.162
 6475TIP3   OH219430   5.521   4.658   3.288
 6475TIP3    H119431   5.510   4.714   3.212
 6475TIP3    H219432   5.484   4.708   3.361
 6476TIP3   OH219433   1.954   4.263   1.997
 6476TIP3    H119434   1.874   4.213   2.012
 6476TIP3    H219435   1.924   4.350   1.971
 6477TIP3   OH219436   1.382   3.170   2.797
 6477TIP3    H119437   1.408   3.205   2.882
 6477TIP3    H219438   1.341   3.085   2.817
 6478TIP3   OH219439   2.737   2.411   3.633
 6478TIP3    H119440   2.703   2.353   3.565
 6478TIP3    H219441   2.784   2.479   3.585
 6479TIP3   OH219442   4.201   3.373   1.331
 6479TIP3    H119443   4.217   3.441   1.265
 6479TIP3    H219444   4.269   3.388   1.397
 6480TIP3   OH219445   1.943   4.900   4.110
 6480TIP3    H119446   1.894   4.840   4.166
 6480TIP3    H219447   2.032   4.865   4.109
 6481TIP3   OH219448   5.817   5.569   2.730
 6481TIP3    H119449   5.896   5.602   2.775
 6481TIP3    H219450   5.792   5.640   2.671
 6482TIP3   OH219451   3.178   0.612   3.063
 6482TIP3    H119452   3.249   0.580   3.119
 6482TIP3    H219453   3.100   0.566   3.094
 6483TIP3   OH219454   3.007   1.703   1.888
 6483TIP3    H119455   3.102   1.701   1.904
 6483TIP3    H219456   2.971   1.637   1.947
 6484TIP3   OH219457   4.433   0.476   4.104
 6484TIP3    H119458   4.375   0.404   4.127
 6484TIP3    H219459   4.505   0.435   4.056
 6485TIP3   OH219460   3.035   3.560   3.308
 6485TIP3    H119461   3.094   3.617   3.357
 6485TIP3    H219462   3.000   3.616   3.238
 6486TIP3   OH219463   1.878   1.320   0.456
 6486TIP3    H119464   1.961   1.321   0.503
 6486TIP3    H219465   1.813   1.294   0.522
 6487TIP3   OH219466   0.009   2.898   2.671
 6487TIP3    H119467   0.087   2.947   2.697
 6487TIP3    H219468  -0.038   2.882   2.753
 6488TIP3   OH219469   1.264   0.279   2.902
 6488TIP3    H119470   1.252   0.369   2.935
 6488TIP3    H219471   1.339   0.285   2.843
 6489TIP3   OH219472   2.376   5.543   3.558
 6489TIP3    H119473   2.361   5.465   3.612
 6489TIP3    H219474   2.471   5.544   3.543
 6490TIP3   OH219475   3.695   0.846   1.793
 6490TIP3    H119476   3.642   0.872   1.868
 6490TIP3    H219477   3.635   0.795   1.738
 6491TIP3   OH219478   0.699   5.326   3.217
 6491TIP3    H119479   0.620   5.379   3.207
 6491TIP3    H219480   0.749   5.369   3.286
 6492TIP3   OH219481   5.781   2.680   1.284
 6492TIP3    H119482   5.754   2.614   1.349
 6492TIP3    H219483   5.871   2.656   1.263
 6493TIP3   OH219484   1.261   2.893   2.780
 6493TIP3    H119485   1.218   2.902   2.695
 6493TIP3    H219486   1.192   2.864   2.839
 6494TIP3   OH219487   3.901   4.126   3.278
 6494TIP3    H119488   3.950   4.046   3.258
 6494TIP3    H219489   3.956   4.172   3.342
 6495TIP3   OH219490   2.691   4.463   1.884
 6495TIP3    H119491   2.627   4.396   1.909
 6495TIP3    H219492   2.712   4.509   1.965
 6496TIP3   OH219493   2.274   3.361   4.425
 6496TIP3    H119494   2.323   3.388   4.347
 6496TIP3    H219495   2.277   3.438   4.483
 6497TIP3   OH219496   3.316   0.197   5.040
 6497TIP3    H119497   3.265   0.166   4.965
 6497TIP3    H219498   3.396   0.146   5.036
 6498TIP3   OH219499   1.673   4.683   3.624
 6498TIP3    H119500   1.583   4.705   3.648
 6498TIP3    H219501   1.726   4.748   3.670
 6499TIP3   OH219502   1.674   0.036   4.646
 6499TIP3    H119503   1.604   0.089   4.684
 6499TIP3    H219504   1.679  -0.041   4.703
 6500TIP3   OH219505   0.046   4.381   0.799
 6500TIP3    H119506   0.092   4.298   0.806
 6500TIP3    H219507  -0.018   4.380   0.869
 6501TIP3   OH219508   2.340   5.368   3.825
 6501TIP3    H119509   2.244   5.369   3.817
 6501TIP3    H219510   2.356   5.396   3.915
 6502TIP3   OH219511   5.373   4.214   2.869
 6502TIP3    H119512   5.411   4.277   2.807
 6502TIP3    H219513   5.306   4.265   2.915
 6503TIP3   OH219514   0.760   1.000   4.651
 6503TIP3    H119515   0.842   1.037   4.682
 6503TIP3    H219516   0.704   1.075   4.632
 6504TIP3   OH219517   0.950   4.962   0.831
 6504TIP3    H119518   1.017   4.915   0.880
 6504TIP3    H219519   0.900   4.894   0.785
 6505TIP3   OH219520   4.379   4.728   4.241
 6505TIP3    H119521   4.299   4.714   4.191
 6505TIP3    H219522   4.440   4.767   4.178
 6506TIP3   OH219523   0.343   1.727   1.034
 6506TIP3    H119524   0.422   1.734   1.088
 6506TIP3    H219525   0.334   1.632   1.018
 6507TIP3   OH219526   4.982   5.697   2.348
 6507TIP3    H119527   4.973   5.632   2.278
 6507TIP3    H219528   4.893   5.726   2.366
 6508TIP3   OH219529   3.755   2.716   0.248
 6508TIP3    H119530   3.824   2.778   0.225
 6508TIP3    H219531   3.737   2.668   0.167
 6509TIP3   OH219532   0.328   4.888   3.356
 6509TIP3    H119533   0.325   4.816   3.420
 6509TIP3    H219534   0.420   4.915   3.354
 6510TIP3   OH219535   1.195   4.043   2.018
 6510TIP3    H119536   1.211   3.951   2.000
 6510TIP3    H219537   1.238   4.089   1.946
 6511TIP3   OH219538   1.399   4.724   0.285
 6511TIP3    H119539   1.414   4.790   0.218
 6511TIP3    H219540   1.315   4.747   0.324
 6512TIP3   OH219541   2.475   2.141   5.079
 6512TIP3    H119542   2.508   2.218   5.032
 6512TIP3    H219543   2.554   2.090   5.099
 6513TIP3   OH219544   4.307   2.728   1.040
 6513TIP3    H119545   4.390   2.761   1.004
 6513TIP3    H219546   4.333   2.662   1.104
 6514TIP3   OH219547   2.022   0.716   0.641
 6514TIP3    H119548   2.071   0.776   0.698
 6514TIP3    H219549   2.066   0.631   0.654
 6515TIP3   OH219550   0.577   5.776   3.545
 6515TIP3    H119551   0.582   5.865   3.510
 6515TIP3    H219552   0.485   5.752   3.534
 6516TIP3   OH219553   2.205   0.479   4.104
 6516TIP3    H119554   2.178   0.558   4.057
 6516TIP3    H219555   2.179   0.407   4.047
 6517TIP3   OH219556   2.800   2.981   4.047
 6517TIP3    H119557   2.752   2.986   3.964
 6517TIP3    H219558   2.860   3.056   4.044
 6518TIP3   OH219559   0.497   2.664   3.623
 6518TIP3    H119560   0.460   2.589   3.577
 6518TIP3    H219561   0.591   2.647   3.625
 6519TIP3   OH219562   3.303   3.761   3.474
 6519TIP3    H119563   3.328   3.853   3.489
 6519TIP3    H219564   3.386   3.715   3.463
 6520TIP3   OH219565   0.512   4.069   2.741
 6520TIP3    H119566   0.454   4.085   2.666
 6520TIP3    H219567   0.599   4.093   2.710
 6521TIP3   OH219568   4.452   4.017   5.018
 6521TIP3    H119569   4.387   3.982   4.957
 6521TIP3    H219570   4.459   4.110   4.996
 6522TIP3   OH219571   2.064   1.999   4.741
 6522TIP3    H119572   1.986   2.043   4.709
 6522TIP3    H219573   2.034   1.948   4.817
 6523TIP3   OH219574   0.501   3.386   3.388
 6523TIP3    H119575   0.466   3.299   3.406
 6523TIP3    H219576   0.461   3.442   3.455
 6524TIP3   OH219577   4.477   4.262   4.363
 6524TIP3    H119578   4.504   4.175   4.332
 6524TIP3    H219579   4.502   4.263   4.455
 6525TIP3   OH219580   4.845   4.887   5.139
 6525TIP3    H119581   4.882   4.974   5.150
 6525TIP3    H219582   4.750   4.902   5.132
 6526TIP3   OH219583   4.362   1.839   2.312
 6526TIP3    H119584   4.388   1.908   2.250
 6526TIP3    H219585   4.425   1.848   2.384
 6527TIP3   OH219586   5.753   5.934   1.147
 6527TIP3    H119587   5.791   5.848   1.129
 6527TIP3    H219588   5.659   5.918   1.156
 6528TIP3   OH219589   1.916   1.385   1.069
 6528TIP3    H119590   1.980   1.381   0.999
 6528TIP3    H219591   1.967   1.400   1.148
 6529TIP3   OH219592   0.566   3.304   3.825
 6529TIP3    H119593   0.563   3.236   3.892
 6529TIP3    H219594   0.653   3.342   3.833
 6530TIP3   OH219595   5.286   1.416   2.357
 6530TIP3    H119596   5.195   1.395   2.375
 6530TIP3    H219597   5.330   1.408   2.442
 6531TIP3   OH219598   3.667   5.888   4.156
 6531TIP3    H119599   3.694   5.798   4.136
 6531TIP3    H219600   3.609   5.912   4.084
 6532TIP3   OH219601   4.136   1.828   0.740
 6532TIP3    H119602   4.141   1.824   0.645
 6532TIP3    H219603   4.228   1.823   0.769
 6533TIP3   OH219604   1.810   3.032   2.699
 6533TIP3    H119605   1.812   2.959   2.638
 6533TIP3    H219606   1.748   3.005   2.766
 6534TIP3   OH219607   3.417   5.962   1.178
 6534TIP3    H119608   3.329   5.963   1.141
 6534TIP3    H219609   3.472   6.005   1.112
 6535TIP3   OH219610   1.161   5.107   3.322
 6535TIP3    H119611   1.070   5.078   3.322
 6535TIP3    H219612   1.172   5.150   3.237
 6536TIP3   OH219613   5.151   0.361   2.993
 6536TIP3    H119614   5.213   0.403   2.934
 6536TIP3    H219615   5.172   0.396   3.080
 6537TIP3   OH219616   5.158   2.066   0.243
 6537TIP3    H119617   5.185   2.118   0.319
 6537TIP3    H219618   5.096   2.002   0.279
 6538TIP3   OH219619   5.407   4.815   0.123
 6538TIP3    H119620   5.361   4.759   0.061
 6538TIP3    H219621   5.400   4.768   0.206
 6539TIP3   OH219622   5.429   1.934   1.296
 6539TIP3    H119623   5.496   2.001   1.304
 6539TIP3    H219624   5.445   1.892   1.211
 6540TIP3   OH219625   0.513   5.710   4.795
 6540TIP3    H119626   0.564   5.769   4.851
 6540TIP3    H219627   0.561   5.709   4.712
 6541TIP3   OH219628   1.780   3.285   4.267
 6541TIP3    H119629   1.688   3.280   4.241
 6541TIP3    H219630   1.807   3.374   4.244
 6542TIP3   OH219631   5.272   2.192   1.187
 6542TIP3    H119632   5.293   2.119   1.246
 6542TIP3    H219633   5.200   2.237   1.230
 6543TIP3   OH219634   4.604   5.242   0.994
 6543TIP3    H119635   4.625   5.314   1.054
 6543TIP3    H219636   4.546   5.280   0.929
 6544TIP3   OH219637   0.336   1.616   4.829
 6544TIP3    H119638   0.431   1.622   4.821
 6544TIP3    H219639   0.320   1.590   4.919
 6545TIP3   OH219640   3.618   4.418   1.959
 6545TIP3    H119641   3.550   4.462   1.909
 6545TIP3    H219642   3.695   4.421   1.902
 6546TIP3   OH219643   2.314   2.088   3.880
 6546TIP3    H119644   2.237   2.129   3.919
 6546TIP3    H219645   2.286   1.999   3.860
 6547TIP3   OH219646   5.783   3.637   0.094
 6547TIP3    H119647   5.796   3.674   0.006
 6547TIP3    H219648   5.703   3.678   0.125
 6548TIP3   OH219649   2.498   3.342   0.049
 6548TIP3    H119650   2.497   3.296  -0.035
 6548TIP3    H219651   2.585   3.383   0.053
 6549TIP3   OH219652   6.102   1.420   2.340
 6549TIP3    H119653   6.042   1.382   2.404
 6549TIP3    H219654   6.164   1.470   2.393
 6550TIP3   OH219655   0.258   5.644   3.000
 6550TIP3    H119656   0.339   5.599   2.976
 6550TIP3    H219657   0.195   5.574   3.017
 6551TIP3   OH219658   4.016   1.741   0.989
 6551TIP3    H119659   4.105   1.715   1.013
 6551TIP3    H219660   4.027   1.798   0.913
 6552TIP3   OH219661   3.777   4.110   5.067
 6552TIP3    H119662   3.710   4.069   5.011
 6552TIP3    H219663   3.772   4.062   5.149
 6553TIP3   OH219664   1.504   3.036   0.607
 6553TIP3    H119665   1.536   2.950   0.634
 6553TIP3    H219666   1.559   3.060   0.532
 6554TIP3   OH219667   3.934   2.281   4.766
 6554TIP3    H119668   3.989   2.228   4.708
 6554TIP3    H219669   3.997   2.325   4.824
 6555TIP3   OH219670   3.827   5.263   1.750
 6555TIP3    H119671   3.846   5.244   1.658
 6555TIP3    H219672   3.732   5.267   1.755
 6556TIP3   OH219673   2.027   1.391   1.945
 6556TIP3    H119674   2.093   1.434   2.000
 6556TIP3    H219675   2.029   1.300   1.972
 6557TIP3   OH219676   5.407   3.398   2.605
 6557TIP3    H119677   5.418   3.463   2.674
 6557TIP3    H219678   5.385   3.449   2.527
 6558TIP3   OH219679   5.418   3.585   4.670
 6558TIP3    H119680   5.418   3.606   4.764
 6558TIP3    H219681   5.384   3.495   4.665
 6559TIP3   OH219682   5.718   2.367   1.716
 6559TIP3    H119683   5.792   2.328   1.762
 6559TIP3    H219684   5.691   2.301   1.652
 6560TIP3   OH219685   4.523   5.409   0.152
 6560TIP3    H119686   4.458   5.356   0.106
 6560TIP3    H219687   4.486   5.421   0.239
 6561TIP3   OH219688   1.664   1.673   3.857
 6561TIP3    H119689   1.581   1.629   3.876
 6561TIP3    H219690   1.717   1.659   3.935
 6562TIP3   OH219691   1.516   2.362   4.273
 6562TIP3    H119692   1.505   2.268   4.289
 6562TIP3    H219693   1.427   2.394   4.259
 6563TIP3   OH219694   4.085   5.642   3.610
 6563TIP3    H119695   4.170   5.642   3.566
 6563TIP3    H219696   4.046   5.558   3.588
 6564TIP3   OH219697   3.777   3.316   0.475
 6564TIP3    H119698   3.685   3.301   0.456
 6564TIP3    H219699   3.791   3.408   0.456
 6565TIP3   OH219700   2.525   4.348   3.890
 6565TIP3    H119701   2.519   4.262   3.932
 6565TIP3    H219702   2.460   4.345   3.820
 6566TIP3   OH219703   0.588   2.122   0.383
 6566TIP3    H119704   0.562   2.214   0.389
 6566TIP3    H219705   0.641   2.108   0.462
 6567TIP3   OH219706   0.825   3.289   0.781
 6567TIP3    H119707   0.827   3.257   0.870
 6567TIP3    H219708   0.878   3.369   0.783
 6568TIP3   OH219709   6.099   2.536   0.687
 6568TIP3    H119710   6.157   2.475   0.640
 6568TIP3    H219711   6.046   2.576   0.618
 6569TIP3   OH219712   1.527   0.421   2.796
 6569TIP3    H119713   1.572   0.360   2.853
 6569TIP3    H219714   1.538   0.506   2.838
 6570TIP3   OH219715   2.750   4.179   1.998
 6570TIP3    H119716   2.669   4.131   2.016
 6570TIP3    H219717   2.761   4.173   1.904
 6571TIP3   OH219718   2.998   0.215   4.731
 6571TIP3    H119719   3.048   0.166   4.666
 6571TIP3    H219720   2.907   0.196   4.711
 6572TIP3   OH219721   3.784   4.134   0.916
 6572TIP3    H119722   3.840   4.190   0.863
 6572TIP3    H219723   3.797   4.046   0.880
 6573TIP3   OH219724   1.928   3.681   1.118
 6573TIP3    H119725   1.868   3.743   1.160
 6573TIP3    H219726   1.994   3.737   1.076
 6574TIP3   OH219727   0.524   5.258   0.691
 6574TIP3    H119728   0.550   5.182   0.743
 6574TIP3    H219729   0.469   5.222   0.622
 6575TIP3   OH219730   1.872   5.674   2.373
 6575TIP3    H119731   1.899   5.726   2.298
 6575TIP3    H219732   1.892   5.729   2.449
 6576TIP3   OH219733   1.441   3.195   0.829
 6576TIP3    H119734   1.509   3.256   0.802
 6576TIP3    H219735   1.438   3.129   0.760
 6577TIP3   OH219736   0.053   4.259   4.613
 6577TIP3    H119737   0.072   4.167   4.629
 6577TIP3    H219738   0.132   4.305   4.643
 6578TIP3   OH219739   3.559   4.074   2.533
 6578TIP3    H119740   3.652   4.053   2.543
 6578TIP3    H219741   3.548   4.092   2.440
 6579TIP3   OH219742   0.731   2.818   0.987
 6579TIP3    H119743   0.724   2.828   0.892
 6579TIP3    H219744   0.657   2.868   1.021
 6580TIP3   OH219745   2.639   5.215   2.196
 6580TIP3    H119746   2.595   5.135   2.170
 6580TIP3    H219747   2.573   5.284   2.186
 6581TIP3   OH219748   1.746   2.350   0.240
 6581TIP3    H119749   1.695   2.390   0.311
 6581TIP3    H219750   1.778   2.268   0.277
 6582TIP3   OH219751   6.201   1.294   1.647
 6582TIP3    H119752   6.189   1.270   1.555
 6582TIP3    H219753   6.274   1.240   1.676
 6583TIP3   OH219754   4.268   5.617   5.033
 6583TIP3    H119755   4.348   5.576   5.000
 6583TIP3    H219756   4.199   5.553   5.016
 6584TIP3   OH219757   4.775   5.949   4.880
 6584TIP3    H119758   4.768   5.988   4.793
 6584TIP3    H219759   4.801   5.858   4.864
 6585TIP3   OH219760   5.861   5.681   1.223
 6585TIP3    H119761   5.846   5.589   1.206
 6585TIP3    H219762   5.817   5.697   1.307
 6586TIP3   OH219763   1.559   5.976   3.290
 6586TIP3    H119764   1.536   6.035   3.218
 6586TIP3    H219765   1.480   5.924   3.304
 6587TIP3   OH219766   1.040   1.885   1.227
 6587TIP3    H119767   0.982   1.837   1.286
 6587TIP3    H219768   1.043   1.974   1.263
 6588TIP3   OH219769   2.095   1.766   4.194
 6588TIP3    H119770   2.098   1.671   4.211
 6588TIP3    H219771   2.168   1.801   4.244
 6589TIP3   OH219772   4.009   0.080   3.751
 6589TIP3    H119773   3.997   0.002   3.807
 6589TIP3    H219774   3.970   0.055   3.667
 6590TIP3   OH219775   2.633   2.896   2.788
 6590TIP3    H119776   2.542   2.917   2.765
 6590TIP3    H219777   2.628   2.809   2.828
 6591TIP3   OH219778   5.738   5.359   0.739
 6591TIP3    H119779   5.663   5.373   0.681
 6591TIP3    H219780   5.809   5.334   0.680
 6592TIP3   OH219781   2.930   4.926   3.339
 6592TIP3    H119782   2.962   4.924   3.248
 6592TIP3    H219783   2.846   4.971   3.335
 6593TIP3   OH219784   5.070   2.521   0.328
 6593TIP3    H119785   5.155   2.551   0.297
 6593TIP3    H219786   5.049   2.446   0.273
 6594TIP3   OH219787   4.012   5.244   3.989
 6594TIP3    H119788   3.981   5.314   3.932
 6594TIP3    H219789   4.039   5.288   4.070
 6595TIP3   OH219790   6.191   3.902   3.429
 6595TIP3    H119791   6.231   3.985   3.405
 6595TIP3    H219792   6.168   3.912   3.521
 6596TIP3   OH219793   3.617   3.141   2.672
 6596TIP3    H119794   3.544   3.191   2.710
 6596TIP3    H219795   3.664   3.106   2.747
 6597TIP3   OH219796   1.819   0.755   0.914
 6597TIP3    H119797   1.887   0.688   0.905
 6597TIP3    H219798   1.841   0.820   0.848
 6598TIP3   OH219799   0.599   0.568   0.195
 6598TIP3    H119800   0.584   0.638   0.132
 6598TIP3    H219801   0.547   0.593   0.271
 6599TIP3   OH219802   0.596   2.184   3.020
 6599TIP3    H119803   0.567   2.269   2.988
 6599TIP3    H219804   0.612   2.133   2.940
 6600TIP3   OH219805   3.791   5.255   5.160
 6600TIP3    H119806   3.789   5.241   5.254
 6600TIP3    H219807   3.880   5.285   5.141
 6601TIP3   OH219808   0.781   0.451   1.566
 6601TIP3    H119809   0.857   0.506   1.546
 6601TIP3    H219810   0.706   0.503   1.537
 6602TIP3   OH219811   5.782   2.789   1.756
 6602TIP3    H119812   5.816   2.878   1.755
 6602TIP3    H219813   5.826   2.746   1.683
 6603TIP3   OH219814   3.047   2.458   3.772
 6603TIP3    H119815   3.022   2.493   3.687
 6603TIP3    H219816   3.100   2.527   3.812
 6604TIP3   OH219817   1.253   2.738   4.057
 6604TIP3    H119818   1.163   2.755   4.087
 6604TIP3    H219819   1.245   2.662   3.999
 6605TIP3   OH219820   3.628   2.465   0.832
 6605TIP3    H119821   3.679   2.505   0.761
 6605TIP3    H219822   3.690   2.456   0.905
 6606TIP3   OH219823   5.361   0.757   1.627
 6606TIP3    H119824   5.317   0.829   1.673
 6606TIP3    H219825   5.369   0.688   1.693
 6607TIP3   OH219826   5.158   3.603   1.561
 6607TIP3    H119827   5.097   3.592   1.488
 6607TIP3    H219828   5.239   3.560   1.531
 6608TIP3   OH219829   3.133   0.672   4.237
 6608TIP3    H119830   3.196   0.601   4.254
 6608TIP3    H219831   3.187   0.751   4.236
 6609TIP3   OH219832   1.967   2.925   2.168
 6609TIP3    H119833   2.023   2.948   2.094
 6609TIP3    H219834   1.910   2.856   2.135
 6610TIP3   OH219835   3.743   2.543   4.111
 6610TIP3    H119836   3.677   2.498   4.058
 6610TIP3    H219837   3.805   2.580   4.048
 6611TIP3   OH219838   5.837   3.326   3.065
 6611TIP3    H119839   5.758   3.297   3.019
 6611TIP3    H219840   5.806   3.351   3.153
 6612TIP3   OH219841   2.861   0.712   3.107
 6612TIP3    H119842   2.838   0.622   3.084
 6612TIP3    H219843   2.934   0.734   3.049
 6613TIP3   OH219844   1.962   2.725   4.723
 6613TIP3    H119845   2.054   2.741   4.746
 6613TIP3    H219846   1.942   2.792   4.656
 6614TIP3   OH219847   0.831   2.521   3.351
 6614TIP3    H119848   0.769   2.448   3.347
 6614TIP3    H219849   0.778   2.599   3.332
 6615TIP3   OH219850   3.467   1.490   1.306
 6615TIP3    H119851   3.481   1.491   1.211
 6615TIP3    H219852   3.400   1.423   1.319
 6616TIP3   OH219853   2.484   1.316   2.648
 6616TIP3    H119854   2.527   1.295   2.565
 6616TIP3    H219855   2.504   1.242   2.705
 6617TIP3   OH219856   0.931   0.486   2.699
 6617TIP3    H119857   0.862   0.430   2.735
 6617TIP3    H219858   0.980   0.429   2.640
 6618TIP3   OH219859   0.620   3.485   2.840
 6618TIP3    H119860   0.601   3.398   2.803
 6618TIP3    H219861   0.652   3.467   2.928
 6619TIP3   OH219862   3.770   5.142   3.915
 6619TIP3    H119863   3.746   5.054   3.943
 6619TIP3    H219864   3.861   5.152   3.941
 6620TIP3   OH219865   3.349   0.467   5.154
 6620TIP3    H119866   3.354   0.382   5.111
 6620TIP3    H219867   3.346   0.530   5.082
 6621TIP3   OH219868   4.559   5.602   2.443
 6621TIP3    H119869   4.497   5.665   2.481
 6621TIP3    H219870   4.600   5.651   2.372
 6622TIP3   OH219871   2.397   5.270   2.699
 6622TIP3    H119872   2.411   5.339   2.764
 6622TIP3    H219873   2.364   5.316   2.622
 6623TIP3   OH219874   3.363   2.032   4.676
 6623TIP3    H119875   3.317   1.952   4.652
 6623TIP3    H219876   3.355   2.037   4.772
 6624TIP3   OH219877   2.150   3.453   3.728
 6624TIP3    H119878   2.085   3.391   3.695
 6624TIP3    H219879   2.208   3.469   3.654
 6625TIP3   OH219880   1.428   4.574   2.368
 6625TIP3    H119881   1.503   4.515   2.378
 6625TIP3    H219882   1.368   4.549   2.438
 6626TIP3   OH219883   6.126   6.015   0.141
 6626TIP3    H119884   6.204   5.960   0.129
 6626TIP3    H219885   6.065   5.961   0.191
 6627TIP3   OH219886   5.088   1.710   5.072
 6627TIP3    H119887   5.120   1.787   5.120
 6627TIP3    H219888   5.150   1.641   5.094
 6628TIP3   OH219889   5.779   4.232   1.803
 6628TIP3    H119890   5.761   4.274   1.887
 6628TIP3    H219891   5.872   4.210   1.806
 6629TIP3   OH219892   1.193   5.666   1.282
 6629TIP3    H119893   1.139   5.683   1.359
 6629TIP3    H219894   1.245   5.745   1.271
 6630TIP3   OH219895   2.858   1.306   1.778
 6630TIP3    H119896   2.851   1.216   1.807
 6630TIP3    H219897   2.783   1.319   1.720
 6631TIP3   OH219898   2.000   3.868   0.539
 6631TIP3    H119899   2.040   3.839   0.457
 6631TIP3    H219900   1.911   3.832   0.536
 6632TIP3   OH219901   2.510   2.683   0.809
 6632TIP3    H119902   2.444   2.652   0.748
 6632TIP3    H219903   2.476   2.767   0.841
 6633TIP3   OH219904   5.343   3.663   3.031
 6633TIP3    H119905   5.375   3.577   3.003
 6633TIP3    H219906   5.318   3.650   3.123
 6634TIP3   OH219907   5.103   0.264   0.640
 6634TIP3    H119908   5.088   0.278   0.546
 6634TIP3    H219909   5.051   0.332   0.683
 6635TIP3   OH219910   4.422   5.395   2.598
 6635TIP3    H119911   4.441   5.393   2.692
 6635TIP3    H219912   4.327   5.383   2.593
 6636TIP3   OH219913   0.444   2.903   3.720
 6636TIP3    H119914   0.449   2.812   3.692
 6636TIP3    H219915   0.381   2.902   3.792
 6637TIP3   OH219916   0.898   2.666   2.397
 6637TIP3    H119917   0.820   2.689   2.346
 6637TIP3    H219918   0.966   2.726   2.366
 6638TIP3   OH219919   2.244   0.395   2.929
 6638TIP3    H119920   2.183   0.360   2.993
 6638TIP3    H219921   2.313   0.435   2.981
 6639TIP3   OH219922   2.572   5.811   2.461
 6639TIP3    H119923   2.559   5.795   2.554
 6639TIP3    H219924   2.501   5.763   2.418
 6640TIP3   OH219925   4.166   4.620   1.119
 6640TIP3    H119926   4.111   4.698   1.113
 6640TIP3    H219927   4.255   4.653   1.117
 6641TIP3   OH219928   5.735   2.655   4.513
 6641TIP3    H119929   5.761   2.732   4.564
 6641TIP3    H219930   5.794   2.655   4.437
 6642TIP3   OH219931   1.872   1.995   0.779
 6642TIP3    H119932   1.805   1.954   0.724
 6642TIP3    H219933   1.879   1.938   0.855
 6643TIP3   OH219934   4.212   5.105   2.056
 6643TIP3    H119935   4.183   5.105   1.965
 6643TIP3    H219936   4.149   5.050   2.101
 6644TIP3   OH219937   2.986   2.206   0.210
 6644TIP3    H119938   2.922   2.277   0.211
 6644TIP3    H219939   3.047   2.228   0.281
 6645TIP3   OH219940   1.920   4.324   2.496
 6645TIP3    H119941   1.999   4.364   2.534
 6645TIP3    H219942   1.903   4.375   2.417
   6.35586   5.99236   5.18954   0.00000   0.00000  -2.11863   0.00000  -2.11863  -2.99618
