        74  EXT
         1         1  GLY       N               3.8380000000        6.8660000000       15.5520000000  PROA      1              96.2000000000
         2         1  GLY       CA              2.7590000000        6.5630000000       14.6250000000  PROA      1              96.7700000000
         3         1  GLY       C               2.8840000000        5.1910000000       13.9910000000  PROA      1              97.1100000000
         4         1  GLY       O               3.9360000000        4.5540000000       14.0790000000  PROA      1              96.2900000000
         5         2  SER       N               2.0080000000        4.6920000000       13.4970000000  PROA      2              97.9900000000
         6         2  SER       CA              2.1000000000        3.4130000000       12.8010000000  PROA      2              98.0300000000
         7         2  SER       C               2.7660000000        3.5720000000       11.4380000000  PROA      2              98.2600000000
         8         2  SER       O               2.7250000000        4.6510000000       10.8430000000  PROA      2              98.0700000000
         9         2  SER       CB              0.7120000000        2.7950000000       12.6290000000  PROA      2              97.6300000000
        10         2  SER       OG              0.1150000000        2.5410000000       13.8900000000  PROA      2              91.8800000000
        11         3  GLY       N               3.5090000000        2.6010000000       11.1100000000  PROA      3              98.0300000000
        12         3  GLY       CA              4.1020000000        2.5600000000        9.7830000000  PROA      3              97.9100000000
        13         3  GLY       C               3.0780000000        2.6790000000        8.6690000000  PROA      3              98.1100000000
        14         3  GLY       O               1.8740000000        2.5820000000        8.9130000000  PROA      3              97.8600000000
        15         4  ASP       N               3.6740000000        2.9210000000        7.5540000000  PROA      4              98.0100000000
        16         4  ASP       CA              2.7910000000        2.9260000000        6.3910000000  PROA      4              98.0100000000
        17         4  ASP       C               2.1990000000        1.5400000000        6.1460000000  PROA      4              98.2700000000
        18         4  ASP       O               2.8580000000        0.5260000000        6.3860000000  PROA      4              98.1300000000
        19         4  ASP       CB              3.5440000000        3.4040000000        5.1480000000  PROA      4              97.7200000000
        20         4  ASP       CG              3.8900000000        4.8820000000        5.1960000000  PROA      4              95.4700000000
        21         4  ASP       OD1             3.2470000000        5.6340000000        5.9590000000  PROA      4              94.4400000000
        22         4  ASP       OD2             4.8130000000        5.2980000000        4.4620000000  PROA      4              93.9500000000
        23         5  PRO       N               1.1460000000        1.4190000000        5.6850000000  PROA      5              98.2800000000
        24         5  PRO       CA              0.6130000000        0.1220000000        5.2640000000  PROA      5              98.2400000000
        25         5  PRO       C               1.4780000000       -0.5560000000        4.2040000000  PROA      5              98.4300000000
        26         5  PRO       O               2.2290000000        0.1160000000        3.4930000000  PROA      5              98.3600000000
        27         5  PRO       CB             -0.7660000000        0.4740000000        4.7000000000  PROA      5              98.1400000000
        28         5  PRO       CG             -0.9200000000        1.9390000000        4.9530000000  PROA      5              97.3000000000
        29         5  PRO       CD              0.4040000000        2.4870000000        5.4030000000  PROA      5              96.7500000000
        30         6  GLY       N               1.3410000000       -1.8760000000        4.3090000000  PROA      6              98.2000000000
        31         6  GLY       CA              2.0850000000       -2.5960000000        3.2880000000  PROA      6              98.1300000000
        32         6  GLY       C               1.6380000000       -2.2630000000        1.8780000000  PROA      6              98.3900000000
        33         6  GLY       O               0.5760000000       -1.6680000000        1.6820000000  PROA      6              98.3000000000
        34         7  ASN       N               2.5190000000       -2.8690000000        0.9870000000  PROA      7              98.1100000000
        35         7  ASN       CA              2.0660000000       -2.8070000000       -0.3990000000  PROA      7              98.0400000000
        36         7  ASN       C               0.8740000000       -3.7290000000       -0.6400000000  PROA      7              98.3500000000
        37         7  ASN       O               0.6790000000       -4.7020000000        0.0900000000  PROA      7              98.2200000000
        38         7  ASN       CB              3.2090000000       -3.1560000000       -1.3540000000  PROA      7              97.5000000000
        39         7  ASN       CG              4.2080000000       -2.0260000000       -1.5070000000  PROA      7              92.7200000000
        40         7  ASN       OD1             3.9980000000       -0.9220000000       -0.9980000000  PROA      7              91.1900000000
        41         7  ASN       ND2             5.3030000000       -2.2940000000       -2.2090000000  PROA      7              91.4700000000
        42         8  GLY       N               0.0700000000       -3.3900000000       -1.6290000000  PROA      8              97.6100000000
        43         8  GLY       CA             -1.0270000000       -4.2830000000       -1.9690000000  PROA      8              97.5300000000
        44         8  GLY       C              -0.5600000000       -5.6180000000       -2.5160000000  PROA      8              98.0400000000
        45         8  GLY       O               0.6220000000       -5.7930000000       -2.8180000000  PROA      8              97.9400000000
        46         9  ASP       N              -1.4220000000       -6.5000000000       -2.6960000000  PROA      9              97.5600000000
        47         9  ASP       CA             -1.1770000000       -7.8070000000       -3.2980000000  PROA      9              97.6800000000
        48         9  ASP       C              -0.7810000000       -7.6700000000       -4.7660000000  PROA      9              98.1800000000
        49         9  ASP       O              -1.2010000000       -6.7280000000       -5.4430000000  PROA      9              98.1400000000
        50         9  ASP       CB             -2.4130000000       -8.6980000000       -3.1670000000  PROA      9              97.2700000000
        51         9  ASP       CG             -2.6520000000       -9.1770000000       -1.7460000000  PROA      9              95.0300000000
        52         9  ASP       OD1            -1.7060000000       -9.1590000000       -0.9290000000  PROA      9              94.6300000000
        53         9  ASP       OD2            -3.7960000000       -9.5780000000       -1.4410000000  PROA      9              93.7800000000
        54        10  PRO       N              -0.1090000000       -8.5560000000       -5.2430000000  PROA      10             98.1300000000
        55        10  PRO       CA              0.1860000000       -8.5060000000       -6.6770000000  PROA      10             98.1600000000
        56        10  PRO       C              -1.0540000000       -8.7180000000       -7.5420000000  PROA      10             98.4700000000
        57        10  PRO       O              -2.0340000000       -9.3150000000       -7.0880000000  PROA      10             98.4500000000
        58        10  PRO       CB              1.1890000000       -9.6450000000       -6.8710000000  PROA      10             97.9400000000
        59        10  PRO       CG              1.5450000000      -10.0810000000       -5.4860000000  PROA      10             96.2100000000
        60        10  PRO       CD              0.5020000000       -9.5610000000       -4.5390000000  PROA      10             95.9300000000
        61        11  GLY       N              -1.1460000000       -8.1590000000       -8.8190000000  PROA      11             97.6800000000
        62        11  GLY       CA             -2.2210000000       -8.3640000000       -9.7760000000  PROA      11             97.6900000000
        63        11  GLY       C              -2.4350000000       -9.8240000000      -10.1290000000  PROA      11             98.1800000000
        64        11  GLY       O              -1.5530000000      -10.6560000000       -9.9110000000  PROA      11             98.1700000000
        65        12  SER       N              -3.4350000000      -10.2250000000      -10.5530000000  PROA      12             98.1300000000
        66        12  SER       CA             -3.7440000000      -11.5620000000      -11.0470000000  PROA      12             98.0400000000
        67        12  SER       C              -2.9790000000      -11.8690000000      -12.3300000000  PROA      12             98.3200000000
        68        12  SER       O              -2.7250000000      -10.9720000000      -13.1370000000  PROA      12             98.1700000000
        69        12  SER       CB             -5.2470000000      -11.7090000000      -11.2930000000  PROA      12             97.4600000000
        70        12  SER       OG             -5.9810000000      -11.3840000000      -10.1250000000  PROA      12             87.9800000000
        71        13  GLY       N              -2.1870000000      -12.9310000000      -12.5770000000  PROA      13             97.0000000000
        72        13  GLY       CA             -1.3990000000      -13.3370000000      -13.7310000000  PROA      13             96.4500000000
        73        13  GLY       C              -2.2190000000      -13.4540000000      -15.0020000000  PROA      13             96.6500000000
        74        13  GLY       O              -3.4510000000      -13.4820000000      -14.9520000000  PROA      13             95.4200000000
