PSF EXT CMAP XPLOR

         3 !NTITLE
* GENERATED BY CHARMM-GUI (HTTP://WWW.CHARMM-GUI.ORG) V3.7 ON JUN, 13. 2026. JOB
* READ PDB, MANIPULATE STRUCTURE IF NEEDED, AND GENERATE TOPOLOGY FILE          
*  DATE:     6/13/26      7:55:32      CREATED BY USER: charmm-gui              

       133 !NATOM
         1 PROA     1        GLY      N        NH3     -0.300000       14.0070           0
         2 PROA     1        GLY      HT1      HC       0.330000       1.00800           0
         3 PROA     1        GLY      HT2      HC       0.330000       1.00800           0
         4 PROA     1        GLY      HT3      HC       0.330000       1.00800           0
         5 PROA     1        GLY      CA       CT2      0.130000       12.0110           0
         6 PROA     1        GLY      HA1      HB2      0.900000E-01   1.00800           0
         7 PROA     1        GLY      HA2      HB2      0.900000E-01   1.00800           0
         8 PROA     1        GLY      C        C        0.510000       12.0110           0
         9 PROA     1        GLY      O        O       -0.510000       15.9994           0
        10 PROA     2        SER      N        NH1     -0.470000       14.0070           0
        11 PROA     2        SER      HN       H        0.310000       1.00800           0
        12 PROA     2        SER      CA       CT1      0.700000E-01   12.0110           0
        13 PROA     2        SER      HA       HB1      0.900000E-01   1.00800           0
        14 PROA     2        SER      CB       CT2      0.500000E-01   12.0110           0
        15 PROA     2        SER      HB1      HA2      0.900000E-01   1.00800           0
        16 PROA     2        SER      HB2      HA2      0.900000E-01   1.00800           0
        17 PROA     2        SER      OG       OH1     -0.660000       15.9994           0
        18 PROA     2        SER      HG1      H        0.430000       1.00800           0
        19 PROA     2        SER      C        C        0.510000       12.0110           0
        20 PROA     2        SER      O        O       -0.510000       15.9994           0
        21 PROA     3        GLY      N        NH1     -0.470000       14.0070           0
        22 PROA     3        GLY      HN       H        0.310000       1.00800           0
        23 PROA     3        GLY      CA       CT2     -0.200000E-01   12.0110           0
        24 PROA     3        GLY      HA1      HB2      0.900000E-01   1.00800           0
        25 PROA     3        GLY      HA2      HB2      0.900000E-01   1.00800           0
        26 PROA     3        GLY      C        C        0.510000       12.0110           0
        27 PROA     3        GLY      O        O       -0.510000       15.9994           0
        28 PROA     4        ASP      N        NH1     -0.470000       14.0070           0
        29 PROA     4        ASP      HN       H        0.310000       1.00800           0
        30 PROA     4        ASP      CA       CT1      0.700000E-01   12.0110           0
        31 PROA     4        ASP      HA       HB1      0.900000E-01   1.00800           0
        32 PROA     4        ASP      CB       CT2A    -0.280000       12.0110           0
        33 PROA     4        ASP      HB1      HA2      0.900000E-01   1.00800           0
        34 PROA     4        ASP      HB2      HA2      0.900000E-01   1.00800           0
        35 PROA     4        ASP      CG       CC       0.620000       12.0110           0
        36 PROA     4        ASP      OD1      OC      -0.760000       15.9994           0
        37 PROA     4        ASP      OD2      OC      -0.760000       15.9994           0
        38 PROA     4        ASP      C        C        0.510000       12.0110           0
        39 PROA     4        ASP      O        O       -0.510000       15.9994           0
        40 PROA     5        PRO      N        N       -0.290000       14.0070           0
        41 PROA     5        PRO      CD       CP3       0.00000       12.0110           0
        42 PROA     5        PRO      HD1      HA2      0.900000E-01   1.00800           0
        43 PROA     5        PRO      HD2      HA2      0.900000E-01   1.00800           0
        44 PROA     5        PRO      CA       CP1      0.200000E-01   12.0110           0
        45 PROA     5        PRO      HA       HB1      0.900000E-01   1.00800           0
        46 PROA     5        PRO      CB       CP2     -0.180000       12.0110           0
        47 PROA     5        PRO      HB1      HA2      0.900000E-01   1.00800           0
        48 PROA     5        PRO      HB2      HA2      0.900000E-01   1.00800           0
        49 PROA     5        PRO      CG       CP2     -0.180000       12.0110           0
        50 PROA     5        PRO      HG1      HA2      0.900000E-01   1.00800           0
        51 PROA     5        PRO      HG2      HA2      0.900000E-01   1.00800           0
        52 PROA     5        PRO      C        C        0.510000       12.0110           0
        53 PROA     5        PRO      O        O       -0.510000       15.9994           0
        54 PROA     6        GLY      N        NH1     -0.470000       14.0070           0
        55 PROA     6        GLY      HN       H        0.310000       1.00800           0
        56 PROA     6        GLY      CA       CT2     -0.200000E-01   12.0110           0
        57 PROA     6        GLY      HA1      HB2      0.900000E-01   1.00800           0
        58 PROA     6        GLY      HA2      HB2      0.900000E-01   1.00800           0
        59 PROA     6        GLY      C        C        0.510000       12.0110           0
        60 PROA     6        GLY      O        O       -0.510000       15.9994           0
        61 PROA     7        ASN      N        NH1     -0.470000       14.0070           0
        62 PROA     7        ASN      HN       H        0.310000       1.00800           0
        63 PROA     7        ASN      CA       CT1      0.700000E-01   12.0110           0
        64 PROA     7        ASN      HA       HB1      0.900000E-01   1.00800           0
        65 PROA     7        ASN      CB       CT2     -0.180000       12.0110           0
        66 PROA     7        ASN      HB1      HA2      0.900000E-01   1.00800           0
        67 PROA     7        ASN      HB2      HA2      0.900000E-01   1.00800           0
        68 PROA     7        ASN      CG       CC       0.550000       12.0110           0
        69 PROA     7        ASN      OD1      O       -0.550000       15.9994           0
        70 PROA     7        ASN      ND2      NH2     -0.620000       14.0070           0
        71 PROA     7        ASN      HD21     H        0.320000       1.00800           0
        72 PROA     7        ASN      HD22     H        0.300000       1.00800           0
        73 PROA     7        ASN      C        C        0.510000       12.0110           0
        74 PROA     7        ASN      O        O       -0.510000       15.9994           0
        75 PROA     8        GLY      N        NH1     -0.470000       14.0070           0
        76 PROA     8        GLY      HN       H        0.310000       1.00800           0
        77 PROA     8        GLY      CA       CT2     -0.200000E-01   12.0110           0
        78 PROA     8        GLY      HA1      HB2      0.900000E-01   1.00800           0
        79 PROA     8        GLY      HA2      HB2      0.900000E-01   1.00800           0
        80 PROA     8        GLY      C        C        0.510000       12.0110           0
        81 PROA     8        GLY      O        O       -0.510000       15.9994           0
        82 PROA     9        ASP      N        NH1     -0.470000       14.0070           0
        83 PROA     9        ASP      HN       H        0.310000       1.00800           0
        84 PROA     9        ASP      CA       CT1      0.700000E-01   12.0110           0
        85 PROA     9        ASP      HA       HB1      0.900000E-01   1.00800           0
        86 PROA     9        ASP      CB       CT2A    -0.280000       12.0110           0
        87 PROA     9        ASP      HB1      HA2      0.900000E-01   1.00800           0
        88 PROA     9        ASP      HB2      HA2      0.900000E-01   1.00800           0
        89 PROA     9        ASP      CG       CC       0.620000       12.0110           0
        90 PROA     9        ASP      OD1      OC      -0.760000       15.9994           0
        91 PROA     9        ASP      OD2      OC      -0.760000       15.9994           0
        92 PROA     9        ASP      C        C        0.510000       12.0110           0
        93 PROA     9        ASP      O        O       -0.510000       15.9994           0
        94 PROA     10       PRO      N        N       -0.290000       14.0070           0
        95 PROA     10       PRO      CD       CP3       0.00000       12.0110           0
        96 PROA     10       PRO      HD1      HA2      0.900000E-01   1.00800           0
        97 PROA     10       PRO      HD2      HA2      0.900000E-01   1.00800           0
        98 PROA     10       PRO      CA       CP1      0.200000E-01   12.0110           0
        99 PROA     10       PRO      HA       HB1      0.900000E-01   1.00800           0
       100 PROA     10       PRO      CB       CP2     -0.180000       12.0110           0
       101 PROA     10       PRO      HB1      HA2      0.900000E-01   1.00800           0
       102 PROA     10       PRO      HB2      HA2      0.900000E-01   1.00800           0
       103 PROA     10       PRO      CG       CP2     -0.180000       12.0110           0
       104 PROA     10       PRO      HG1      HA2      0.900000E-01   1.00800           0
       105 PROA     10       PRO      HG2      HA2      0.900000E-01   1.00800           0
       106 PROA     10       PRO      C        C        0.510000       12.0110           0
       107 PROA     10       PRO      O        O       -0.510000       15.9994           0
       108 PROA     11       GLY      N        NH1     -0.470000       14.0070           0
       109 PROA     11       GLY      HN       H        0.310000       1.00800           0
       110 PROA     11       GLY      CA       CT2     -0.200000E-01   12.0110           0
       111 PROA     11       GLY      HA1      HB2      0.900000E-01   1.00800           0
       112 PROA     11       GLY      HA2      HB2      0.900000E-01   1.00800           0
       113 PROA     11       GLY      C        C        0.510000       12.0110           0
       114 PROA     11       GLY      O        O       -0.510000       15.9994           0
       115 PROA     12       SER      N        NH1     -0.470000       14.0070           0
       116 PROA     12       SER      HN       H        0.310000       1.00800           0
       117 PROA     12       SER      CA       CT1      0.700000E-01   12.0110           0
       118 PROA     12       SER      HA       HB1      0.900000E-01   1.00800           0
       119 PROA     12       SER      CB       CT2      0.500000E-01   12.0110           0
       120 PROA     12       SER      HB1      HA2      0.900000E-01   1.00800           0
       121 PROA     12       SER      HB2      HA2      0.900000E-01   1.00800           0
       122 PROA     12       SER      OG       OH1     -0.660000       15.9994           0
       123 PROA     12       SER      HG1      H        0.430000       1.00800           0
       124 PROA     12       SER      C        C        0.510000       12.0110           0
       125 PROA     12       SER      O        O       -0.510000       15.9994           0
       126 PROA     13       GLY      N        NH1     -0.470000       14.0070           0
       127 PROA     13       GLY      HN       H        0.310000       1.00800           0
       128 PROA     13       GLY      CA       CT2     -0.200000E-01   12.0110           0
       129 PROA     13       GLY      HA1      HB2      0.900000E-01   1.00800           0
       130 PROA     13       GLY      HA2      HB2      0.900000E-01   1.00800           0
       131 PROA     13       GLY      C        CC       0.340000       12.0110           0
       132 PROA     13       GLY      OT1      OC      -0.670000       15.9994           0
       133 PROA     13       GLY      OT2      OC      -0.670000       15.9994           0

       134 !NBOND: bonds
         2         1         3         1         4         1         1         5
         8         5         8        10         5         6         5         7
         9         8        14        12        17        14        10        11
        10        12        19        12        19        21        12        13
        14        15        14        16        17        18        20        19
        21        22        21        23        26        23        26        28
        23        24        23        25        27        26        32        30
        35        32        37        35        28        29        28        30
        38        30        38        40        30        31        32        33
        32        34        39        38        35        36        52        44
        52        54        40        44        44        46        46        49
        49        41        40        41        45        44        50        49
        51        49        42        41        43        41        47        46
        48        46        53        52        54        55        54        56
        59        56        59        61        56        57        56        58
        60        59        65        63        68        65        70        68
        61        62        61        63        73        63        73        75
        63        64        65        66        65        67        70        71
        70        72        73        74        68        69        75        76
        75        77        80        77        80        82        77        78
        77        79        81        80        86        84        89        86
        91        89        82        83        82        84        92        84
        92        94        84        85        86        87        86        88
        93        92        89        90       106        98       106       108
        94        98        98       100       100       103       103        95
        94        95        99        98       104       103       105       103
        96        95        97        95       101       100       102       100
       107       106       108       109       108       110       113       110
       113       115       110       111       110       112       114       113
       119       117       122       119       115       116       115       117
       124       117       124       126       117       118       119       120
       119       121       122       123       125       124       126       127
       126       128       131       128       128       129       128       130
       131       133       131       132

       239 !NTHETA: angles
         2         1         3         2         1         4         2         1         5
         3         1         4         3         1         5         4         1         5
         1         5         6         1         5         7         1         5         8
         6         5         7         6         5         8         7         5         8
         5         8         9         5         8        10         9         8        10
         8        10        11         8        10        12        11        10        12
        10        12        13        10        12        14        10        12        19
        13        12        14        13        12        19        14        12        19
        12        14        15        12        14        16        12        14        17
        15        14        16        15        14        17        16        14        17
        14        17        18        12        19        20        12        19        21
        20        19        21        19        21        22        19        21        23
        22        21        23        21        23        24        21        23        25
        21        23        26        24        23        25        24        23        26
        25        23        26        23        26        27        23        26        28
        27        26        28        26        28        29        26        28        30
        29        28        30        28        30        31        28        30        32
        28        30        38        31        30        32        31        30        38
        32        30        38        30        32        33        30        32        34
        30        32        35        33        32        34        33        32        35
        34        32        35        32        35        36        32        35        37
        36        35        37        30        38        39        30        38        40
        39        38        40        38        40        41        38        40        44
        41        40        44        40        41        42        40        41        43
        40        41        49        42        41        43        42        41        49
        43        41        49        40        44        45        40        44        46
        40        44        52        45        44        46        45        44        52
        46        44        52        44        46        47        44        46        48
        44        46        49        47        46        48        47        46        49
        48        46        49        41        49        46        41        49        50
        41        49        51        46        49        50        46        49        51
        50        49        51        44        52        53        44        52        54
        53        52        54        52        54        55        52        54        56
        55        54        56        54        56        57        54        56        58
        54        56        59        57        56        58        57        56        59
        58        56        59        56        59        60        56        59        61
        60        59        61        59        61        62        59        61        63
        62        61        63        61        63        64        61        63        65
        61        63        73        64        63        65        64        63        73
        65        63        73        63        65        66        63        65        67
        63        65        68        66        65        67        66        65        68
        67        65        68        65        68        69        65        68        70
        69        68        70        68        70        71        68        70        72
        71        70        72        63        73        74        63        73        75
        74        73        75        73        75        76        73        75        77
        76        75        77        75        77        78        75        77        79
        75        77        80        78        77        79        78        77        80
        79        77        80        77        80        81        77        80        82
        81        80        82        80        82        83        80        82        84
        83        82        84        82        84        85        82        84        86
        82        84        92        85        84        86        85        84        92
        86        84        92        84        86        87        84        86        88
        84        86        89        87        86        88        87        86        89
        88        86        89        86        89        90        86        89        91
        90        89        91        84        92        93        84        92        94
        93        92        94        92        94        95        92        94        98
        95        94        98        94        95        96        94        95        97
        94        95       103        96        95        97        96        95       103
        97        95       103        94        98        99        94        98       100
        94        98       106        99        98       100        99        98       106
       100        98       106        98       100       101        98       100       102
        98       100       103       101       100       102       101       100       103
       102       100       103        95       103       100        95       103       104
        95       103       105       100       103       104       100       103       105
       104       103       105        98       106       107        98       106       108
       107       106       108       106       108       109       106       108       110
       109       108       110       108       110       111       108       110       112
       108       110       113       111       110       112       111       110       113
       112       110       113       110       113       114       110       113       115
       114       113       115       113       115       116       113       115       117
       116       115       117       115       117       118       115       117       119
       115       117       124       118       117       119       118       117       124
       119       117       124       117       119       120       117       119       121
       117       119       122       120       119       121       120       119       122
       121       119       122       119       122       123       117       124       125
       117       124       126       125       124       126       124       126       127
       124       126       128       127       126       128       126       128       129
       126       128       130       126       128       131       129       128       130
       129       128       131       130       128       131       128       131       132
       128       131       133       132       131       133

       346 !NPHI: dihedrals
         1         5         8         9         1         5         8        10
         2         1         5         6         2         1         5         7
         2         1         5         8         3         1         5         6
         3         1         5         7         3         1         5         8
         4         1         5         6         4         1         5         7
         4         1         5         8         5         8        10        11
         5         8        10        12         6         5         8         9
         6         5         8        10         7         5         8         9
         7         5         8        10         8        10        12        13
         8        10        12        14         8        10        12        19
         9         8        10        11         9         8        10        12
        10        12        14        15        10        12        14        16
        10        12        14        17        10        12        19        20
        10        12        19        21        11        10        12        13
        11        10        12        14        11        10        12        19
        12        14        17        18        12        19        21        22
        12        19        21        23        13        12        14        15
        13        12        14        16        13        12        14        17
        13        12        19        20        13        12        19        21
        14        12        19        20        14        12        19        21
        15        14        12        19        15        14        17        18
        16        14        12        19        16        14        17        18
        17        14        12        19        19        21        23        24
        19        21        23        25        19        21        23        26
        20        19        21        22        20        19        21        23
        21        23        26        27        21        23        26        28
        22        21        23        24        22        21        23        25
        22        21        23        26        23        26        28        29
        23        26        28        30        24        23        26        27
        24        23        26        28        25        23        26        27
        25        23        26        28        26        28        30        31
        26        28        30        32        26        28        30        38
        27        26        28        29        27        26        28        30
        28        30        32        33        28        30        32        34
        28        30        32        35        28        30        38        39
        28        30        38        40        29        28        30        31
        29        28        30        32        29        28        30        38
        30        32        35        36        30        32        35        37
        30        38        40        41        30        38        40        44
        31        30        32        33        31        30        32        34
        31        30        32        35        31        30        38        39
        31        30        38        40        32        30        38        39
        32        30        38        40        33        32        30        38
        33        32        35        36        33        32        35        37
        34        32        30        38        34        32        35        36
        34        32        35        37        35        32        30        38
        38        40        41        42        38        40        41        43
        38        40        41        49        38        40        44        45
        38        40        44        46        38        40        44        52
        39        38        40        41        39        38        40        44
        40        41        49        46        40        41        49        50
        40        41        49        51        40        44        46        47
        40        44        46        48        40        44        46        49
        40        44        52        53        40        44        52        54
        41        40        44        45        41        40        44        46
        41        40        44        52        41        49        46        44
        41        49        46        47        41        49        46        48
        42        41        40        44        42        41        49        46
        42        41        49        50        42        41        49        51
        43        41        40        44        43        41        49        46
        43        41        49        50        43        41        49        51
        44        40        41        49        44        46        49        50
        44        46        49        51        44        52        54        55
        44        52        54        56        45        44        46        47
        45        44        46        48        45        44        46        49
        45        44        52        53        45        44        52        54
        46        44        52        53        46        44        52        54
        47        46        44        52        47        46        49        50
        47        46        49        51        48        46        44        52
        48        46        49        50        48        46        49        51
        49        46        44        52        52        54        56        57
        52        54        56        58        52        54        56        59
        53        52        54        55        53        52        54        56
        54        56        59        60        54        56        59        61
        55        54        56        57        55        54        56        58
        55        54        56        59        56        59        61        62
        56        59        61        63        57        56        59        60
        57        56        59        61        58        56        59        60
        58        56        59        61        59        61        63        64
        59        61        63        65        59        61        63        73
        60        59        61        62        60        59        61        63
        61        63        65        66        61        63        65        67
        61        63        65        68        61        63        73        74
        61        63        73        75        62        61        63        64
        62        61        63        65        62        61        63        73
        63        65        68        69        63        65        68        70
        63        73        75        76        63        73        75        77
        64        63        65        66        64        63        65        67
        64        63        65        68        64        63        73        74
        64        63        73        75        65        63        73        74
        65        63        73        75        65        68        70        71
        65        68        70        72        66        65        63        73
        66        65        68        69        66        65        68        70
        67        65        63        73        67        65        68        69
        67        65        68        70        68        65        63        73
        69        68        70        71        69        68        70        72
        73        75        77        78        73        75        77        79
        73        75        77        80        74        73        75        76
        74        73        75        77        75        77        80        81
        75        77        80        82        76        75        77        78
        76        75        77        79        76        75        77        80
        77        80        82        83        77        80        82        84
        78        77        80        81        78        77        80        82
        79        77        80        81        79        77        80        82
        80        82        84        85        80        82        84        86
        80        82        84        92        81        80        82        83
        81        80        82        84        82        84        86        87
        82        84        86        88        82        84        86        89
        82        84        92        93        82        84        92        94
        83        82        84        85        83        82        84        86
        83        82        84        92        84        86        89        90
        84        86        89        91        84        92        94        95
        84        92        94        98        85        84        86        87
        85        84        86        88        85        84        86        89
        85        84        92        93        85        84        92        94
        86        84        92        93        86        84        92        94
        87        86        84        92        87        86        89        90
        87        86        89        91        88        86        84        92
        88        86        89        90        88        86        89        91
        89        86        84        92        92        94        95        96
        92        94        95        97        92        94        95       103
        92        94        98        99        92        94        98       100
        92        94        98       106        93        92        94        95
        93        92        94        98        94        95       103       100
        94        95       103       104        94        95       103       105
        94        98       100       101        94        98       100       102
        94        98       100       103        94        98       106       107
        94        98       106       108        95        94        98        99
        95        94        98       100        95        94        98       106
        95       103       100        98        95       103       100       101
        95       103       100       102        96        95        94        98
        96        95       103       100        96        95       103       104
        96        95       103       105        97        95        94        98
        97        95       103       100        97        95       103       104
        97        95       103       105        98        94        95       103
        98       100       103       104        98       100       103       105
        98       106       108       109        98       106       108       110
        99        98       100       101        99        98       100       102
        99        98       100       103        99        98       106       107
        99        98       106       108       100        98       106       107
       100        98       106       108       101       100        98       106
       101       100       103       104       101       100       103       105
       102       100        98       106       102       100       103       104
       102       100       103       105       103       100        98       106
       106       108       110       111       106       108       110       112
       106       108       110       113       107       106       108       109
       107       106       108       110       108       110       113       114
       108       110       113       115       109       108       110       111
       109       108       110       112       109       108       110       113
       110       113       115       116       110       113       115       117
       111       110       113       114       111       110       113       115
       112       110       113       114       112       110       113       115
       113       115       117       118       113       115       117       119
       113       115       117       124       114       113       115       116
       114       113       115       117       115       117       119       120
       115       117       119       121       115       117       119       122
       115       117       124       125       115       117       124       126
       116       115       117       118       116       115       117       119
       116       115       117       124       117       119       122       123
       117       124       126       127       117       124       126       128
       118       117       119       120       118       117       119       121
       118       117       119       122       118       117       124       125
       118       117       124       126       119       117       124       125
       119       117       124       126       120       119       117       124
       120       119       122       123       121       119       117       124
       121       119       122       123       122       119       117       124
       124       126       128       129       124       126       128       130
       124       126       128       131       125       124       126       127
       125       124       126       128       126       128       131       132
       126       128       131       133       127       126       128       129
       127       126       128       130       127       126       128       131
       129       128       131       132       129       128       131       133
       130       128       131       132       130       128       131       133

        31 !NIMPHI: impropers
         8         5        10         9        10         8        12        11
        19        12        21        20        21        19        23        22
        26        23        28        27        28        26        30        29
        38        30        40        39        35        32        37        36
        40        38        44        41        52        44        54        53
        54        52        56        55        59        56        61        60
        61        59        63        62        73        63        75        74
        68        70        65        69        68        65        70        69
        70        68        71        72        70        68        72        71
        75        73        77        76        80        77        82        81
        82        80        84        83        92        84        94        93
        89        86        91        90        94        92        98        95
       106        98       108       107       108       106       110       109
       113       110       115       114       115       113       117       116
       124       117       126       125       126       124       128       127
       131       128       133       132

        17 !NDON: donors
         1         2         1         3         1         4        10        11
        17        18        21        22        28        29        54        55
        61        62        70        71        70        72        75        76
        82        83       108       109       115       116       122       123
       126       127

        21 !NACC: acceptors
         9         8        17         0        20        19        27        26
        36        35        37        35        39        38        53        52
        60        59        69        68        74        73        81        80
        90        89        91        89        93        92       107       106
       114       113       122         0       125       124       132       131
       133       131

         0 !NNB

         0         0         0         0         0         0         0         0
         0         0         0         0         0         0         0         0
         0         0         0         0         0         0         0         0
         0         0         0         0         0         0         0         0
         0         0         0         0         0         0         0         0
         0         0         0         0         0         0         0         0
         0         0         0         0         0         0         0         0
         0         0         0         0         0         0         0         0
         0         0         0         0         0         0         0         0
         0         0         0         0         0         0         0         0
         0         0         0         0         0         0         0         0
         0         0         0         0         0         0         0         0
         0         0         0         0         0         0         0         0
         0         0         0         0         0         0         0         0
         0         0         0         0         0         0         0         0
         0         0         0         0         0         0         0         0
         0         0         0         0         0

        37         0 !NGRP NST2
         0         2         0         7         1         0         9         1         0
        13         1         0        18         1         0        20         1         0
        25         1         0        27         1         0        31         2         0
        37         1         0        39         1         0        45         1         0
        48         1         0        51         1         0        53         1         0
        58         1         0        60         1         0        64         1         0
        67         1         0        69         1         0        72         1         0
        74         1         0        79         1         0        81         1         0
        85         2         0        91         1         0        93         1         0
        99         1         0       102         1         0       105         1         0
       107         1         0       112         1         0       114         1         0
       118         1         0       123         1         0       125         1         0
       130         2         0

         0         0 !NUMLP NUMLPH

        11 !NCRTERM: cross-terms
         8        10        12        19        10        12        19        21
        19        21        23        26        21        23        26        28
        26        28        30        38        28        30        38        40
        38        40        44        52        40        44        52        54
        52        54        56        59        54        56        59        61
        59        61        63        73        61        63        73        75
        73        75        77        80        75        77        80        82
        80        82        84        92        82        84        92        94
        92        94        98       106        94        98       106       108
       106       108       110       113       108       110       113       115
       113       115       117       124       115       117       124       126
