Generated by CHARMM-GUI FF-Converter
44403
    1GLY      N    1   6.364   4.612   3.793
    1GLY    HT1    2   6.452   4.625   3.847
    1GLY    HT2    3   6.320   4.705   3.779
    1GLY    HT3    4   6.389   4.571   3.700
    1GLY     CA    5   6.273   4.523   3.863
    1GLY    HA1    6   6.249   4.569   3.958
    1GLY    HA2    7   6.319   4.426   3.873
    1GLY      C    8   6.141   4.503   3.789
    1GLY      O    9   6.105   4.583   3.704
    2ASP      N   10   6.076   4.399   3.805
    2ASP     HN   11   6.107   4.323   3.862
    2ASP     CA   12   5.947   4.372   3.742
    2ASP     HA   13   5.953   4.401   3.638
    2ASP     CB   14   5.913   4.223   3.750
    2ASP    HB1   15   5.811   4.203   3.711
    2ASP    HB2   16   5.917   4.189   3.856
    2ASP     CG   17   6.008   4.136   3.670
    2ASP    OD1   18   6.076   4.188   3.578
    2ASP    OD2   19   6.016   4.015   3.699
    2ASP      C   20   5.837   4.455   3.807
    2ASP      O   21   5.842   4.485   3.926
    3SER      N   22   5.741   4.492   3.732
    3SER     HN   23   5.739   4.471   3.634
    3SER     CA   24   5.623   4.557   3.789
    3SER     HA   25   5.655   4.652   3.830
    3SER     CB   26   5.518   4.581   3.680
    3SER    HB1   27   5.429   4.633   3.722
    3SER    HB2   28   5.484   4.482   3.641
    3SER     OG   29   5.572   4.656   3.573
    3SER    HG1   30   5.513   4.645   3.497
    3SER      C   31   5.564   4.474   3.901
    3SER      O   32   5.578   4.351   3.903
    4GLY      N   33   5.512   4.546   4.002
    4GLY     HN   34   5.517   4.645   4.005
    4GLY     CA   35   5.441   4.475   4.107
    4GLY    HA1   36   5.406   4.549   4.177
    4GLY    HA2   37   5.509   4.403   4.152
    4GLY      C   38   5.320   4.400   4.057
    4GLY      O   39   5.274   4.422   3.944
    5SER      N   40   5.270   4.325   4.138
    5SER     HN   41   5.314   4.302   4.224
    5SER     CA   42   5.144   4.258   4.106
    5SER     HA   43   5.155   4.209   4.010
    5SER     CB   44   5.112   4.151   4.210
    5SER    HB1   45   5.021   4.094   4.180
    5SER    HB2   46   5.090   4.199   4.308
    5SER     OG   47   5.220   4.061   4.225
    5SER    HG1   48   5.245   4.025   4.139
    5SER      C   49   5.029   4.358   4.097
    5SER      O   50   5.033   4.464   4.159
    6GLY      N   51   4.947   4.337   3.993
    6GLY     HN   52   4.945   4.249   3.946
    6GLY     CA   53   4.829   4.422   3.988
    6GLY    HA1   54   4.769   4.387   3.905
    6GLY    HA2   55   4.864   4.523   3.977
    6GLY      C   56   4.743   4.411   4.113
    6GLY      O   57   4.767   4.325   4.198
    7PRO      N   58   4.656   4.489   4.126
    7PRO     CD   59   4.620   4.590   4.021
    7PRO    HD1   60   4.611   4.545   3.920
    7PRO    HD2   61   4.694   4.674   4.023
    7PRO     CA   62   4.557   4.481   4.234
    7PRO     HA   63   4.608   4.479   4.330
    7PRO     CB   64   4.471   4.605   4.213
    7PRO    HB1   65   4.517   4.687   4.272
    7PRO    HB2   66   4.365   4.594   4.245
    7PRO     CG   67   4.485   4.636   4.067
    7PRO    HG1   68   4.408   4.577   4.012
    7PRO    HG2   69   4.467   4.744   4.045
    7PRO      C   70   4.472   4.354   4.227
    7PRO      O   71   4.464   4.290   4.122
    8GLY      N   72   4.414   4.324   4.341
    8GLY     HN   73   4.436   4.371   4.426
    8GLY     CA   74   4.326   4.207   4.346
    8GLY    HA1   75   4.299   4.191   4.449
    8GLY    HA2   76   4.377   4.122   4.303
    8GLY      C   77   4.196   4.228   4.270
    8GLY      O   78   4.161   4.340   4.235
    9ASP      N   79   4.125   4.115   4.246
    9ASP     HN   80   4.160   4.025   4.267
    9ASP     CA   81   3.992   4.117   4.185
    9ASP     HA   82   4.008   4.168   4.091
    9ASP     CB   83   3.942   3.975   4.159
    9ASP    HB1   84   3.836   3.973   4.125
    9ASP    HB2   85   3.947   3.919   4.254
    9ASP     CG   86   4.022   3.903   4.051
    9ASP    OD1   87   4.086   3.971   3.968
    9ASP    OD2   88   4.019   3.778   4.049
    9ASP      C   89   3.892   4.192   4.274
    9ASP      O   90   3.905   4.192   4.396
   10PRO      N   91   3.793   4.243   4.214
   10PRO     CD   92   3.779   4.259   4.080
   10PRO    HD1   93   3.750   4.161   4.035
   10PRO    HD2   94   3.871   4.297   4.030
   10PRO     CA   95   3.689   4.303   4.298
   10PRO     HA   96   3.735   4.374   4.364
   10PRO     CB   97   3.595   4.367   4.196
   10PRO    HB1   98   3.570   4.472   4.223
   10PRO    HB2   99   3.499   4.310   4.187
   10PRO     CG  100   3.667   4.358   4.066
   10PRO    HG1  101   3.600   4.331   3.982
   10PRO    HG2  102   3.712   4.457   4.042
   10PRO      C  103   3.616   4.200   4.384
   10PRO      O  104   3.615   4.081   4.351
   11GLY      N  105   3.581   4.247   4.511
   11GLY     HN  106   3.600   4.339   4.541
   11GLY     CA  107   3.505   4.159   4.600
   11GLY    HA1  108   3.474   4.218   4.684
   11GLY    HA2  109   3.570   4.077   4.626
   11GLY      C  110   3.381   4.101   4.534
   11GLY      O  111   3.337   4.149   4.430
   12SER      N  112   3.318   4.007   4.597
   12SER     HN  113   3.359   3.957   4.673
   12SER     CA  114   3.190   3.954   4.551
   12SER     HA  115   3.194   3.941   4.444
   12SER     CB  116   3.163   3.817   4.615
   12SER    HB1  117   3.071   3.771   4.574
   12SER    HB2  118   3.150   3.828   4.725
   12SER     OG  119   3.273   3.729   4.594
   12SER    HG1  120   3.288   3.715   4.500
   12SER      C  121   3.075   4.049   4.584
   12SER      O  122   3.082   4.124   4.681
   13GLY      N  123   2.968   4.067   4.501
   13GLY     HN  124   2.964   4.009   4.421
   13GLY     CA  125   2.850   4.149   4.521
   13GLY    HA1  126   2.787   4.140   4.434
   13GLY    HA2  127   2.883   4.250   4.542
   13GLY      C  128   2.766   4.104   4.640
   13GLY      O  129   2.777   3.990   4.685
   14ASP      N  130   2.701   4.164   4.711
   14ASP     HN  131   2.704   4.262   4.700
   14ASP     CA  132   2.609   4.134   4.820
   14ASP     HA  133   2.666   4.091   4.901
   14ASP     CB  134   2.540   4.263   4.868
   14ASP    HB1  135   2.462   4.238   4.943
   14ASP    HB2  136   2.491   4.313   4.782
   14ASP     CG  137   2.635   4.361   4.933
   14ASP    OD1  138   2.744   4.319   4.978
   14ASP    OD2  139   2.601   4.481   4.939
   14ASP      C  140   2.504   4.031   4.778
   14ASP      O  141   2.458   4.032   4.664
   15SER      N  142   2.491   3.912   4.855
   15SER     HN  143   2.539   3.902   4.941
   15SER     CA  144   2.397   3.805   4.823
   15SER     HA  145   2.416   3.774   4.721
   15SER     CB  146   2.416   3.687   4.918
   15SER    HB1  147   2.520   3.649   4.908
   15SER    HB2  148   2.348   3.604   4.892
   15SER     OG  149   2.396   3.728   5.053
   15SER    HG1  150   2.341   3.807   5.044
   15SER      C  151   2.253   3.854   4.829
   15SER    OT1  152   2.232   3.975   4.859
   15SER    OT2  153   2.161   3.771   4.803
   16SOD    SOD  154   4.751   5.084   2.574
   17SOD    SOD  155   6.354   2.162   3.259
   18SOD    SOD  156   6.631   5.942   4.080
   19SOD    SOD  157   4.164   7.277   6.146
   20SOD    SOD  158   8.129   4.509   4.386
   21SOD    SOD  159   2.398   7.850   3.055
   22SOD    SOD  160   1.869   5.501   8.240
   23SOD    SOD  161  -0.324   3.196   4.317
   24SOD    SOD  162   3.136   0.121   6.556
   25SOD    SOD  163   5.494   7.543   3.440
   26SOD    SOD  164   4.236   5.790   8.401
   27SOD    SOD  165   5.555   1.947   0.230
   28SOD    SOD  166   2.877   2.362   2.074
   29SOD    SOD  167   2.349   0.340   6.077
   30SOD    SOD  168   2.693   1.289   5.730
   31SOD    SOD  169   4.692   2.427   0.483
   32SOD    SOD  170   2.480   7.998   6.026
   33SOD    SOD  171   2.437   6.352   6.243
   34SOD    SOD  172   7.802   2.311   4.337
   35SOD    SOD  173   1.921   6.720   1.503
   36SOD    SOD  174   5.272   6.229   5.739
   37SOD    SOD  175   2.918   7.678   7.025
   38SOD    SOD  176   4.863   7.995   5.144
   39SOD    SOD  177   3.489   6.063   1.179
   40SOD    SOD  178   7.555   7.033   2.191
   41SOD    SOD  179   4.708   3.255   2.937
   42SOD    SOD  180   2.256   1.405   7.001
   43SOD    SOD  181   2.684   6.690   2.726
   44SOD    SOD  182   4.010   1.190   4.420
   45SOD    SOD  183   4.668   4.160   5.180
   46SOD    SOD  184   5.058   2.120   2.050
   47SOD    SOD  185   6.539   7.194   5.108
   48SOD    SOD  186   4.122   1.465   5.958
   49SOD    SOD  187   5.170   1.359   6.709
   50SOD    SOD  188   2.937   8.408   5.920
   51SOD    SOD  189   2.454   4.501   2.504
   52SOD    SOD  190   8.492   3.091   5.984
   53SOD    SOD  191   5.507   7.088   7.338
   54SOD    SOD  192   3.346   4.855   4.834
   55SOD    SOD  193   2.442   5.751   4.145
   56SOD    SOD  194   6.442   3.928   2.942
   57SOD    SOD  195   6.141   5.630   5.766
   58SOD    SOD  196   2.176   0.601   4.328
   59SOD    SOD  197   0.283   2.368   5.589
   60SOD    SOD  198   1.104   1.481   3.171
   61CLA    CLA  199   5.214   5.998   5.830
   62CLA    CLA  200   6.747   6.702   5.865
   63CLA    CLA  201   1.329   6.850   4.699
   64CLA    CLA  202   0.686   3.358   1.802
   65CLA    CLA  203   5.010   7.868   5.311
   66CLA    CLA  204   4.884   4.555   2.237
   67CLA    CLA  205   1.407   2.144   2.348
   68CLA    CLA  206   3.847   3.265   8.037
   69CLA    CLA  207   6.042   7.444   5.403
   70CLA    CLA  208   5.898   6.031   6.506
   71CLA    CLA  209   4.971   6.298   1.590
   72CLA    CLA  210   6.694   3.901   2.923
   73CLA    CLA  211   2.418   4.969   8.424
   74CLA    CLA  212   2.435   0.630   6.225
   75CLA    CLA  213   0.930   6.903   5.888
   76CLA    CLA  214   2.383   8.282   5.405
   77CLA    CLA  215   3.576   1.415   3.809
   78CLA    CLA  216   5.108   7.906   4.518
   79CLA    CLA  217   7.057   7.259   3.137
   80CLA    CLA  218   3.584   0.654   1.879
   81CLA    CLA  219   5.396   2.021   5.387
   82CLA    CLA  220   5.593   1.367   1.794
   83CLA    CLA  221   4.491   4.181   0.637
   84CLA    CLA  222   6.242   5.105   1.381
   85CLA    CLA  223   7.016   7.627   4.386
   86CLA    CLA  224   7.301   4.955   6.113
   87CLA    CLA  225   1.432   5.650   6.604
   88CLA    CLA  226   7.562   3.325   5.198
   89CLA    CLA  227   2.479   0.262   4.882
   90CLA    CLA  228   4.868   4.778   5.025
   91CLA    CLA  229   1.450   1.571   6.700
   92CLA    CLA  230   2.642   2.373   1.969
   93CLA    CLA  231   4.768   2.685   1.279
   94CLA    CLA  232   3.717   6.210   1.745
   95CLA    CLA  233   2.980   2.290   2.412
   96CLA    CLA  234   4.990   0.333   2.626
   97CLA    CLA  235   6.218   6.833   1.905
   98CLA    CLA  236   4.244   2.820   0.183
   99CLA    CLA  237   1.288   7.846   4.465
  100CLA    CLA  238   4.307   1.499   4.757
  101CLA    CLA  239   3.031   8.413   6.158
  102CLA    CLA  240   3.515   7.134   5.925
  103TIP3   OH2  241   3.288   0.367   2.251
  103TIP3    H1  242   3.274   0.272   2.259
  103TIP3    H2  243   3.204   0.402   2.288
  104TIP3   OH2  244   2.972   0.712   2.346
  104TIP3    H1  245   2.964   0.742   2.253
  104TIP3    H2  246   3.053   0.761   2.373
  105TIP3   OH2  247   3.275   0.051   2.257
  105TIP3    H1  248   3.182   0.076   2.246
  105TIP3    H2  249   3.294   0.025   2.165
  106TIP3   OH2  250   2.731   0.267   2.510
  106TIP3    H1  251   2.718   0.211   2.589
  106TIP3    H2  252   2.797   0.331   2.544
  107TIP3   OH2  253   3.070   0.502   2.027
  107TIP3    H1  254   3.060   0.431   1.960
  107TIP3    H2  255   3.165   0.496   2.044
  108TIP3   OH2  256   3.153   0.169   2.575
  108TIP3    H1  257   3.081   0.179   2.642
  108TIP3    H2  258   3.193   0.258   2.579
  109TIP3   OH2  259   3.189  -0.163   2.420
  109TIP3    H1  260   3.254  -0.234   2.405
  109TIP3    H2  261   3.213  -0.097   2.352
  110TIP3   OH2  262   3.365  -0.366   2.419
  110TIP3    H1  263   3.332  -0.446   2.467
  110TIP3    H2  264   3.461  -0.371   2.437
  111TIP3   OH2  265   2.564   0.646   2.281
  111TIP3    H1  266   2.588   0.553   2.278
  111TIP3    H2  267   2.618   0.681   2.354
  112TIP3   OH2  268   3.035   0.444   2.346
  112TIP3    H1  269   2.964   0.413   2.288
  112TIP3    H2  270   3.019   0.541   2.344
  113TIP3   OH2  271   4.236  -0.175   1.480
  113TIP3    H1  272   4.274  -0.191   1.568
  113TIP3    H2  273   4.190  -0.260   1.463
  114TIP3   OH2  274   4.503   0.131   1.200
  114TIP3    H1  275   4.525   0.073   1.274
  114TIP3    H2  276   4.536   0.216   1.234
  115TIP3   OH2  277   4.178   0.589   1.178
  115TIP3    H1  278   4.235   0.522   1.135
  115TIP3    H2  279   4.170   0.556   1.268
  116TIP3   OH2  280   4.095   0.062   1.540
  116TIP3    H1  281   4.125  -0.022   1.499
  116TIP3    H2  282   4.183   0.101   1.559
  117TIP3   OH2  283   3.940  -0.033   1.748
  117TIP3    H1  284   3.882   0.032   1.795
  117TIP3    H2  285   3.993   0.026   1.691
  118TIP3   OH2  286   3.770   0.156   1.843
  118TIP3    H1  287   3.755   0.249   1.812
  118TIP3    H2  288   3.694   0.152   1.906
  119TIP3   OH2  289   4.609   0.367   1.325
  119TIP3    H1  290   4.522   0.361   1.372
  119TIP3    H2  291   4.600   0.454   1.281
  120TIP3   OH2  292   4.311   0.407   1.024
  120TIP3    H1  293   4.369   0.332   1.005
  120TIP3    H2  294   4.352   0.476   0.966
  121TIP3   OH2  295   4.831   0.312   1.706
  121TIP3    H1  296   4.826   0.232   1.649
  121TIP3    H2  297   4.811   0.383   1.641
  122TIP3   OH2  298   4.719  -0.213   1.846
  122TIP3    H1  299   4.701  -0.129   1.892
  122TIP3    H2  300   4.662  -0.205   1.768
  123TIP3   OH2  301   3.889   0.213   1.421
  123TIP3    H1  302   3.827   0.146   1.456
  123TIP3    H2  303   3.974   0.176   1.452
  124TIP3   OH2  304   4.376   0.361   1.456
  124TIP3    H1  305   4.355   0.445   1.500
  124TIP3    H2  306   4.346   0.294   1.519
  125TIP3   OH2  307   3.976   0.275   1.998
  125TIP3    H1  308   3.917   0.339   2.044
  125TIP3    H2  309   3.910   0.228   1.944
  126TIP3   OH2  310   3.721  -0.153   2.087
  126TIP3    H1  311   3.736  -0.074   2.144
  126TIP3    H2  312   3.625  -0.152   2.079
  127TIP3   OH2  313   4.088   0.249   1.100
  127TIP3    H1  314   4.165   0.309   1.098
  127TIP3    H2  315   4.017   0.304   1.135
  128TIP3   OH2  316   3.778   0.442   2.091
  128TIP3    H1  317   3.736   0.476   2.010
  128TIP3    H2  318   3.698   0.418   2.143
  129TIP3   OH2  319   5.065   0.623   1.720
  129TIP3    H1  320   5.069   0.529   1.745
  129TIP3    H2  321   4.985   0.651   1.769
  130TIP3   OH2  322   4.177   0.405   1.860
  130TIP3    H1  323   4.173   0.499   1.890
  130TIP3    H2  324   4.101   0.367   1.911
  131TIP3   OH2  325   4.229   0.478   0.740
  131TIP3    H1  326   4.136   0.454   0.735
  131TIP3    H2  327   4.274   0.391   0.752
  132TIP3   OH2  328   4.960  -0.262   1.990
  132TIP3    H1  329   4.880  -0.226   1.948
  132TIP3    H2  330   4.942  -0.357   1.982
  133TIP3   OH2  331   3.575   0.172   2.029
  133TIP3    H1  332   3.606   0.149   2.118
  133TIP3    H2  333   3.497   0.117   2.014
  134TIP3   OH2  334   4.745  -0.469   1.948
  134TIP3    H1  335   4.698  -0.435   2.025
  134TIP3    H2  336   4.730  -0.397   1.884
  135TIP3   OH2  337   4.446  -0.224   2.131
  135TIP3    H1  338   4.421  -0.305   2.181
  135TIP3    H2  339   4.539  -0.215   2.158
  136TIP3   OH2  340   4.403  -0.251   1.706
  136TIP3    H1  341   4.477  -0.298   1.664
  136TIP3    H2  342   4.397  -0.298   1.791
  137TIP3   OH2  343   4.766   0.973   1.822
  137TIP3    H1  344   4.762   1.001   1.729
  137TIP3    H2  345   4.845   1.021   1.853
  138TIP3   OH2  346   3.723   0.068   2.254
  138TIP3    H1  347   3.802   0.108   2.296
  138TIP3    H2  348   3.656   0.086   2.323
  139TIP3   OH2  349   4.149  -0.587   1.857
  139TIP3    H1  350   4.102  -0.566   1.773
  139TIP3    H2  351   4.214  -0.518   1.862
  140TIP3   OH2  352   4.805   0.106   1.535
  140TIP3    H1  353   4.845   0.159   1.461
  140TIP3    H2  354   4.714   0.094   1.505
  141TIP3   OH2  355   4.291   0.148   1.879
  141TIP3    H1  356   4.319   0.126   1.969
  141TIP3    H2  357   4.254   0.238   1.889
  142TIP3   OH2  358   4.197  -0.117   2.193
  142TIP3    H1  359   4.142  -0.160   2.126
  142TIP3    H2  360   4.287  -0.142   2.162
  143TIP3   OH2  361   4.452   0.397   1.779
  143TIP3    H1  362   4.356   0.401   1.793
  143TIP3    H2  363   4.483   0.452   1.853
  144TIP3   OH2  364   5.088   0.338   1.777
  144TIP3    H1  365   4.990   0.338   1.769
  144TIP3    H2  366   5.115   0.312   1.686
  145TIP3   OH2  367   4.570  -0.003   1.444
  145TIP3    H1  368   4.483  -0.022   1.483
  145TIP3    H2  369   4.606  -0.091   1.432
  146TIP3   OH2  370   3.957   0.509   1.646
  146TIP3    H1  371   4.003   0.579   1.595
  146TIP3    H2  372   4.029   0.469   1.697
  147TIP3   OH2  373   4.350   0.124   1.617
  147TIP3    H1  374   4.323   0.124   1.712
  147TIP3    H2  375   4.447   0.125   1.629
  148TIP3   OH2  376   4.593   0.659   1.655
  148TIP3    H1  377   4.511   0.607   1.649
  148TIP3    H2  378   4.578   0.726   1.585
  149TIP3   OH2  379   3.423   0.389   1.803
  149TIP3    H1  380   3.464   0.329   1.868
  149TIP3    H2  381   3.465   0.474   1.826
  150TIP3   OH2  382   4.384  -0.416   1.928
  150TIP3    H1  383   4.365  -0.341   1.987
  150TIP3    H2  384   4.411  -0.481   1.996
  151TIP3   OH2  385   4.618   0.633   1.250
  151TIP3    H1  386   4.574   0.684   1.178
  151TIP3    H2  387   4.711   0.655   1.231
  152TIP3   OH2  388   3.376   0.658   2.258
  152TIP3    H1  389   3.470   0.670   2.284
  152TIP3    H2  390   3.376   0.566   2.227
  153TIP3   OH2  391   3.868   0.622   2.283
  153TIP3    H1  392   3.963   0.606   2.280
  153TIP3    H2  393   3.837   0.565   2.210
  154TIP3   OH2  394   4.512   0.535   2.007
  154TIP3    H1  395   4.501   0.468   2.078
  154TIP3    H2  396   4.586   0.588   2.041
  155TIP3   OH2  397   3.509   0.067   2.431
  155TIP3    H1  398   3.523  -0.028   2.438
  155TIP3    H2  399   3.423   0.071   2.384
  156TIP3   OH2  400   4.123   0.162   2.207
  156TIP3    H1  401   4.080   0.182   2.121
  156TIP3    H2  402   4.152   0.069   2.195
  157TIP3   OH2  403   4.612   0.170   1.804
  157TIP3    H1  404   4.688   0.227   1.781
  157TIP3    H2  405   4.541   0.237   1.802
  158TIP3   OH2  406   3.635  -0.210   2.430
  158TIP3    H1  407   3.719  -0.225   2.384
  158TIP3    H2  408   3.665  -0.162   2.510
  159TIP3   OH2  409   3.961  -0.283   2.069
  159TIP3    H1  410   3.876  -0.233   2.065
  159TIP3    H2  411   4.011  -0.247   1.992
  160TIP3   OH2  412   4.489   0.095   2.210
  160TIP3    H1  413   4.567   0.063   2.163
  160TIP3    H2  414   4.480   0.029   2.281
  161TIP3   OH2  415   4.058  -0.493   2.197
  161TIP3    H1  416   3.998  -0.537   2.134
  161TIP3    H2  417   4.040  -0.401   2.165
  162TIP3   OH2  418   4.133  -0.178   1.891
  162TIP3    H1  419   4.193  -0.203   1.820
  162TIP3    H2  420   4.070  -0.121   1.842
  163TIP3   OH2  421   4.698  -0.232   2.238
  163TIP3    H1  422   4.730  -0.287   2.314
  163TIP3    H2  423   4.770  -0.170   2.225
  164TIP3   OH2  424   4.749   0.031   1.994
  164TIP3    H1  425   4.690   0.082   1.934
  164TIP3    H2  426   4.836   0.050   1.954
  165TIP3   OH2  427   3.941  -0.377   2.433
  165TIP3    H1  428   3.896  -0.459   2.456
  165TIP3    H2  429   4.004  -0.407   2.366
  166TIP3   OH2  430   4.339  -0.453   2.225
  166TIP3    H1  431   4.369  -0.486   2.313
  166TIP3    H2  432   4.243  -0.459   2.235
  167TIP3   OH2  433   4.878   0.721   1.223
  167TIP3    H1  434   4.891   0.752   1.315
  167TIP3    H2  435   4.922   0.792   1.173
  168TIP3   OH2  436   4.899   0.748   1.500
  168TIP3    H1  437   4.855   0.660   1.498
  168TIP3    H2  438   4.972   0.728   1.561
  169TIP3   OH2  439   4.944   0.423   2.069
  169TIP3    H1  440   4.874   0.434   2.137
  169TIP3    H2  441   4.988   0.510   2.074
  170TIP3   OH2  442   4.957   0.228   1.349
  170TIP3    H1  443   5.022   0.188   1.289
  170TIP3    H2  444   4.938   0.311   1.299
  171TIP3   OH2  445   4.770   0.501   1.514
  171TIP3    H1  446   4.699   0.548   1.563
  171TIP3    H2  447   4.719   0.456   1.443
  172TIP3   OH2  448   5.001   0.080   1.887
  172TIP3    H1  449   5.075   0.017   1.878
  172TIP3    H2  450   5.030   0.154   1.830
  173TIP3   OH2  451   5.188  -0.129   1.911
  173TIP3    H1  452   5.114  -0.181   1.948
  173TIP3    H2  453   5.265  -0.184   1.930
  174TIP3   OH2  454   3.558  -0.585   2.490
  174TIP3    H1  455   3.625  -0.592   2.420
  174TIP3    H2  456   3.606  -0.617   2.569
  175TIP3   OH2  457   4.468   0.589   0.895
  175TIP3    H1  458   4.542   0.542   0.852
  175TIP3    H2  459   4.509   0.671   0.927
  176TIP3   OH2  460   3.563   0.384   2.262
  176TIP3    H1  461   3.469   0.372   2.237
  176TIP3    H2  462   3.556   0.404   2.355
  177TIP3   OH2  463   3.740   0.415   1.788
  177TIP3    H1  464   3.677   0.488   1.809
  177TIP3    H2  465   3.811   0.466   1.745
  178TIP3   OH2  466   4.176   0.671   1.935
  178TIP3    H1  467   4.215   0.674   2.025
  178TIP3    H2  468   4.239   0.727   1.885
  179TIP3   OH2  469   4.354   0.829   1.800
  179TIP3    H1  470   4.427   0.780   1.760
  179TIP3    H2  471   4.404   0.887   1.862
  180TIP3   OH2  472   4.073   0.696   1.476
  180TIP3    H1  473   3.999   0.710   1.415
  180TIP3    H2  474   4.080   0.784   1.519
  181TIP3   OH2  475   4.338   0.630   1.529
  181TIP3    H1  476   4.244   0.650   1.513
  181TIP3    H2  477   4.380   0.707   1.489
  182TIP3   OH2  478   4.548   0.825   1.444
  182TIP3    H1  479   4.530   0.910   1.399
  182TIP3    H2  480   4.569   0.766   1.368
  183TIP3   OH2  481   3.351   0.496   1.562
  183TIP3    H1  482   3.369   0.474   1.655
  183TIP3    H2  483   3.335   0.407   1.525
  184TIP3   OH2  484   3.793   0.475   1.424
  184TIP3    H1  485   3.821   0.383   1.405
  184TIP3    H2  486   3.835   0.488   1.511
  185TIP3   OH2  487   4.821   0.704   1.822
  185TIP3    H1  488   4.742   0.674   1.772
  185TIP3    H2  489   4.803   0.800   1.828
  186TIP3   OH2  490   5.539   0.419   1.299
  186TIP3    H1  491   5.532   0.517   1.296
  186TIP3    H2  492   5.478   0.400   1.373
  187TIP3   OH2  493   5.759   0.530   1.477
  187TIP3    H1  494   5.698   0.597   1.516
  187TIP3    H2  495   5.698   0.458   1.456
  188TIP3   OH2  496   5.562   0.706   1.573
  188TIP3    H1  497   5.521   0.716   1.485
  188TIP3    H2  498   5.483   0.688   1.630
  189TIP3   OH2  499   5.157   0.248   1.534
  189TIP3    H1  500   5.081   0.227   1.476
  189TIP3    H2  501   5.185   0.160   1.568
  190TIP3   OH2  502   4.993   0.440   1.179
  190TIP3    H1  503   5.089   0.446   1.180
  190TIP3    H2  504   4.969   0.523   1.222
  191TIP3   OH2  505   5.929   0.718   1.300
  191TIP3    H1  506   5.954   0.804   1.340
  191TIP3    H2  507   5.938   0.662   1.379
  192TIP3   OH2  508   5.356   0.429   1.500
  192TIP3    H1  509   5.410   0.418   1.582
  192TIP3    H2  510   5.286   0.362   1.516
  193TIP3   OH2  511   6.545   1.243   1.331
  193TIP3    H1  512   6.531   1.252   1.236
  193TIP3    H2  513   6.637   1.273   1.342
  194TIP3   OH2  514   5.499   0.375   1.731
  194TIP3    H1  515   5.587   0.378   1.772
  194TIP3    H2  516   5.443   0.362   1.809
  195TIP3   OH2  517   5.238   0.035   1.677
  195TIP3    H1  518   5.298   0.055   1.751
  195TIP3    H2  519   5.218  -0.058   1.692
  196TIP3   OH2  520   5.727   0.798   1.140
  196TIP3    H1  521   5.771   0.862   1.081
  196TIP3    H2  522   5.798   0.779   1.205
  197TIP3   OH2  523   5.207   0.599   1.306
  197TIP3    H1  524   5.257   0.543   1.367
  197TIP3    H2  525   5.217   0.686   1.348
  198TIP3   OH2  526   5.184   0.930   1.724
  198TIP3    H1  527   5.271   0.937   1.769
  198TIP3    H2  528   5.175   0.833   1.720
  199TIP3   OH2  529   5.655   0.867   1.788
  199TIP3    H1  530   5.748   0.888   1.773
  199TIP3    H2  531   5.631   0.822   1.705
  200TIP3   OH2  532   6.269   0.823   1.513
  200TIP3    H1  533   6.267   0.738   1.561
  200TIP3    H2  534   6.356   0.857   1.536
  201TIP3   OH2  535   5.311   0.341   1.932
  201TIP3    H1  536   5.332   0.246   1.928
  201TIP3    H2  537   5.224   0.343   1.885
  202TIP3   OH2  538   5.912   0.422   1.710
  202TIP3    H1  539   5.910   0.462   1.621
  202TIP3    H2  540   5.915   0.327   1.687
  203TIP3   OH2  541   5.405   0.088   1.912
  203TIP3    H1  542   5.413  -0.011   1.915
  203TIP3    H2  543   5.455   0.115   1.991
  204TIP3   OH2  544   4.760   0.723   0.777
  204TIP3    H1  545   4.732   0.662   0.709
  204TIP3    H2  546   4.795   0.662   0.848
  205TIP3   OH2  547   4.909   0.586   0.957
  205TIP3    H1  548   4.895   0.501   1.002
  205TIP3    H2  549   4.937   0.640   1.033
  206TIP3   OH2  550   5.343   0.666   1.737
  206TIP3    H1  551   5.253   0.630   1.725
  206TIP3    H2  552   5.361   0.645   1.830
  207TIP3   OH2  553   5.520   0.694   1.282
  207TIP3    H1  554   5.468   0.769   1.247
  207TIP3    H2  555   5.604   0.718   1.239
  208TIP3   OH2  556   5.974   0.947   1.435
  208TIP3    H1  557   6.010   0.944   1.526
  208TIP3    H2  558   6.036   1.009   1.391
  209TIP3   OH2  559   6.132   1.113   1.282
  209TIP3    H1  560   6.205   1.066   1.238
  209TIP3    H2  561   6.182   1.164   1.350
  210TIP3   OH2  562   5.199   0.939   1.316
  210TIP3    H1  563   5.108   0.971   1.298
  210TIP3    H2  564   5.222   0.994   1.393
  211TIP3   OH2  565   5.431   0.929   1.168
  211TIP3    H1  566   5.344   0.941   1.211
  211TIP3    H2  567   5.416   0.965   1.078
  212TIP3   OH2  568   5.849   0.968   0.943
  212TIP3    H1  569   5.761   1.004   0.925
  212TIP3    H2  570   5.880   1.033   1.010
  213TIP3   OH2  571   5.121   0.748   1.074
  213TIP3    H1  572   5.153   0.712   1.159
  213TIP3    H2  573   5.175   0.701   1.010
  214TIP3   OH2  574   0.806   2.289   2.445
  214TIP3    H1  575   0.849   2.316   2.362
  214TIP3    H2  576   0.874   2.322   2.507
  215TIP3   OH2  577   1.015   1.720   2.778
  215TIP3    H1  578   0.953   1.743   2.851
  215TIP3    H2  579   1.065   1.803   2.769
  216TIP3   OH2  580   2.324   1.680   1.383
  216TIP3    H1  581   2.340   1.667   1.478
  216TIP3    H2  582   2.353   1.772   1.373
  217TIP3   OH2  583   2.075   2.159   1.352
  217TIP3    H1  584   2.080   2.081   1.295
  217TIP3    H2  585   2.066   2.118   1.439
  218TIP3   OH2  586   2.983   0.955   1.728
  218TIP3    H1  587   2.994   1.045   1.764
  218TIP3    H2  588   3.001   0.968   1.634
  219TIP3   OH2  589   3.039   1.181   1.869
  219TIP3    H1  590   2.951   1.221   1.849
  219TIP3    H2  591   3.047   1.199   1.964
  220TIP3   OH2  592   2.436   1.918   1.483
  220TIP3    H1  593   2.345   1.921   1.520
  220TIP3    H2  594   2.440   2.006   1.438
  221TIP3   OH2  595   2.676   1.837   1.843
  221TIP3    H1  596   2.672   1.763   1.779
  221TIP3    H2  597   2.647   1.913   1.787
  222TIP3   OH2  598   2.877   1.471   1.674
  222TIP3    H1  599   2.793   1.523   1.683
  222TIP3    H2  600   2.904   1.502   1.584
  223TIP3   OH2  601   2.569   1.359   1.982
  223TIP3    H1  602   2.560   1.444   2.028
  223TIP3    H2  603   2.479   1.354   1.939
  224TIP3   OH2  604   2.194   1.922   1.604
  224TIP3    H1  605   2.194   2.009   1.649
  224TIP3    H2  606   2.204   1.859   1.678
  225TIP3   OH2  607   1.823   1.808   2.142
  225TIP3    H1  608   1.781   1.880   2.196
  225TIP3    H2  609   1.746   1.780   2.092
  226TIP3   OH2  610   1.654   2.000   2.231
  226TIP3    H1  611   1.630   1.997   2.136
  226TIP3    H2  612   1.573   2.043   2.268
  227TIP3   OH2  613   2.899   2.183   1.909
  227TIP3    H1  614   2.892   2.089   1.931
  227TIP3    H2  615   2.811   2.200   1.869
  228TIP3   OH2  616   2.014   1.969   2.001
  228TIP3    H1  617   2.012   2.059   2.041
  228TIP3    H2  618   1.947   1.923   2.054
  229TIP3   OH2  619   2.800   1.310   2.146
  229TIP3    H1  620   2.722   1.324   2.090
  229TIP3    H2  621   2.814   1.214   2.136
  230TIP3   OH2  622   2.578   1.090   2.067
  230TIP3    H1  623   2.521   1.079   2.146
  230TIP3    H2  624   2.554   1.179   2.035
  231TIP3   OH2  625   2.282   1.314   2.314
  231TIP3    H1  626   2.271   1.236   2.371
  231TIP3    H2  627   2.377   1.332   2.327
  232TIP3   OH2  628   2.320   1.303   1.896
  232TIP3    H1  629   2.325   1.239   1.825
  232TIP3    H2  630   2.260   1.259   1.959
  233TIP3   OH2  631   1.562   1.606   2.435
  233TIP3    H1  632   1.640   1.655   2.468
  233TIP3    H2  633   1.506   1.677   2.400
  234TIP3   OH2  634   2.660   1.632   1.670
  234TIP3    H1  635   2.674   1.681   1.585
  234TIP3    H2  636   2.566   1.604   1.661
  235TIP3   OH2  637   2.115   1.696   2.041
  235TIP3    H1  638   2.181   1.696   2.112
  235TIP3    H2  639   2.104   1.791   2.024
  236TIP3   OH2  640   2.034   1.429   2.343
  236TIP3    H1  641   1.993   1.407   2.258
  236TIP3    H2  642   2.127   1.402   2.326
  237TIP3   OH2  643   2.291   1.940   1.946
  237TIP3    H1  644   2.198   1.964   1.937
  237TIP3    H2  645   2.321   2.006   2.012
  238TIP3   OH2  646   2.928   1.895   1.913
  238TIP3    H1  647   2.830   1.888   1.905
  238TIP3    H2  648   2.954   1.868   1.822
  239TIP3   OH2  649   2.408   1.532   1.651
  239TIP3    H1  650   2.323   1.507   1.610
  239TIP3    H2  651   2.453   1.445   1.649
  240TIP3   OH2  652   1.827   2.054   1.798
  240TIP3    H1  653   1.860   2.128   1.742
  240TIP3    H2  654   1.906   2.033   1.851
  241TIP3   OH2  655   2.206   1.695   1.767
  241TIP3    H1  656   2.187   1.677   1.861
  241TIP3    H2  657   2.290   1.647   1.755
  242TIP3   OH2  658   2.200   1.163   2.100
  242TIP3    H1  659   2.234   1.223   2.170
  242TIP3    H2  660   2.260   1.088   2.108
  243TIP3   OH2  661   2.842   1.043   2.056
  243TIP3    H1  662   2.744   1.042   2.066
  243TIP3    H2  663   2.850   1.031   1.960
  244TIP3   OH2  664   2.465   2.172   1.404
  244TIP3    H1  665   2.419   2.226   1.336
  244TIP3    H2  666   2.558   2.198   1.385
  245TIP3   OH2  667   1.114   2.193   2.409
  245TIP3    H1  668   1.213   2.192   2.411
  245TIP3    H2  669   1.102   2.129   2.337
  246TIP3   OH2  670   1.752   2.192   2.433
  246TIP3    H1  671   1.832   2.140   2.415
  246TIP3    H2  672   1.690   2.152   2.369
  247TIP3   OH2  673   2.338   2.097   2.169
  247TIP3    H1  674   2.334   2.024   2.236
  247TIP3    H2  675   2.415   2.149   2.200
  248TIP3   OH2  676   1.348   1.604   2.642
  248TIP3    H1  677   1.403   1.551   2.583
  248TIP3    H2  678   1.287   1.640   2.576
  249TIP3   OH2  679   1.962   1.717   2.360
  249TIP3    H1  680   1.928   1.738   2.270
  249TIP3    H2  681   2.001   1.629   2.347
  250TIP3   OH2  682   2.458   1.726   1.969
  250TIP3    H1  683   2.536   1.766   1.926
  250TIP3    H2  684   2.392   1.798   1.953
  251TIP3   OH2  685   1.504   1.321   2.599
  251TIP3    H1  686   1.552   1.345   2.517
  251TIP3    H2  687   1.530   1.393   2.660
  252TIP3   OH2  688   2.326   1.646   2.360
  252TIP3    H1  689   2.406   1.626   2.310
  252TIP3    H2  690   2.331   1.583   2.434
  253TIP3   OH2  691   2.547   1.328   2.413
  253TIP3    H1  692   2.595   1.243   2.413
  253TIP3    H2  693   2.614   1.388   2.377
  254TIP3   OH2  694   2.587   1.585   2.155
  254TIP3    H1  695   2.529   1.637   2.094
  254TIP3    H2  696   2.675   1.604   2.115
  255TIP3   OH2  697   1.830   1.133   2.611
  255TIP3    H1  698   1.745   1.091   2.628
  255TIP3    H2  699   1.849   1.095   2.524
  256TIP3   OH2  700   2.207   1.083   2.453
  256TIP3    H1  701   2.217   1.082   2.550
  256TIP3    H2  702   2.114   1.062   2.442
  257TIP3   OH2  703   2.438   1.051   2.296
  257TIP3    H1  704   2.368   1.044   2.364
  257TIP3    H2  705   2.515   1.014   2.343
  258TIP3   OH2  706   2.660   0.985   2.450
  258TIP3    H1  707   2.678   0.889   2.465
  258TIP3    H2  708   2.660   1.021   2.541
  259TIP3   OH2  709   2.242   0.803   2.651
  259TIP3    H1  710   2.224   0.732   2.587
  259TIP3    H2  711   2.160   0.857   2.650
  260TIP3   OH2  712   2.719   2.274   1.372
  260TIP3    H1  713   2.726   2.342   1.440
  260TIP3    H2  714   2.759   2.317   1.296
  261TIP3   OH2  715   2.804   2.014   2.236
  261TIP3    H1  716   2.720   2.005   2.284
  261TIP3    H2  717   2.854   2.073   2.296
  262TIP3   OH2  718   2.779   1.761   1.462
  262TIP3    H1  719   2.839   1.695   1.422
  262TIP3    H2  720   2.785   1.836   1.400
  263TIP3   OH2  721   2.606   2.040   1.678
  263TIP3    H1  722   2.565   2.127   1.686
  263TIP3    H2  723   2.559   2.002   1.601
  264TIP3   OH2  724   2.832   1.645   2.046
  264TIP3    H1  725   2.904   1.579   2.035
  264TIP3    H2  726   2.848   1.706   1.972
  265TIP3   OH2  727   3.016   1.446   2.053
  265TIP3    H1  728   2.941   1.397   2.094
  265TIP3    H2  729   3.090   1.387   2.079
  266TIP3   OH2  730   2.752   1.069   1.576
  266TIP3    H1  731   2.826   1.123   1.540
  266TIP3    H2  732   2.717   1.129   1.643
  267TIP3   OH2  733   2.779   1.258   1.816
  267TIP3    H1  734   2.697   1.291   1.857
  267TIP3    H2  735   2.804   1.333   1.758
  268TIP3   OH2  736   3.217   0.848   2.366
  268TIP3    H1  737   3.279   0.781   2.326
  268TIP3    H2  738   3.194   0.901   2.287
  269TIP3   OH2  739   3.093   0.993   2.169
  269TIP3    H1  740   3.005   1.033   2.179
  269TIP3    H2  741   3.066   0.913   2.119
  270TIP3   OH2  742   2.263   2.212   0.978
  270TIP3    H1  743   2.320   2.142   0.944
  270TIP3    H2  744   2.307   2.233   1.063
  271TIP3   OH2  745   1.329   1.843   2.435
  271TIP3    H1  746   1.366   1.854   2.344
  271TIP3    H2  747   1.354   1.930   2.472
  272TIP3   OH2  748   1.608   1.972   1.959
  272TIP3    H1  749   1.519   2.005   1.936
  272TIP3    H2  750   1.667   2.034   1.910
  273TIP3   OH2  751   2.017   2.233   2.088
  273TIP3    H1  752   2.058   2.237   2.177
  273TIP3    H2  753   2.082   2.284   2.035
  274TIP3   OH2  754   2.192   2.389   1.943
  274TIP3    H1  755   2.257   2.342   1.889
  274TIP3    H2  756   2.251   2.442   2.001
  275TIP3   OH2  757   2.993   0.758   2.074
  275TIP3    H1  758   2.917   0.761   2.014
  275TIP3    H2  759   3.026   0.666   2.060
  276TIP3   OH2  760   1.258   2.283   1.973
  276TIP3    H1  761   1.220   2.230   1.899
  276TIP3    H2  762   1.274   2.219   2.042
  277TIP3   OH2  763   1.486   2.244   1.818
  277TIP3    H1  764   1.427   2.272   1.890
  277TIP3    H2  765   1.422   2.232   1.747
  278TIP3   OH2  766   1.915   2.256   1.632
  278TIP3    H1  767   1.843   2.273   1.567
  278TIP3    H2  768   1.924   2.344   1.674
  279TIP3   OH2  769   2.179   2.183   1.682
  279TIP3    H1  770   2.087   2.211   1.663
  279TIP3    H2  771   2.230   2.243   1.625
  280TIP3   OH2  772   2.735   0.721   2.489
  280TIP3    H1  773   2.752   0.687   2.580
  280TIP3    H2  774   2.823   0.709   2.447
  281TIP3   OH2  775   3.932   1.637   0.736
  281TIP3    H1  776   3.900   1.727   0.714
  281TIP3    H2  777   3.860   1.583   0.700
  282TIP3   OH2  778   3.934   1.635   1.122
  282TIP3    H1  779   3.968   1.611   1.210
  282TIP3    H2  780   3.892   1.552   1.093
  283TIP3   OH2  781   3.232   1.525   1.485
  283TIP3    H1  782   3.261   1.455   1.547
  283TIP3    H2  783   3.309   1.584   1.489
  284TIP3   OH2  784   4.180   1.938   0.803
  284TIP3    H1  785   4.158   1.873   0.871
  284TIP3    H2  786   4.207   2.015   0.856
  285TIP3   OH2  787   3.206   1.943   1.209
  285TIP3    H1  788   3.197   1.845   1.211
  285TIP3    H2  789   3.302   1.953   1.202
  286TIP3   OH2  790   2.996   1.458   1.177
  286TIP3    H1  791   3.059   1.388   1.202
  286TIP3    H2  792   3.049   1.517   1.121
  287TIP3   OH2  793   3.830   2.403   0.819
  287TIP3    H1  794   3.870   2.330   0.768
  287TIP3    H2  795   3.815   2.360   0.905
  288TIP3   OH2  796   3.728   1.862   1.168
  288TIP3    H1  797   3.770   1.785   1.125
  288TIP3    H2  798   3.810   1.909   1.194
  289TIP3   OH2  799   4.746   1.182   1.168
  289TIP3    H1  800   4.776   1.265   1.210
  289TIP3    H2  801   4.755   1.204   1.074
  290TIP3   OH2  802   4.145   1.360   1.197
  290TIP3    H1  803   4.184   1.273   1.218
  290TIP3    H2  804   4.111   1.343   1.107
  291TIP3   OH2  805   3.490   1.007   1.177
  291TIP3    H1  806   3.447   1.078   1.129
  291TIP3    H2  807   3.420   0.939   1.184
  292TIP3   OH2  808   4.177   1.118   0.788
  292TIP3    H1  809   4.249   1.101   0.853
  292TIP3    H2  810   4.229   1.152   0.713
  293TIP3   OH2  811   3.121   1.229   1.259
  293TIP3    H1  812   3.207   1.211   1.302
  293TIP3    H2  813   3.102   1.143   1.218
  294TIP3   OH2  814   3.567   1.444   1.068
  294TIP3    H1  815   3.660   1.416   1.084
  294TIP3    H2  816   3.528   1.360   1.036
  295TIP3   OH2  817   4.818   1.392   1.335
  295TIP3    H1  818   4.734   1.436   1.314
  295TIP3    H2  819   4.828   1.417   1.428
  296TIP3   OH2  820   3.489   1.014   1.603
  296TIP3    H1  821   3.420   1.050   1.545
  296TIP3    H2  822   3.439   1.007   1.687
  297TIP3   OH2  823   3.820   1.856   0.606
  297TIP3    H1  824   3.786   1.850   0.515
  297TIP3    H2  825   3.775   1.937   0.637
  298TIP3   OH2  826   3.583   1.783   1.392
  298TIP3    H1  827   3.523   1.851   1.429
  298TIP3    H2  828   3.625   1.831   1.318
  299TIP3   OH2  829   4.381   1.123   0.963
  299TIP3    H1  830   4.361   1.072   1.042
  299TIP3    H2  831   4.430   1.199   0.997
  300TIP3   OH2  832   3.357   1.136   1.383
  300TIP3    H1  833   3.411   1.210   1.415
  300TIP3    H2  834   3.424   1.087   1.332
  301TIP3   OH2  835   3.412   1.978   1.493
  301TIP3    H1  836   3.387   2.065   1.456
  301TIP3    H2  837   3.333   1.961   1.549
  302TIP3   OH2  838   4.243   2.181   0.963
  302TIP3    H1  839   4.155   2.172   1.006
  302TIP3    H2  840   4.234   2.269   0.922
  303TIP3   OH2  841   4.536   1.080   1.334
  303TIP3    H1  842   4.448   1.103   1.300
  303TIP3    H2  843   4.594   1.113   1.262
  304TIP3   OH2  844   3.834   0.729   1.324
  304TIP3    H1  845   3.814   0.636   1.348
  304TIP3    H2  846   3.759   0.773   1.372
  305TIP3   OH2  847   3.944   2.225   0.639
  305TIP3    H1  848   3.993   2.141   0.622
  305TIP3    H2  849   4.010   2.288   0.600
  306TIP3   OH2  850   4.090   2.009   0.552
  306TIP3    H1  851   4.049   1.930   0.515
  306TIP3    H2  852   4.128   1.975   0.636
  307TIP3   OH2  853   4.472   2.091   1.316
  307TIP3    H1  854   4.459   2.017   1.254
  307TIP3    H2  855   4.455   2.169   1.259
  308TIP3   OH2  856   3.769   1.481   0.568
  308TIP3    H1  857   3.690   1.535   0.546
  308TIP3    H2  858   3.810   1.466   0.480
  309TIP3   OH2  859   4.667   1.733   1.159
  309TIP3    H1  860   4.582   1.782   1.164
  309TIP3    H2  861   4.695   1.759   1.068
  310TIP3   OH2  862   4.119   1.577   0.546
  310TIP3    H1  863   4.060   1.597   0.623
  310TIP3    H2  864   4.200   1.550   0.592
  311TIP3   OH2  865   4.344   1.608   1.455
  311TIP3    H1  866   4.340   1.693   1.504
  311TIP3    H2  867   4.257   1.610   1.410
  312TIP3   OH2  868   3.345   1.567   0.959
  312TIP3    H1  869   3.324   1.513   0.881
  312TIP3    H2  870   3.426   1.523   0.994
  313TIP3   OH2  871   3.472   1.979   1.106
  313TIP3    H1  872   3.452   1.946   1.018
  313TIP3    H2  873   3.561   1.942   1.123
  314TIP3   OH2  874   3.480   1.541   1.314
  314TIP3    H1  875   3.518   1.519   1.226
  314TIP3    H2  876   3.522   1.627   1.334
  315TIP3   OH2  877   4.005   2.175   1.090
  315TIP3    H1  878   3.991   2.257   1.141
  315TIP3    H2  879   3.987   2.105   1.155
  316TIP3   OH2  880   3.617   2.094   1.637
  316TIP3    H1  881   3.556   2.155   1.683
  316TIP3    H2  882   3.553   2.041   1.586
  317TIP3   OH2  883   3.972   1.421   0.373
  317TIP3    H1  884   4.023   1.488   0.423
  317TIP3    H2  885   3.991   1.445   0.280
  318TIP3   OH2  886   3.371   1.649   1.739
  318TIP3    H1  887   3.376   1.737   1.781
  318TIP3    H2  888   3.277   1.627   1.757
  319TIP3   OH2  889   3.696   2.101   0.652
  319TIP3    H1  890   3.776   2.158   0.655
  319TIP3    H2  891   3.636   2.151   0.594
  320TIP3   OH2  892   3.410   2.261   1.725
  320TIP3    H1  893   3.375   2.264   1.634
  320TIP3    H2  894   3.330   2.238   1.777
  321TIP3   OH2  895   4.260   2.042  -0.048
  321TIP3    H1  896   4.272   2.139  -0.058
  321TIP3    H2  897   4.352   2.010  -0.047
  322TIP3   OH2  898   2.990   1.792   1.670
  322TIP3    H1  899   2.922   1.770   1.604
  322TIP3    H2  900   3.028   1.705   1.693
  323TIP3   OH2  901   2.843   1.986   1.301
  323TIP3    H1  902   2.939   1.999   1.302
  323TIP3    H2  903   2.813   2.064   1.352
  324TIP3   OH2  904   3.813   2.222   1.494
  324TIP3    H1  905   3.810   2.315   1.527
  324TIP3    H2  906   3.741   2.182   1.548
  325TIP3   OH2  907   3.577   2.353   0.445
  325TIP3    H1  908   3.535   2.339   0.358
  325TIP3    H2  909   3.544   2.440   0.472
  326TIP3   OH2  910   3.025   2.220   0.830
  326TIP3    H1  911   3.064   2.202   0.918
  326TIP3    H2  912   2.971   2.139   0.816
  327TIP3   OH2  913   3.763   2.246   0.096
  327TIP3    H1  914   3.825   2.191   0.043
  327TIP3    H2  915   3.811   2.254   0.181
  328TIP3   OH2  916   3.830   2.297   0.366
  328TIP3    H1  917   3.739   2.307   0.400
  328TIP3    H2  918   3.875   2.259   0.444
  329TIP3   OH2  919   4.600   1.570   1.633
  329TIP3    H1  920   4.515   1.583   1.588
  329TIP3    H2  921   4.612   1.474   1.622
  330TIP3   OH2  922   3.193   1.977   1.657
  330TIP3    H1  923   3.242   1.960   1.740
  330TIP3    H2  924   3.119   1.914   1.664
  331TIP3   OH2  925   3.608   0.822   1.442
  331TIP3    H1  926   3.520   0.780   1.441
  331TIP3    H2  927   3.590   0.890   1.508
  332TIP3   OH2  928   4.125   0.913   1.639
  332TIP3    H1  929   4.192   0.887   1.705
  332TIP3    H2  930   4.040   0.895   1.685
  333TIP3   OH2  931   4.368   1.348   1.561
  333TIP3    H1  932   4.313   1.343   1.642
  333TIP3    H2  933   4.340   1.433   1.521
  334TIP3   OH2  934   4.047   1.482   0.117
  334TIP3    H1  935   4.013   1.470   0.027
  334TIP3    H2  936   4.123   1.540   0.101
  335TIP3   OH2  937   3.533   1.324   1.468
  335TIP3    H1  938   3.482   1.342   1.550
  335TIP3    H2  939   3.514   1.406   1.415
  336TIP3   OH2  940   3.422   1.231   0.971
  336TIP3    H1  941   3.337   1.187   0.986
  336TIP3    H2  942   3.465   1.165   0.913
  337TIP3   OH2  943   3.904   1.285   0.707
  337TIP3    H1  944   3.856   1.357   0.660
  337TIP3    H2  945   3.954   1.245   0.633
  338TIP3   OH2  946   4.074   1.562   1.789
  338TIP3    H1  947   4.051   1.491   1.852
  338TIP3    H2  948   4.168   1.577   1.811
  339TIP3   OH2  949   4.055   1.314   0.942
  339TIP3    H1  950   3.992   1.340   0.871
  339TIP3    H2  951   4.092   1.234   0.899
  340TIP3   OH2  952   3.347   1.340   1.670
  340TIP3    H1  953   3.367   1.403   1.740
  340TIP3    H2  954   3.333   1.257   1.720
  341TIP3   OH2  955   4.069   1.558   1.362
  341TIP3    H1  956   4.102   1.487   1.303
  341TIP3    H2  957   4.036   1.505   1.437
  342TIP3   OH2  958   3.741   1.014   1.038
  342TIP3    H1  959   3.667   1.017   1.101
  342TIP3    H2  960   3.817   1.019   1.099
  343TIP3   OH2  961   4.228   1.096   1.240
  343TIP3    H1  962   4.196   1.112   1.331
  343TIP3    H2  963   4.160   1.032   1.209
  344TIP3   OH2  964   4.396   2.803   1.458
  344TIP3    H1  965   4.402   2.816   1.362
  344TIP3    H2  966   4.482   2.835   1.488
  345TIP3   OH2  967   3.357   1.897   1.878
  345TIP3    H1  968   3.435   1.930   1.927
  345TIP3    H2  969   3.292   1.894   1.951
  346TIP3   OH2  970   3.819   1.352   1.136
  346TIP3    H1  971   3.895   1.313   1.091
  346TIP3    H2  972   3.822   1.309   1.224
  347TIP3   OH2  973   3.796   1.259   1.413
  347TIP3    H1  974   3.706   1.289   1.435
  347TIP3    H2  975   3.852   1.316   1.469
  348TIP3   OH2  976   3.528   1.625   0.535
  348TIP3    H1  977   3.432   1.623   0.526
  348TIP3    H2  978   3.533   1.668   0.623
  349TIP3   OH2  979   4.431   1.873   1.147
  349TIP3    H1  980   4.454   1.926   1.068
  349TIP3    H2  981   4.346   1.832   1.121
  350TIP3   OH2  982   3.928   1.958   1.516
  350TIP3    H1  983   3.958   1.941   1.607
  350TIP3    H2  984   3.892   2.048   1.521
  351TIP3   OH2  985   4.052   1.186   0.490
  351TIP3    H1  986   4.148   1.199   0.500
  351TIP3    H2  987   4.024   1.265   0.439
  352TIP3   OH2  988   3.228   1.664   1.193
  352TIP3    H1  989   3.271   1.635   1.110
  352TIP3    H2  990   3.272   1.609   1.259
  353TIP3   OH2  991   3.667   1.787   0.356
  353TIP3    H1  992   3.628   1.877   0.367
  353TIP3    H2  993   3.613   1.736   0.420
  354TIP3   OH2  994   3.109   1.577   1.807
  354TIP3    H1  995   3.120   1.561   1.903
  354TIP3    H2  996   3.038   1.513   1.786
  355TIP3   OH2  997   3.832   1.698   1.827
  355TIP3    H1  998   3.769   1.637   1.786
  355TIP3    H2  999   3.917   1.660   1.796
  356TIP3   OH2 1000   4.090   2.213   1.416
  356TIP3    H1 1001   3.993   2.216   1.429
  356TIP3    H2 1002   4.119   2.269   1.491
  357TIP3   OH2 1003   4.492   1.294   0.320
  357TIP3    H1 1004   4.446   1.238   0.254
  357TIP3    H2 1005   4.477   1.382   0.280
  358TIP3   OH2 1006   4.733   2.124   1.415
  358TIP3    H1 1007   4.639   2.153   1.411
  358TIP3    H2 1008   4.750   2.112   1.319
  359TIP3   OH2 1009   4.224   2.106   0.230
  359TIP3    H1 1010   4.169   2.056   0.291
  359TIP3    H2 1011   4.207   2.062   0.145
  360TIP3   OH2 1012   4.197   1.738   1.062
  360TIP3    H1 1013   4.104   1.715   1.077
  360TIP3    H2 1014   4.229   1.657   1.018
  361TIP3   OH2 1015   3.325   1.968   0.815
  361TIP3    H1 1016   3.322   2.051   0.764
  361TIP3    H2 1017   3.231   1.951   0.827
  362TIP3   OH2 1018   3.462   1.736   0.768
  362TIP3    H1 1019   3.427   1.827   0.782
  362TIP3    H2 1020   3.426   1.691   0.847
  363TIP3   OH2 1021   3.597   2.310   1.287
  363TIP3    H1 1022   3.639   2.382   1.237
  363TIP3    H2 1023   3.673   2.272   1.335
  364TIP3   OH2 1024   3.248   2.205   0.668
  364TIP3    H1 1025   3.164   2.217   0.717
  364TIP3    H2 1026   3.282   2.297   0.669
  365TIP3   OH2 1027   3.980   1.942   1.249
  365TIP3    H1 1028   3.969   1.942   1.347
  365TIP3    H2 1029   4.062   1.892   1.239
  366TIP3   OH2 1030   3.974   1.851   0.120
  366TIP3    H1 1031   4.009   1.822   0.206
  366TIP3    H2 1032   3.896   1.793   0.109
  367TIP3   OH2 1033   4.229   2.473   1.290
  367TIP3    H1 1034   4.147   2.420   1.281
  367TIP3    H2 1035   4.216   2.540   1.219
  368TIP3   OH2 1036   4.296   2.318  -0.056
  368TIP3    H1 1037   4.335   2.399  -0.093
  368TIP3    H2 1038   4.215   2.359  -0.016
  369TIP3   OH2 1039   3.311   1.085   1.811
  369TIP3    H1 1040   3.218   1.104   1.836
  369TIP3    H2 1041   3.338   1.023   1.880
  370TIP3   OH2 1042   4.118   1.767   0.348
  370TIP3    H1 1043   4.110   1.704   0.423
  370TIP3    H2 1044   4.215   1.767   0.336
  371TIP3   OH2 1045   3.041   2.169   1.439
  371TIP3    H1 1046   3.090   2.096   1.481
  371TIP3    H2 1047   3.060   2.241   1.500
  372TIP3   OH2 1048   3.304   1.825   0.395
  372TIP3    H1 1049   3.303   1.813   0.491
  372TIP3    H2 1050   3.284   1.921   0.391
  373TIP3   OH2 1051   4.158   1.150   1.500
  373TIP3    H1 1052   4.237   1.187   1.544
  373TIP3    H2 1053   4.141   1.069   1.552
  374TIP3   OH2 1054   4.030   0.929   0.654
  374TIP3    H1 1055   4.018   0.974   0.568
  374TIP3    H2 1056   4.070   1.002   0.706
  375TIP3   OH2 1057   3.543   2.026   0.377
  375TIP3    H1 1058   3.455   2.057   0.405
  375TIP3    H2 1059   3.539   2.043   0.281
  376TIP3   OH2 1060   3.723   1.080   0.750
  376TIP3    H1 1061   3.786   1.155   0.746
  376TIP3    H2 1062   3.719   1.064   0.846
  377TIP3   OH2 1063   3.993   1.400   1.570
  377TIP3    H1 1064   4.016   1.452   1.650
  377TIP3    H2 1065   4.044   1.318   1.584
  378TIP3   OH2 1066   3.939   0.851   0.905
  378TIP3    H1 1067   3.863   0.911   0.914
  378TIP3    H2 1068   3.957   0.859   0.809
  379TIP3   OH2 1069   3.276   2.092   0.418
  379TIP3    H1 1070   3.249   2.165   0.358
  379TIP3    H2 1071   3.260   2.133   0.506
  380TIP3   OH2 1072   4.632   1.300   1.554
  380TIP3    H1 1073   4.534   1.302   1.565
  380TIP3    H2 1074   4.637   1.253   1.470
  381TIP3   OH2 1075   4.283   1.493   0.941
  381TIP3    H1 1076   4.205   1.436   0.954
  381TIP3    H2 1077   4.352   1.444   0.991
  382TIP3   OH2 1078   4.252   2.452   0.891
  382TIP3    H1 1079   4.209   2.497   0.815
  382TIP3    H2 1080   4.346   2.467   0.868
  383TIP3   OH2 1081   3.338   0.754   1.480
  383TIP3    H1 1082   3.325   0.695   1.404
  383TIP3    H2 1083   3.340   0.687   1.551
  384TIP3   OH2 1084   2.891   1.984   0.782
  384TIP3    H1 1085   2.811   1.935   0.809
  384TIP3    H2 1086   2.923   1.927   0.708
  385TIP3   OH2 1087   3.022   2.457   1.907
  385TIP3    H1 1088   3.114   2.474   1.938
  385TIP3    H2 1089   3.036   2.373   1.857
  386TIP3   OH2 1090   3.505   2.442   1.914
  386TIP3    H1 1091   3.600   2.423   1.919
  386TIP3    H2 1092   3.477   2.381   1.844
  387TIP3   OH2 1093   3.487   2.025   0.103
  387TIP3    H1 1094   3.432   1.947   0.108
  387TIP3    H2 1095   3.519   2.016   0.011
  388TIP3   OH2 1096   4.141   2.354   1.650
  388TIP3    H1 1097   4.135   2.283   1.719
  388TIP3    H2 1098   4.218   2.405   1.680
  389TIP3   OH2 1099   3.937   2.069  -0.039
  389TIP3    H1 1100   3.942   1.991   0.020
  389TIP3    H2 1101   4.025   2.070  -0.077
  390TIP3   OH2 1102   3.156   1.874   2.067
  390TIP3    H1 1103   3.168   1.777   2.070
  390TIP3    H2 1104   3.070   1.883   2.022
  391TIP3   OH2 1105   3.763   1.975   1.843
  391TIP3    H1 1106   3.720   1.995   1.757
  391TIP3    H2 1107   3.791   1.882   1.832
  392TIP3   OH2 1108   3.746   1.691   0.100
  392TIP3    H1 1109   3.714   1.724   0.187
  392TIP3    H2 1110   3.663   1.678   0.052
  393TIP3   OH2 1111   4.254   1.984   1.452
  393TIP3    H1 1112   4.331   2.027   1.409
  393TIP3    H2 1113   4.186   2.053   1.437
  394TIP3   OH2 1114   3.275   1.620   2.056
  394TIP3    H1 1115   3.351   1.567   2.030
  394TIP3    H2 1116   3.306   1.658   2.141
  395TIP3   OH2 1117   3.611   1.509   1.716
  395TIP3    H1 1118   3.530   1.565   1.714
  395TIP3    H2 1119   3.661   1.543   1.638
  396TIP3   OH2 1120   4.128   1.909   1.848
  396TIP3    H1 1121   4.201   1.873   1.795
  396TIP3    H2 1122   4.120   1.842   1.919
  397TIP3   OH2 1123   4.272   1.578  -0.034
  397TIP3    H1 1124   4.277   1.536  -0.121
  397TIP3    H2 1125   4.258   1.671  -0.055
  398TIP3   OH2 1126   3.736   1.299   1.837
  398TIP3    H1 1127   3.736   1.219   1.781
  398TIP3    H2 1128   3.689   1.364   1.781
  399TIP3   OH2 1129   3.744   1.091   1.648
  399TIP3    H1 1130   3.769   1.125   1.560
  399TIP3    H2 1131   3.650   1.066   1.633
  400TIP3   OH2 1132   3.758   1.616   1.519
  400TIP3    H1 1133   3.844   1.632   1.478
  400TIP3    H2 1134   3.702   1.682   1.474
  401TIP3   OH2 1135   4.341   1.581   1.898
  401TIP3    H1 1136   4.391   1.499   1.910
  401TIP3    H2 1137   4.408   1.640   1.861
  402TIP3   OH2 1138   4.379   1.836   1.640
  402TIP3    H1 1139   4.323   1.891   1.581
  402TIP3    H2 1140   4.468   1.857   1.603
  403TIP3   OH2 1141   3.615   1.403   2.072
  403TIP3    H1 1142   3.547   1.334   2.088
  403TIP3    H2 1143   3.646   1.379   1.983
  404TIP3   OH2 1144   3.859   0.845   1.717
  404TIP3    H1 1145   3.815   0.930   1.695
  404TIP3    H2 1146   3.782   0.786   1.728
  405TIP3   OH2 1147   3.993   1.345   1.932
  405TIP3    H1 1148   3.974   1.329   2.026
  405TIP3    H2 1149   3.905   1.323   1.895
  406TIP3   OH2 1150   4.231   1.296   1.787
  406TIP3    H1 1151   4.155   1.299   1.850
  406TIP3    H2 1152   4.304   1.266   1.844
  407TIP3   OH2 1153   4.468   1.241   1.935
  407TIP3    H1 1154   4.477   1.145   1.951
  407TIP3    H2 1155   4.460   1.277   2.025
  408TIP3   OH2 1156   3.453   1.188   2.131
  408TIP3    H1 1157   3.447   1.095   2.102
  408TIP3    H2 1158   3.490   1.176   2.221
  409TIP3   OH2 1159   3.967   0.856   1.971
  409TIP3    H1 1160   4.026   0.779   1.963
  409TIP3    H2 1161   3.916   0.848   1.888
  410TIP3   OH2 1162   4.030   1.069   2.132
  410TIP3    H1 1163   4.009   0.998   2.068
  410TIP3    H2 1164   3.950   1.125   2.127
  411TIP3   OH2 1165   3.238   2.284   0.226
  411TIP3    H1 1166   3.333   2.296   0.203
  411TIP3    H2 1167   3.194   2.344   0.164
  412TIP3   OH2 1168   2.640   2.288   0.856
  412TIP3    H1 1169   2.576   2.224   0.823
  412TIP3    H2 1170   2.687   2.234   0.924
  413TIP3   OH2 1171   2.763   2.157   1.060
  413TIP3    H1 1172   2.761   2.078   1.116
  413TIP3    H2 1173   2.828   2.212   1.108
  414TIP3   OH2 1174   4.514   2.526   0.849
  414TIP3    H1 1175   4.522   2.554   0.943
  414TIP3    H2 1176   4.558   2.599   0.804
  415TIP3   OH2 1177   4.526   2.569   1.121
  415TIP3    H1 1178   4.508   2.475   1.143
  415TIP3    H2 1179   4.605   2.588   1.178
  416TIP3   OH2 1180   4.588   2.230   1.713
  416TIP3    H1 1181   4.510   2.242   1.771
  416TIP3    H2 1182   4.619   2.322   1.704
  417TIP3   OH2 1183   4.398   1.743   0.321
  417TIP3    H1 1184   4.463   1.810   0.293
  417TIP3    H2 1185   4.440   1.710   0.404
  418TIP3   OH2 1186   4.524   1.624   0.532
  418TIP3    H1 1187   4.457   1.579   0.588
  418TIP3    H2 1188   4.585   1.661   0.599
  419TIP3   OH2 1189   4.583   2.012   0.962
  419TIP3    H1 1190   4.633   1.945   0.912
  419TIP3    H2 1191   4.581   2.087   0.900
  420TIP3   OH2 1192   4.412   2.309   1.155
  420TIP3    H1 1193   4.342   2.357   1.205
  420TIP3    H2 1194   4.360   2.266   1.084
  421TIP3   OH2 1195   4.453   1.523   0.168
  421TIP3    H1 1196   4.388   1.537   0.096
  421TIP3    H2 1197   4.430   1.598   0.227
  422TIP3   OH2 1198   4.327   1.181   0.111
  422TIP3    H1 1199   4.283   1.263   0.085
  422TIP3    H2 1200   4.249   1.125   0.134
  423TIP3   OH2 1201   4.344   1.477   0.674
  423TIP3    H1 1202   4.340   1.380   0.664
  423TIP3    H2 1203   4.326   1.488   0.771
  424TIP3   OH2 1204   2.969   1.561   1.432
  424TIP3    H1 1205   2.967   1.529   1.339
  424TIP3    H2 1206   3.066   1.559   1.449
  425TIP3   OH2 1207   4.627   1.897   1.540
  425TIP3    H1 1208   4.701   1.835   1.523
  425TIP3    H2 1209   4.648   1.971   1.480
  426TIP3   OH2 1210   4.819   1.703   1.541
  426TIP3    H1 1211   4.742   1.658   1.581
  426TIP3    H2 1212   4.889   1.636   1.559
  427TIP3   OH2 1213   4.333   1.201   0.566
  427TIP3    H1 1214   4.372   1.111   0.582
  427TIP3    H2 1215   4.391   1.233   0.496
  428TIP3   OH2 1216   4.496   1.361   1.065
  428TIP3    H1 1217   4.581   1.386   1.023
  428TIP3    H2 1218   4.509   1.402   1.153
  429TIP3   OH2 1219   4.568   1.511   1.292
  429TIP3    H1 1220   4.490   1.543   1.342
  429TIP3    H2 1221   4.599   1.594   1.249
  430TIP3   OH2 1222   3.188   1.245   2.116
  430TIP3    H1 1223   3.286   1.236   2.112
  430TIP3    H2 1224   3.164   1.155   2.147
  431TIP3   OH2 1225   5.015   1.105   1.850
  431TIP3    H1 1226   5.078   1.040   1.811
  431TIP3    H2 1227   4.987   1.155   1.770
  432TIP3   OH2 1228   4.444   0.953   0.607
  432TIP3    H1 1229   4.478   0.941   0.699
  432TIP3    H2 1230   4.383   0.876   0.604
  433TIP3   OH2 1231   3.158   0.949   1.451
  433TIP3    H1 1232   3.223   0.887   1.489
  433TIP3    H2 1233   3.209   1.031   1.450
  434TIP3   OH2 1234   2.968   1.216   1.497
  434TIP3    H1 1235   3.009   1.227   1.409
  434TIP3    H2 1236   2.980   1.303   1.537
  435TIP3   OH2 1237   4.885   1.240   1.650
  435TIP3    H1 1238   4.799   1.283   1.666
  435TIP3    H2 1239   4.855   1.164   1.595
  436TIP3   OH2 1240   4.098   2.404   0.508
  436TIP3    H1 1241   4.144   2.404   0.421
  436TIP3    H2 1242   4.138   2.480   0.553
  437TIP3   OH2 1243   3.129   0.750   1.821
  437TIP3    H1 1244   3.126   0.777   1.913
  437TIP3    H2 1245   3.072   0.817   1.779
  438TIP3   OH2 1246   3.189   2.214   1.893
  438TIP3    H1 1247   3.103   2.168   1.886
  438TIP3    H2 1248   3.205   2.197   1.989
  439TIP3   OH2 1249   3.372   2.249   1.438
  439TIP3    H1 1250   3.322   2.323   1.398
  439TIP3    H2 1251   3.457   2.264   1.393
  440TIP3   OH2 1252   3.811   2.490   1.575
  440TIP3    H1 1253   3.853   2.491   1.663
  440TIP3    H2 1254   3.877   2.541   1.523
  441TIP3   OH2 1255   3.992   2.643   1.436
  441TIP3    H1 1256   4.063   2.594   1.394
  441TIP3    H2 1257   4.043   2.701   1.497
  442TIP3   OH2 1258   4.788   1.004   1.534
  442TIP3    H1 1259   4.698   0.995   1.498
  442TIP3    H2 1260   4.821   0.912   1.527
  443TIP3   OH2 1261   3.043   2.509   1.462
  443TIP3    H1 1262   2.950   2.531   1.441
  443TIP3    H2 1263   3.056   2.560   1.543
  444TIP3   OH2 1264   3.281   2.482   1.321
  444TIP3    H1 1265   3.193   2.494   1.364
  444TIP3    H2 1266   3.262   2.513   1.230
  445TIP3   OH2 1267   3.706   2.508   1.118
  445TIP3    H1 1268   3.635   2.525   1.054
  445TIP3    H2 1269   3.717   2.597   1.159
  446TIP3   OH2 1270   3.975   2.445   1.169
  446TIP3    H1 1271   3.881   2.465   1.150
  446TIP3    H2 1272   4.020   2.520   1.126
  447TIP3   OH2 1273   4.177   2.640   1.081
  447TIP3    H1 1274   4.166   2.725   1.033
  447TIP3    H2 1275   4.207   2.580   1.009
  448TIP3   OH2 1276   2.958   2.297   1.203
  448TIP3    H1 1277   2.981   2.268   1.294
  448TIP3    H2 1278   3.030   2.253   1.153
  449TIP3   OH2 1279   3.154   2.169   1.067
  449TIP3    H1 1280   3.168   2.086   1.118
  449TIP3    H2 1281   3.245   2.204   1.062
  450TIP3   OH2 1282   3.421   2.261   1.070
  450TIP3    H1 1283   3.451   2.169   1.059
  450TIP3    H2 1284   3.467   2.284   1.152
  451TIP3   OH2 1285   3.998   0.928   1.174
  451TIP3    H1 1286   3.953   0.856   1.223
  451TIP3    H2 1287   4.010   0.887   1.086
  452TIP3   OH2 1288   4.521   0.807   1.068
  452TIP3    H1 1289   4.546   0.864   0.992
  452TIP3    H2 1290   4.423   0.809   1.059
  453TIP3   OH2 1291   4.592   0.923   0.836
  453TIP3    H1 1292   4.666   0.863   0.812
  453TIP3    H2 1293   4.632   1.011   0.821
  454TIP3   OH2 1294   3.696   0.658   1.085
  454TIP3    H1 1295   3.702   0.735   1.027
  454TIP3    H2 1296   3.726   0.696   1.170
  455TIP3   OH2 1297   4.254   0.805   1.028
  455TIP3    H1 1298   4.208   0.786   0.945
  455TIP3    H2 1299   4.217   0.735   1.087
  456TIP3   OH2 1300   4.267   0.745   0.637
  456TIP3    H1 1301   4.180   0.788   0.632
  456TIP3    H2 1302   4.256   0.677   0.707
  457TIP3   OH2 1303   3.507   2.291   0.173
  457TIP3    H1 1304   3.599   2.305   0.142
  457TIP3    H2 1305   3.499   2.197   0.145
  458TIP3   OH2 1306   4.250   2.380   0.272
  458TIP3    H1 1307   4.237   2.284   0.258
  458TIP3    H2 1308   4.196   2.418   0.200
  459TIP3   OH2 1309   3.437   0.924   2.062
  459TIP3    H1 1310   3.407   0.832   2.051
  459TIP3    H2 1311   3.533   0.907   2.070
  460TIP3   OH2 1312   3.709   0.914   2.191
  460TIP3    H1 1313   3.780   0.877   2.136
  460TIP3    H2 1314   3.684   0.836   2.244
  461TIP3   OH2 1315   4.525   0.968   1.966
  461TIP3    H1 1316   4.542   0.937   2.058
  461TIP3    H2 1317   4.615   0.963   1.927
  462TIP3   OH2 1318   4.428   2.505   1.487
  462TIP3    H1 1319   4.359   2.491   1.420
  462TIP3    H2 1320   4.475   2.583   1.453
  463TIP3   OH2 1321   5.726   1.878   0.603
  463TIP3    H1 1322   5.766   1.876   0.692
  463TIP3    H2 1323   5.679   1.792   0.604
  464TIP3   OH2 1324   5.030   1.785   0.966
  464TIP3    H1 1325   5.055   1.713   1.027
  464TIP3    H2 1326   5.096   1.851   0.989
  465TIP3   OH2 1327   5.970   2.199   0.298
  465TIP3    H1 1328   5.968   2.138   0.373
  465TIP3    H2 1329   6.003   2.281   0.341
  466TIP3   OH2 1330   4.993   2.203   0.673
  466TIP3    H1 1331   4.985   2.105   0.684
  466TIP3    H2 1332   5.086   2.216   0.695
  467TIP3   OH2 1333   4.706   1.423   0.487
  467TIP3    H1 1334   4.647   1.499   0.503
  467TIP3    H2 1335   4.643   1.359   0.451
  468TIP3   OH2 1336   4.763   1.690   0.659
  468TIP3    H1 1337   4.809   1.609   0.690
  468TIP3    H2 1338   4.821   1.719   0.587
  469TIP3   OH2 1339   5.621   2.659   0.308
  469TIP3    H1 1340   5.663   2.581   0.264
  469TIP3    H2 1341   5.609   2.627   0.398
  470TIP3   OH2 1342   5.525   2.121   0.650
  470TIP3    H1 1343   5.567   2.043   0.611
  470TIP3    H2 1344   5.606   2.166   0.683
  471TIP3   OH2 1345   5.942   1.625   0.683
  471TIP3    H1 1346   5.976   1.545   0.724
  471TIP3    H2 1347   5.886   1.585   0.613
  472TIP3   OH2 1348   5.259   1.310   0.672
  472TIP3    H1 1349   5.227   1.373   0.604
  472TIP3    H2 1350   5.243   1.224   0.629
  473TIP3   OH2 1351   4.907   1.479   0.754
  473TIP3    H1 1352   4.985   1.463   0.811
  473TIP3    H2 1353   4.921   1.414   0.683
  474TIP3   OH2 1354   5.356   1.691   0.545
  474TIP3    H1 1355   5.446   1.659   0.568
  474TIP3    H2 1356   5.308   1.607   0.530
  475TIP3   OH2 1357   6.582   1.617   0.854
  475TIP3    H1 1358   6.522   1.686   0.821
  475TIP3    H2 1359   6.658   1.669   0.885
  476TIP3   OH2 1360   5.271   1.262   1.092
  476TIP3    H1 1361   5.209   1.305   1.029
  476TIP3    H2 1362   5.221   1.276   1.175
  477TIP3   OH2 1363   5.601   2.115   0.088
  477TIP3    H1 1364   5.568   2.115  -0.006
  477TIP3    H2 1365   5.570   2.205   0.115
  478TIP3   OH2 1366   5.381   2.038   0.878
  478TIP3    H1 1367   5.319   2.104   0.917
  478TIP3    H2 1368   5.421   2.090   0.806
  479TIP3   OH2 1369   5.130   1.392   0.893
  479TIP3    H1 1370   5.190   1.465   0.920
  479TIP3    H2 1371   5.180   1.358   0.815
  480TIP3   OH2 1372   5.210   2.233   0.974
  480TIP3    H1 1373   5.187   2.324   0.945
  480TIP3    H2 1374   5.131   2.214   1.030
  481TIP3   OH2 1375   4.596   1.911   0.214
  481TIP3    H1 1376   4.556   1.929   0.126
  481TIP3    H2 1377   4.609   2.000   0.249
  482TIP3   OH2 1378   6.037   2.439   0.448
  482TIP3    H1 1379   5.949   2.431   0.490
  482TIP3    H2 1380   6.031   2.527   0.406
  483TIP3   OH2 1381   5.739   2.469   0.144
  483TIP3    H1 1382   5.787   2.387   0.118
  483TIP3    H2 1383   5.798   2.535   0.101
  484TIP3   OH2 1384   5.873   2.250   0.045
  484TIP3    H1 1385   5.817   2.172   0.037
  484TIP3    H2 1386   5.925   2.228   0.125
  485TIP3   OH2 1387   6.265   2.349   0.800
  485TIP3    H1 1388   6.254   2.273   0.740
  485TIP3    H2 1389   6.247   2.425   0.740
  486TIP3   OH2 1390   6.458   1.994   0.659
  486TIP3    H1 1391   6.373   2.042   0.652
  486TIP3    H2 1392   6.494   2.007   0.569
  487TIP3   OH2 1393   6.129   1.872   0.950
  487TIP3    H1 1394   6.130   1.950   1.009
  487TIP3    H2 1395   6.042   1.882   0.907
  488TIP3   OH2 1396   5.139   1.821   0.437
  488TIP3    H1 1397   5.100   1.758   0.374
  488TIP3    H2 1398   5.215   1.770   0.473
  489TIP3   OH2 1399   5.276   2.245   0.588
  489TIP3    H1 1400   5.250   2.196   0.509
  489TIP3    H2 1401   5.363   2.206   0.609
  490TIP3   OH2 1402   5.287   1.791   0.798
  490TIP3    H1 1403   5.315   1.778   0.706
  490TIP3    H2 1404   5.321   1.881   0.820
  491TIP3   OH2 1405   5.800   2.431   0.577
  491TIP3    H1 1406   5.787   2.515   0.625
  491TIP3    H2 1407   5.781   2.363   0.644
  492TIP3   OH2 1408   5.413   2.350   1.123
  492TIP3    H1 1409   5.351   2.411   1.169
  492TIP3    H2 1410   5.349   2.297   1.071
  493TIP3   OH2 1411   5.165   1.907   1.222
  493TIP3    H1 1412   5.171   1.995   1.264
  493TIP3    H2 1413   5.072   1.884   1.242
  494TIP3   OH2 1414   5.492   2.354   0.137
  494TIP3    H1 1415   5.575   2.407   0.143
  494TIP3    H2 1416   5.433   2.414   0.089
  495TIP3   OH2 1417   5.206   2.510   1.213
  495TIP3    H1 1418   5.167   2.521   1.124
  495TIP3    H2 1419   5.128   2.483   1.266
  496TIP3   OH2 1420   5.008   1.665   0.233
  496TIP3    H1 1421   4.935   1.710   0.184
  496TIP3    H2 1422   4.960   1.590   0.270
  497TIP3   OH2 1423   4.786   2.053   1.156
  497TIP3    H1 1424   4.713   2.034   1.093
  497TIP3    H2 1425   4.819   1.964   1.179
  498TIP3   OH2 1426   4.646   2.237   0.797
  498TIP3    H1 1427   4.740   2.255   0.809
  498TIP3    H2 1428   4.605   2.317   0.834
  499TIP3   OH2 1429   6.505   2.697   0.850
  499TIP3    H1 1430   6.502   2.601   0.865
  499TIP3    H2 1431   6.421   2.725   0.894
  500TIP3   OH2 1432   5.608   2.478   0.980
  500TIP3    H1 1433   5.606   2.571   1.013
  500TIP3    H2 1434   5.537   2.438   1.035
  501TIP3   OH2 1435   5.378   2.618  -0.073
  501TIP3    H1 1436   5.309   2.601  -0.138
  501TIP3    H2 1437   5.350   2.703  -0.034
  502TIP3   OH2 1438   5.605   2.492  -0.161
  502TIP3    H1 1439   5.525   2.537  -0.127
  502TIP3    H2 1440   5.672   2.524  -0.098
  503TIP3   OH2 1441   6.396   1.825   1.134
  503TIP3    H1 1442   6.318   1.831   1.078
  503TIP3    H2 1443   6.413   1.728   1.133
  504TIP3   OH2 1444   4.990   2.232   1.133
  504TIP3    H1 1445   5.025   2.236   1.224
  504TIP3    H2 1446   4.915   2.171   1.144
  505TIP3   OH2 1447   5.376   1.064   0.931
  505TIP3    H1 1448   5.288   1.030   0.905
  505TIP3    H2 1449   5.349   1.140   0.987
  506TIP3   OH2 1450   5.920   1.162   1.118
  506TIP3    H1 1451   5.988   1.148   1.187
  506TIP3    H2 1452   5.837   1.151   1.168
  507TIP3   OH2 1453   6.158   1.603   1.035
  507TIP3    H1 1454   6.113   1.598   1.122
  507TIP3    H2 1455   6.136   1.693   1.006
  508TIP3   OH2 1456   5.329   1.574   0.953
  508TIP3    H1 1457   5.281   1.598   1.035
  508TIP3    H2 1458   5.313   1.655   0.898
  509TIP3   OH2 1459   5.188   1.484   0.473
  509TIP3    H1 1460   5.101   1.437   0.472
  509TIP3    H2 1461   5.228   1.454   0.388
  510TIP3   OH2 1462   5.868   1.819   1.273
  510TIP3    H1 1463   5.847   1.747   1.336
  510TIP3    H2 1464   5.962   1.835   1.297
  511TIP3   OH2 1465   5.815   1.537   0.457
  511TIP3    H1 1466   5.829   1.601   0.384
  511TIP3    H2 1467   5.841   1.453   0.416
  512TIP3   OH2 1468   5.144   1.599   1.156
  512TIP3    H1 1469   5.166   1.664   1.224
  512TIP3    H2 1470   5.130   1.518   1.209
  513TIP3   OH2 1471   4.724   1.143   0.754
  513TIP3    H1 1472   4.806   1.163   0.804
  513TIP3    H2 1473   4.756   1.105   0.671
  514TIP3   OH2 1474   4.752   1.198   0.320
  514TIP3    H1 1475   4.797   1.251   0.253
  514TIP3    H2 1476   4.659   1.224   0.308
  515TIP3   OH2 1477   5.853   1.822   0.847
  515TIP3    H1 1478   5.893   1.752   0.790
  515TIP3    H2 1479   5.826   1.767   0.924
  516TIP3   OH2 1480   5.532   1.293   0.628
  516TIP3    H1 1481   5.435   1.301   0.643
  516TIP3    H2 1482   5.564   1.321   0.715
  517TIP3   OH2 1483   4.958   1.330   0.515
  517TIP3    H1 1484   4.865   1.361   0.504
  517TIP3    H2 1485   4.951   1.243   0.473
  518TIP3   OH2 1486   5.951   1.346   0.722
  518TIP3    H1 1487   5.958   1.376   0.816
  518TIP3    H2 1488   5.925   1.255   0.738
  519TIP3   OH2 1489   6.199   3.044   0.947
  519TIP3    H1 1490   6.196   3.072   0.854
  519TIP3    H2 1491   6.278   3.093   0.980
  520TIP3   OH2 1492   5.156   2.152   1.369
  520TIP3    H1 1493   5.235   2.182   1.418
  520TIP3    H2 1494   5.087   2.168   1.435
  521TIP3   OH2 1495   5.610   1.621   0.631
  521TIP3    H1 1496   5.674   1.568   0.579
  521TIP3    H2 1497   5.610   1.575   0.717
  522TIP3   OH2 1498   5.593   1.514   0.891
  522TIP3    H1 1499   5.503   1.543   0.917
  522TIP3    H2 1500   5.649   1.567   0.950
  523TIP3   OH2 1501   5.322   1.904   0.009
  523TIP3    H1 1502   5.279   1.817  -0.002
  523TIP3    H2 1503   5.297   1.928   0.101
  524TIP3   OH2 1504   6.225   2.135   0.631
  524TIP3    H1 1505   6.250   2.188   0.552
  524TIP3    H2 1506   6.137   2.101   0.605
  525TIP3   OH2 1507   5.725   2.214   1.002
  525TIP3    H1 1508   5.756   2.197   1.092
  525TIP3    H2 1509   5.687   2.304   1.010
  526TIP3   OH2 1510   5.027   1.925   0.681
  526TIP3    H1 1511   5.062   1.885   0.600
  526TIP3    H2 1512   5.055   1.863   0.750
  527TIP3   OH2 1513   5.477   2.066  -0.151
  527TIP3    H1 1514   5.418   2.144  -0.167
  527TIP3    H2 1515   5.415   2.004  -0.108
  528TIP3   OH2 1516   4.905   1.831   1.291
  528TIP3    H1 1517   4.912   1.815   1.387
  528TIP3    H2 1518   4.829   1.774   1.268
  529TIP3   OH2 1519   5.628   1.955   1.313
  529TIP3    H1 1520   5.565   1.890   1.278
  529TIP3    H2 1521   5.713   1.917   1.283
  530TIP3   OH2 1522   5.884   2.469   0.901
  530TIP3    H1 1523   5.788   2.473   0.916
  530TIP3    H2 1524   5.916   2.523   0.976
  531TIP3   OH2 1525   6.516   2.404   0.889
  531TIP3    H1 1526   6.418   2.401   0.882
  531TIP3    H2 1527   6.541   2.374   0.799
  532TIP3   OH2 1528   5.982   2.016   0.549
  532TIP3    H1 1529   5.891   1.990   0.569
  532TIP3    H2 1530   6.019   1.931   0.519
  533TIP3   OH2 1531   5.128   2.213   0.297
  533TIP3    H1 1532   5.125   2.298   0.248
  533TIP3    H2 1533   5.036   2.206   0.326
  534TIP3   OH2 1534   4.712   1.518   0.045
  534TIP3    H1 1535   4.735   1.612   0.043
  534TIP3    H2 1536   4.621   1.519   0.081
  535TIP3   OH2 1537   5.282   1.985   0.265
  535TIP3    H1 1538   5.233   2.071   0.268
  535TIP3    H2 1539   5.226   1.933   0.327
  536TIP3   OH2 1540   5.392   2.567   0.771
  536TIP3    H1 1541   5.436   2.641   0.724
  536TIP3    H2 1542   5.467   2.531   0.822
  537TIP3   OH2 1543   5.051   2.461   0.159
  537TIP3    H1 1544   4.968   2.480   0.204
  537TIP3    H2 1545   5.092   2.550   0.161
  538TIP3   OH2 1546   5.776   2.191   0.736
  538TIP3    H1 1547   5.763   2.196   0.834
  538TIP3    H2 1548   5.868   2.162   0.731
  539TIP3   OH2 1549   6.027   2.729   0.782
  539TIP3    H1 1550   5.945   2.676   0.775
  539TIP3    H2 1551   6.012   2.795   0.711
  540TIP3   OH2 1552   5.113   1.340   1.305
  540TIP3    H1 1553   5.016   1.344   1.317
  540TIP3    H2 1554   5.141   1.287   1.381
  541TIP3   OH2 1555   4.833   2.429   0.933
  541TIP3    H1 1556   4.886   2.364   0.982
  541TIP3    H2 1557   4.825   2.499   0.999
  542TIP3   OH2 1558   5.171   2.000  -0.328
  542TIP3    H1 1559   5.102   1.987  -0.398
  542TIP3    H2 1560   5.116   2.022  -0.251
  543TIP3   OH2 1561   5.054   2.088  -0.087
  543TIP3    H1 1562   5.136   2.060  -0.046
  543TIP3    H2 1563   5.063   2.186  -0.088
  544TIP3   OH2 1564   4.807   1.784   0.093
  544TIP3    H1 1565   4.736   1.824   0.147
  544TIP3    H2 1566   4.816   1.851   0.022
  545TIP3   OH2 1567   5.962   1.399   0.983
  545TIP3    H1 1568   6.029   1.449   1.032
  545TIP3    H2 1569   5.945   1.323   1.043
  546TIP3   OH2 1570   5.325   2.285  -0.179
  546TIP3    H1 1571   5.239   2.313  -0.142
  546TIP3    H2 1572   5.332   2.339  -0.259
  547TIP3   OH2 1573   5.795   1.656   1.057
  547TIP3    H1 1574   5.807   1.716   1.133
  547TIP3    H2 1575   5.844   1.578   1.087
  548TIP3   OH2 1576   5.080   2.358  -0.094
  548TIP3    H1 1577   5.051   2.427  -0.157
  548TIP3    H2 1578   5.061   2.399  -0.007
  549TIP3   OH2 1579   6.429   1.556   1.071
  549TIP3    H1 1580   6.334   1.548   1.047
  549TIP3    H2 1581   6.472   1.564   0.983
  550TIP3   OH2 1582   6.063   1.763   0.481
  550TIP3    H1 1583   6.008   1.718   0.549
  550TIP3    H2 1584   6.151   1.736   0.516
  551TIP3   OH2 1585   4.794   1.994  -0.094
  551TIP3    H1 1586   4.874   2.050  -0.079
  551TIP3    H2 1587   4.834   1.929  -0.155
  552TIP3   OH2 1588   6.048   2.709   0.372
  552TIP3    H1 1589   6.004   2.760   0.300
  552TIP3    H2 1590   6.141   2.733   0.354
  553TIP3   OH2 1591   5.119   0.970   0.905
  553TIP3    H1 1592   5.092   0.920   0.826
  553TIP3    H2 1593   5.112   0.900   0.973
  554TIP3   OH2 1594   4.665   2.264   0.310
  554TIP3    H1 1595   4.584   2.223   0.340
  554TIP3    H2 1596   4.639   2.287   0.217
  555TIP3   OH2 1597   5.307   2.686   1.408
  555TIP3    H1 1598   5.402   2.669   1.400
  555TIP3    H2 1599   5.273   2.633   1.333
  556TIP3   OH2 1600   5.944   2.605   1.132
  556TIP3    H1 1601   5.935   2.538   1.204
  556TIP3    H2 1602   6.018   2.660   1.164
  557TIP3   OH2 1603   4.957   2.127   1.572
  557TIP3    H1 1604   4.978   2.036   1.542
  557TIP3    H2 1605   4.871   2.141   1.527
  558TIP3   OH2 1606   4.929   1.804  -0.226
  558TIP3    H1 1607   4.935   1.707  -0.240
  558TIP3    H2 1608   4.952   1.835  -0.316
  559TIP3   OH2 1609   5.556   2.232   1.331
  559TIP3    H1 1610   5.514   2.253   1.245
  559TIP3    H2 1611   5.586   2.139   1.319
  560TIP3   OH2 1612   6.047   2.239   0.933
  560TIP3    H1 1613   6.125   2.283   0.893
  560TIP3    H2 1614   5.980   2.311   0.923
  561TIP3   OH2 1615   5.084   1.876   1.539
  561TIP3    H1 1616   5.162   1.831   1.503
  561TIP3    H2 1617   5.099   1.870   1.633
  562TIP3   OH2 1618   5.158   1.657  -0.001
  562TIP3    H1 1619   5.114   1.667   0.086
  562TIP3    H2 1620   5.080   1.651  -0.060
  563TIP3   OH2 1621   5.408   1.765   1.200
  563TIP3    H1 1622   5.328   1.821   1.199
  563TIP3    H2 1623   5.458   1.799   1.122
  564TIP3   OH2 1624   5.922   2.164   1.334
  564TIP3    H1 1625   6.004   2.136   1.291
  564TIP3    H2 1626   5.915   2.100   1.407
  565TIP3   OH2 1627   5.533   1.558   1.332
  565TIP3    H1 1628   5.530   1.477   1.279
  565TIP3    H2 1629   5.484   1.622   1.277
  566TIP3   OH2 1630   5.529   1.342   1.134
  566TIP3    H1 1631   5.553   1.378   1.047
  566TIP3    H2 1632   5.436   1.316   1.120
  567TIP3   OH2 1633   5.557   1.869   1.000
  567TIP3    H1 1634   5.643   1.894   0.963
  567TIP3    H2 1635   5.498   1.934   0.959
  568TIP3   OH2 1636   6.137   1.836   1.384
  568TIP3    H1 1637   6.186   1.755   1.404
  568TIP3    H2 1638   6.207   1.894   1.350
  569TIP3   OH2 1639   6.178   2.094   1.120
  569TIP3    H1 1640   6.120   2.149   1.062
  569TIP3    H2 1641   6.266   2.116   1.082
  570TIP3   OH2 1642   5.367   1.683   1.544
  570TIP3    H1 1643   5.327   1.598   1.570
  570TIP3    H2 1644   5.435   1.652   1.482
  571TIP3   OH2 1645   5.660   1.095   1.189
  571TIP3    H1 1646   5.607   1.177   1.182
  571TIP3    H2 1647   5.592   1.025   1.191
  572TIP3   OH2 1648   5.794   1.603   1.421
  572TIP3    H1 1649   5.796   1.587   1.516
  572TIP3    H2 1650   5.702   1.578   1.399
  573TIP3   OH2 1651   6.026   1.547   1.266
  573TIP3    H1 1652   5.954   1.553   1.332
  573TIP3    H2 1653   6.102   1.521   1.323
  574TIP3   OH2 1654   6.252   1.496   1.420
  574TIP3    H1 1655   6.264   1.400   1.438
  574TIP3    H2 1656   6.252   1.534   1.511
  575TIP3   OH2 1657   5.259   1.436   1.618
  575TIP3    H1 1658   5.260   1.346   1.581
  575TIP3    H2 1659   5.332   1.431   1.682
  576TIP3   OH2 1660   5.772   1.131   1.444
  576TIP3    H1 1661   5.829   1.053   1.455
  576TIP3    H2 1662   5.717   1.105   1.368
  577TIP3   OH2 1663   5.058   2.541  -0.296
  577TIP3    H1 1664   5.141   2.534  -0.348
  577TIP3    H2 1665   5.012   2.612  -0.342
  578TIP3   OH2 1666   4.528   1.936  -0.051
  578TIP3    H1 1667   4.617   1.971  -0.074
  578TIP3    H2 1668   4.522   1.862  -0.113
  579TIP3   OH2 1669   4.488   2.483   0.397
  579TIP3    H1 1670   4.433   2.453   0.321
  579TIP3    H2 1671   4.413   2.532   0.445
  580TIP3   OH2 1672   6.298   2.805   0.341
  580TIP3    H1 1673   6.330   2.837   0.426
  580TIP3    H2 1674   6.378   2.813   0.284
  581TIP3   OH2 1675   6.330   2.819   0.621
  581TIP3    H1 1676   6.288   2.730   0.617
  581TIP3    H2 1677   6.410   2.798   0.671
  582TIP3   OH2 1678   6.378   2.494   1.191
  582TIP3    H1 1679   6.306   2.505   1.257
  582TIP3    H2 1680   6.420   2.583   1.194
  583TIP3   OH2 1681   6.371   2.271   0.444
  583TIP3    H1 1682   6.428   2.207   0.398
  583TIP3    H2 1683   6.375   2.349   0.383
  584TIP3   OH2 1684   6.204   2.567   0.640
  584TIP3    H1 1685   6.134   2.612   0.690
  584TIP3    H2 1686   6.154   2.524   0.568
  585TIP3   OH2 1687   4.762   1.802   0.910
  585TIP3    H1 1688   4.757   1.771   0.817
  585TIP3    H2 1689   4.860   1.804   0.924
  586TIP3   OH2 1690   6.423   2.161   1.017
  586TIP3    H1 1691   6.494   2.093   1.007
  586TIP3    H2 1692   6.452   2.231   0.956
  587TIP3   OH2 1693   6.604   1.962   1.025
  587TIP3    H1 1694   6.532   1.912   1.069
  587TIP3    H2 1695   6.677   1.898   1.039
  588TIP3   OH2 1696   6.276   1.645   0.611
  588TIP3    H1 1697   6.370   1.632   0.585
  588TIP3    H2 1698   6.290   1.690   0.696
  589TIP3   OH2 1699   6.366   1.795   0.819
  589TIP3    H1 1700   6.287   1.836   0.859
  589TIP3    H2 1701   6.405   1.870   0.769
  590TIP3   OH2 1702   4.987   1.491   1.586
  590TIP3    H1 1703   5.085   1.480   1.589
  590TIP3    H2 1704   4.959   1.404   1.621
  591TIP3   OH2 1705   6.820   1.355   1.335
  591TIP3    H1 1706   6.880   1.298   1.281
  591TIP3    H2 1707   6.782   1.414   1.267
  592TIP3   OH2 1708   4.945   1.184   0.909
  592TIP3    H1 1709   5.007   1.110   0.919
  592TIP3    H2 1710   5.004   1.261   0.916
  593TIP3   OH2 1711   4.743   1.455   0.986
  593TIP3    H1 1712   4.789   1.458   0.900
  593TIP3    H2 1713   4.764   1.541   1.023
  594TIP3   OH2 1714   6.684   1.509   1.157
  594TIP3    H1 1715   6.590   1.537   1.161
  594TIP3    H2 1716   6.677   1.431   1.099
  595TIP3   OH2 1717   4.700   0.996   0.510
  595TIP3    H1 1718   4.609   0.980   0.545
  595TIP3    H2 1719   4.682   1.065   0.443
  596TIP3   OH2 1720   5.871   2.640  -0.017
  596TIP3    H1 1721   5.913   2.604  -0.095
  596TIP3    H2 1722   5.924   2.721  -0.005
  597TIP3   OH2 1723   4.943   1.033   1.295
  597TIP3    H1 1724   4.896   1.037   1.380
  597TIP3    H2 1725   4.879   1.079   1.237
  598TIP3   OH2 1726   4.987   2.449   1.377
  598TIP3    H1 1727   4.908   2.496   1.341
  598TIP3    H2 1728   4.991   2.488   1.465
  599TIP3   OH2 1729   5.170   2.501   0.922
  599TIP3    H1 1730   5.115   2.575   0.889
  599TIP3    H2 1731   5.253   2.523   0.875
  600TIP3   OH2 1732   5.608   2.744   1.059
  600TIP3    H1 1733   5.648   2.746   1.149
  600TIP3    H2 1734   5.673   2.798   1.009
  601TIP3   OH2 1735   5.788   2.900   0.923
  601TIP3    H1 1736   5.862   2.851   0.884
  601TIP3    H2 1737   5.838   2.959   0.985
  602TIP3   OH2 1738   4.840   2.762   0.944
  602TIP3    H1 1739   4.750   2.798   0.931
  602TIP3    H2 1740   4.845   2.764   1.042
  603TIP3   OH2 1741   5.076   2.736   0.807
  603TIP3    H1 1742   4.991   2.751   0.854
  603TIP3    H2 1743   5.056   2.774   0.719
  604TIP3   OH2 1744   5.505   2.767   0.601
  604TIP3    H1 1745   5.430   2.787   0.542
  604TIP3    H2 1746   5.516   2.852   0.649
  605TIP3   OH2 1747   5.772   2.700   0.654
  605TIP3    H1 1748   5.679   2.723   0.636
  605TIP3    H2 1749   5.819   2.777   0.616
  606TIP3   OH2 1750   5.975   2.893   0.569
  606TIP3    H1 1751   5.962   2.979   0.523
  606TIP3    H2 1752   6.004   2.835   0.495
  607TIP3   OH2 1753   4.759   2.547   0.684
  607TIP3    H1 1754   4.764   2.530   0.781
  607TIP3    H2 1755   4.846   2.511   0.658
  608TIP3   OH2 1756   4.929   2.414   0.518
  608TIP3    H1 1757   4.950   2.334   0.573
  608TIP3    H2 1758   5.017   2.457   0.517
  609TIP3   OH2 1759   5.204   2.514   0.555
  609TIP3    H1 1760   5.236   2.421   0.553
  609TIP3    H2 1761   5.249   2.544   0.636
  610TIP3   OH2 1762   4.541   2.330   0.075
  610TIP3    H1 1763   4.455   2.291   0.049
  610TIP3    H2 1764   4.525   2.421   0.044
  611TIP3   OH2 1765   5.234   1.159   1.533
  611TIP3    H1 1766   5.197   1.096   1.597
  611TIP3    H2 1767   5.330   1.147   1.552
  612TIP3   OH2 1768   5.485   1.123   1.620
  612TIP3    H1 1769   5.555   1.192   1.627
  612TIP3    H2 1770   5.484   1.094   1.712
  613TIP3   OH2 1771   4.679   2.369  -0.240
  613TIP3    H1 1772   4.608   2.413  -0.194
  613TIP3    H2 1773   4.674   2.278  -0.201
  614TIP3   OH2 1774   6.305   1.226   1.460
  614TIP3    H1 1775   6.327   1.197   1.551
  614TIP3    H2 1776   6.395   1.225   1.418
  615TIP3   OH2 1777   6.256   2.775   0.946
  615TIP3    H1 1778   6.177   2.746   0.895
  615TIP3    H2 1779   6.238   2.871   0.952
  616TIP3   OH2 1780   6.841   2.064   0.468
  616TIP3    H1 1781   6.880   2.051   0.557
  616TIP3    H2 1782   6.886   2.146   0.443
  617TIP3   OH2 1783   6.787   2.460   0.201
  617TIP3    H1 1784   6.768   2.387   0.141
  617TIP3    H2 1785   6.880   2.447   0.224
  618TIP3   OH2 1786   7.066   2.301   0.303
  618TIP3    H1 1787   7.043   2.375   0.362
  618TIP3    H2 1788   7.159   2.286   0.332
  619TIP3   OH2 1789   6.994   2.505   0.476
  619TIP3    H1 1790   6.976   2.598   0.448
  619TIP3    H2 1791   6.919   2.492   0.537
  620TIP3   OH2 1792   7.212   2.609   0.623
  620TIP3    H1 1793   7.148   2.673   0.662
  620TIP3    H2 1794   7.151   2.555   0.570
  621TIP3   OH2 1795   6.955   2.177   0.711
  621TIP3    H1 1796   6.966   2.263   0.756
  621TIP3    H2 1797   6.866   2.152   0.743
  622TIP3   OH2 1798   7.002   2.775   0.698
  622TIP3    H1 1799   6.966   2.786   0.607
  622TIP3    H2 1800   6.921   2.753   0.749
  623TIP3   OH2 1801   6.579   2.302   0.647
  623TIP3    H1 1802   6.512   2.281   0.579
  623TIP3    H2 1803   6.616   2.215   0.671
  624TIP3   OH2 1804   6.442   2.494   0.284
  624TIP3    H1 1805   6.537   2.503   0.267
  624TIP3    H2 1806   6.425   2.575   0.336
  625TIP3   OH2 1807   7.399   2.727   0.460
  625TIP3    H1 1808   7.400   2.819   0.493
  625TIP3    H2 1809   7.334   2.687   0.521
  626TIP3   OH2 1810   6.776   2.494   0.639
  626TIP3    H1 1811   6.826   2.477   0.721
  626TIP3    H2 1812   6.703   2.429   0.645
  627TIP3   OH2 1813   6.940   1.881   0.710
  627TIP3    H1 1814   6.925   1.924   0.794
  627TIP3    H2 1815   6.915   1.789   0.726
  628TIP3   OH2 1816   6.948   2.415   0.854
  628TIP3    H1 1817   7.029   2.444   0.900
  628TIP3    H2 1818   6.885   2.415   0.929
  629TIP3   OH2 1819   7.498   2.448   0.570
  629TIP3    H1 1820   7.532   2.486   0.652
  629TIP3    H2 1821   7.497   2.524   0.510
  630TIP3   OH2 1822   6.701   2.092   0.786
  630TIP3    H1 1823   6.718   2.080   0.882
  630TIP3    H2 1824   6.629   2.028   0.772
  631TIP3   OH2 1825   7.420   2.205   0.801
  631TIP3    H1 1826   7.339   2.157   0.772
  631TIP3    H2 1827   7.477   2.184   0.724
  632TIP3   OH2 1828   7.184   2.832   0.306
  632TIP3    H1 1829   7.196   2.845   0.211
  632TIP3    H2 1830   7.270   2.796   0.333
  633TIP3   OH2 1831   6.627   2.682   0.434
  633TIP3    H1 1832   6.684   2.614   0.473
  633TIP3    H2 1833   6.658   2.761   0.480
  634TIP3   OH2 1834   6.619   2.999   0.844
  634TIP3    H1 1835   6.705   3.001   0.891
  634TIP3    H2 1836   6.601   2.904   0.842
  635TIP3   OH2 1837   7.092   2.952   0.892
  635TIP3    H1 1838   7.188   2.940   0.896
  635TIP3    H2 1839   7.068   2.893   0.817
  636TIP3   OH2 1840   6.746   2.401   1.045
  636TIP3    H1 1841   6.759   2.305   1.055
  636TIP3    H2 1842   6.659   2.405   0.999
  637TIP3   OH2 1843   7.364   2.487   0.820
  637TIP3    H1 1844   7.323   2.509   0.733
  637TIP3    H2 1845   7.385   2.392   0.807
  638TIP3   OH2 1846   6.874   2.129   1.025
  638TIP3    H1 1847   6.959   2.090   1.005
  638TIP3    H2 1848   6.893   2.168   1.113
  639TIP3   OH2 1849   7.213   2.066   0.694
  639TIP3    H1 1850   7.120   2.098   0.695
  639TIP3    H2 1851   7.208   1.998   0.624
  640TIP3   OH2 1852   7.161   1.947   1.054
  640TIP3    H1 1853   7.109   1.874   1.094
  640TIP3    H2 1854   7.192   1.906   0.971
  641TIP3   OH2 1855   7.029   1.716   1.122
  641TIP3    H1 1856   7.064   1.662   1.048
  641TIP3    H2 1857   7.073   1.677   1.200
  642TIP3   OH2 1858   6.360   2.645   0.033
  642TIP3    H1 1859   6.354   2.574   0.098
  642TIP3    H2 1860   6.424   2.704   0.074
  643TIP3   OH2 1861   6.568   2.065   0.415
  643TIP3    H1 1862   6.574   2.003   0.340
  643TIP3    H2 1863   6.663   2.078   0.435
  644TIP3   OH2 1864   6.768   1.750   1.056
  644TIP3    H1 1865   6.864   1.744   1.079
  644TIP3    H2 1866   6.737   1.668   1.100
  645TIP3   OH2 1867   6.783   2.727   0.862
  645TIP3    H1 1868   6.690   2.703   0.846
  645TIP3    H2 1869   6.792   2.714   0.957
  646TIP3   OH2 1870   6.948   2.770   0.418
  646TIP3    H1 1871   6.903   2.839   0.366
  646TIP3    H2 1872   7.040   2.785   0.384
  647TIP3   OH2 1873   7.403   3.004   0.543
  647TIP3    H1 1874   7.451   3.008   0.629
  647TIP3    H2 1875   7.463   3.050   0.483
  648TIP3   OH2 1876   7.573   3.135   0.334
  648TIP3    H1 1877   7.606   3.114   0.244
  648TIP3    H2 1878   7.587   3.231   0.336
  649TIP3   OH2 1879   6.632   3.007   0.455
  649TIP3    H1 1880   6.545   3.041   0.424
  649TIP3    H2 1881   6.647   3.067   0.530
  650TIP3   OH2 1882   6.847   2.997   0.283
  650TIP3    H1 1883   6.774   2.996   0.349
  650TIP3    H2 1884   6.814   3.067   0.225
  651TIP3   OH2 1885   6.533   2.793   0.197
  651TIP3    H1 1886   6.574   2.768   0.282
  651TIP3    H2 1887   6.610   2.776   0.138
  652TIP3   OH2 1888   6.751   2.694   0.064
  652TIP3    H1 1889   6.766   2.613   0.118
  652TIP3    H2 1890   6.835   2.703   0.018
  653TIP3   OH2 1891   0.865   2.663   2.067
  653TIP3    H1 1892   0.813   2.699   1.994
  653TIP3    H2 1893   0.909   2.745   2.100
  654TIP3   OH2 1894   0.355   3.483   1.652
  654TIP3    H1 1895   0.308   3.396   1.652
  654TIP3    H2 1896   0.340   3.511   1.559
  655TIP3   OH2 1897   0.710   3.051   1.829
  655TIP3    H1 1898   0.684   3.146   1.825
  655TIP3    H2 1899   0.744   3.042   1.738
  656TIP3   OH2 1900   0.432   2.900   2.155
  656TIP3    H1 1901   0.403   2.983   2.196
  656TIP3    H2 1902   0.362   2.887   2.088
  657TIP3   OH2 1903   0.754   3.753   2.018
  657TIP3    H1 1904   0.749   3.657   2.005
  657TIP3    H2 1905   0.669   3.770   2.064
  658TIP3   OH2 1906  -0.125   3.532   2.188
  658TIP3    H1 1907  -0.130   3.628   2.204
  658TIP3    H2 1908  -0.218   3.509   2.183
  659TIP3   OH2 1909   0.649   2.860   2.312
  659TIP3    H1 1910   0.570   2.876   2.255
  659TIP3    H2 1911   0.654   2.763   2.307
  660TIP3   OH2 1912   0.109   2.856   2.503
  660TIP3    H1 1913   0.126   2.768   2.539
  660TIP3    H2 1914   0.200   2.890   2.496
  661TIP3   OH2 1915   0.446   4.091   2.123
  661TIP3    H1 1916   0.442   4.113   2.028
  661TIP3    H2 1917   0.527   4.138   2.151
  662TIP3   OH2 1918   0.005   3.288   2.202
  662TIP3    H1 1919   0.036   3.296   2.293
  662TIP3    H2 1920  -0.039   3.375   2.189
  663TIP3   OH2 1921   0.131   3.534   2.072
  663TIP3    H1 1922   0.039   3.546   2.101
  663TIP3    H2 1923   0.176   3.582   2.145
  664TIP3   OH2 1924   0.770   3.453   2.076
  664TIP3    H1 1925   0.679   3.470   2.104
  664TIP3    H2 1926   0.755   3.420   1.984
  665TIP3   OH2 1927   0.255   3.792   1.982
  665TIP3    H1 1928   0.188   3.727   1.955
  665TIP3    H2 1929   0.253   3.853   1.905
  666TIP3   OH2 1930   0.652   2.593   2.232
  666TIP3    H1 1931   0.571   2.575   2.182
  666TIP3    H2 1932   0.716   2.611   2.160
  667TIP3   OH2 1933   0.284   3.803   1.574
  667TIP3    H1 1934   0.250   3.779   1.486
  667TIP3    H2 1935   0.380   3.808   1.555
  668TIP3   OH2 1936  -0.454   3.735   2.589
  668TIP3    H1 1937  -0.361   3.739   2.615
  668TIP3    H2 1938  -0.447   3.731   2.493
  669TIP3   OH2 1939   0.190   3.652   2.316
  669TIP3    H1 1940   0.183   3.582   2.385
  669TIP3    H2 1941   0.267   3.704   2.346
  670TIP3   OH2 1942  -0.184   3.287   2.523
  670TIP3    H1 1943  -0.216   3.270   2.432
  670TIP3    H2 1944  -0.114   3.222   2.532
  671TIP3   OH2 1945   0.302   3.282   2.108
  671TIP3    H1 1946   0.345   3.339   2.042
  671TIP3    H2 1947   0.212   3.316   2.107
  672TIP3   OH2 1948   0.160   3.203   2.508
  672TIP3    H1 1949   0.241   3.184   2.457
  672TIP3    H2 1950   0.170   3.143   2.584
  673TIP3   OH2 1951   0.388   2.883   2.563
  673TIP3    H1 1952   0.445   2.807   2.580
  673TIP3    H2 1953   0.449   2.943   2.519
  674TIP3   OH2 1954   0.426   3.152   2.308
  674TIP3    H1 1955   0.374   3.200   2.239
  674TIP3    H2 1956   0.516   3.164   2.270
  675TIP3   OH2 1957   0.541   2.535   2.602
  675TIP3    H1 1958   0.523   2.443   2.628
  675TIP3    H2 1959   0.523   2.585   2.685
  676TIP3   OH2 1960   0.548   3.854   1.518
  676TIP3    H1 1961   0.582   3.878   1.606
  676TIP3    H2 1962   0.618   3.885   1.459
  677TIP3   OH2 1963   0.595   3.885   1.793
  677TIP3    H1 1964   0.538   3.804   1.799
  677TIP3    H2 1965   0.671   3.852   1.841
  678TIP3   OH2 1966   0.621   3.542   2.364
  678TIP3    H1 1967   0.553   3.550   2.434
  678TIP3    H2 1968   0.667   3.628   2.371
  679TIP3   OH2 1969   0.472   3.652   1.840
  679TIP3    H1 1970   0.387   3.641   1.885
  679TIP3    H2 1971   0.467   3.581   1.774
  680TIP3   OH2 1972   0.671   3.204   2.193
  680TIP3    H1 1973   0.738   3.132   2.188
  680TIP3    H2 1974   0.697   3.258   2.117
  681TIP3   OH2 1975   0.854   3.008   2.214
  681TIP3    H1 1976   0.782   2.951   2.250
  681TIP3    H2 1977   0.931   2.949   2.230
  682TIP3   OH2 1978   0.644   2.815   1.957
  682TIP3    H1 1979   0.566   2.838   2.009
  682TIP3    H2 1980   0.659   2.899   1.909
  683TIP3   OH2 1981   1.038   2.424   2.533
  683TIP3    H1 1982   1.085   2.345   2.499
  683TIP3    H2 1983   1.015   2.470   2.450
  684TIP3   OH2 1984   0.922   2.535   2.312
  684TIP3    H1 1985   0.834   2.571   2.335
  684TIP3    H2 1986   0.919   2.542   2.215
  685TIP3   OH2 1987  -0.142   3.799   2.239
  685TIP3    H1 1988  -0.100   3.799   2.327
  685TIP3    H2 1989  -0.075   3.850   2.187
  686TIP3   OH2 1990   0.041   3.941   2.098
  686TIP3    H1 1991   0.115   3.891   2.059
  686TIP3    H2 1992   0.090   4.001   2.157
  687TIP3   OH2 1993   0.018   3.767   1.823
  687TIP3    H1 1994  -0.073   3.790   1.845
  687TIP3    H2 1995   0.058   3.851   1.799
  688TIP3   OH2 1996   0.224   3.971   1.772
  688TIP3    H1 1997   0.207   4.052   1.720
  688TIP3    H2 1998   0.245   3.907   1.700
  689TIP3   OH2 1999   0.600   2.260   2.644
  689TIP3    H1 2000   0.597   2.228   2.737
  689TIP3    H2 2001   0.691   2.295   2.642
  690TIP3   OH2 2002   0.501   3.820   2.126
  690TIP3    H1 2003   0.423   3.792   2.073
  690TIP3    H2 2004   0.484   3.917   2.130
  691TIP3   OH2 2005   1.775   3.207   0.889
  691TIP3    H1 2006   1.745   3.294   0.855
  691TIP3    H2 2007   1.694   3.175   0.931
  692TIP3   OH2 2008   1.778   3.193   1.273
  692TIP3    H1 2009   1.810   3.166   1.361
  692TIP3    H2 2010   1.735   3.112   1.242
  693TIP3   OH2 2011   1.079   3.095   1.632
  693TIP3    H1 2012   1.099   3.020   1.692
  693TIP3    H2 2013   1.165   3.140   1.631
  694TIP3   OH2 2014   2.018   3.498   0.953
  694TIP3    H1 2015   1.999   3.424   1.012
  694TIP3    H2 2016   2.048   3.567   1.014
  695TIP3   OH2 2017   1.047   3.493   1.352
  695TIP3    H1 2018   1.042   3.395   1.360
  695TIP3    H2 2019   1.143   3.504   1.337
  696TIP3   OH2 2020   1.671   3.960   0.975
  696TIP3    H1 2021   1.712   3.892   0.919
  696TIP3    H2 2022   1.658   3.912   1.057
  697TIP3   OH2 2023   1.568   3.425   1.322
  697TIP3    H1 2024   1.598   3.348   1.270
  697TIP3    H2 2025   1.655   3.464   1.344
  698TIP3   OH2 2026   2.605   2.737   1.312
  698TIP3    H1 2027   2.622   2.824   1.353
  698TIP3    H2 2028   2.619   2.757   1.218
  699TIP3   OH2 2029   1.986   2.922   1.350
  699TIP3    H1 2030   2.027   2.835   1.369
  699TIP3    H2 2031   1.951   2.906   1.260
  700TIP3   OH2 2032   2.009   2.679   0.951
  700TIP3    H1 2033   2.088   2.661   1.006
  700TIP3    H2 2034   2.050   2.699   0.865
  701TIP3   OH2 2035   1.408   2.974   1.233
  701TIP3    H1 2036   1.501   2.953   1.252
  701TIP3    H2 2037   1.399   2.933   1.145
  702TIP3   OH2 2038   2.662   2.952   1.483
  702TIP3    H1 2039   2.578   2.995   1.457
  702TIP3    H2 2040   2.646   2.945   1.579
  703TIP3   OH2 2041   1.320   2.553   1.753
  703TIP3    H1 2042   1.252   2.599   1.699
  703TIP3    H2 2043   1.277   2.559   1.841
  704TIP3   OH2 2044   1.652   3.418   0.767
  704TIP3    H1 2045   1.600   3.402   0.688
  704TIP3    H2 2046   1.617   3.505   0.794
  705TIP3   OH2 2047   1.429   3.343   1.543
  705TIP3    H1 2048   1.367   3.410   1.578
  705TIP3    H2 2049   1.469   3.390   1.467
  706TIP3   OH2 2050   2.226   2.673   1.113
  706TIP3    H1 2051   2.201   2.622   1.192
  706TIP3    H2 2052   2.273   2.749   1.150
  707TIP3   OH2 2053   1.155   2.690   1.588
  707TIP3    H1 2054   1.221   2.762   1.584
  707TIP3    H2 2055   1.169   2.645   1.502
  708TIP3   OH2 2056   1.252   3.536   1.647
  708TIP3    H1 2057   1.224   3.622   1.609
  708TIP3    H2 2058   1.171   3.513   1.697
  709TIP3   OH2 2059   2.086   3.743   1.122
  709TIP3    H1 2060   1.996   3.732   1.160
  709TIP3    H2 2061   2.075   3.827   1.073
  710TIP3   OH2 2062   2.381   2.689   1.491
  710TIP3    H1 2063   2.292   2.669   1.458
  710TIP3    H2 2064   2.436   2.682   1.412
  711TIP3   OH2 2065   6.603   7.198   6.361
  711TIP3    H1 2066   6.562   7.111   6.350
  711TIP3    H2 2067   6.523   7.256   6.367
  712TIP3   OH2 2068   1.784   3.788   0.793
  712TIP3    H1 2069   1.831   3.703   0.775
  712TIP3    H2 2070   1.850   3.850   0.752
  713TIP3   OH2 2071   1.927   3.574   0.703
  713TIP3    H1 2072   1.927   3.496   0.645
  713TIP3    H2 2073   1.962   3.536   0.787
  714TIP3   OH2 2074   2.312   3.650   1.461
  714TIP3    H1 2075   2.298   3.572   1.403
  714TIP3    H2 2076   2.294   3.724   1.399
  715TIP3   OH2 2077   2.507   3.296   1.310
  715TIP3    H1 2078   2.421   3.343   1.313
  715TIP3    H2 2079   2.535   3.317   1.218
  716TIP3   OH2 2080   1.952   3.133   0.690
  716TIP3    H1 2081   1.894   3.153   0.766
  716TIP3    H2 2082   2.033   3.103   0.735
  717TIP3   OH2 2083   2.185   3.166   1.605
  717TIP3    H1 2084   2.178   3.251   1.653
  717TIP3    H2 2085   2.098   3.165   1.559
  718TIP3   OH2 2086   1.310   3.530   1.256
  718TIP3    H1 2087   1.298   3.507   1.162
  718TIP3    H2 2088   1.398   3.492   1.274
  719TIP3   OH2 2089   1.315   3.101   1.461
  719TIP3    H1 2090   1.348   3.066   1.375
  719TIP3    H2 2091   1.366   3.184   1.472
  720TIP3   OH2 2092   1.844   3.736   1.241
  720TIP3    H1 2093   1.834   3.812   1.300
  720TIP3    H2 2094   1.829   3.659   1.300
  721TIP3   OH2 2095   1.458   3.654   1.787
  721TIP3    H1 2096   1.395   3.714   1.832
  721TIP3    H2 2097   1.395   3.599   1.736
  722TIP3   OH2 2098   1.218   3.210   1.891
  722TIP3    H1 2099   1.215   3.299   1.930
  722TIP3    H2 2100   1.124   3.183   1.903
  723TIP3   OH2 2101   1.534   3.668   0.784
  723TIP3    H1 2102   1.616   3.718   0.799
  723TIP3    H2 2103   1.473   3.737   0.753
  724TIP3   OH2 2104   1.251   3.821   1.875
  724TIP3    H1 2105   1.218   3.823   1.783
  724TIP3    H2 2106   1.171   3.798   1.926
  725TIP3   OH2 2107   2.094   3.600   0.106
  725TIP3    H1 2108   2.116   3.694   0.092
  725TIP3    H2 2109   2.183   3.560   0.105
  726TIP3   OH2 2110   0.699   3.555   1.417
  726TIP3    H1 2111   0.791   3.532   1.441
  726TIP3    H2 2112   0.673   3.607   1.495
  727TIP3   OH2 2113   2.546   3.999   1.509
  727TIP3    H1 2114   2.547   3.902   1.522
  727TIP3    H2 2115   2.463   4.021   1.556
  728TIP3   OH2 2116   1.653   3.781   1.645
  728TIP3    H1 2117   1.649   3.873   1.677
  728TIP3    H2 2118   1.580   3.740   1.697
  729TIP3   OH2 2119   1.415   3.891   0.608
  729TIP3    H1 2120   1.381   3.878   0.516
  729TIP3    H2 2121   1.381   3.980   0.629
  730TIP3   OH2 2122   0.851   3.768   0.974
  730TIP3    H1 2123   0.888   3.742   1.061
  730TIP3    H2 2124   0.807   3.684   0.946
  731TIP3   OH2 2125   1.614   3.805   0.241
  731TIP3    H1 2126   1.672   3.746   0.189
  731TIP3    H2 2127   1.661   3.811   0.326
  732TIP3   OH2 2128   1.672   3.862   0.514
  732TIP3    H1 2129   1.581   3.864   0.550
  732TIP3    H2 2130   1.718   3.813   0.584
  733TIP3   OH2 2131   2.436   3.124   1.779
  733TIP3    H1 2132   2.352   3.132   1.731
  733TIP3    H2 2133   2.455   3.029   1.769
  734TIP3   OH2 2134   1.021   3.524   1.806
  734TIP3    H1 2135   1.073   3.506   1.887
  734TIP3    H2 2136   0.947   3.461   1.814
  735TIP3   OH2 2137   1.970   2.476   1.789
  735TIP3    H1 2138   2.039   2.445   1.851
  735TIP3    H2 2139   1.887   2.455   1.837
  736TIP3   OH2 2140   2.213   2.909   1.716
  736TIP3    H1 2141   2.154   2.903   1.795
  736TIP3    H2 2142   2.181   2.989   1.672
  737TIP3   OH2 2143   1.370   2.882   1.612
  737TIP3    H1 2144   1.318   2.900   1.694
  737TIP3    H2 2145   1.350   2.962   1.559
  738TIP3   OH2 2146   1.766   2.888   0.850
  738TIP3    H1 2147   1.673   2.887   0.825
  738TIP3    H2 2148   1.810   2.885   0.763
  739TIP3   OH2 2149   1.916   3.124   1.944
  739TIP3    H1 2150   1.892   3.049   2.003
  739TIP3    H2 2151   2.011   3.130   1.961
  740TIP3   OH2 2152   1.896   2.881   1.094
  740TIP3    H1 2153   1.845   2.909   1.015
  740TIP3    H2 2154   1.934   2.799   1.055
  741TIP3   OH2 2155   1.192   2.907   1.818
  741TIP3    H1 2156   1.202   2.967   1.893
  741TIP3    H2 2157   1.177   2.821   1.861
  742TIP3   OH2 2158   1.911   3.118   1.515
  742TIP3    H1 2159   1.943   3.047   1.455
  742TIP3    H2 2160   1.879   3.063   1.590
  743TIP3   OH2 2161   2.066   2.661   1.394
  743TIP3    H1 2162   2.026   2.672   1.483
  743TIP3    H2 2163   2.008   2.593   1.355
  744TIP3   OH2 2164   2.242   4.348   1.610
  744TIP3    H1 2165   2.239   4.368   1.514
  744TIP3    H2 2166   2.324   4.393   1.637
  745TIP3   OH2 2167   1.195   3.461   2.028
  745TIP3    H1 2168   1.276   3.487   2.076
  745TIP3    H2 2169   1.132   3.454   2.102
  746TIP3   OH2 2170   1.669   2.913   1.289
  746TIP3    H1 2171   1.739   2.874   1.234
  746TIP3    H2 2172   1.672   2.859   1.370
  747TIP3   OH2 2173   1.636   2.809   1.576
  747TIP3    H1 2174   1.546   2.846   1.589
  747TIP3    H2 2175   1.693   2.871   1.625
  748TIP3   OH2 2176   2.270   3.435   1.296
  748TIP3    H1 2177   2.292   3.484   1.215
  748TIP3    H2 2178   2.187   3.388   1.270
  749TIP3   OH2 2179   1.782   3.523   1.662
  749TIP3    H1 2180   1.795   3.490   1.752
  749TIP3    H2 2181   1.732   3.606   1.675
  750TIP3   OH2 2182   1.050   3.212   1.341
  750TIP3    H1 2183   1.106   3.177   1.271
  750TIP3    H2 2184   1.087   3.166   1.419
  751TIP3   OH2 2185   0.965   3.130   1.961
  751TIP3    H1 2186   0.953   3.113   2.056
  751TIP3    H2 2187   0.878   3.107   1.924
  752TIP3   OH2 2188   1.674   3.258   1.977
  752TIP3    H1 2189   1.610   3.197   1.935
  752TIP3    H2 2190   1.759   3.218   1.948
  753TIP3   OH2 2191   1.932   3.790   1.558
  753TIP3    H1 2192   1.837   3.773   1.574
  753TIP3    H2 2193   1.956   3.836   1.641
  754TIP3   OH2 2194   2.338   2.847   0.452
  754TIP3    H1 2195   2.262   2.800   0.417
  754TIP3    H2 2196   2.326   2.936   0.411
  755TIP3   OH2 2197   2.562   3.713   1.548
  755TIP3    H1 2198   2.465   3.702   1.541
  755TIP3    H2 2199   2.589   3.679   1.459
  756TIP3   OH2 2200   2.050   3.664   0.379
  756TIP3    H1 2201   2.012   3.596   0.437
  756TIP3    H2 2202   2.049   3.619   0.292
  757TIP3   OH2 2203   2.039   3.296   1.214
  757TIP3    H1 2204   1.946   3.270   1.228
  757TIP3    H2 2205   2.073   3.216   1.170
  758TIP3   OH2 2206   1.198   3.542   0.981
  758TIP3    H1 2207   1.172   3.629   0.941
  758TIP3    H2 2208   1.111   3.499   0.993
  759TIP3   OH2 2209   1.369   3.317   0.983
  759TIP3    H1 2210   1.327   3.403   0.968
  759TIP3    H2 2211   1.293   3.256   0.979
  760TIP3   OH2 2212   1.437   3.866   1.438
  760TIP3    H1 2213   1.480   3.938   1.387
  760TIP3    H2 2214   1.514   3.826   1.482
  761TIP3   OH2 2215   1.103   3.773   0.862
  761TIP3    H1 2216   1.009   3.779   0.884
  761TIP3    H2 2217   1.121   3.864   0.831
  762TIP3   OH2 2218   1.825   3.502   1.395
  762TIP3    H1 2219   1.816   3.500   1.493
  762TIP3    H2 2220   1.898   3.439   1.382
  763TIP3   OH2 2221   1.812   3.429   0.292
  763TIP3    H1 2222   1.862   3.399   0.370
  763TIP3    H2 2223   1.747   3.359   0.282
  764TIP3   OH2 2224   2.072   4.036   1.451
  764TIP3    H1 2225   1.995   3.975   1.448
  764TIP3    H2 2226   2.052   4.096   1.376
  765TIP3   OH2 2227   2.142   3.876   0.091
  765TIP3    H1 2228   2.192   3.955   0.064
  765TIP3    H2 2229   2.062   3.919   0.127
  766TIP3   OH2 2230   1.158   2.643   1.974
  766TIP3    H1 2231   1.063   2.628   1.980
  766TIP3    H2 2232   1.194   2.584   2.042
  767TIP3   OH2 2233   1.965   3.357   0.520
  767TIP3    H1 2234   1.944   3.277   0.572
  767TIP3    H2 2235   2.056   3.334   0.492
  768TIP3   OH2 2236   0.879   3.730   1.605
  768TIP3    H1 2237   0.919   3.649   1.640
  768TIP3    H2 2238   0.912   3.796   1.667
  769TIP3   OH2 2239   1.993   2.719   1.659
  769TIP3    H1 2240   2.084   2.745   1.683
  769TIP3    H2 2241   1.981   2.635   1.708
  770TIP3   OH2 2242   1.380   3.567   0.480
  770TIP3    H1 2243   1.354   3.586   0.571
  770TIP3    H2 2244   1.392   3.656   0.442
  771TIP3   OH2 2245   1.835   2.956   1.719
  771TIP3    H1 2246   1.861   2.999   1.802
  771TIP3    H2 2247   1.887   2.872   1.721
  772TIP3   OH2 2248   2.475   2.850   1.693
  772TIP3    H1 2249   2.380   2.865   1.713
  772TIP3    H2 2250   2.460   2.786   1.620
  773TIP3   OH2 2251   2.125   3.055   1.093
  773TIP3    H1 2252   2.048   2.996   1.103
  773TIP3    H2 2253   2.195   3.005   1.139
  774TIP3   OH2 2254   2.092   4.015   1.040
  774TIP3    H1 2255   2.049   4.064   0.966
  774TIP3    H2 2256   2.187   4.033   1.019
  775TIP3   OH2 2257   0.865   4.041   2.021
  775TIP3    H1 2258   0.953   4.037   2.065
  775TIP3    H2 2259   0.841   3.947   2.019
  776TIP3   OH2 2260   1.346   3.998   2.065
  776TIP3    H1 2261   1.440   3.974   2.068
  776TIP3    H2 2262   1.315   3.939   1.994
  777TIP3   OH2 2263   1.978   3.913   1.804
  777TIP3    H1 2264   1.973   3.840   1.870
  777TIP3    H2 2265   2.060   3.959   1.830
  778TIP3   OH2 2266   1.772   3.618   0.103
  778TIP3    H1 2267   1.788   3.556   0.179
  778TIP3    H2 2268   1.859   3.618   0.060
  779TIP3   OH2 2269   0.999   3.443   2.226
  779TIP3    H1 2270   1.017   3.347   2.228
  779TIP3    H2 2271   0.915   3.445   2.176
  780TIP3   OH2 2272   1.600   3.532   1.994
  780TIP3    H1 2273   1.558   3.550   1.908
  780TIP3    H2 2274   1.630   3.439   1.985
  781TIP3   OH2 2275   2.098   3.542   1.606
  781TIP3    H1 2276   2.171   3.586   1.559
  781TIP3    H2 2277   2.023   3.602   1.585
  782TIP3   OH2 2278   1.118   3.184   2.213
  782TIP3    H1 2279   1.193   3.138   2.174
  782TIP3    H2 2280   1.153   3.214   2.299
  783TIP3   OH2 2281   1.456   3.070   1.872
  783TIP3    H1 2282   1.372   3.122   1.866
  783TIP3    H2 2283   1.504   3.102   1.792
  784TIP3   OH2 2284   1.973   3.468   1.999
  784TIP3    H1 2285   2.042   3.429   1.943
  784TIP3    H2 2286   1.961   3.399   2.067
  785TIP3   OH2 2287   1.573   2.853   1.989
  785TIP3    H1 2288   1.572   2.774   1.932
  785TIP3    H2 2289   1.529   2.920   1.932
  786TIP3   OH2 2290   1.575   2.640   1.800
  786TIP3    H1 2291   1.602   2.681   1.716
  786TIP3    H2 2292   1.483   2.611   1.780
  787TIP3   OH2 2293   1.601   3.177   1.674
  787TIP3    H1 2294   1.685   3.181   1.626
  787TIP3    H2 2295   1.545   3.240   1.625
  788TIP3   OH2 2296   2.185   3.139   2.052
  788TIP3    H1 2297   2.224   3.050   2.057
  788TIP3    H2 2298   2.256   3.189   2.009
  789TIP3   OH2 2299   2.224   3.399   1.795
  789TIP3    H1 2300   2.168   3.452   1.734
  789TIP3    H2 2301   2.312   3.415   1.755
  790TIP3   OH2 2302   1.452   2.961   2.225
  790TIP3    H1 2303   1.386   2.891   2.239
  790TIP3    H2 2304   1.484   2.939   2.135
  791TIP3   OH2 2305   1.708   2.404   1.868
  791TIP3    H1 2306   1.660   2.486   1.847
  791TIP3    H2 2307   1.641   2.336   1.845
  792TIP3   OH2 2308   1.830   2.905   2.083
  792TIP3    H1 2309   1.814   2.886   2.177
  792TIP3    H2 2310   1.742   2.881   2.047
  793TIP3   OH2 2311   2.074   2.867   1.944
  793TIP3    H1 2312   1.999   2.858   2.005
  793TIP3    H2 2313   2.148   2.830   1.996
  794TIP3   OH2 2314   2.304   2.799   2.086
  794TIP3    H1 2315   2.322   2.703   2.096
  794TIP3    H2 2316   2.302   2.831   2.179
  795TIP3   OH2 2317   1.289   2.748   2.282
  795TIP3    H1 2318   1.290   2.656   2.249
  795TIP3    H2 2319   1.332   2.733   2.369
  796TIP3   OH2 2320   1.803   2.412   2.125
  796TIP3    H1 2321   1.869   2.340   2.119
  796TIP3    H2 2322   1.763   2.408   2.036
  797TIP3   OH2 2323   1.872   2.627   2.281
  797TIP3    H1 2324   1.850   2.554   2.219
  797TIP3    H2 2325   1.791   2.682   2.276
  798TIP3   OH2 2326   0.625   3.726   1.217
  798TIP3    H1 2327   0.655   3.663   1.286
  798TIP3    H2 2328   0.666   3.807   1.249
  799TIP3   OH2 2329   2.347   4.104   1.000
  799TIP3    H1 2330   2.378   4.131   1.089
  799TIP3    H2 2331   2.418   4.137   0.942
  800TIP3   OH2 2332   2.377   4.120   1.284
  800TIP3    H1 2333   2.328   4.035   1.278
  800TIP3    H2 2334   2.452   4.091   1.339
  801TIP3   OH2 2335   2.422   3.799   1.856
  801TIP3    H1 2336   2.351   3.808   1.922
  801TIP3    H2 2337   2.465   3.887   1.862
  802TIP3   OH2 2338   2.242   3.302   0.468
  802TIP3    H1 2339   2.307   3.369   0.441
  802TIP3    H2 2340   2.284   3.266   0.550
  803TIP3   OH2 2341   2.367   3.176   0.680
  803TIP3    H1 2342   2.298   3.133   0.736
  803TIP3    H2 2343   2.427   3.214   0.747
  804TIP3   OH2 2344   2.425   3.573   1.111
  804TIP3    H1 2345   2.476   3.502   1.066
  804TIP3    H2 2346   2.417   3.640   1.041
  805TIP3   OH2 2347   2.251   3.873   1.303
  805TIP3    H1 2348   2.177   3.910   1.354
  805TIP3    H2 2349   2.204   3.825   1.231
  806TIP3   OH2 2350   2.285   3.078   0.310
  806TIP3    H1 2351   2.220   3.096   0.238
  806TIP3    H2 2352   2.263   3.153   0.370
  807TIP3   OH2 2353   2.180   3.035   0.823
  807TIP3    H1 2354   2.173   2.938   0.811
  807TIP3    H2 2355   2.166   3.044   0.920
  808TIP3   OH2 2356   0.816   3.061   1.576
  808TIP3    H1 2357   0.819   3.100   1.488
  808TIP3    H2 2358   0.908   3.079   1.607
  809TIP3   OH2 2359   2.471   3.460   1.683
  809TIP3    H1 2360   2.540   3.391   1.673
  809TIP3    H2 2361   2.493   3.522   1.612
  810TIP3   OH2 2362   2.654   3.262   1.693
  810TIP3    H1 2363   2.578   3.210   1.729
  810TIP3    H2 2364   2.726   3.197   1.711
  811TIP3   OH2 2365   2.174   2.769   0.737
  811TIP3    H1 2366   2.219   2.690   0.774
  811TIP3    H2 2367   2.231   2.786   0.661
  812TIP3   OH2 2368   2.336   2.920   1.213
  812TIP3    H1 2369   2.422   2.947   1.172
  812TIP3    H2 2370   2.351   2.953   1.304
  813TIP3   OH2 2371   2.411   3.070   1.441
  813TIP3    H1 2372   2.333   3.100   1.489
  813TIP3    H2 2373   2.442   3.153   1.398
  814TIP3   OH2 2374   1.026   2.801   2.253
  814TIP3    H1 2375   1.124   2.792   2.250
  814TIP3    H2 2376   1.003   2.717   2.297
  815TIP3   OH2 2377   2.881   2.671   2.006
  815TIP3    H1 2378   2.926   2.599   1.959
  815TIP3    H2 2379   2.815   2.702   1.941
  816TIP3   OH2 2380   2.305   2.546   0.799
  816TIP3    H1 2381   2.325   2.497   0.881
  816TIP3    H2 2382   2.271   2.477   0.739
  817TIP3   OH2 2383   2.727   2.800   1.812
  817TIP3    H1 2384   2.641   2.840   1.834
  817TIP3    H2 2385   2.697   2.725   1.759
  818TIP3   OH2 2386   1.934   3.972   0.658
  818TIP3    H1 2387   1.977   3.955   0.572
  818TIP3    H2 2388   1.997   4.033   0.699
  819TIP3   OH2 2389   1.032   3.778   2.040
  819TIP3    H1 2390   0.940   3.751   2.022
  819TIP3    H2 2391   1.044   3.747   2.131
  820TIP3   OH2 2392   1.212   3.809   1.592
  820TIP3    H1 2393   1.163   3.883   1.549
  820TIP3    H2 2394   1.297   3.821   1.545
  821TIP3   OH2 2395   1.652   4.048   1.729
  821TIP3    H1 2396   1.697   4.048   1.816
  821TIP3    H2 2397   1.717   4.099   1.675
  822TIP3   OH2 2398   1.829   4.203   1.587
  822TIP3    H1 2399   1.895   4.150   1.540
  822TIP3    H2 2400   1.886   4.257   1.646
  823TIP3   OH2 2401   0.888   4.068   1.611
  823TIP3    H1 2402   0.798   4.100   1.587
  823TIP3    H2 2403   0.891   4.095   1.703
  824TIP3   OH2 2404   1.124   4.043   1.472
  824TIP3    H1 2405   1.036   4.056   1.515
  824TIP3    H2 2406   1.105   4.069   1.380
  825TIP3   OH2 2407   1.547   4.066   1.269
  825TIP3    H1 2408   1.475   4.081   1.205
  825TIP3    H2 2409   1.557   4.155   1.309
  826TIP3   OH2 2410   1.817   4.010   1.326
  826TIP3    H1 2411   1.723   4.024   1.302
  826TIP3    H2 2412   1.861   4.078   1.273
  827TIP3   OH2 2413   2.025   4.199   1.233
  827TIP3    H1 2414   2.010   4.282   1.183
  827TIP3    H2 2415   2.052   4.137   1.162
  828TIP3   OH2 2416   0.809   3.870   1.368
  828TIP3    H1 2417   0.833   3.835   1.457
  828TIP3    H2 2418   0.873   3.817   1.314
  829TIP3   OH2 2419   0.986   3.725   1.217
  829TIP3    H1 2420   1.004   3.641   1.265
  829TIP3    H2 2421   1.077   3.759   1.205
  830TIP3   OH2 2422   1.260   3.823   1.216
  830TIP3    H1 2423   1.288   3.733   1.193
  830TIP3    H2 2424   1.307   3.834   1.301
  831TIP3   OH2 2425   1.840   2.485   1.315
  831TIP3    H1 2426   1.795   2.416   1.367
  831TIP3    H2 2427   1.894   2.432   1.254
  832TIP3   OH2 2428   2.372   2.339   1.211
  832TIP3    H1 2429   2.417   2.394   1.143
  832TIP3    H2 2430   2.283   2.380   1.214
  833TIP3   OH2 2431   2.485   2.466   1.001
  833TIP3    H1 2432   2.546   2.412   0.947
  833TIP3    H2 2433   2.502   2.556   0.966
  834TIP3   OH2 2434   2.101   2.397   1.220
  834TIP3    H1 2435   2.054   2.360   1.143
  834TIP3    H2 2436   2.099   2.318   1.279
  835TIP3   OH2 2437   1.363   3.825   0.345
  835TIP3    H1 2438   1.448   3.824   0.295
  835TIP3    H2 2439   1.300   3.795   0.278
  836TIP3   OH2 2440   2.078   3.932   0.424
  836TIP3    H1 2441   2.073   3.834   0.414
  836TIP3    H2 2442   2.031   3.960   0.343
  837TIP3   OH2 2443   1.291   2.484   2.223
  837TIP3    H1 2444   1.269   2.393   2.245
  837TIP3    H2 2445   1.388   2.481   2.242
  838TIP3   OH2 2446   1.548   2.476   2.326
  838TIP3    H1 2447   1.624   2.438   2.279
  838TIP3    H2 2448   1.542   2.417   2.404
  839TIP3   OH2 2449   2.377   2.523   2.106
  839TIP3    H1 2450   2.389   2.496   2.199
  839TIP3    H2 2451   2.459   2.485   2.066
  840TIP3   OH2 2452   2.298   4.077   1.613
  840TIP3    H1 2453   2.222   4.045   1.560
  840TIP3    H2 2454   2.278   4.172   1.616
  841TIP3   OH2 2455   3.571   3.452   0.372
  841TIP3    H1 2456   3.541   3.542   0.352
  841TIP3    H2 2457   3.494   3.400   0.342
  842TIP3   OH2 2458   3.566   3.449   0.761
  842TIP3    H1 2459   3.604   3.427   0.848
  842TIP3    H2 2460   3.526   3.365   0.735
  843TIP3   OH2 2461   2.865   3.343   1.122
  843TIP3    H1 2462   2.894   3.273   1.183
  843TIP3    H2 2463   2.947   3.393   1.113
  844TIP3   OH2 2464   3.812   3.758   0.439
  844TIP3    H1 2465   3.799   3.688   0.505
  844TIP3    H2 2466   3.847   3.831   0.494
  845TIP3   OH2 2467   2.840   3.757   0.846
  845TIP3    H1 2468   2.832   3.659   0.845
  845TIP3    H2 2469   2.937   3.766   0.839
  846TIP3   OH2 2470   2.549   2.964   0.625
  846TIP3    H1 2471   2.498   3.045   0.642
  846TIP3    H2 2472   2.477   2.901   0.611
  847TIP3   OH2 2473   2.604   3.245   0.810
  847TIP3    H1 2474   2.653   3.165   0.842
  847TIP3    H2 2475   2.659   3.272   0.735
  848TIP3   OH2 2476   3.465   4.213   0.457
  848TIP3    H1 2477   3.508   4.142   0.405
  848TIP3    H2 2478   3.459   4.172   0.544
  849TIP3   OH2 2479   3.366   3.677   0.806
  849TIP3    H1 2480   3.407   3.599   0.765
  849TIP3    H2 2481   3.448   3.724   0.830
  850TIP3   OH2 2482   4.381   2.996   0.805
  850TIP3    H1 2483   4.411   3.079   0.847
  850TIP3    H2 2484   4.400   3.015   0.711
  851TIP3   OH2 2485   3.781   3.177   0.834
  851TIP3    H1 2486   3.822   3.091   0.856
  851TIP3    H2 2487   3.747   3.158   0.744
  852TIP3   OH2 2488   3.121   2.834   0.799
  852TIP3    H1 2489   3.098   2.907   0.738
  852TIP3    H2 2490   3.073   2.760   0.757
  853TIP3   OH2 2491   3.821   2.931   0.421
  853TIP3    H1 2492   3.891   2.910   0.487
  853TIP3    H2 2493   3.876   2.954   0.344
  854TIP3   OH2 2494   2.752   3.036   0.907
  854TIP3    H1 2495   2.834   3.017   0.956
  854TIP3    H2 2496   2.764   2.979   0.829
  855TIP3   OH2 2497   3.190   3.236   0.706
  855TIP3    H1 2498   3.284   3.211   0.717
  855TIP3    H2 2499   3.151   3.151   0.674
  856TIP3   OH2 2500   4.456   3.205   0.972
  856TIP3    H1 2501   4.371   3.251   0.954
  856TIP3    H2 2502   4.474   3.236   1.063
  857TIP3   OH2 2503   3.114   2.821   1.237
  857TIP3    H1 2504   3.054   2.856   1.169
  857TIP3    H2 2505   3.061   2.838   1.318
  858TIP3   OH2 2506   3.463   3.675   0.239
  858TIP3    H1 2507   3.413   3.656   0.159
  858TIP3    H2 2508   3.416   3.755   0.272
  859TIP3   OH2 2509   3.221   3.596   1.028
  859TIP3    H1 2510   3.161   3.665   1.065
  859TIP3    H2 2511   3.264   3.644   0.954
  860TIP3   OH2 2512   4.029   2.928   0.603
  860TIP3    H1 2513   3.997   2.891   0.687
  860TIP3    H2 2514   4.069   3.012   0.632
  861TIP3   OH2 2515   2.987   2.934   1.019
  861TIP3    H1 2516   3.050   3.006   1.044
  861TIP3    H2 2517   3.036   2.894   0.944
  862TIP3   OH2 2518   3.050   3.793   1.130
  862TIP3    H1 2519   3.024   3.879   1.093
  862TIP3    H2 2520   2.970   3.774   1.185
  863TIP3   OH2 2521   2.442   3.480   0.369
  863TIP3    H1 2522   2.401   3.503   0.283
  863TIP3    H2 2523   2.473   3.567   0.400
  864TIP3   OH2 2524   3.877   3.996   0.601
  864TIP3    H1 2525   3.787   3.988   0.641
  864TIP3    H2 2526   3.871   4.085   0.560
  865TIP3   OH2 2527   4.173   2.893   0.967
  865TIP3    H1 2528   4.086   2.923   0.935
  865TIP3    H2 2529   4.234   2.929   0.899
  866TIP3   OH2 2530   3.468   2.536   0.954
  866TIP3    H1 2531   3.451   2.442   0.970
  866TIP3    H2 2532   3.391   2.576   1.000
  867TIP3   OH2 2533   3.581   4.041   0.271
  867TIP3    H1 2534   3.631   3.957   0.257
  867TIP3    H2 2535   3.649   4.105   0.239
  868TIP3   OH2 2536   3.728   3.824   0.186
  868TIP3    H1 2537   3.671   3.748   0.165
  868TIP3    H2 2538   3.768   3.794   0.271
  869TIP3   OH2 2539   4.104   3.908   0.953
  869TIP3    H1 2540   4.106   3.831   0.892
  869TIP3    H2 2541   4.095   3.983   0.889
  870TIP3   OH2 2542   3.400   3.301   0.209
  870TIP3    H1 2543   3.321   3.354   0.188
  870TIP3    H2 2544   3.444   3.296   0.122
  871TIP3   OH2 2545   3.350   3.074  -0.065
  871TIP3    H1 2546   3.421   3.136  -0.038
  871TIP3    H2 2547   3.399   2.993  -0.079
  872TIP3   OH2 2548   4.300   3.537   0.790
  872TIP3    H1 2549   4.223   3.597   0.802
  872TIP3    H2 2550   4.335   3.573   0.706
  873TIP3   OH2 2551   3.748   3.382   0.175
  873TIP3    H1 2552   3.693   3.406   0.254
  873TIP3    H2 2553   3.832   3.357   0.219
  874TIP3   OH2 2554   3.981   3.421   1.095
  874TIP3    H1 2555   3.980   3.505   1.144
  874TIP3    H2 2556   3.895   3.427   1.048
  875TIP3   OH2 2557   2.980   3.380   0.594
  875TIP3    H1 2558   2.940   3.322   0.526
  875TIP3    H2 2559   3.055   3.327   0.626
  876TIP3   OH2 2560   3.110   3.795   0.743
  876TIP3    H1 2561   3.089   3.757   0.656
  876TIP3    H2 2562   3.199   3.758   0.760
  877TIP3   OH2 2563   3.115   3.352   0.952
  877TIP3    H1 2564   3.147   3.327   0.863
  877TIP3    H2 2565   3.159   3.438   0.967
  878TIP3   OH2 2566   3.636   3.991   0.726
  878TIP3    H1 2567   3.629   4.071   0.781
  878TIP3    H2 2568   3.624   3.918   0.789
  879TIP3   OH2 2569   3.255   3.911   1.274
  879TIP3    H1 2570   3.192   3.971   1.320
  879TIP3    H2 2571   3.192   3.856   1.223
  880TIP3   OH2 2572   3.583   3.243  -0.000
  880TIP3    H1 2573   3.642   3.301   0.053
  880TIP3    H2 2574   3.615   3.264  -0.091
  881TIP3   OH2 2575   3.009   3.464   1.379
  881TIP3    H1 2576   3.013   3.552   1.421
  881TIP3    H2 2577   2.915   3.442   1.391
  882TIP3   OH2 2578   3.332   3.916   0.284
  882TIP3    H1 2579   3.413   3.971   0.290
  882TIP3    H2 2580   3.271   3.975   0.238
  883TIP3   OH2 2581   3.046   4.076   1.361
  883TIP3    H1 2582   3.013   4.078   1.269
  883TIP3    H2 2583   2.966   4.055   1.413
  884TIP3   OH2 2584   4.111   2.488   0.059
  884TIP3    H1 2585   4.028   2.507   0.109
  884TIP3    H2 2586   4.127   2.575   0.018
  885TIP3   OH2 2587   2.849   3.224   0.391
  885TIP3    H1 2588   2.777   3.268   0.341
  885TIP3    H2 2589   2.808   3.140   0.415
  886TIP3   OH2 2590   2.627   3.609   1.307
  886TIP3    H1 2591   2.559   3.588   1.240
  886TIP3    H2 2592   2.664   3.521   1.328
  887TIP3   OH2 2593   2.481   3.804   0.934
  887TIP3    H1 2594   2.577   3.791   0.927
  887TIP3    H2 2595   2.476   3.879   0.995
  888TIP3   OH2 2596   4.344   4.271   1.003
  888TIP3    H1 2597   4.349   4.175   0.991
  888TIP3    H2 2598   4.259   4.281   1.050
  889TIP3   OH2 2599   3.449   4.039   1.131
  889TIP3    H1 2600   3.446   4.131   1.164
  889TIP3    H2 2601   3.378   3.997   1.185
  890TIP3   OH2 2602   3.207   4.167   0.084
  890TIP3    H1 2603   3.159   4.150   0.001
  890TIP3    H2 2604   3.177   4.257   0.108
  891TIP3   OH2 2605   2.650   4.015   0.469
  891TIP3    H1 2606   2.696   4.006   0.556
  891TIP3    H2 2607   2.604   3.929   0.464
  892TIP3   OH2 2608   3.426   4.028  -0.231
  892TIP3    H1 2609   3.513   3.986  -0.235
  892TIP3    H2 2610   3.431   4.063  -0.139
  893TIP3   OH2 2611   3.463   4.116   0.022
  893TIP3    H1 2612   3.372   4.129   0.058
  893TIP3    H2 2613   3.511   4.086   0.101
  894TIP3   OH2 2614   4.231   3.380   1.275
  894TIP3    H1 2615   4.150   3.392   1.223
  894TIP3    H2 2616   4.249   3.285   1.263
  895TIP3   OH2 2617   2.829   3.793   1.294
  895TIP3    H1 2618   2.880   3.774   1.375
  895TIP3    H2 2619   2.756   3.728   1.300
  896TIP3   OH2 2620   3.231   2.614   1.082
  896TIP3    H1 2621   3.143   2.583   1.052
  896TIP3    H2 2622   3.203   2.694   1.131
  897TIP3   OH2 2623   3.766   2.729   1.276
  897TIP3    H1 2624   3.835   2.700   1.339
  897TIP3    H2 2625   3.683   2.709   1.324
  898TIP3   OH2 2626   4.000   3.157   1.193
  898TIP3    H1 2627   3.950   3.156   1.277
  898TIP3    H2 2628   3.979   3.246   1.157
  899TIP3   OH2 2629   3.671   3.304  -0.250
  899TIP3    H1 2630   3.665   3.264  -0.338
  899TIP3    H2 2631   3.709   3.391  -0.269
  900TIP3   OH2 2632   3.389   2.688   0.057
  900TIP3    H1 2633   3.353   2.674   0.147
  900TIP3    H2 2634   3.360   2.608   0.012
  901TIP3   OH2 2635   3.164   3.131   1.101
  901TIP3    H1 2636   3.112   3.150   1.181
  901TIP3    H2 2637   3.148   3.212   1.047
  902TIP3   OH2 2638   3.044   3.019   0.616
  902TIP3    H1 2639   2.953   2.990   0.635
  902TIP3    H2 2640   3.058   2.978   0.528
  903TIP3   OH2 2641   3.537   3.100   0.344
  903TIP3    H1 2642   3.488   3.171   0.298
  903TIP3    H2 2643   3.594   3.066   0.272
  904TIP3   OH2 2644   3.711   3.378   1.426
  904TIP3    H1 2645   3.690   3.305   1.489
  904TIP3    H2 2646   3.805   3.391   1.447
  905TIP3   OH2 2647   3.693   3.126   0.578
  905TIP3    H1 2648   3.629   3.153   0.509
  905TIP3    H2 2649   3.731   3.048   0.532
  906TIP3   OH2 2650   2.981   3.158   1.306
  906TIP3    H1 2651   3.009   3.219   1.375
  906TIP3    H2 2652   2.967   3.075   1.356
  907TIP3   OH2 2653   3.034   2.612   0.024
  907TIP3    H1 2654   3.038   2.622   0.121
  907TIP3    H2 2655   2.950   2.654   0.006
  908TIP3   OH2 2656   2.585   2.690   0.877
  908TIP3    H1 2657   2.653   2.718   0.941
  908TIP3    H2 2658   2.635   2.641   0.811
  909TIP3   OH2 2659   2.582   2.705   0.430
  909TIP3    H1 2660   2.636   2.735   0.355
  909TIP3    H2 2661   2.519   2.779   0.440
  910TIP3   OH2 2662   3.700   3.374   0.999
  910TIP3    H1 2663   3.736   3.303   0.940
  910TIP3    H2 2664   3.671   3.319   1.075
  911TIP3   OH2 2665   3.378   2.838   0.672
  911TIP3    H1 2666   3.295   2.837   0.725
  911TIP3    H2 2667   3.446   2.832   0.741
  912TIP3   OH2 2668   2.809   2.895   0.678
  912TIP3    H1 2669   2.715   2.904   0.649
  912TIP3    H2 2670   2.829   2.802   0.657
  913TIP3   OH2 2671   3.078   2.895   0.378
  913TIP3    H1 2672   3.172   2.907   0.356
  913TIP3    H2 2673   3.032   2.911   0.293
  914TIP3   OH2 2674   3.865   2.914   0.874
  914TIP3    H1 2675   3.835   2.928   0.967
  914TIP3    H2 2676   3.796   2.853   0.842
  915TIP3   OH2 2677   2.924   2.920   0.159
  915TIP3    H1 2678   2.829   2.900   0.149
  915TIP3    H2 2679   2.950   2.957   0.073
  916TIP3   OH2 2680   4.039   4.605   1.096
  916TIP3    H1 2681   4.039   4.626   1.001
  916TIP3    H2 2682   4.122   4.648   1.125
  917TIP3   OH2 2683   2.992   3.716   1.515
  917TIP3    H1 2684   3.073   3.743   1.563
  917TIP3    H2 2685   2.929   3.709   1.589
  918TIP3   OH2 2686   3.455   3.169   0.772
  918TIP3    H1 2687   3.528   3.127   0.724
  918TIP3    H2 2688   3.459   3.124   0.858
  919TIP3   OH2 2689   2.977   2.651   0.652
  919TIP3    H1 2690   2.934   2.577   0.700
  919TIP3    H2 2691   3.013   2.603   0.576
  920TIP3   OH2 2692   3.433   3.068   1.057
  920TIP3    H1 2693   3.342   3.101   1.074
  920TIP3    H2 2694   3.489   3.129   1.109
  921TIP3   OH2 2695   3.171   3.454   0.154
  921TIP3    H1 2696   3.098   3.389   0.144
  921TIP3    H2 2697   3.151   3.489   0.245
  922TIP3   OH2 2698   4.071   3.691   0.783
  922TIP3    H1 2699   4.097   3.741   0.702
  922TIP3    H2 2700   3.986   3.650   0.755
  923TIP3   OH2 2701   3.645   2.768   0.005
  923TIP3    H1 2702   3.552   2.741   0.015
  923TIP3    H2 2703   3.646   2.859   0.038
  924TIP3   OH2 2704   3.563   3.771   1.153
  924TIP3    H1 2705   3.601   3.754   1.240
  924TIP3    H2 2706   3.530   3.862   1.160
  925TIP3   OH2 2707   3.698   3.013   0.129
  925TIP3    H1 2708   3.795   3.009   0.140
  925TIP3    H2 2709   3.686   3.093   0.074
  926TIP3   OH2 2710   2.865   3.482   0.829
  926TIP3    H1 2711   2.902   3.449   0.744
  926TIP3    H2 2712   2.902   3.419   0.892
  927TIP3   OH2 2713   3.311   3.603  -0.028
  927TIP3    H1 2714   3.266   3.690  -0.018
  927TIP3    H2 2715   3.260   3.549   0.035
  928TIP3   OH2 2716   2.744   3.395   1.445
  928TIP3    H1 2717   2.757   3.378   1.541
  928TIP3    H2 2718   2.674   3.331   1.423
  929TIP3   OH2 2719   3.470   3.513   1.464
  929TIP3    H1 2720   3.408   3.452   1.421
  929TIP3    H2 2721   3.556   3.476   1.435
  930TIP3   OH2 2722   3.725   4.033   1.051
  930TIP3    H1 2723   3.629   4.033   1.065
  930TIP3    H2 2724   3.755   4.086   1.128
  931TIP3   OH2 2725   4.137   3.109  -0.046
  931TIP3    H1 2726   4.082   3.057  -0.108
  931TIP3    H2 2727   4.127   3.197  -0.088
  932TIP3   OH2 2728   4.356   3.967   1.043
  932TIP3    H1 2729   4.259   3.966   1.039
  932TIP3    H2 2730   4.376   3.927   0.955
  933TIP3   OH2 2731   3.863   3.915  -0.144
  933TIP3    H1 2732   3.832   3.869  -0.065
  933TIP3    H2 2733   3.809   3.875  -0.214
  934TIP3   OH2 2734   3.833   3.554   0.698
  934TIP3    H1 2735   3.739   3.529   0.711
  934TIP3    H2 2736   3.867   3.473   0.654
  935TIP3   OH2 2737   2.964   3.782   0.457
  935TIP3    H1 2738   2.959   3.863   0.402
  935TIP3    H2 2739   2.871   3.760   0.468
  936TIP3   OH2 2740   2.536   3.084   0.180
  936TIP3    H1 2741   2.571   3.174   0.194
  936TIP3    H2 2742   2.447   3.090   0.219
  937TIP3   OH2 2743   3.096   3.545   0.397
  937TIP3    H1 2744   3.063   3.634   0.418
  937TIP3    H2 2745   3.063   3.493   0.472
  938TIP3   OH2 2746   3.234   4.124   0.925
  938TIP3    H1 2747   3.278   4.195   0.874
  938TIP3    H2 2748   3.310   4.085   0.971
  939TIP3   OH2 2749   2.880   4.021   0.309
  939TIP3    H1 2750   2.795   4.030   0.356
  939TIP3    H2 2751   2.912   4.114   0.311
  940TIP3   OH2 2752   3.618   3.758   0.885
  940TIP3    H1 2753   3.607   3.755   0.982
  940TIP3    H2 2754   3.699   3.708   0.873
  941TIP3   OH2 2755   3.582   3.620  -0.232
  941TIP3    H1 2756   3.643   3.610  -0.156
  941TIP3    H2 2757   3.496   3.624  -0.188
  942TIP3   OH2 2758   3.864   4.292   0.936
  942TIP3    H1 2759   3.785   4.235   0.927
  942TIP3    H2 2760   3.851   4.355   0.862
  943TIP3   OH2 2761   2.947   2.902   1.447
  943TIP3    H1 2762   2.850   2.911   1.461
  943TIP3    H2 2763   2.973   2.847   1.523
  944TIP3   OH2 2764   3.756   3.577  -0.023
  944TIP3    H1 2765   3.745   3.516   0.053
  944TIP3    H2 2766   3.853   3.581  -0.028
  945TIP3   OH2 2767   2.670   3.984   1.084
  945TIP3    H1 2768   2.723   3.909   1.114
  945TIP3    H2 2769   2.702   4.054   1.143
  946TIP3   OH2 2770   2.971   3.640  -0.223
  946TIP3    H1 2771   2.949   3.556  -0.265
  946TIP3    H2 2772   2.936   3.627  -0.132
  947TIP3   OH2 2773   2.900   3.641   0.047
  947TIP3    H1 2774   2.976   3.614   0.101
  947TIP3    H2 2775   2.909   3.739   0.050
  948TIP3   OH2 2776   2.641   3.335   0.245
  948TIP3    H1 2777   2.574   3.379   0.302
  948TIP3    H2 2778   2.652   3.403   0.176
  949TIP3   OH2 2779   3.794   2.965   1.135
  949TIP3    H1 2780   3.874   3.005   1.173
  949TIP3    H2 2781   3.781   2.885   1.190
  950TIP3   OH2 2782   3.667   2.720   0.302
  950TIP3    H1 2783   3.664   2.735   0.207
  950TIP3    H2 2784   3.710   2.801   0.335
  951TIP3   OH2 2785   3.176   3.834  -0.007
  951TIP3    H1 2786   3.090   3.863   0.028
  951TIP3    H2 2787   3.182   3.886  -0.088
  952TIP3   OH2 2788   3.357   2.899   0.403
  952TIP3    H1 2789   3.422   2.970   0.387
  952TIP3    H2 2790   3.363   2.889   0.501
  953TIP3   OH2 2791   3.631   3.214   1.208
  953TIP3    H1 2792   3.655   3.266   1.287
  953TIP3    H2 2793   3.683   3.133   1.219
  954TIP3   OH2 2794   3.503   2.620   0.504
  954TIP3    H1 2795   3.498   2.698   0.562
  954TIP3    H2 2796   3.564   2.654   0.434
  955TIP3   OH2 2797   2.922   3.911   0.060
  955TIP3    H1 2798   2.891   3.982  -0.001
  955TIP3    H2 2799   2.904   3.952   0.147
  956TIP3   OH2 2800   3.032   2.636   0.307
  956TIP3    H1 2801   3.030   2.726   0.345
  956TIP3    H2 2802   3.128   2.618   0.313
  957TIP3   OH2 2803   4.268   3.117   1.193
  957TIP3    H1 2804   4.170   3.114   1.199
  957TIP3    H2 2805   4.282   3.069   1.110
  958TIP3   OH2 2806   3.920   3.308   0.577
  958TIP3    H1 2807   3.844   3.250   0.591
  958TIP3    H2 2808   3.991   3.262   0.627
  959TIP3   OH2 2809   2.635   3.542   0.052
  959TIP3    H1 2810   2.711   3.602   0.064
  959TIP3    H2 2811   2.676   3.481  -0.013
  960TIP3   OH2 2812   2.633   2.834   0.163
  960TIP3    H1 2813   2.597   2.925   0.169
  960TIP3    H2 2814   2.557   2.789   0.122
  961TIP3   OH2 2815   3.889   4.266   0.528
  961TIP3    H1 2816   3.845   4.315   0.455
  961TIP3    H2 2817   3.983   4.288   0.508
  962TIP3   OH2 2818   2.966   2.536   1.055
  962TIP3    H1 2819   2.933   2.503   0.968
  962TIP3    H2 2820   2.957   2.457   1.111
  963TIP3   OH2 2821   2.505   3.759   0.433
  963TIP3    H1 2822   2.437   3.783   0.497
  963TIP3    H2 2823   2.468   3.798   0.350
  964TIP3   OH2 2824   2.662   4.299   1.509
  964TIP3    H1 2825   2.750   4.297   1.553
  964TIP3    H2 2826   2.642   4.204   1.505
  965TIP3   OH2 2827   3.139   4.255   1.552
  965TIP3    H1 2828   3.234   4.237   1.557
  965TIP3    H2 2829   3.113   4.194   1.480
  966TIP3   OH2 2830   3.141   3.832  -0.308
  966TIP3    H1 2831   3.063   3.777  -0.282
  966TIP3    H2 2832   3.205   3.760  -0.322
  967TIP3   OH2 2833   3.776   4.168   1.289
  967TIP3    H1 2834   3.771   4.097   1.356
  967TIP3    H2 2835   3.857   4.217   1.316
  968TIP3   OH2 2836   2.790   3.704   1.708
  968TIP3    H1 2837   2.808   3.607   1.714
  968TIP3    H2 2838   2.704   3.704   1.660
  969TIP3   OH2 2839   2.786   3.368  -0.085
  969TIP3    H1 2840   2.848   3.329  -0.020
  969TIP3    H2 2841   2.802   3.319  -0.165
  970TIP3   OH2 2842   3.396   3.788   1.482
  970TIP3    H1 2843   3.358   3.808   1.394
  970TIP3    H2 2844   3.428   3.696   1.471
  971TIP3   OH2 2845   3.271   3.548  -0.294
  971TIP3    H1 2846   3.279   3.576  -0.201
  971TIP3    H2 2847   3.273   3.453  -0.285
  972TIP3   OH2 2848   3.890   3.800   1.089
  972TIP3    H1 2849   3.968   3.838   1.043
  972TIP3    H2 2850   3.824   3.870   1.070
  973TIP3   OH2 2851   2.912   3.445   1.690
  973TIP3    H1 2852   2.982   3.385   1.663
  973TIP3    H2 2853   2.942   3.473   1.779
  974TIP3   OH2 2854   2.976   3.257   0.120
  974TIP3    H1 2855   2.947   3.225   0.207
  974TIP3    H2 2856   3.012   3.176   0.079
  975TIP3   OH2 2857   3.247   3.322   1.353
  975TIP3    H1 2858   3.168   3.379   1.351
  975TIP3    H2 2859   3.299   3.356   1.276
  976TIP3   OH2 2860   3.075   3.047  -0.044
  976TIP3    H1 2861   3.075   3.006  -0.131
  976TIP3    H2 2862   3.172   3.061  -0.032
  977TIP3   OH2 2863   3.765   3.723   1.484
  977TIP3    H1 2864   3.841   3.692   1.434
  977TIP3    H2 2865   3.759   3.657   1.555
  978TIP3   OH2 2866   3.371   3.111   1.475
  978TIP3    H1 2867   3.370   3.032   1.417
  978TIP3    H2 2868   3.326   3.177   1.418
  979TIP3   OH2 2869   3.372   2.898   1.285
  979TIP3    H1 2870   3.400   2.937   1.201
  979TIP3    H2 2871   3.279   2.874   1.267
  980TIP3   OH2 2872   3.396   3.430   1.158
  980TIP3    H1 2873   3.482   3.443   1.116
  980TIP3    H2 2874   3.340   3.495   1.111
  981TIP3   OH2 2875   3.979   3.396   1.536
  981TIP3    H1 2876   4.028   3.312   1.545
  981TIP3    H2 2877   4.047   3.454   1.498
  982TIP3   OH2 2878   4.020   3.652   1.274
  982TIP3    H1 2879   3.963   3.707   1.215
  982TIP3    H2 2880   4.108   3.674   1.236
  983TIP3   OH2 2881   3.250   3.217   1.711
  983TIP3    H1 2882   3.182   3.147   1.726
  983TIP3    H2 2883   3.281   3.193   1.621
  984TIP3   OH2 2884   3.504   2.658   1.354
  984TIP3    H1 2885   3.453   2.738   1.331
  984TIP3    H2 2886   3.435   2.588   1.343
  985TIP3   OH2 2887   3.629   3.160   1.569
  985TIP3    H1 2888   3.613   3.144   1.664
  985TIP3    H2 2889   3.541   3.137   1.534
  986TIP3   OH2 2890   3.868   3.114   1.424
  986TIP3    H1 2891   3.794   3.114   1.488
  986TIP3    H2 2892   3.943   3.083   1.479
  987TIP3   OH2 2893   4.096   3.055   1.573
  987TIP3    H1 2894   4.111   2.959   1.586
  987TIP3    H2 2895   4.095   3.089   1.664
  988TIP3   OH2 2896   3.089   2.998   1.761
  988TIP3    H1 2897   3.093   2.907   1.726
  988TIP3    H2 2898   3.127   2.984   1.851
  989TIP3   OH2 2899   3.598   2.668   1.612
  989TIP3    H1 2900   3.663   2.596   1.605
  989TIP3    H2 2901   3.557   2.663   1.523
  990TIP3   OH2 2902   3.665   2.883   1.770
  990TIP3    H1 2903   3.644   2.811   1.706
  990TIP3    H2 2904   3.586   2.940   1.763
  991TIP3   OH2 2905   2.878   4.112  -0.124
  991TIP3    H1 2906   2.969   4.112  -0.159
  991TIP3    H2 2907   2.826   4.140  -0.200
  992TIP3   OH2 2908   2.363   3.500   0.101
  992TIP3    H1 2909   2.453   3.527   0.073
  992TIP3    H2 2910   2.354   3.414   0.059
  993TIP3   OH2 2911   2.281   4.106   0.500
  993TIP3    H1 2912   2.215   4.044   0.462
  993TIP3    H2 2913   2.326   4.048   0.565
  994TIP3   OH2 2914   2.413   3.955   0.688
  994TIP3    H1 2915   2.403   3.882   0.752
  994TIP3    H2 2916   2.468   4.015   0.741
  995TIP3   OH2 2917   4.139   4.366   0.486
  995TIP3    H1 2918   4.169   4.385   0.577
  995TIP3    H2 2919   4.214   4.396   0.434
  996TIP3   OH2 2920   4.175   4.376   0.767
  996TIP3    H1 2921   4.133   4.287   0.769
  996TIP3    H2 2922   4.263   4.352   0.799
  997TIP3   OH2 2923   4.218   4.052   1.346
  997TIP3    H1 2924   4.146   4.065   1.411
  997TIP3    H2 2925   4.261   4.140   1.346
  998TIP3   OH2 2926   4.034   3.562  -0.033
  998TIP3    H1 2927   4.105   3.625  -0.054
  998TIP3    H2 2928   4.072   3.519   0.047
  999TIP3   OH2 2929   4.162   3.429   0.166
  999TIP3    H1 2930   4.096   3.388   0.226
  999TIP3    H2 2931   4.228   3.466   0.229
 1000TIP3   OH2 2932   4.197   3.820   0.575
 1000TIP3    H1 2933   4.265   3.760   0.541
 1000TIP3    H2 2934   4.209   3.899   0.520
 1001TIP3   OH2 2935   4.045   4.127   0.789
 1001TIP3    H1 2936   3.973   4.165   0.841
 1001TIP3    H2 2937   3.997   4.079   0.719
 1002TIP3   OH2 2938   4.090   3.347  -0.194
 1002TIP3    H1 2939   4.012   3.333  -0.250
 1002TIP3    H2 2940   4.061   3.423  -0.139
 1003TIP3   OH2 2941   3.976   3.023  -0.255
 1003TIP3    H1 2942   3.965   3.038  -0.350
 1003TIP3    H2 2943   3.943   2.931  -0.245
 1004TIP3   OH2 2944   3.975   3.289   0.309
 1004TIP3    H1 2945   3.984   3.192   0.302
 1004TIP3    H2 2946   3.959   3.301   0.405
 1005TIP3   OH2 2947   2.600   3.366   1.058
 1005TIP3    H1 2948   2.598   3.330   0.967
 1005TIP3    H2 2949   2.697   3.366   1.075
 1006TIP3   OH2 2950   4.266   3.717   1.168
 1006TIP3    H1 2951   4.337   3.650   1.156
 1006TIP3    H2 2952   4.290   3.785   1.103
 1007TIP3   OH2 2953   4.445   3.514   1.176
 1007TIP3    H1 2954   4.372   3.465   1.219
 1007TIP3    H2 2955   4.520   3.453   1.193
 1008TIP3   OH2 2956   3.912   2.758  -0.231
 1008TIP3    H1 2957   3.999   2.723  -0.203
 1008TIP3    H2 2958   3.852   2.716  -0.169
 1009TIP3   OH2 2959   3.987   2.997   0.203
 1009TIP3    H1 2960   4.049   2.923   0.220
 1009TIP3    H2 2961   4.035   3.035   0.127
 1010TIP3   OH2 2962   4.132   3.176   0.701
 1010TIP3    H1 2963   4.218   3.201   0.660
 1010TIP3    H2 2964   4.145   3.216   0.789
 1011TIP3   OH2 2965   4.203   3.323   0.929
 1011TIP3    H1 2966   4.127   3.358   0.979
 1011TIP3    H2 2967   4.236   3.404   0.883
 1012TIP3   OH2 2968   2.825   3.057   1.748
 1012TIP3    H1 2969   2.922   3.044   1.744
 1012TIP3    H2 2970   2.796   2.969   1.779
 1013TIP3   OH2 2971   4.664   2.900   1.484
 1013TIP3    H1 2972   4.706   2.825   1.436
 1013TIP3    H2 2973   4.635   2.955   1.409
 1014TIP3   OH2 2974   2.782   2.744   1.059
 1014TIP3    H1 2975   2.841   2.667   1.068
 1014TIP3    H2 2976   2.846   2.816   1.051
 1015TIP3   OH2 2977   2.584   3.015   1.134
 1015TIP3    H1 2978   2.631   3.010   1.049
 1015TIP3    H2 2979   2.616   3.098   1.170
 1016TIP3   OH2 2980   4.526   3.049   1.294
 1016TIP3    H1 2981   4.440   3.092   1.313
 1016TIP3    H2 2982   4.495   2.975   1.237
 1017TIP3   OH2 2983   4.170   2.687  -0.147
 1017TIP3    H1 2984   4.227   2.666  -0.222
 1017TIP3    H2 2985   4.223   2.758  -0.104
 1018TIP3   OH2 2986   2.564   2.526   0.640
 1018TIP3    H1 2987   2.479   2.542   0.684
 1018TIP3    H2 2988   2.565   2.595   0.571
 1019TIP3   OH2 2989   3.737   4.223   0.146
 1019TIP3    H1 2990   3.776   4.215   0.057
 1019TIP3    H2 2991   3.784   4.298   0.183
 1020TIP3   OH2 2992   2.774   2.580   1.461
 1020TIP3    H1 2993   2.706   2.571   1.528
 1020TIP3    H2 2994   2.726   2.634   1.395
 1021TIP3   OH2 2995   2.825   4.036   1.526
 1021TIP3    H1 2996   2.734   4.004   1.508
 1021TIP3    H2 2997   2.840   4.005   1.616
 1022TIP3   OH2 2998   3.007   4.065   1.075
 1022TIP3    H1 2999   2.961   4.141   1.034
 1022TIP3    H2 3000   3.094   4.076   1.031
 1023TIP3   OH2 3001   3.447   4.307   1.213
 1023TIP3    H1 3002   3.491   4.305   1.301
 1023TIP3    H2 3003   3.514   4.356   1.161
 1024TIP3   OH2 3004   3.628   4.458   1.073
 1024TIP3    H1 3005   3.698   4.408   1.029
 1024TIP3    H2 3006   3.682   4.515   1.133
 1025TIP3   OH2 3007   4.424   2.820   1.169
 1025TIP3    H1 3008   4.333   2.805   1.136
 1025TIP3    H2 3009   4.461   2.729   1.160
 1026TIP3   OH2 3010   2.680   4.320   1.096
 1026TIP3    H1 3011   2.590   4.354   1.075
 1026TIP3    H2 3012   2.692   4.356   1.185
 1027TIP3   OH2 3013   2.919   4.298   0.958
 1027TIP3    H1 3014   2.830   4.310   1.000
 1027TIP3    H2 3015   2.901   4.327   0.867
 1028TIP3   OH2 3016   3.343   4.323   0.756
 1028TIP3    H1 3017   3.273   4.341   0.690
 1028TIP3    H2 3018   3.355   4.411   0.797
 1029TIP3   OH2 3019   3.613   4.261   0.809
 1029TIP3    H1 3020   3.520   4.281   0.786
 1029TIP3    H2 3021   3.660   4.333   0.763
 1030TIP3   OH2 3022   3.815   4.452   0.719
 1030TIP3    H1 3023   3.803   4.537   0.670
 1030TIP3    H2 3024   3.846   4.392   0.647
 1031TIP3   OH2 3025   2.593   4.110   0.845
 1031TIP3    H1 3026   2.621   4.082   0.934
 1031TIP3    H2 3027   2.664   4.067   0.792
 1032TIP3   OH2 3028   2.788   3.984   0.704
 1032TIP3    H1 3029   2.803   3.900   0.753
 1032TIP3    H2 3030   2.880   4.018   0.698
 1033TIP3   OH2 3031   3.057   4.075   0.708
 1033TIP3    H1 3032   3.086   3.983   0.696
 1033TIP3    H2 3033   3.105   4.097   0.789
 1034TIP3   OH2 3034   3.629   2.732   0.793
 1034TIP3    H1 3035   3.586   2.661   0.844
 1034TIP3    H2 3036   3.702   2.685   0.749
 1035TIP3   OH2 3037   4.155   2.609   0.692
 1035TIP3    H1 3038   4.200   2.662   0.623
 1035TIP3    H2 3039   4.062   2.637   0.683
 1036TIP3   OH2 3040   4.286   2.705   0.465
 1036TIP3    H1 3041   4.283   2.702   0.366
 1036TIP3    H2 3042   4.260   2.797   0.473
 1037TIP3   OH2 3043   2.871   2.448   0.812
 1037TIP3    H1 3044   2.783   2.406   0.803
 1037TIP3    H2 3045   2.928   2.368   0.802
 1038TIP3   OH2 3046   2.785   2.389   0.525
 1038TIP3    H1 3047   2.731   2.361   0.450
 1038TIP3    H2 3048   2.717   2.430   0.582
 1039TIP3   OH2 3049   3.327   2.470   0.684
 1039TIP3    H1 3050   3.384   2.520   0.625
 1039TIP3    H2 3051   3.343   2.513   0.770
 1040TIP3   OH2 3052   3.867   2.623   0.668
 1040TIP3    H1 3053   3.864   2.583   0.580
 1040TIP3    H2 3054   3.857   2.544   0.726
 1041TIP3   OH2 3055   3.895   2.526   0.224
 1041TIP3    H1 3056   3.817   2.580   0.242
 1041TIP3    H2 3057   3.876   2.446   0.277
 1042TIP3   OH2 3058   2.382   3.885   0.229
 1042TIP3    H1 3059   2.299   3.844   0.196
 1042TIP3    H2 3060   2.362   3.979   0.214
 1043TIP3   OH2 3061   2.796   2.513   0.238
 1043TIP3    H1 3062   2.840   2.429   0.253
 1043TIP3    H2 3063   2.858   2.573   0.283
 1044TIP3   OH2 3064   3.303   2.646   0.316
 1044TIP3    H1 3065   3.361   2.601   0.379
 1044TIP3    H2 3066   3.322   2.740   0.341
 1045TIP3   OH2 3067   3.147   4.079  -0.195
 1045TIP3    H1 3068   3.241   4.090  -0.215
 1045TIP3    H2 3069   3.130   3.999  -0.249
 1046TIP3   OH2 3070   3.873   4.186  -0.096
 1046TIP3    H1 3071   3.866   4.090  -0.116
 1046TIP3    H2 3072   3.868   4.226  -0.185
 1047TIP3   OH2 3073   3.088   2.727   1.692
 1047TIP3    H1 3074   3.045   2.678   1.763
 1047TIP3    H2 3075   3.182   2.722   1.722
 1048TIP3   OH2 3076   3.336   2.719   1.816
 1048TIP3    H1 3077   3.422   2.692   1.778
 1048TIP3    H2 3078   3.324   2.649   1.884
 1049TIP3   OH2 3079   2.467   3.939  -0.105
 1049TIP3    H1 3080   2.446   3.944  -0.011
 1049TIP3    H2 3081   2.534   3.872  -0.109
 1050TIP3   OH2 3082   4.160   2.784   1.603
 1050TIP3    H1 3083   4.181   2.754   1.694
 1050TIP3    H2 3084   4.249   2.781   1.560
 1051TIP3   OH2 3085   4.087   4.331   1.105
 1051TIP3    H1 3086   4.012   4.304   1.048
 1051TIP3    H2 3087   4.075   4.428   1.104
 1052TIP3   OH2 3088   5.361   3.698   0.243
 1052TIP3    H1 3089   5.399   3.691   0.333
 1052TIP3    H2 3090   5.312   3.614   0.236
 1053TIP3   OH2 3091   4.668   3.602   0.605
 1053TIP3    H1 3092   4.693   3.531   0.666
 1053TIP3    H2 3093   4.729   3.672   0.634
 1054TIP3   OH2 3094   4.634   4.000   0.302
 1054TIP3    H1 3095   4.623   3.907   0.327
 1054TIP3    H2 3096   4.724   4.019   0.337
 1055TIP3   OH2 3097   4.346   3.219   0.108
 1055TIP3    H1 3098   4.286   3.292   0.131
 1055TIP3    H2 3099   4.281   3.152   0.077
 1056TIP3   OH2 3100   4.399   3.503   0.292
 1056TIP3    H1 3101   4.446   3.423   0.326
 1056TIP3    H2 3102   4.472   3.556   0.258
 1057TIP3   OH2 3103   5.170   3.928   0.279
 1057TIP3    H1 3104   5.217   3.849   0.247
 1057TIP3    H2 3105   5.247   3.976   0.316
 1058TIP3   OH2 3106   6.182   3.254   0.293
 1058TIP3    H1 3107   6.200   3.330   0.352
 1058TIP3    H2 3108   6.260   3.256   0.235
 1059TIP3   OH2 3109   5.586   3.432   0.351
 1059TIP3    H1 3110   5.623   3.345   0.372
 1059TIP3    H2 3111   5.543   3.413   0.266
 1060TIP3   OH2 3112   4.923   3.089   0.294
 1060TIP3    H1 3113   4.887   3.167   0.247
 1060TIP3    H2 3114   4.872   3.016   0.251
 1061TIP3   OH2 3115   5.593   3.168  -0.037
 1061TIP3    H1 3116   5.674   3.158   0.017
 1061TIP3    H2 3117   5.633   3.175  -0.126
 1062TIP3   OH2 3118   4.546   3.295   0.394
 1062TIP3    H1 3119   4.629   3.279   0.442
 1062TIP3    H2 3120   4.554   3.231   0.321
 1063TIP3   OH2 3121   4.998   3.501   0.186
 1063TIP3    H1 3122   5.090   3.472   0.204
 1063TIP3    H2 3123   4.951   3.416   0.176
 1064TIP3   OH2 3124   6.245   3.459   0.464
 1064TIP3    H1 3125   6.161   3.507   0.450
 1064TIP3    H2 3126   6.274   3.497   0.548
 1065TIP3   OH2 3127   4.906   3.072   0.720
 1065TIP3    H1 3128   4.848   3.123   0.660
 1065TIP3    H2 3129   4.859   3.087   0.805
 1066TIP3   OH2 3130   5.007   3.858   0.522
 1066TIP3    H1 3131   4.943   3.919   0.566
 1066TIP3    H2 3132   5.043   3.916   0.453
 1067TIP3   OH2 3133   5.831   3.187   0.094
 1067TIP3    H1 3134   5.818   3.136   0.175
 1067TIP3    H2 3135   5.870   3.270   0.130
 1068TIP3   OH2 3136   4.781   3.196   0.505
 1068TIP3    H1 3137   4.840   3.270   0.532
 1068TIP3    H2 3138   4.838   3.152   0.438
 1069TIP3   OH2 3139   4.820   4.044   0.628
 1069TIP3    H1 3140   4.817   4.137   0.595
 1069TIP3    H2 3141   4.728   4.039   0.661
 1070TIP3   OH2 3142   4.232   3.738  -0.126
 1070TIP3    H1 3143   4.164   3.763  -0.190
 1070TIP3    H2 3144   4.237   3.817  -0.069
 1071TIP3   OH2 3145   5.969   3.149   0.458
 1071TIP3    H1 3146   5.881   3.179   0.431
 1071TIP3    H2 3147   6.026   3.181   0.385
 1072TIP3   OH2 3148   5.262   2.794   0.439
 1072TIP3    H1 3149   5.246   2.700   0.459
 1072TIP3    H2 3150   5.188   2.835   0.488
 1073TIP3   OH2 3151   5.901   4.172   0.447
 1073TIP3    H1 3152   5.896   4.097   0.385
 1073TIP3    H2 3153   5.875   4.248   0.390
 1074TIP3   OH2 3154   6.094   3.797   0.322
 1074TIP3    H1 3155   6.022   3.862   0.304
 1074TIP3    H2 3156   6.131   3.782   0.232
 1075TIP3   OH2 3157   5.774   3.678   0.581
 1075TIP3    H1 3158   5.777   3.760   0.635
 1075TIP3    H2 3159   5.688   3.690   0.537
 1076TIP3   OH2 3160   4.771   3.615   0.092
 1076TIP3    H1 3161   4.739   3.543   0.035
 1076TIP3    H2 3162   4.855   3.577   0.127
 1077TIP3   OH2 3163   4.914   4.036   0.251
 1077TIP3    H1 3164   4.882   4.001   0.167
 1077TIP3    H2 3165   5.007   4.006   0.254
 1078TIP3   OH2 3166   4.921   3.611   0.433
 1078TIP3    H1 3167   4.959   3.598   0.345
 1078TIP3    H2 3168   4.955   3.699   0.459
 1079TIP3   OH2 3169   5.445   4.215   0.202
 1079TIP3    H1 3170   5.435   4.304   0.240
 1079TIP3    H2 3171   5.418   4.158   0.276
 1080TIP3   OH2 3172   5.045   4.161   0.762
 1080TIP3    H1 3173   4.988   4.228   0.806
 1080TIP3    H2 3174   4.976   4.109   0.716
 1081TIP3   OH2 3175   4.807   3.715   0.854
 1081TIP3    H1 3176   4.817   3.803   0.897
 1081TIP3    H2 3177   4.715   3.694   0.881
 1082TIP3   OH2 3178   4.845   4.333   0.850
 1082TIP3    H1 3179   4.809   4.329   0.759
 1082TIP3    H2 3180   4.766   4.312   0.904
 1083TIP3   OH2 3181   4.593   3.462  -0.090
 1083TIP3    H1 3182   4.518   3.513  -0.056
 1083TIP3    H2 3183   4.570   3.373  -0.061
 1084TIP3   OH2 3184   4.384   3.828   0.817
 1084TIP3    H1 3185   4.370   3.854   0.725
 1084TIP3    H2 3186   4.461   3.770   0.813
 1085TIP3   OH2 3187   4.289   4.064   0.429
 1085TIP3    H1 3188   4.385   4.057   0.448
 1085TIP3    H2 3189   4.269   4.127   0.500
 1086TIP3   OH2 3190   6.145   4.505   0.506
 1086TIP3    H1 3191   6.148   4.409   0.521
 1086TIP3    H2 3192   6.064   4.529   0.556
 1087TIP3   OH2 3193   5.246   4.289   0.620
 1087TIP3    H1 3194   5.244   4.382   0.651
 1087TIP3    H2 3195   5.172   4.251   0.672
 1088TIP3   OH2 3196   4.421   4.248  -0.029
 1088TIP3    H1 3197   4.500   4.254   0.029
 1088TIP3    H2 3198   4.353   4.234   0.041
 1089TIP3   OH2 3199   6.029   3.636   0.763
 1089TIP3    H1 3200   5.945   3.650   0.719
 1089TIP3    H2 3201   6.043   3.539   0.752
 1090TIP3   OH2 3202   5.027   2.870   0.567
 1090TIP3    H1 3203   4.943   2.838   0.528
 1090TIP3    H2 3204   4.995   2.948   0.617
 1091TIP3   OH2 3205   5.561   2.981   0.763
 1091TIP3    H1 3206   5.630   2.958   0.829
 1091TIP3    H2 3207   5.478   2.966   0.812
 1092TIP3   OH2 3208   5.795   3.416   0.680
 1092TIP3    H1 3209   5.745   3.412   0.764
 1092TIP3    H2 3210   5.771   3.505   0.646
 1093TIP3   OH2 3211   4.959   3.389   0.585
 1093TIP3    H1 3212   4.909   3.410   0.667
 1093TIP3    H2 3213   4.944   3.472   0.534
 1094TIP3   OH2 3214   4.826   3.288   0.136
 1094TIP3    H1 3215   4.733   3.264   0.154
 1094TIP3    H2 3216   4.846   3.222   0.066
 1095TIP3   OH2 3217   5.506   3.632   0.908
 1095TIP3    H1 3218   5.485   3.562   0.974
 1095TIP3    H2 3219   5.598   3.653   0.933
 1096TIP3   OH2 3220   5.492   3.386   0.102
 1096TIP3    H1 3221   5.457   3.425   0.019
 1096TIP3    H2 3222   5.530   3.302   0.068
 1097TIP3   OH2 3223   4.781   3.413   0.793
 1097TIP3    H1 3224   4.790   3.485   0.857
 1097TIP3    H2 3225   4.767   3.335   0.851
 1098TIP3   OH2 3226   4.360   2.892  -0.116
 1098TIP3    H1 3227   4.380   2.964  -0.178
 1098TIP3    H2 3228   4.313   2.937  -0.043
 1099TIP3   OH2 3229   5.488   3.638   0.491
 1099TIP3    H1 3230   5.531   3.566   0.439
 1099TIP3    H2 3231   5.459   3.586   0.569
 1100TIP3   OH2 3232   5.171   3.091   0.164
 1100TIP3    H1 3233   5.089   3.091   0.218
 1100TIP3    H2 3234   5.240   3.095   0.232
 1101TIP3   OH2 3235   4.597   3.148   0.164
 1101TIP3    H1 3236   4.503   3.166   0.139
 1101TIP3    H2 3237   4.600   3.051   0.157
 1102TIP3   OH2 3238   4.870   3.122  -0.074
 1102TIP3    H1 3239   4.966   3.113  -0.091
 1102TIP3    H2 3240   4.853   3.202  -0.125
 1103TIP3   OH2 3241   5.663   3.164   0.355
 1103TIP3    H1 3242   5.639   3.174   0.450
 1103TIP3    H2 3243   5.590   3.108   0.325
 1104TIP3   OH2 3244   5.843   4.855   0.596
 1104TIP3    H1 3245   5.830   4.874   0.501
 1104TIP3    H2 3246   5.925   4.905   0.616
 1105TIP3   OH2 3247   4.809   3.947   1.006
 1105TIP3    H1 3248   4.878   3.990   1.060
 1105TIP3    H2 3249   4.729   3.973   1.055
 1106TIP3   OH2 3250   5.250   3.421   0.264
 1106TIP3    H1 3251   5.334   3.392   0.225
 1106TIP3    H2 3252   5.251   3.381   0.353
 1107TIP3   OH2 3253   4.791   2.903   0.140
 1107TIP3    H1 3254   4.738   2.823   0.129
 1107TIP3    H2 3255   4.844   2.905   0.059
 1108TIP3   OH2 3256   5.229   3.329   0.542
 1108TIP3    H1 3257   5.139   3.363   0.561
 1108TIP3    H2 3258   5.286   3.388   0.596
 1109TIP3   OH2 3259   5.864   3.958   0.279
 1109TIP3    H1 3260   5.823   4.005   0.203
 1109TIP3    H2 3261   5.788   3.901   0.302
 1110TIP3   OH2 3262   5.359   4.028   0.645
 1110TIP3    H1 3263   5.392   4.019   0.735
 1110TIP3    H2 3264   5.325   4.119   0.644
 1111TIP3   OH2 3265   4.645   3.712   0.323
 1111TIP3    H1 3266   4.696   3.687   0.244
 1111TIP3    H2 3267   4.694   3.670   0.395
 1112TIP3   OH2 3268   4.558   3.632   0.929
 1112TIP3    H1 3269   4.567   3.632   1.026
 1112TIP3    H2 3270   4.473   3.586   0.918
 1113TIP3   OH2 3271   5.266   3.769   0.951
 1113TIP3    H1 3272   5.202   3.706   0.912
 1113TIP3    H2 3273   5.351   3.733   0.920
 1114TIP3   OH2 3274   5.524   4.276   0.543
 1114TIP3    H1 3275   5.428   4.288   0.551
 1114TIP3    H2 3276   5.555   4.334   0.616
 1115TIP3   OH2 3277   6.154   4.218   0.532
 1115TIP3    H1 3278   6.055   4.221   0.533
 1115TIP3    H2 3279   6.168   4.184   0.442
 1116TIP3   OH2 3280   5.637   3.799   0.236
 1116TIP3    H1 3281   5.541   3.803   0.221
 1116TIP3    H2 3282   5.658   3.714   0.194
 1117TIP3   OH2 3283   4.749   4.016  -0.002
 1117TIP3    H1 3284   4.794   4.102  -0.020
 1117TIP3    H2 3285   4.677   4.046   0.057
 1118TIP3   OH2 3286   4.324   3.326  -0.323
 1118TIP3    H1 3287   4.352   3.418  -0.315
 1118TIP3    H2 3288   4.241   3.328  -0.269
 1119TIP3   OH2 3289   4.863   3.789  -0.101
 1119TIP3    H1 3290   4.825   3.868  -0.060
 1119TIP3    H2 3291   4.849   3.723  -0.030
 1120TIP3   OH2 3292   5.040   4.375   0.402
 1120TIP3    H1 3293   5.079   4.452   0.354
 1120TIP3    H2 3294   5.115   4.347   0.456
 1121TIP3   OH2 3295   5.416   3.997   0.381
 1121TIP3    H1 3296   5.398   4.004   0.478
 1121TIP3    H2 3297   5.508   3.967   0.382
 1122TIP3   OH2 3298   5.659   4.555   0.420
 1122TIP3    H1 3299   5.577   4.501   0.416
 1122TIP3    H2 3300   5.641   4.617   0.348
 1123TIP3   OH2 3301   4.750   3.152   0.937
 1123TIP3    H1 3302   4.654   3.158   0.953
 1123TIP3    H2 3303   4.779   3.101   1.015
 1124TIP3   OH2 3304   5.602   3.209   0.613
 1124TIP3    H1 3305   5.667   3.261   0.663
 1124TIP3    H2 3306   5.583   3.135   0.674
 1125TIP3   OH2 3307   5.145   3.140  -0.102
 1125TIP3    H1 3308   5.181   3.226  -0.127
 1125TIP3    H2 3309   5.164   3.136  -0.005
 1126TIP3   OH2 3310   5.427   3.470   0.697
 1126TIP3    H1 3311   5.445   3.531   0.772
 1126TIP3    H2 3312   5.481   3.393   0.722
 1127TIP3   OH2 3313   5.313   2.882   0.003
 1127TIP3    H1 3314   5.298   2.943   0.079
 1127TIP3    H2 3315   5.377   2.935  -0.047
 1128TIP3   OH2 3316   4.810   2.884  -0.228
 1128TIP3    H1 3317   4.791   2.957  -0.166
 1128TIP3    H2 3318   4.899   2.858  -0.196
 1129TIP3   OH2 3319   6.060   3.368   0.683
 1129TIP3    H1 3320   5.962   3.368   0.689
 1129TIP3    H2 3321   6.073   3.329   0.596
 1130TIP3   OH2 3322   5.714   3.566   0.107
 1130TIP3    H1 3323   5.636   3.509   0.125
 1130TIP3    H2 3324   5.785   3.515   0.151
 1131TIP3   OH2 3325   4.387   3.064  -0.341
 1131TIP3    H1 3326   4.362   3.159  -0.328
 1131TIP3    H2 3327   4.302   3.025  -0.363
 1132TIP3   OH2 3328   4.768   2.771   0.520
 1132TIP3    H1 3329   4.676   2.794   0.497
 1132TIP3    H2 3330   4.756   2.706   0.591
 1133TIP3   OH2 3331   4.259   3.994  -0.032
 1133TIP3    H1 3332   4.228   4.042   0.047
 1133TIP3    H2 3333   4.320   4.059  -0.069
 1134TIP3   OH2 3334   4.456   4.551   0.995
 1134TIP3    H1 3335   4.544   4.546   1.037
 1134TIP3    H2 3336   4.432   4.456   0.991
 1135TIP3   OH2 3337   4.934   4.510   1.040
 1135TIP3    H1 3338   5.029   4.494   1.039
 1135TIP3    H2 3339   4.905   4.450   0.968
 1136TIP3   OH2 3340   5.581   4.420   0.771
 1136TIP3    H1 3341   5.572   4.352   0.842
 1136TIP3    H2 3342   5.656   4.473   0.803
 1137TIP3   OH2 3343   4.589   3.964   1.191
 1137TIP3    H1 3344   4.607   3.869   1.192
 1137TIP3    H2 3345   4.502   3.968   1.145
 1138TIP3   OH2 3346   5.193   4.048   0.967
 1138TIP3    H1 3347   5.147   4.069   0.883
 1138TIP3    H2 3348   5.221   3.955   0.954
 1139TIP3   OH2 3349   5.685   4.051   0.569
 1139TIP3    H1 3350   5.762   4.101   0.536
 1139TIP3    H2 3351   5.616   4.121   0.562
 1140TIP3   OH2 3352   4.706   3.689   1.180
 1140TIP3    H1 3353   4.789   3.652   1.150
 1140TIP3    H2 3354   4.732   3.727   1.267
 1141TIP3   OH2 3355   5.048   3.580   0.838
 1141TIP3    H1 3356   4.966   3.634   0.838
 1141TIP3    H2 3357   5.095   3.614   0.759
 1142TIP3   OH2 3358   5.556   3.977   0.971
 1142TIP3    H1 3359   5.640   3.955   0.930
 1142TIP3    H2 3360   5.552   3.913   1.045
 1143TIP3   OH2 3361   5.170   3.369   0.960
 1143TIP3    H1 3362   5.164   3.290   0.904
 1143TIP3    H2 3363   5.123   3.437   0.906
 1144TIP3   OH2 3364   5.167   3.150   0.768
 1144TIP3    H1 3365   5.193   3.195   0.686
 1144TIP3    H2 3366   5.073   3.129   0.751
 1145TIP3   OH2 3367   5.190   3.685   0.634
 1145TIP3    H1 3368   5.277   3.714   0.602
 1145TIP3    H2 3369   5.131   3.753   0.597
 1146TIP3   OH2 3370   5.774   3.653   1.021
 1146TIP3    H1 3371   5.829   3.575   1.038
 1146TIP3    H2 3372   5.839   3.718   0.991
 1147TIP3   OH2 3373   5.816   3.903   0.753
 1147TIP3    H1 3374   5.757   3.958   0.698
 1147TIP3    H2 3375   5.903   3.929   0.717
 1148TIP3   OH2 3376   5.047   3.471   1.198
 1148TIP3    H1 3377   4.978   3.403   1.213
 1148TIP3    H2 3378   5.077   3.448   1.108
 1149TIP3   OH2 3379   5.299   2.912   0.839
 1149TIP3    H1 3380   5.248   2.993   0.818
 1149TIP3    H2 3381   5.229   2.843   0.832
 1150TIP3   OH2 3382   5.428   3.415   1.055
 1150TIP3    H1 3383   5.412   3.403   1.151
 1150TIP3    H2 3384   5.339   3.394   1.022
 1151TIP3   OH2 3385   5.660   3.359   0.906
 1151TIP3    H1 3386   5.588   3.368   0.971
 1151TIP3    H2 3387   5.736   3.335   0.963
 1152TIP3   OH2 3388   5.892   3.310   1.057
 1152TIP3    H1 3389   5.905   3.215   1.075
 1152TIP3    H2 3390   5.888   3.348   1.147
 1153TIP3   OH2 3391   4.882   3.256   1.251
 1153TIP3    H1 3392   4.883   3.163   1.220
 1153TIP3    H2 3393   4.920   3.244   1.340
 1154TIP3   OH2 3394   5.398   2.925   1.096
 1154TIP3    H1 3395   5.462   2.851   1.089
 1154TIP3    H2 3396   5.354   2.919   1.009
 1155TIP3   OH2 3397   5.461   3.139   1.257
 1155TIP3    H1 3398   5.439   3.069   1.193
 1155TIP3    H2 3399   5.382   3.197   1.252
 1156TIP3   OH2 3400   4.071   4.351  -0.005
 1156TIP3    H1 3401   4.005   4.294  -0.049
 1156TIP3    H2 3402   4.111   4.288   0.058
 1157TIP3   OH2 3403   4.231   4.199   0.172
 1157TIP3    H1 3404   4.216   4.136   0.245
 1157TIP3    H2 3405   4.270   4.271   0.224
 1158TIP3   OH2 3406   5.969   4.635   0.321
 1158TIP3    H1 3407   5.928   4.549   0.338
 1158TIP3    H2 3408   6.046   4.630   0.381
 1159TIP3   OH2 3409   6.016   4.308   0.830
 1159TIP3    H1 3410   5.942   4.319   0.894
 1159TIP3    H2 3411   6.057   4.397   0.834
 1160TIP3   OH2 3412   5.828   4.386   0.290
 1160TIP3    H1 3413   5.759   4.432   0.342
 1160TIP3    H2 3414   5.787   4.391   0.202
 1161TIP3   OH2 3415   4.401   3.624   0.546
 1161TIP3    H1 3416   4.394   3.592   0.454
 1161TIP3    H2 3417   4.498   3.623   0.560
 1162TIP3   OH2 3418   6.061   3.973   0.655
 1162TIP3    H1 3419   6.132   3.906   0.642
 1162TIP3    H2 3420   6.089   4.045   0.596
 1163TIP3   OH2 3421   6.241   3.770   0.663
 1163TIP3    H1 3422   6.169   3.722   0.708
 1163TIP3    H2 3423   6.316   3.710   0.680
 1164TIP3   OH2 3424   5.933   3.427   0.194
 1164TIP3    H1 3425   6.010   3.454   0.141
 1164TIP3    H2 3426   5.955   3.467   0.281
 1165TIP3   OH2 3427   5.990   3.570   0.422
 1165TIP3    H1 3428   5.912   3.600   0.473
 1165TIP3    H2 3429   6.027   3.657   0.394
 1166TIP3   OH2 3430   4.615   3.301   1.216
 1166TIP3    H1 3431   4.712   3.299   1.222
 1166TIP3    H2 3432   4.593   3.215   1.257
 1167TIP3   OH2 3433   6.451   3.174   0.974
 1167TIP3    H1 3434   6.513   3.110   0.932
 1167TIP3    H2 3435   6.420   3.226   0.897
 1168TIP3   OH2 3436   4.590   2.993   0.566
 1168TIP3    H1 3437   4.663   2.949   0.611
 1168TIP3    H2 3438   4.632   3.076   0.538
 1169TIP3   OH2 3439   4.379   3.270   0.622
 1169TIP3    H1 3440   4.430   3.278   0.539
 1169TIP3    H2 3441   4.395   3.355   0.664
 1170TIP3   OH2 3442   6.319   3.309   0.779
 1170TIP3    H1 3443   6.237   3.355   0.807
 1170TIP3    H2 3444   6.281   3.239   0.722
 1171TIP3   OH2 3445   4.582   2.849   0.927
 1171TIP3    H1 3446   4.541   2.847   1.015
 1171TIP3    H2 3447   4.512   2.895   0.876
 1172TIP3   OH2 3448   4.633   4.286   1.017
 1172TIP3    H1 3449   4.558   4.259   0.961
 1172TIP3    H2 3450   4.604   4.259   1.104
 1173TIP3   OH2 3451   4.828   4.310   0.566
 1173TIP3    H1 3452   4.754   4.364   0.535
 1173TIP3    H2 3453   4.901   4.345   0.510
 1174TIP3   OH2 3454   5.242   4.556   0.700
 1174TIP3    H1 3455   5.284   4.558   0.788
 1174TIP3    H2 3456   5.301   4.616   0.650
 1175TIP3   OH2 3457   5.410   4.728   0.571
 1175TIP3    H1 3458   5.470   4.673   0.518
 1175TIP3    H2 3459   5.474   4.776   0.628
 1176TIP3   OH2 3460   6.219   3.072   0.659
 1176TIP3    H1 3461   6.129   3.063   0.625
 1176TIP3    H2 3462   6.252   2.979   0.651
 1177TIP3   OH2 3463   4.476   4.580   0.562
 1177TIP3    H1 3464   4.386   4.621   0.563
 1177TIP3    H2 3465   4.484   4.551   0.654
 1178TIP3   OH2 3466   4.719   4.558   0.443
 1178TIP3    H1 3467   4.633   4.570   0.488
 1178TIP3    H2 3468   4.698   4.591   0.354
 1179TIP3   OH2 3469   5.139   4.578   0.256
 1179TIP3    H1 3470   5.061   4.591   0.198
 1179TIP3    H2 3471   5.156   4.670   0.286
 1180TIP3   OH2 3472   5.398   4.528   0.335
 1180TIP3    H1 3473   5.303   4.532   0.312
 1180TIP3    H2 3474   5.433   4.583   0.265
 1181TIP3   OH2 3475   4.391   4.364   0.334
 1181TIP3    H1 3476   4.426   4.360   0.426
 1181TIP3    H2 3477   4.463   4.316   0.288
 1182TIP3   OH2 3478   4.587   4.237   0.185
 1182TIP3    H1 3479   4.597   4.154   0.238
 1182TIP3    H2 3480   4.673   4.281   0.203
 1183TIP3   OH2 3481   4.835   4.340   0.216
 1183TIP3    H1 3482   4.882   4.289   0.149
 1183TIP3    H2 3483   4.900   4.339   0.290
 1184TIP3   OH2 3484   5.421   2.982   0.269
 1184TIP3    H1 3485   5.383   2.915   0.327
 1184TIP3    H2 3486   5.502   2.938   0.234
 1185TIP3   OH2 3487   5.942   2.880   0.188
 1185TIP3    H1 3488   5.974   2.897   0.098
 1185TIP3    H2 3489   5.846   2.894   0.179
 1186TIP3   OH2 3490   4.457   2.570  -0.050
 1186TIP3    H1 3491   4.499   2.623  -0.121
 1186TIP3    H2 3492   4.405   2.639  -0.005
 1187TIP3   OH2 3493   5.124   2.721   0.186
 1187TIP3    H1 3494   5.168   2.781   0.124
 1187TIP3    H2 3495   5.144   2.764   0.271
 1188TIP3   OH2 3496   5.661   2.874   0.154
 1188TIP3    H1 3497   5.670   2.828   0.070
 1188TIP3    H2 3498   5.650   2.798   0.216
 1189TIP3   OH2 3499   4.595   2.692  -0.251
 1189TIP3    H1 3500   4.585   2.668  -0.344
 1189TIP3    H2 3501   4.660   2.765  -0.254
 1190TIP3   OH2 3502   5.063   2.876  -0.128
 1190TIP3    H1 3503   5.142   2.835  -0.089
 1190TIP3    H2 3504   5.098   2.966  -0.142
 1191TIP3   OH2 3505   4.879   2.989   1.185
 1191TIP3    H1 3506   4.841   2.909   1.225
 1191TIP3    H2 3507   4.973   2.980   1.214
 1192TIP3   OH2 3508   5.133   2.983   1.297
 1192TIP3    H1 3509   5.218   2.948   1.265
 1192TIP3    H2 3510   5.116   2.922   1.374
 1193TIP3   OH2 3511   5.958   3.038   1.090
 1193TIP3    H1 3512   5.975   3.009   1.182
 1193TIP3    H2 3513   6.048   3.035   1.051
 1194TIP3   OH2 3514   5.891   4.583   0.596
 1194TIP3    H1 3515   5.809   4.561   0.547
 1194TIP3    H2 3516   5.881   4.681   0.602
 1195TIP3   OH2 3517   6.724   3.295   0.256
 1195TIP3    H1 3518   6.674   3.307   0.173
 1195TIP3    H2 3519   6.662   3.334   0.320
 1196TIP3   OH2 3520   6.616   3.966   0.386
 1196TIP3    H1 3521   6.621   4.055   0.427
 1196TIP3    H2 3522   6.520   3.962   0.368
 1197TIP3   OH2 3523   6.217   4.104   0.292
 1197TIP3    H1 3524   6.267   4.142   0.212
 1197TIP3    H2 3525   6.273   4.031   0.316
 1198TIP3   OH2 3526   6.449   4.272   0.295
 1198TIP3    H1 3527   6.521   4.294   0.357
 1198TIP3    H2 3528   6.380   4.247   0.357
 1199TIP3   OH2 3529   7.331   3.256   0.264
 1199TIP3    H1 3530   7.398   3.191   0.291
 1199TIP3    H2 3531   7.249   3.216   0.297
 1200TIP3   OH2 3532   7.298   3.906   0.396
 1200TIP3    H1 3533   7.271   3.822   0.440
 1200TIP3    H2 3534   7.394   3.891   0.400
 1201TIP3   OH2 3535   6.571   3.671   0.298
 1201TIP3    H1 3536   6.573   3.747   0.358
 1201TIP3    H2 3537   6.560   3.596   0.360
 1202TIP3   OH2 3538   6.609   4.205   0.525
 1202TIP3    H1 3539   6.681   4.252   0.570
 1202TIP3    H2 3540   6.534   4.225   0.584
 1203TIP3   OH2 3541   6.345   3.900   0.428
 1203TIP3    H1 3542   6.367   3.892   0.524
 1203TIP3    H2 3543   6.262   3.849   0.425
 1204TIP3   OH2 3544   7.057   4.026   0.452
 1204TIP3    H1 3545   6.991   3.957   0.427
 1204TIP3    H2 3546   7.141   3.982   0.427
 1205TIP3   OH2 3547   6.541   3.421   0.436
 1205TIP3    H1 3548   6.445   3.424   0.451
 1205TIP3    H2 3549   6.571   3.367   0.510
 1206TIP3   OH2 3550   6.230   4.785   0.508
 1206TIP3    H1 3551   6.322   4.806   0.536
 1206TIP3    H2 3552   6.233   4.689   0.498
 1207TIP3   OH2 3553   6.729   4.759   0.560
 1207TIP3    H1 3554   6.809   4.729   0.604
 1207TIP3    H2 3555   6.710   4.685   0.500
 1208TIP3   OH2 3556   6.382   4.208   0.693
 1208TIP3    H1 3557   6.390   4.111   0.692
 1208TIP3    H2 3558   6.298   4.222   0.646
 1209TIP3   OH2 3559   6.987   4.304   0.451
 1209TIP3    H1 3560   6.950   4.306   0.362
 1209TIP3    H2 3561   7.025   4.214   0.455
 1210TIP3   OH2 3562   6.502   3.935   0.674
 1210TIP3    H1 3563   6.588   3.906   0.641
 1210TIP3    H2 3564   6.528   3.980   0.757
 1211TIP3   OH2 3565   6.862   3.863   0.350
 1211TIP3    H1 3566   6.774   3.895   0.381
 1211TIP3    H2 3567   6.865   3.907   0.264
 1212TIP3   OH2 3568   7.292   4.220   0.480
 1212TIP3    H1 3569   7.363   4.287   0.487
 1212TIP3    H2 3570   7.308   4.165   0.560
 1213TIP3   OH2 3571   6.955   3.620   0.460
 1213TIP3    H1 3572   6.963   3.539   0.406
 1213TIP3    H2 3573   6.929   3.688   0.396
 1214TIP3   OH2 3574   6.973   3.400   0.293
 1214TIP3    H1 3575   7.008   3.437   0.210
 1214TIP3    H2 3576   6.884   3.367   0.268
 1215TIP3   OH2 3577   7.567   3.891   0.557
 1215TIP3    H1 3578   7.570   3.818   0.492
 1215TIP3    H2 3579   7.644   3.945   0.530
 1216TIP3   OH2 3580   6.837   3.731   0.684
 1216TIP3    H1 3581   6.768   3.664   0.702
 1216TIP3    H2 3582   6.873   3.697   0.599
 1217TIP3   OH2 3583   7.086   3.154   0.343
 1217TIP3    H1 3584   7.038   3.237   0.327
 1217TIP3    H2 3585   7.021   3.086   0.317
 1218TIP3   OH2 3586   7.211   3.686   0.539
 1218TIP3    H1 3587   7.207   3.670   0.635
 1218TIP3    H2 3588   7.123   3.653   0.514
 1219TIP3   OH2 3589   7.470   3.666   0.414
 1219TIP3    H1 3590   7.387   3.634   0.452
 1219TIP3    H2 3591   7.535   3.602   0.449
 1220TIP3   OH2 3592   7.674   3.539   0.555
 1220TIP3    H1 3593   7.707   3.453   0.586
 1220TIP3    H2 3594   7.676   3.593   0.636
 1221TIP3   OH2 3595   6.676   3.511   0.740
 1221TIP3    H1 3596   6.684   3.419   0.706
 1221TIP3    H2 3597   6.715   3.501   0.829
 1222TIP3   OH2 3598   7.184   3.176   0.596
 1222TIP3    H1 3599   7.251   3.106   0.586
 1222TIP3    H2 3600   7.143   3.172   0.507
 1223TIP3   OH2 3601   7.258   3.398   0.743
 1223TIP3    H1 3602   7.236   3.326   0.681
 1223TIP3    H2 3603   7.179   3.456   0.737
 1224TIP3   OH2 3604   6.410   3.556   0.693
 1224TIP3    H1 3605   6.507   3.557   0.704
 1224TIP3    H2 3606   6.388   3.473   0.740
 1225TIP3   OH2 3607   6.381   3.117   0.433
 1225TIP3    H1 3608   6.338   3.108   0.520
 1225TIP3    H2 3609   6.304   3.137   0.377
 1226TIP3   OH2 3610   6.422   4.482   0.535
 1226TIP3    H1 3611   6.332   4.490   0.500
 1226TIP3    H2 3612   6.422   4.546   0.607
 1227TIP3   OH2 3613   6.676   3.234   0.670
 1227TIP3    H1 3614   6.641   3.165   0.729
 1227TIP3    H2 3615   6.771   3.234   0.697
 1228TIP3   OH2 3616   6.927   3.232   0.788
 1228TIP3    H1 3617   7.013   3.210   0.748
 1228TIP3    H2 3618   6.918   3.161   0.855
 1229TIP3   OH2 3619   0.431   4.293   1.467
 1229TIP3    H1 3620   0.460   4.377   1.508
 1229TIP3    H2 3621   0.448   4.311   1.373
 1230TIP3   OH2 3622  -0.111   4.490   1.496
 1230TIP3    H1 3623  -0.095   4.397   1.516
 1230TIP3    H2 3624  -0.039   4.507   1.429
 1231TIP3   OH2 3625   0.504   4.506   1.634
 1231TIP3    H1 3626   0.418   4.547   1.611
 1231TIP3    H2 3627   0.506   4.524   1.729
 1232TIP3   OH2 3628   0.051   4.254   1.249
 1232TIP3    H1 3629   0.084   4.183   1.309
 1232TIP3    H2 3630   0.093   4.333   1.287
 1233TIP3   OH2 3631   0.222   4.216   1.639
 1233TIP3    H1 3632   0.138   4.225   1.590
 1233TIP3    H2 3633   0.286   4.232   1.567
 1234TIP3   OH2 3634   0.157   5.244   1.605
 1234TIP3    H1 3635   0.169   5.157   1.563
 1234TIP3    H2 3636   0.121   5.297   1.532
 1235TIP3   OH2 3637   0.357   4.839   1.474
 1235TIP3    H1 3638   0.281   4.901   1.478
 1235TIP3    H2 3639   0.389   4.858   1.383
 1236TIP3   OH2 3640   0.050   4.727   1.768
 1236TIP3    H1 3641   0.044   4.816   1.806
 1236TIP3    H2 3642  -0.041   4.720   1.730
 1237TIP3   OH2 3643   0.415   5.537   1.679
 1237TIP3    H1 3644   0.417   5.438   1.682
 1237TIP3    H2 3645   0.322   5.552   1.705
 1238TIP3   OH2 3646   0.277   4.683   1.934
 1238TIP3    H1 3647   0.196   4.694   1.882
 1238TIP3    H2 3648   0.295   4.588   1.921
 1239TIP3   OH2 3649  -0.181   4.035   1.938
 1239TIP3    H1 3650  -0.117   4.001   2.003
 1239TIP3    H2 3651  -0.266   3.997   1.969
 1240TIP3   OH2 3652   0.049   4.458   1.859
 1240TIP3    H1 3653  -0.002   4.456   1.944
 1240TIP3    H2 3654   0.029   4.547   1.825
 1241TIP3   OH2 3655  -0.218   4.685   2.103
 1241TIP3    H1 3656  -0.246   4.608   2.157
 1241TIP3    H2 3657  -0.122   4.687   2.124
 1242TIP3   OH2 3658  -0.201   4.678   1.677
 1242TIP3    H1 3659  -0.179   4.597   1.627
 1242TIP3    H2 3660  -0.257   4.641   1.749
 1243TIP3   OH2 3661  -0.107   4.224   1.547
 1243TIP3    H1 3662  -0.140   4.241   1.637
 1243TIP3    H2 3663  -0.136   4.132   1.532
 1244TIP3   OH2 3664  -0.475   4.344   1.801
 1244TIP3    H1 3665  -0.491   4.425   1.739
 1244TIP3    H2 3666  -0.384   4.365   1.826
 1245TIP3   OH2 3667   0.149   5.014   1.461
 1245TIP3    H1 3668   0.130   5.061   1.377
 1245TIP3    H2 3669   0.060   4.997   1.497
 1246TIP3   OH2 3670  -0.448   4.793   2.199
 1246TIP3    H1 3671  -0.504   4.763   2.126
 1246TIP3    H2 3672  -0.359   4.774   2.161
 1247TIP3   OH2 3673   0.408   5.256   1.703
 1247TIP3    H1 3674   0.310   5.268   1.696
 1247TIP3    H2 3675   0.427   5.227   1.611
 1248TIP3   OH2 3676  -0.164   4.274   1.807
 1248TIP3    H1 3677  -0.077   4.306   1.836
 1248TIP3    H2 3678  -0.173   4.190   1.858
 1249TIP3   OH2 3679  -0.283   4.532   1.890
 1249TIP3    H1 3680  -0.271   4.594   1.964
 1249TIP3    H2 3681  -0.231   4.456   1.920
 1250TIP3   OH2 3682   0.315   4.417   1.850
 1250TIP3    H1 3683   0.217   4.418   1.861
 1250TIP3    H2 3684   0.320   4.359   1.773
 1251TIP3   OH2 3685  -0.184   5.548   2.091
 1251TIP3    H1 3686  -0.162   5.454   2.103
 1251TIP3    H2 3687  -0.107   5.582   2.043
 1252TIP3   OH2 3688  -0.015   5.057   1.726
 1252TIP3    H1 3689   0.032   5.142   1.717
 1252TIP3    H2 3690  -0.109   5.085   1.715
 1253TIP3   OH2 3691  -0.189   5.011   2.162
 1253TIP3    H1 3692  -0.121   4.977   2.103
 1253TIP3    H2 3693  -0.193   4.942   2.231
 1254TIP3   OH2 3694  -0.607   4.140   1.906
 1254TIP3    H1 3695  -0.550   4.210   1.870
 1254TIP3    H2 3696  -0.684   4.192   1.939
 1255TIP3   OH2 3697   0.037   4.693   2.201
 1255TIP3    H1 3698   0.084   4.609   2.212
 1255TIP3    H2 3699   0.102   4.747   2.155
 1256TIP3   OH2 3700   0.078   4.951   1.956
 1256TIP3    H1 3701   0.025   4.997   1.887
 1256TIP3    H2 3702   0.167   4.964   1.917
 1257TIP3   OH2 3703  -0.442   3.951   2.017
 1257TIP3    H1 3704  -0.493   4.024   1.980
 1257TIP3    H2 3705  -0.506   3.879   2.005
 1258TIP3   OH2 3706  -0.317   4.466   2.238
 1258TIP3    H1 3707  -0.293   4.460   2.332
 1258TIP3    H2 3708  -0.404   4.423   2.237
 1259TIP3   OH2 3709  -0.085   4.414   2.089
 1259TIP3    H1 3710  -0.158   4.410   2.154
 1259TIP3    H2 3711  -0.008   4.383   2.142
 1260TIP3   OH2 3712   0.145   4.357   2.237
 1260TIP3    H1 3713   0.157   4.260   2.250
 1260TIP3    H2 3714   0.139   4.391   2.328
 1261TIP3   OH2 3715  -0.352   3.968   2.277
 1261TIP3    H1 3716  -0.283   3.900   2.263
 1261TIP3    H2 3717  -0.397   3.967   2.190
 1262TIP3   OH2 3718  -0.275   4.181   2.423
 1262TIP3    H1 3719  -0.295   4.103   2.368
 1262TIP3    H2 3720  -0.362   4.225   2.423
 1263TIP3   OH2 3721   0.265   5.348   2.000
 1263TIP3    H1 3722   0.194   5.361   2.066
 1263TIP3    H2 3723   0.311   5.435   2.004
 1264TIP3   OH2 3724   0.315   5.018   1.831
 1264TIP3    H1 3725   0.384   4.949   1.820
 1264TIP3    H2 3726   0.347   5.089   1.773
 1265TIP3   OH2 3727   0.494   4.818   1.844
 1265TIP3    H1 3728   0.419   4.767   1.882
 1265TIP3    H2 3729   0.567   4.755   1.862
 1266TIP3   OH2 3730   0.174   4.467   1.373
 1266TIP3    H1 3731   0.253   4.496   1.323
 1266TIP3    H2 3732   0.195   4.508   1.458
 1267TIP3   OH2 3733   0.251   4.618   1.592
 1267TIP3    H1 3734   0.180   4.657   1.647
 1267TIP3    H2 3735   0.289   4.698   1.550
 1268TIP3   OH2 3736   0.701   4.221   2.148
 1268TIP3    H1 3737   0.761   4.155   2.107
 1268TIP3    H2 3738   0.670   4.271   2.070
 1269TIP3   OH2 3739   0.568   4.355   1.951
 1269TIP3    H1 3740   0.481   4.398   1.965
 1269TIP3    H2 3741   0.539   4.280   1.896
 1270TIP3   OH2 3742   0.469   4.121   1.838
 1270TIP3    H1 3743   0.379   4.099   1.808
 1270TIP3    H2 3744   0.513   4.034   1.827
 1271TIP3   OH2 3745   0.139   4.034   1.384
 1271TIP3    H1 3746   0.222   4.039   1.333
 1271TIP3    H2 3747   0.111   3.945   1.358
 1272TIP3   OH2 3748   0.324   4.037   1.174
 1272TIP3    H1 3749   0.297   4.010   1.084
 1272TIP3    H2 3750   0.349   4.128   1.155
 1273TIP3   OH2 3751   0.206   4.086   2.266
 1273TIP3    H1 3752   0.224   4.053   2.357
 1273TIP3    H2 3753   0.295   4.079   2.225
 1274TIP3   OH2 3754   0.152   5.572   1.733
 1274TIP3    H1 3755   0.060   5.532   1.747
 1274TIP3    H2 3756   0.135   5.661   1.746
 1275TIP3   OH2 3757   1.410   4.997   0.536
 1275TIP3    H1 3758   1.383   5.086   0.508
 1275TIP3    H2 3759   1.336   4.945   0.501
 1276TIP3   OH2 3760   1.411   5.009   0.911
 1276TIP3    H1 3761   1.445   4.980   0.998
 1276TIP3    H2 3762   1.370   4.927   0.878
 1277TIP3   OH2 3763   0.717   4.905   1.277
 1277TIP3    H1 3764   0.749   4.835   1.337
 1277TIP3    H2 3765   0.800   4.947   1.250
 1278TIP3   OH2 3766   1.654   5.312   0.594
 1278TIP3    H1 3767   1.640   5.240   0.657
 1278TIP3    H2 3768   1.684   5.384   0.651
 1279TIP3   OH2 3769   0.697   5.296   1.075
 1279TIP3    H1 3770   0.692   5.199   1.061
 1279TIP3    H2 3771   0.791   5.308   1.051
 1280TIP3   OH2 3772   0.556   4.804   0.934
 1280TIP3    H1 3773   0.569   4.727   0.993
 1280TIP3    H2 3774   0.506   4.765   0.862
 1281TIP3   OH2 3775   1.352   5.743   0.669
 1281TIP3    H1 3776   1.426   5.709   0.614
 1281TIP3    H2 3777   1.364   5.691   0.750
 1282TIP3   OH2 3778   1.219   5.230   0.957
 1282TIP3    H1 3779   1.262   5.151   0.920
 1282TIP3    H2 3780   1.300   5.281   0.979
 1283TIP3   OH2 3781   2.223   4.553   0.953
 1283TIP3    H1 3782   2.254   4.636   0.993
 1283TIP3    H2 3783   2.247   4.566   0.860
 1284TIP3   OH2 3784   1.622   4.734   0.986
 1284TIP3    H1 3785   1.664   4.649   1.006
 1284TIP3    H2 3786   1.588   4.717   0.895
 1285TIP3   OH2 3787   0.965   4.395   0.959
 1285TIP3    H1 3788   0.945   4.467   0.897
 1285TIP3    H2 3789   0.918   4.320   0.916
 1286TIP3   OH2 3790   1.653   4.487   0.576
 1286TIP3    H1 3791   1.723   4.471   0.641
 1286TIP3    H2 3792   1.705   4.520   0.501
 1287TIP3   OH2 3793   0.593   4.580   1.082
 1287TIP3    H1 3794   0.680   4.566   1.125
 1287TIP3    H2 3795   0.604   4.521   1.005
 1288TIP3   OH2 3796   1.033   4.800   0.853
 1288TIP3    H1 3797   1.128   4.774   0.868
 1288TIP3    H2 3798   0.995   4.715   0.825
 1289TIP3   OH2 3799   2.298   4.764   1.121
 1289TIP3    H1 3800   2.213   4.807   1.101
 1289TIP3    H2 3801   2.307   4.786   1.215
 1290TIP3   OH2 3802   0.958   4.376   1.391
 1290TIP3    H1 3803   0.899   4.412   1.322
 1290TIP3    H2 3804   0.903   4.393   1.471
 1291TIP3   OH2 3805   1.315   5.206   0.394
 1291TIP3    H1 3806   1.285   5.182   0.305
 1291TIP3    H2 3807   1.304   5.301   0.396
 1292TIP3   OH2 3808   1.067   5.152   1.182
 1292TIP3    H1 3809   1.006   5.219   1.219
 1292TIP3    H2 3810   1.098   5.198   1.100
 1293TIP3   OH2 3811   1.859   4.492   0.749
 1293TIP3    H1 3812   1.856   4.438   0.829
 1293TIP3    H2 3813   1.912   4.569   0.778
 1294TIP3   OH2 3814   0.833   4.489   1.176
 1294TIP3    H1 3815   0.897   4.561   1.198
 1294TIP3    H2 3816   0.881   4.449   1.099
 1295TIP3   OH2 3817   0.901   5.343   1.291
 1295TIP3    H1 3818   0.872   5.426   1.249
 1295TIP3    H2 3819   0.819   5.323   1.342
 1296TIP3   OH2 3820   1.718   5.550   0.758
 1296TIP3    H1 3821   1.628   5.543   0.796
 1296TIP3    H2 3822   1.712   5.635   0.711
 1297TIP3   OH2 3823   2.015   4.457   1.121
 1297TIP3    H1 3824   1.927   4.479   1.085
 1297TIP3    H2 3825   2.075   4.487   1.050
 1298TIP3   OH2 3826   1.308   4.093   1.104
 1298TIP3    H1 3827   1.292   3.998   1.123
 1298TIP3    H2 3828   1.231   4.132   1.149
 1299TIP3   OH2 3829   1.522   5.634   0.483
 1299TIP3    H1 3830   1.561   5.552   0.446
 1299TIP3    H2 3831   1.529   5.696   0.409
 1300TIP3   OH2 3832   1.561   5.397   0.349
 1300TIP3    H1 3833   1.574   5.327   0.282
 1300TIP3    H2 3834   1.589   5.349   0.430
 1301TIP3   OH2 3835   1.949   5.465   1.098
 1301TIP3    H1 3836   1.935   5.387   1.041
 1301TIP3    H2 3837   1.931   5.539   1.037
 1302TIP3   OH2 3838   1.241   4.857   0.342
 1302TIP3    H1 3839   1.158   4.895   0.311
 1302TIP3    H2 3840   1.296   4.877   0.265
 1303TIP3   OH2 3841   1.145   4.593   0.190
 1303TIP3    H1 3842   1.203   4.637   0.252
 1303TIP3    H2 3843   1.205   4.532   0.144
 1304TIP3   OH2 3844   2.143   5.107   0.947
 1304TIP3    H1 3845   2.058   5.156   0.950
 1304TIP3    H2 3846   2.173   5.128   0.856
 1305TIP3   OH2 3847   1.599   4.949   0.344
 1305TIP3    H1 3848   1.545   4.967   0.425
 1305TIP3    H2 3849   1.684   4.921   0.385
 1306TIP3   OH2 3850   1.821   4.980   1.243
 1306TIP3    H1 3851   1.817   5.064   1.292
 1306TIP3    H2 3852   1.734   4.981   1.198
 1307TIP3   OH2 3853   0.804   4.921   0.754
 1307TIP3    H1 3854   0.797   4.872   0.672
 1307TIP3    H2 3855   0.889   4.889   0.789
 1308TIP3   OH2 3856   0.940   5.292   0.941
 1308TIP3    H1 3857   0.923   5.345   0.861
 1308TIP3    H2 3858   1.037   5.283   0.936
 1309TIP3   OH2 3859   0.966   4.906   1.108
 1309TIP3    H1 3860   0.985   4.888   1.014
 1309TIP3    H2 3861   0.999   4.998   1.118
 1310TIP3   OH2 3862   1.473   5.555   0.876
 1310TIP3    H1 3863   1.476   5.628   0.941
 1310TIP3    H2 3864   1.464   5.476   0.934
 1311TIP3   OH2 3865   1.100   5.468   1.427
 1311TIP3    H1 3866   1.037   5.531   1.470
 1311TIP3    H2 3867   1.036   5.414   1.375
 1312TIP3   OH2 3868   1.455   4.826   0.150
 1312TIP3    H1 3869   1.504   4.866   0.225
 1312TIP3    H2 3870   1.455   4.900   0.088
 1313TIP3   OH2 3871   0.855   5.020   1.535
 1313TIP3    H1 3872   0.857   5.109   1.574
 1313TIP3    H2 3873   0.759   5.000   1.540
 1314TIP3   OH2 3874   0.895   5.637   1.513
 1314TIP3    H1 3875   0.860   5.639   1.421
 1314TIP3    H2 3876   0.815   5.613   1.564
 1315TIP3   OH2 3877   1.950   4.042   0.199
 1315TIP3    H1 3878   1.868   4.055   0.251
 1315TIP3    H2 3879   1.955   4.125   0.149
 1316TIP3   OH2 3880   0.471   5.158   1.458
 1316TIP3    H1 3881   0.445   5.128   1.369
 1316TIP3    H2 3882   0.514   5.077   1.494
 1317TIP3   OH2 3883   2.183   5.813   1.145
 1317TIP3    H1 3884   2.184   5.716   1.159
 1317TIP3    H2 3885   2.100   5.836   1.193
 1318TIP3   OH2 3886   1.297   5.592   1.286
 1318TIP3    H1 3887   1.290   5.686   1.315
 1318TIP3    H2 3888   1.221   5.553   1.334
 1319TIP3   OH2 3889   2.073   4.940   1.421
 1319TIP3    H1 3890   1.990   4.949   1.371
 1319TIP3    H2 3891   2.091   4.844   1.410
 1320TIP3   OH2 3892   0.679   5.341   1.456
 1320TIP3    H1 3893   0.729   5.320   1.537
 1320TIP3    H2 3894   0.602   5.281   1.462
 1321TIP3   OH2 3895   1.072   4.173   1.231
 1321TIP3    H1 3896   0.984   4.142   1.200
 1321TIP3    H2 3897   1.044   4.251   1.283
 1322TIP3   OH2 3898   1.606   4.288   1.426
 1322TIP3    H1 3899   1.675   4.256   1.488
 1322TIP3    H2 3900   1.523   4.267   1.473
 1323TIP3   OH2 3901   1.844   4.718   1.346
 1323TIP3    H1 3902   1.791   4.715   1.429
 1323TIP3    H2 3903   1.818   4.803   1.307
 1324TIP3   OH2 3904   1.218   4.294   0.206
 1324TIP3    H1 3905   1.216   4.274   0.302
 1324TIP3    H2 3906   1.181   4.213   0.167
 1325TIP3   OH2 3907   1.008   4.686   1.253
 1325TIP3    H1 3908   0.954   4.708   1.333
 1325TIP3    H2 3909   0.995   4.768   1.199
 1326TIP3   OH2 3910   0.889   4.577   0.773
 1326TIP3    H1 3911   0.796   4.559   0.794
 1326TIP3    H2 3912   0.891   4.567   0.676
 1327TIP3   OH2 3913   1.398   4.683   0.492
 1327TIP3    H1 3914   1.339   4.743   0.441
 1327TIP3    H2 3915   1.445   4.637   0.422
 1328TIP3   OH2 3916   1.553   4.936   1.578
 1328TIP3    H1 3917   1.529   4.863   1.640
 1328TIP3    H2 3918   1.647   4.946   1.598
 1329TIP3   OH2 3919   1.536   4.687   0.731
 1329TIP3    H1 3920   1.478   4.716   0.655
 1329TIP3    H2 3921   1.571   4.606   0.689
 1330TIP3   OH2 3922   0.824   4.716   1.457
 1330TIP3    H1 3923   0.853   4.777   1.527
 1330TIP3    H2 3924   0.810   4.633   1.507
 1331TIP3   OH2 3925   0.417   4.262   1.048
 1331TIP3    H1 3926   0.488   4.284   1.113
 1331TIP3    H2 3927   0.468   4.224   0.976
 1332TIP3   OH2 3928   1.548   4.933   1.151
 1332TIP3    H1 3929   1.580   4.861   1.091
 1332TIP3    H2 3930   1.515   4.878   1.225
 1333TIP3   OH2 3931   1.210   4.414   0.836
 1333TIP3    H1 3932   1.131   4.392   0.886
 1333TIP3    H2 3933   1.282   4.387   0.897
 1334TIP3   OH2 3934   0.662   4.435   0.861
 1334TIP3    H1 3935   0.593   4.446   0.792
 1334TIP3    H2 3936   0.704   4.351   0.838
 1335TIP3   OH2 3937   0.888   4.520   0.493
 1335TIP3    H1 3938   0.985   4.455   0.541
 1335TIP3    H2 3939   0.859   4.433   0.489
 1336TIP3   OH2 3940   1.708   4.474   1.031
 1336TIP3    H1 3941   1.672   4.487   1.121
 1336TIP3    H2 3942   1.643   4.414   0.993
 1337TIP3   OH2 3943   1.873   6.160   1.245
 1337TIP3    H1 3944   1.871   6.179   1.149
 1337TIP3    H2 3945   1.961   6.197   1.269
 1338TIP3   OH2 3946   0.836   5.268   1.671
 1338TIP3    H1 3947   0.916   5.301   1.717
 1338TIP3    H2 3948   0.772   5.268   1.744
 1339TIP3   OH2 3949   1.297   4.728   0.922
 1339TIP3    H1 3950   1.370   4.686   0.873
 1339TIP3    H2 3951   1.298   4.680   1.006
 1340TIP3   OH2 3952   0.828   4.214   0.813
 1340TIP3    H1 3953   0.784   4.137   0.856
 1340TIP3    H2 3954   0.882   4.169   0.747
 1341TIP3   OH2 3955   1.274   4.626   1.206
 1341TIP3    H1 3956   1.183   4.657   1.223
 1341TIP3    H2 3957   1.329   4.687   1.259
 1342TIP3   OH2 3958   1.908   5.249   0.933
 1342TIP3    H1 3959   1.930   5.300   0.852
 1342TIP3    H2 3960   1.824   5.204   0.906
 1343TIP3   OH2 3961   1.488   4.331   0.150
 1343TIP3    H1 3962   1.392   4.314   0.149
 1343TIP3    H2 3963   1.492   4.425   0.175
 1344TIP3   OH2 3964   1.420   5.337   1.299
 1344TIP3    H1 3965   1.431   5.307   1.390
 1344TIP3    H2 3966   1.371   5.421   1.310
 1345TIP3   OH2 3967   1.536   4.580   0.274
 1345TIP3    H1 3968   1.632   4.575   0.290
 1345TIP3    H2 3969   1.527   4.655   0.214
 1346TIP3   OH2 3970   0.709   5.044   0.985
 1346TIP3    H1 3971   0.743   5.010   0.899
 1346TIP3    H2 3972   0.696   4.960   1.031
 1347TIP3   OH2 3973   0.587   4.955   1.598
 1347TIP3    H1 3974   0.604   4.938   1.693
 1347TIP3    H2 3975   0.520   4.887   1.578
 1348TIP3   OH2 3976   1.311   5.071   1.615
 1348TIP3    H1 3977   1.248   5.012   1.570
 1348TIP3    H2 3978   1.396   5.032   1.585
 1349TIP3   OH2 3979   1.569   5.602   1.195
 1349TIP3    H1 3980   1.474   5.587   1.213
 1349TIP3    H2 3981   1.596   5.648   1.277
 1350TIP3   OH2 3982   1.978   4.663   0.114
 1350TIP3    H1 3983   1.919   4.621   0.047
 1350TIP3    H2 3984   1.980   4.753   0.075
 1351TIP3   OH2 3985   2.199   5.527   1.185
 1351TIP3    H1 3986   2.102   5.517   1.179
 1351TIP3    H2 3987   2.225   5.493   1.097
 1352TIP3   OH2 3988   1.676   5.111   0.849
 1352TIP3    H1 3989   1.582   5.086   0.863
 1352TIP3    H2 3990   1.709   5.030   0.806
 1353TIP3   OH2 3991   1.073   5.696   1.111
 1353TIP3    H1 3992   1.078   5.710   1.015
 1353TIP3    H2 3993   1.158   5.655   1.131
 1354TIP3   OH2 3994   1.470   5.321   1.033
 1354TIP3    H1 3995   1.455   5.319   1.130
 1354TIP3    H2 3996   1.543   5.257   1.024
 1355TIP3   OH2 3997   1.713   5.848   1.090
 1355TIP3    H1 3998   1.634   5.791   1.087
 1355TIP3    H2 3999   1.694   5.909   1.016
 1356TIP3   OH2 4000   0.791   4.461   1.600
 1356TIP3    H1 4001   0.693   4.462   1.609
 1356TIP3    H2 4002   0.816   4.400   1.671
 1357TIP3   OH2 4003   1.626   5.182   0.190
 1357TIP3    H1 4004   1.606   5.102   0.242
 1357TIP3    H2 4005   1.712   5.157   0.150
 1358TIP3   OH2 4006   0.560   5.531   1.295
 1358TIP3    H1 4007   0.564   5.450   1.243
 1358TIP3    H2 4008   0.619   5.505   1.369
 1359TIP3   OH2 4009   1.632   4.527   1.291
 1359TIP3    H1 4010   1.716   4.560   1.325
 1359TIP3    H2 4011   1.618   4.445   1.343
 1360TIP3   OH2 4012   1.540   4.263   0.440
 1360TIP3    H1 4013   1.516   4.283   0.348
 1360TIP3    H2 4014   1.564   4.352   0.475
 1361TIP3   OH2 4015   1.201   4.519   0.595
 1361TIP3    H1 4016   1.277   4.582   0.572
 1361TIP3    H2 4017   1.208   4.502   0.682
 1362TIP3   OH2 4018   1.472   4.772   1.356
 1362TIP3    H1 4019   1.496   4.820   1.438
 1362TIP3    H2 4020   1.523   4.689   1.364
 1363TIP3   OH2 4021   1.376   4.177   0.682
 1363TIP3    H1 4022   1.392   4.237   0.758
 1363TIP3    H2 4023   1.454   4.201   0.625
 1364TIP3   OH2 4024   0.983   4.077   0.322
 1364TIP3    H1 4025   0.905   4.128   0.335
 1364TIP3    H2 4026   1.003   4.042   0.412
 1365TIP3   OH2 4027   2.110   4.673   1.340
 1365TIP3    H1 4028   2.013   4.675   1.349
 1365TIP3    H2 4029   2.118   4.620   1.260
 1366TIP3   OH2 4030   1.760   4.868   0.730
 1366TIP3    H1 4031   1.683   4.809   0.741
 1366TIP3    H2 4032   1.831   4.819   0.779
 1367TIP3   OH2 4033   1.740   5.818   0.687
 1367TIP3    H1 4034   1.706   5.868   0.610
 1367TIP3    H2 4035   1.836   5.832   0.671
 1368TIP3   OH2 4036   0.805   4.096   1.202
 1368TIP3    H1 4037   0.775   4.055   1.120
 1368TIP3    H2 4038   0.804   4.021   1.266
 1369TIP3   OH2 4039   0.509   5.821   1.650
 1369TIP3    H1 4040   0.591   5.838   1.703
 1369TIP3    H2 4041   0.494   5.728   1.669
 1370TIP3   OH2 4042   0.984   5.818   1.701
 1370TIP3    H1 4043   1.077   5.792   1.705
 1370TIP3    H2 4044   0.952   5.757   1.632
 1371TIP3   OH2 4045   1.621   5.726   1.437
 1371TIP3    H1 4046   1.612   5.654   1.505
 1371TIP3    H2 4047   1.699   5.774   1.468
 1372TIP3   OH2 4048   0.634   5.259   1.861
 1372TIP3    H1 4049   0.651   5.163   1.867
 1372TIP3    H2 4050   0.548   5.261   1.814
 1373TIP3   OH2 4051   1.239   5.347   1.632
 1373TIP3    H1 4052   1.196   5.368   1.547
 1373TIP3    H2 4053   1.267   5.254   1.620
 1374TIP3   OH2 4054   1.734   5.355   1.241
 1374TIP3    H1 4055   1.807   5.402   1.196
 1374TIP3    H2 4056   1.660   5.415   1.224
 1375TIP3   OH2 4057   0.751   4.998   1.842
 1375TIP3    H1 4058   0.826   4.946   1.812
 1375TIP3    H2 4059   0.783   5.029   1.930
 1376TIP3   OH2 4060   1.089   4.879   1.505
 1376TIP3    H1 4061   1.010   4.936   1.504
 1376TIP3    H2 4062   1.140   4.915   1.427
 1377TIP3   OH2 4063   1.609   5.282   1.636
 1377TIP3    H1 4064   1.680   5.245   1.582
 1377TIP3    H2 4065   1.598   5.215   1.705
 1378TIP3   OH2 4066   1.212   4.669   1.625
 1378TIP3    H1 4067   1.211   4.589   1.567
 1378TIP3    H2 4068   1.167   4.735   1.569
 1379TIP3   OH2 4069   1.214   4.457   1.436
 1379TIP3    H1 4070   1.241   4.495   1.351
 1379TIP3    H2 4071   1.121   4.431   1.419
 1380TIP3   OH2 4072   1.240   4.992   1.314
 1380TIP3    H1 4073   1.321   4.998   1.263
 1380TIP3    H2 4074   1.180   5.053   1.265
 1381TIP3   OH2 4075   1.822   4.953   1.688
 1381TIP3    H1 4076   1.866   4.867   1.693
 1381TIP3    H2 4077   1.890   5.009   1.648
 1382TIP3   OH2 4078   1.862   5.211   1.429
 1382TIP3    H1 4079   1.805   5.264   1.369
 1382TIP3    H2 4080   1.950   5.230   1.389
 1383TIP3   OH2 4081   1.091   4.774   1.861
 1383TIP3    H1 4082   1.023   4.704   1.876
 1383TIP3    H2 4083   1.122   4.751   1.771
 1384TIP3   OH2 4084   1.345   4.216   1.505
 1384TIP3    H1 4085   1.294   4.296   1.482
 1384TIP3    H2 4086   1.278   4.146   1.494
 1385TIP3   OH2 4087   1.469   4.718   1.719
 1385TIP3    H1 4088   1.451   4.701   1.813
 1385TIP3    H2 4089   1.381   4.695   1.682
 1386TIP3   OH2 4090   1.711   4.676   1.577
 1386TIP3    H1 4091   1.635   4.672   1.639
 1386TIP3    H2 4092   1.784   4.641   1.632
 1387TIP3   OH2 4093   1.942   4.613   1.724
 1387TIP3    H1 4094   1.954   4.517   1.737
 1387TIP3    H2 4095   1.938   4.647   1.816
 1388TIP3   OH2 4096   0.929   4.556   1.914
 1388TIP3    H1 4097   0.928   4.464   1.880
 1388TIP3    H2 4098   0.966   4.541   2.004
 1389TIP3   OH2 4099   1.439   4.226   1.763
 1389TIP3    H1 4100   1.504   4.154   1.756
 1389TIP3    H2 4101   1.398   4.222   1.674
 1390TIP3   OH2 4102   1.507   4.441   1.919
 1390TIP3    H1 4103   1.486   4.369   1.856
 1390TIP3    H2 4104   1.427   4.498   1.912
 1391TIP3   OH2 4105   1.994   5.905   0.643
 1391TIP3    H1 4106   2.019   5.940   0.731
 1391TIP3    H2 4107   2.048   5.958   0.583
 1392TIP3   OH2 4108   2.014   5.934   0.923
 1392TIP3    H1 4109   1.965   5.849   0.917
 1392TIP3    H2 4110   2.088   5.905   0.978
 1393TIP3   OH2 4111   2.059   5.612   1.492
 1393TIP3    H1 4112   1.987   5.621   1.558
 1393TIP3    H2 4113   2.102   5.699   1.497
 1394TIP3   OH2 4114   1.883   5.117   0.105
 1394TIP3    H1 4115   1.949   5.182   0.077
 1394TIP3    H2 4116   1.925   5.080   0.186
 1395TIP3   OH2 4117   2.004   4.993   0.318
 1395TIP3    H1 4118   1.940   4.947   0.377
 1395TIP3    H2 4119   2.070   5.027   0.382
 1396TIP3   OH2 4120   2.061   5.387   0.746
 1396TIP3    H1 4121   2.114   5.316   0.703
 1396TIP3    H2 4122   2.053   5.453   0.676
 1397TIP3   OH2 4123   1.887   5.686   0.939
 1397TIP3    H1 4124   1.814   5.724   0.992
 1397TIP3    H2 4125   1.838   5.639   0.868
 1398TIP3   OH2 4126   1.945   4.890  -0.038
 1398TIP3    H1 4127   1.866   4.861  -0.085
 1398TIP3    H2 4128   1.914   4.971   0.007
 1399TIP3   OH2 4129   1.818   4.587  -0.088
 1399TIP3    H1 4130   1.744   4.638  -0.129
 1399TIP3    H2 4131   1.787   4.495  -0.096
 1400TIP3   OH2 4132   1.825   4.845   0.464
 1400TIP3    H1 4133   1.826   4.749   0.453
 1400TIP3    H2 4134   1.809   4.855   0.561
 1401TIP3   OH2 4135   0.454   4.900   1.229
 1401TIP3    H1 4136   0.450   4.889   1.132
 1401TIP3    H2 4137   0.551   4.904   1.242
 1402TIP3   OH2 4138   2.108   5.274   1.320
 1402TIP3    H1 4139   2.178   5.206   1.309
 1402TIP3    H2 4140   2.131   5.338   1.250
 1403TIP3   OH2 4141   2.290   5.075   1.330
 1403TIP3    H1 4142   2.215   5.025   1.369
 1403TIP3    H2 4143   2.363   5.011   1.348
 1404TIP3   OH2 4144   1.748   4.323  -0.081
 1404TIP3    H1 4145   1.834   4.285  -0.054
 1404TIP3    H2 4146   1.685   4.272  -0.028
 1405TIP3   OH2 4147   1.812   4.564   0.353
 1405TIP3    H1 4148   1.851   4.475   0.369
 1405TIP3    H2 4149   1.870   4.595   0.282
 1406TIP3   OH2 4150   1.973   4.737   0.851
 1406TIP3    H1 4151   2.059   4.761   0.809
 1406TIP3    H2 4152   1.989   4.773   0.940
 1407TIP3   OH2 4153   2.047   4.883   1.080
 1407TIP3    H1 4154   1.969   4.917   1.128
 1407TIP3    H2 4155   2.079   4.965   1.036
 1408TIP3   OH2 4156   0.663   4.611   1.893
 1408TIP3    H1 4157   0.761   4.602   1.890
 1408TIP3    H2 4158   0.638   4.522   1.924
 1409TIP3   OH2 4159   2.495   4.477   1.636
 1409TIP3    H1 4160   2.557   4.411   1.596
 1409TIP3    H2 4161   2.466   4.527   1.557
 1410TIP3   OH2 4162   1.923   4.316   0.392
 1410TIP3    H1 4163   1.970   4.300   0.476
 1410TIP3    H2 4164   1.866   4.236   0.388
 1411TIP3   OH2 4165   0.622   4.302   1.217
 1411TIP3    H1 4166   0.682   4.224   1.223
 1411TIP3    H2 4167   0.687   4.374   1.207
 1412TIP3   OH2 4168   0.415   4.574   1.289
 1412TIP3    H1 4169   0.473   4.568   1.210
 1412TIP3    H2 4170   0.440   4.662   1.322
 1413TIP3   OH2 4171   2.364   4.611   1.437
 1413TIP3    H1 4172   2.276   4.653   1.450
 1413TIP3    H2 4173   2.336   4.535   1.382
 1414TIP3   OH2 4174   2.010   4.251   0.009
 1414TIP3    H1 4175   2.077   4.189  -0.022
 1414TIP3    H2 4176   2.064   4.332   0.018
 1415TIP3   OH2 4177   0.634   4.166   1.604
 1415TIP3    H1 4178   0.578   4.152   1.682
 1415TIP3    H2 4179   0.568   4.198   1.540
 1416TIP3   OH2 4180   0.683   5.582   1.678
 1416TIP3    H1 4181   0.589   5.559   1.660
 1416TIP3    H2 4182   0.688   5.564   1.772
 1417TIP3   OH2 4183   0.846   5.610   1.236
 1417TIP3    H1 4184   0.777   5.633   1.172
 1417TIP3    H2 4185   0.926   5.647   1.192
 1418TIP3   OH2 4186   1.291   5.860   1.365
 1418TIP3    H1 4187   1.334   5.859   1.453
 1418TIP3    H2 4188   1.356   5.912   1.313
 1419TIP3   OH2 4189   1.469   6.016   1.227
 1419TIP3    H1 4190   1.534   5.964   1.177
 1419TIP3    H2 4191   1.526   6.070   1.285
 1420TIP3   OH2 4192   2.265   4.372   1.323
 1420TIP3    H1 4193   2.175   4.358   1.288
 1420TIP3    H2 4194   2.302   4.280   1.314
 1421TIP3   OH2 4195   1.214   5.897   0.892
 1421TIP3    H1 4196   1.118   5.876   0.876
 1421TIP3    H2 4197   1.208   5.975   0.949
 1422TIP3   OH2 4198   1.465   5.823   0.965
 1422TIP3    H1 4199   1.373   5.841   0.938
 1422TIP3    H2 4200   1.512   5.889   0.911
 1423TIP3   OH2 4201   1.665   6.007   0.872
 1423TIP3    H1 4202   1.654   6.091   0.825
 1423TIP3    H2 4203   1.692   5.946   0.800
 1424TIP3   OH2 4204   1.464   4.282   0.935
 1424TIP3    H1 4205   1.425   4.218   0.996
 1424TIP3    H2 4206   1.547   4.238   0.908
 1425TIP3   OH2 4207   1.990   4.182   0.851
 1425TIP3    H1 4208   2.026   4.226   0.771
 1425TIP3    H2 4209   1.894   4.190   0.836
 1426TIP3   OH2 4210   2.087   4.270   0.610
 1426TIP3    H1 4211   2.160   4.218   0.571
 1426TIP3    H2 4212   2.120   4.362   0.595
 1427TIP3   OH2 4213   0.715   4.000   0.952
 1427TIP3    H1 4214   0.630   3.956   0.941
 1427TIP3    H2 4215   0.774   3.921   0.952
 1428TIP3   OH2 4216   1.153   4.046   0.830
 1428TIP3    H1 4217   1.224   4.081   0.775
 1428TIP3    H2 4218   1.184   4.067   0.919
 1429TIP3   OH2 4219   1.705   4.175   0.818
 1429TIP3    H1 4220   1.719   4.130   0.733
 1429TIP3    H2 4221   1.694   4.099   0.878
 1430TIP3   OH2 4222   1.753   4.096   0.386
 1430TIP3    H1 4223   1.670   4.146   0.399
 1430TIP3    H2 4224   1.729   4.011   0.429
 1431TIP3   OH2 4225   1.199   4.268   0.479
 1431TIP3    H1 4226   1.261   4.229   0.547
 1431TIP3    H2 4227   1.198   4.362   0.512
 1432TIP3   OH2 4228   0.925   4.285   1.854
 1432TIP3    H1 4229   0.889   4.210   1.905
 1432TIP3    H2 4230   1.019   4.281   1.880
 1433TIP3   OH2 4231   1.178   4.279   1.968
 1433TIP3    H1 4232   1.261   4.250   1.926
 1433TIP3    H2 4233   1.164   4.209   2.035
 1434TIP3   OH2 4234   2.004   4.342   1.755
 1434TIP3    H1 4235   2.023   4.309   1.845
 1434TIP3    H2 4236   2.093   4.336   1.713
 1435TIP3   OH2 4237   1.937   5.891   1.249
 1435TIP3    H1 4238   1.860   5.859   1.197
 1435TIP3    H2 4239   1.914   5.986   1.255
 1436TIP3   OH2 4240   3.221   5.271   0.072
 1436TIP3    H1 4241   3.200   5.359   0.034
 1436TIP3    H2 4242   3.136   5.227   0.058
 1437TIP3   OH2 4243   3.199   5.272   0.406
 1437TIP3    H1 4244   3.239   5.240   0.489
 1437TIP3    H2 4245   3.168   5.189   0.365
 1438TIP3   OH2 4246   2.501   5.158   0.762
 1438TIP3    H1 4247   2.530   5.087   0.823
 1438TIP3    H2 4248   2.585   5.205   0.748
 1439TIP3   OH2 4249   3.460   5.559   0.068
 1439TIP3    H1 4250   3.438   5.490   0.132
 1439TIP3    H2 4251   3.485   5.633   0.126
 1440TIP3   OH2 4252   2.477   5.570   0.480
 1440TIP3    H1 4253   2.469   5.472   0.482
 1440TIP3    H2 4254   2.574   5.579   0.474
 1441TIP3   OH2 4255   2.184   4.772   0.265
 1441TIP3    H1 4256   2.134   4.853   0.282
 1441TIP3    H2 4257   2.113   4.715   0.229
 1442TIP3   OH2 4258   2.241   5.058   0.446
 1442TIP3    H1 4259   2.289   4.979   0.479
 1442TIP3    H2 4260   2.299   5.088   0.375
 1443TIP3   OH2 4261   3.062   5.986   0.128
 1443TIP3    H1 4262   3.126   5.997   0.055
 1443TIP3    H2 4263   3.118   5.975   0.205
 1444TIP3   OH2 4264   3.004   5.492   0.442
 1444TIP3    H1 4265   3.045   5.411   0.407
 1444TIP3    H2 4266   3.086   5.539   0.466
 1445TIP3   OH2 4267   4.014   4.807   0.441
 1445TIP3    H1 4268   4.047   4.891   0.478
 1445TIP3    H2 4269   4.060   4.806   0.354
 1446TIP3   OH2 4270   3.414   4.991   0.475
 1446TIP3    H1 4271   3.460   4.908   0.497
 1446TIP3    H2 4272   3.385   4.971   0.384
 1447TIP3   OH2 4273   2.756   4.651   0.438
 1447TIP3    H1 4274   2.738   4.722   0.374
 1447TIP3    H2 4275   2.710   4.576   0.394
 1448TIP3   OH2 4276   3.450   4.744   0.057
 1448TIP3    H1 4277   3.522   4.729   0.122
 1448TIP3    H2 4278   3.503   4.770  -0.021
 1449TIP3   OH2 4279   2.388   4.851   0.546
 1449TIP3    H1 4280   2.471   4.832   0.594
 1449TIP3    H2 4281   2.403   4.795   0.466
 1450TIP3   OH2 4282   2.827   5.049   0.345
 1450TIP3    H1 4283   2.922   5.025   0.356
 1450TIP3    H2 4284   2.790   4.965   0.310
 1451TIP3   OH2 4285   4.093   5.017   0.610
 1451TIP3    H1 4286   4.007   5.061   0.592
 1451TIP3    H2 4287   4.112   5.050   0.699
 1452TIP3   OH2 4288   2.752   4.635   0.874
 1452TIP3    H1 4289   2.691   4.670   0.806
 1452TIP3    H2 4290   2.699   4.651   0.954
 1453TIP3   OH2 4291   3.110   5.467  -0.084
 1453TIP3    H1 4292   3.056   5.468  -0.165
 1453TIP3    H2 4293   3.085   5.553  -0.046
 1454TIP3   OH2 4294   2.858   5.411   0.664
 1454TIP3    H1 4295   2.799   5.479   0.701
 1454TIP3    H2 4296   2.900   5.459   0.590
 1455TIP3   OH2 4297   3.652   4.749   0.236
 1455TIP3    H1 4298   3.651   4.695   0.316
 1455TIP3    H2 4299   3.705   4.826   0.265
 1456TIP3   OH2 4300   2.623   4.749   0.657
 1456TIP3    H1 4301   2.686   4.820   0.681
 1456TIP3    H2 4302   2.672   4.708   0.581
 1457TIP3   OH2 4303   2.687   5.607   0.767
 1457TIP3    H1 4304   2.660   5.694   0.730
 1457TIP3    H2 4305   2.607   5.588   0.822
 1458TIP3   OH2 4306   2.080   5.289   0.001
 1458TIP3    H1 4307   2.041   5.310  -0.086
 1458TIP3    H2 4308   2.097   5.380   0.035
 1459TIP3   OH2 4309   3.518   5.798   0.242
 1459TIP3    H1 4310   3.429   5.786   0.283
 1459TIP3    H2 4311   3.510   5.890   0.211
 1460TIP3   OH2 4312   3.810   4.709   0.606
 1460TIP3    H1 4313   3.725   4.737   0.570
 1460TIP3    H2 4314   3.873   4.742   0.538
 1461TIP3   OH2 4315   3.102   4.349   0.588
 1461TIP3    H1 4316   3.089   4.254   0.608
 1461TIP3    H2 4317   3.026   4.388   0.636
 1462TIP3   OH2 4318   3.742   5.719   0.590
 1462TIP3    H1 4319   3.732   5.642   0.530
 1462TIP3    H2 4320   3.730   5.794   0.528
 1463TIP3   OH2 4321   3.049   5.138  -0.110
 1463TIP3    H1 4322   2.974   5.198  -0.134
 1463TIP3    H2 4323   3.124   5.183  -0.152
 1464TIP3   OH2 4324   3.939   5.364   0.438
 1464TIP3    H1 4325   3.854   5.414   0.442
 1464TIP3    H2 4326   3.965   5.380   0.345
 1465TIP3   OH2 4327   3.337   5.136  -0.137
 1465TIP3    H1 4328   3.312   5.184  -0.055
 1465TIP3    H2 4329   3.432   5.157  -0.139
 1466TIP3   OH2 4330   3.618   5.235   0.733
 1466TIP3    H1 4331   3.616   5.318   0.785
 1466TIP3    H2 4332   3.532   5.241   0.687
 1467TIP3   OH2 4333   2.617   5.196   0.233
 1467TIP3    H1 4334   2.575   5.136   0.167
 1467TIP3    H2 4335   2.693   5.141   0.264
 1468TIP3   OH2 4336   2.746   5.607   0.380
 1468TIP3    H1 4337   2.725   5.572   0.292
 1468TIP3    H2 4338   2.835   5.568   0.396
 1469TIP3   OH2 4339   2.748   5.168   0.588
 1469TIP3    H1 4340   2.782   5.140   0.501
 1469TIP3    H2 4341   2.795   5.252   0.603
 1470TIP3   OH2 4342   3.277   5.804   0.361
 1470TIP3    H1 4343   3.263   5.885   0.415
 1470TIP3    H2 4344   3.261   5.732   0.425
 1471TIP3   OH2 4345   2.892   5.724   0.910
 1471TIP3    H1 4346   2.832   5.785   0.958
 1471TIP3    H2 4347   2.826   5.671   0.860
 1472TIP3   OH2 4348   2.647   5.280   1.016
 1472TIP3    H1 4349   2.650   5.368   1.058
 1472TIP3    H2 4350   2.553   5.258   1.027
 1473TIP3   OH2 4351   2.981   5.734  -0.049
 1473TIP3    H1 4352   3.033   5.784   0.015
 1473TIP3    H2 4353   2.896   5.781  -0.044
 1474TIP3   OH2 4354   2.683   5.893   0.998
 1474TIP3    H1 4355   2.649   5.893   0.906
 1474TIP3    H2 4356   2.602   5.871   1.050
 1475TIP3   OH2 4357   2.480   5.036   0.043
 1475TIP3    H1 4358   2.407   5.068  -0.013
 1475TIP3    H2 4359   2.459   4.942   0.052
 1476TIP3   OH2 4360   2.264   5.424   0.944
 1476TIP3    H1 4361   2.196   5.402   0.877
 1476TIP3    H2 4362   2.302   5.336   0.967
 1477TIP3   OH2 4363   2.117   5.622   0.566
 1477TIP3    H1 4364   2.213   5.608   0.569
 1477TIP3    H2 4365   2.106   5.696   0.629
 1478TIP3   OH2 4366   3.987   6.064   0.649
 1478TIP3    H1 4367   3.982   5.967   0.656
 1478TIP3    H2 4368   3.902   6.090   0.689
 1479TIP3   OH2 4369   3.085   5.851   0.767
 1479TIP3    H1 4370   3.078   5.943   0.799
 1479TIP3    H2 4371   3.014   5.808   0.820
 1480TIP3   OH2 4372   2.275   5.804   0.118
 1480TIP3    H1 4373   2.350   5.808   0.182
 1480TIP3    H2 4374   2.206   5.770   0.178
 1481TIP3   OH2 4375   3.868   5.195   0.910
 1481TIP3    H1 4376   3.788   5.202   0.856
 1481TIP3    H2 4377   3.889   5.100   0.901
 1482TIP3   OH2 4378   2.466   5.608   0.931
 1482TIP3    H1 4379   2.517   5.588   1.013
 1482TIP3    H2 4380   2.393   5.543   0.937
 1483TIP3   OH2 4381   2.867   4.428   0.719
 1483TIP3    H1 4382   2.779   4.398   0.689
 1483TIP3    H2 4383   2.840   4.508   0.768
 1484TIP3   OH2 4384   3.404   4.543   0.913
 1484TIP3    H1 4385   3.475   4.514   0.974
 1484TIP3    H2 4386   3.322   4.523   0.962
 1485TIP3   OH2 4387   3.635   4.970   0.828
 1485TIP3    H1 4388   3.586   4.969   0.913
 1485TIP3    H2 4389   3.616   5.059   0.793
 1486TIP3   OH2 4390   3.021   4.506  -0.299
 1486TIP3    H1 4391   2.981   4.476  -0.215
 1486TIP3    H2 4392   2.982   4.445  -0.363
 1487TIP3   OH2 4393   2.799   4.946   0.737
 1487TIP3    H1 4394   2.749   4.966   0.818
 1487TIP3    H2 4395   2.783   5.027   0.684
 1488TIP3   OH2 4396   2.682   4.832   0.250
 1488TIP3    H1 4397   2.590   4.803   0.269
 1488TIP3    H2 4398   2.695   4.791   0.161
 1489TIP3   OH2 4399   3.180   4.915  -0.028
 1489TIP3    H1 4400   3.122   4.989  -0.053
 1489TIP3    H2 4401   3.259   4.939  -0.079
 1490TIP3   OH2 4402   3.349   5.193   1.064
 1490TIP3    H1 4403   3.328   5.119   1.125
 1490TIP3    H2 4404   3.444   5.205   1.084
 1491TIP3   OH2 4405   3.333   4.942   0.217
 1491TIP3    H1 4406   3.272   4.970   0.147
 1491TIP3    H2 4407   3.370   4.862   0.173
 1492TIP3   OH2 4408   2.617   4.973   0.944
 1492TIP3    H1 4409   2.654   5.032   1.011
 1492TIP3    H2 4410   2.607   4.889   0.995
 1493TIP3   OH2 4411   2.695   4.385  -0.330
 1493TIP3    H1 4412   2.669   4.418  -0.242
 1493TIP3    H2 4413   2.645   4.440  -0.391
 1494TIP3   OH2 4414   2.212   4.494   0.526
 1494TIP3    H1 4415   2.288   4.525   0.578
 1494TIP3    H2 4416   2.251   4.461   0.444
 1495TIP3   OH2 4417   2.175   4.475   0.041
 1495TIP3    H1 4418   2.234   4.507  -0.030
 1495TIP3    H2 4419   2.120   4.555   0.058
 1496TIP3   OH2 4420   3.338   5.189   0.638
 1496TIP3    H1 4421   3.373   5.118   0.579
 1496TIP3    H2 4422   3.310   5.134   0.715
 1497TIP3   OH2 4423   3.014   4.657   0.311
 1497TIP3    H1 4424   2.935   4.653   0.368
 1497TIP3    H2 4425   3.086   4.642   0.374
 1498TIP3   OH2 4426   2.446   4.709   0.317
 1498TIP3    H1 4427   2.351   4.716   0.289
 1498TIP3    H2 4428   2.468   4.616   0.297
 1499TIP3   OH2 4429   2.713   4.709   0.009
 1499TIP3    H1 4430   2.810   4.718  -0.007
 1499TIP3    H2 4431   2.674   4.741  -0.075
 1500TIP3   OH2 4432   3.502   4.732   0.518
 1500TIP3    H1 4433   3.466   4.743   0.609
 1500TIP3    H2 4434   3.439   4.669   0.480
 1501TIP3   OH2 4435   2.539   4.761  -0.201
 1501TIP3    H1 4436   2.461   4.705  -0.207
 1501TIP3    H2 4437   2.595   4.730  -0.275
 1502TIP3   OH2 4438   3.676   6.421   0.743
 1502TIP3    H1 4439   3.675   6.440   0.647
 1502TIP3    H2 4440   3.760   6.466   0.768
 1503TIP3   OH2 4441   2.630   5.531   1.152
 1503TIP3    H1 4442   2.711   5.557   1.201
 1503TIP3    H2 4443   2.566   5.524   1.227
 1504TIP3   OH2 4444   3.092   4.982   0.408
 1504TIP3    H1 4445   3.167   4.941   0.361
 1504TIP3    H2 4446   3.096   4.937   0.495
 1505TIP3   OH2 4447   2.613   4.467   0.291
 1505TIP3    H1 4448   2.576   4.391   0.341
 1505TIP3    H2 4449   2.656   4.423   0.217
 1506TIP3   OH2 4450   3.069   4.882   0.694
 1506TIP3    H1 4451   2.980   4.916   0.712
 1506TIP3    H2 4452   3.127   4.941   0.747
 1507TIP3   OH2 4453   2.827   5.261  -0.191
 1507TIP3    H1 4454   2.748   5.209  -0.214
 1507TIP3    H2 4455   2.796   5.309  -0.111
 1508TIP3   OH2 4456   3.702   5.505   0.423
 1508TIP3    H1 4457   3.728   5.553   0.341
 1508TIP3    H2 4458   3.619   5.460   0.395
 1509TIP3   OH2 4459   3.206   5.587   0.788
 1509TIP3    H1 4460   3.236   5.561   0.875
 1509TIP3    H2 4461   3.164   5.674   0.803
 1510TIP3   OH2 4462   2.500   5.295   0.466
 1510TIP3    H1 4463   2.538   5.264   0.381
 1510TIP3    H2 4464   2.543   5.235   0.529
 1511TIP3   OH2 4465   2.380   5.212   1.083
 1511TIP3    H1 4466   2.398   5.195   1.178
 1511TIP3    H2 4467   2.313   5.145   1.063
 1512TIP3   OH2 4468   3.109   5.328   1.101
 1512TIP3    H1 4469   3.049   5.267   1.055
 1512TIP3    H2 4470   3.196   5.290   1.074
 1513TIP3   OH2 4471   3.359   5.853   0.690
 1513TIP3    H1 4472   3.263   5.840   0.699
 1513TIP3    H2 4473   3.377   5.913   0.764
 1514TIP3   OH2 4474   3.993   5.776   0.678
 1514TIP3    H1 4475   3.895   5.770   0.670
 1514TIP3    H2 4476   4.019   5.746   0.588
 1515TIP3   OH2 4477   3.469   5.371   0.336
 1515TIP3    H1 4478   3.376   5.346   0.349
 1515TIP3    H2 4479   3.504   5.289   0.296
 1516TIP3   OH2 4480   2.608   5.591   0.109
 1516TIP3    H1 4481   2.598   5.667   0.047
 1516TIP3    H2 4482   2.516   5.563   0.116
 1517TIP3   OH2 4483   2.166   4.899  -0.204
 1517TIP3    H1 4484   2.210   4.982  -0.181
 1517TIP3    H2 4485   2.088   4.900  -0.145
 1518TIP3   OH2 4486   2.742   5.363   0.043
 1518TIP3    H1 4487   2.702   5.450   0.061
 1518TIP3    H2 4488   2.704   5.308   0.114
 1519TIP3   OH2 4489   2.869   5.938   0.561
 1519TIP3    H1 4490   2.910   6.011   0.511
 1519TIP3    H2 4491   2.946   5.898   0.604
 1520TIP3   OH2 4492   2.520   5.806  -0.031
 1520TIP3    H1 4493   2.427   5.819  -0.009
 1520TIP3    H2 4494   2.554   5.898  -0.027
 1521TIP3   OH2 4495   3.257   5.576   0.520
 1521TIP3    H1 4496   3.246   5.572   0.618
 1521TIP3    H2 4497   3.331   5.515   0.507
 1522TIP3   OH2 4498   3.502   6.098   0.583
 1522TIP3    H1 4499   3.424   6.040   0.569
 1522TIP3    H2 4500   3.489   6.164   0.511
 1523TIP3   OH2 4501   2.588   4.718   1.087
 1523TIP3    H1 4502   2.491   4.718   1.097
 1523TIP3    H2 4503   2.616   4.659   1.158
 1524TIP3   OH2 4504   2.308   5.797   0.720
 1524TIP3    H1 4505   2.362   5.724   0.754
 1524TIP3    H2 4506   2.338   5.870   0.775
 1525TIP3   OH2 4507   2.279   5.139  -0.117
 1525TIP3    H1 4508   2.209   5.187  -0.068
 1525TIP3    H2 4509   2.332   5.210  -0.153
 1526TIP3   OH2 4510   3.425   4.784   0.778
 1526TIP3    H1 4511   3.510   4.820   0.807
 1526TIP3    H2 4512   3.417   4.701   0.831
 1527TIP3   OH2 4513   3.300   4.542  -0.063
 1527TIP3    H1 4514   3.276   4.585  -0.147
 1527TIP3    H2 4515   3.354   4.613  -0.021
 1528TIP3   OH2 4516   2.991   4.713   0.039
 1528TIP3    H1 4517   3.061   4.778   0.018
 1528TIP3    H2 4518   3.001   4.704   0.137
 1529TIP3   OH2 4519   3.267   5.027   0.846
 1529TIP3    H1 4520   3.295   5.075   0.926
 1529TIP3    H2 4521   3.321   4.945   0.851
 1530TIP3   OH2 4522   3.142   4.434   0.137
 1530TIP3    H1 4523   3.146   4.507   0.201
 1530TIP3    H2 4524   3.200   4.469   0.066
 1531TIP3   OH2 4525   2.651   4.446  -0.058
 1531TIP3    H1 4526   2.656   4.537  -0.022
 1531TIP3    H2 4527   2.746   4.422  -0.055
 1532TIP3   OH2 4528   3.904   4.931   0.831
 1532TIP3    H1 4529   3.806   4.928   0.833
 1532TIP3    H2 4530   3.921   4.884   0.748
 1533TIP3   OH2 4531   3.553   5.128   0.227
 1533TIP3    H1 4532   3.480   5.065   0.235
 1533TIP3    H2 4533   3.625   5.080   0.274
 1534TIP3   OH2 4534   2.236   4.638  -0.190
 1534TIP3    H1 4535   2.219   4.734  -0.197
 1534TIP3    H2 4536   2.154   4.602  -0.225
 1535TIP3   OH2 4537   3.538   6.068   0.184
 1535TIP3    H1 4538   3.493   6.077   0.097
 1535TIP3    H2 4539   3.631   6.070   0.158
 1536TIP3   OH2 4540   2.601   4.349   0.691
 1536TIP3    H1 4541   2.572   4.313   0.604
 1536TIP3    H2 4542   2.592   4.271   0.749
 1537TIP3   OH2 4543   2.113   5.556   0.054
 1537TIP3    H1 4544   2.075   5.602   0.130
 1537TIP3    H2 4545   2.169   5.624   0.014
 1538TIP3   OH2 4546   2.299   6.116   1.149
 1538TIP3    H1 4547   2.387   6.112   1.192
 1538TIP3    H2 4548   2.278   6.021   1.144
 1539TIP3   OH2 4549   2.784   6.071   1.186
 1539TIP3    H1 4550   2.875   6.038   1.192
 1539TIP3    H2 4551   2.751   6.012   1.115
 1540TIP3   OH2 4552   3.407   5.993   0.935
 1540TIP3    H1 4553   3.390   5.913   0.989
 1540TIP3    H2 4554   3.501   5.984   0.912
 1541TIP3   OH2 4555   2.428   5.518   1.345
 1541TIP3    H1 4556   2.444   5.421   1.353
 1541TIP3    H2 4557   2.342   5.519   1.298
 1542TIP3   OH2 4558   3.035   5.602   1.119
 1542TIP3    H1 4559   2.994   5.620   1.032
 1542TIP3    H2 4560   3.066   5.509   1.109
 1543TIP3   OH2 4561   3.527   5.615   0.728
 1543TIP3    H1 4562   3.605   5.654   0.683
 1543TIP3    H2 4563   3.458   5.681   0.705
 1544TIP3   OH2 4564   2.550   5.256   1.327
 1544TIP3    H1 4565   2.625   5.203   1.298
 1544TIP3    H2 4566   2.579   5.286   1.415
 1545TIP3   OH2 4567   2.623   5.071  -0.233
 1545TIP3    H1 4568   2.584   5.027  -0.156
 1545TIP3    H2 4569   2.687   5.005  -0.264
 1546TIP3   OH2 4570   2.881   5.133   0.988
 1546TIP3    H1 4571   2.804   5.194   0.987
 1546TIP3    H2 4572   2.935   5.168   0.913
 1547TIP3   OH2 4573   3.406   5.536   1.120
 1547TIP3    H1 4574   3.483   5.501   1.073
 1547TIP3    H2 4575   3.396   5.471   1.192
 1548TIP3   OH2 4576   3.005   4.925   1.114
 1548TIP3    H1 4577   3.008   4.845   1.056
 1548TIP3    H2 4578   2.962   4.990   1.055
 1549TIP3   OH2 4579   3.009   4.713   0.924
 1549TIP3    H1 4580   3.039   4.751   0.839
 1549TIP3    H2 4581   2.916   4.689   0.903
 1550TIP3   OH2 4582   3.032   5.245   0.798
 1550TIP3    H1 4583   3.118   5.251   0.754
 1550TIP3    H2 4584   2.978   5.309   0.747
 1551TIP3   OH2 4585   3.616   5.210   1.174
 1551TIP3    H1 4586   3.661   5.125   1.185
 1551TIP3    H2 4587   3.688   5.264   1.137
 1552TIP3   OH2 4588   3.657   5.466   0.912
 1552TIP3    H1 4589   3.601   5.520   0.852
 1552TIP3    H2 4590   3.746   5.485   0.873
 1553TIP3   OH2 4591   2.883   5.032   1.347
 1553TIP3    H1 4592   2.817   4.961   1.362
 1553TIP3    H2 4593   2.918   5.007   1.259
 1554TIP3   OH2 4594   3.141   4.473   0.992
 1554TIP3    H1 4595   3.090   4.553   0.969
 1554TIP3    H2 4596   3.074   4.403   0.980
 1555TIP3   OH2 4597   3.266   4.976   1.207
 1555TIP3    H1 4598   3.254   4.959   1.302
 1555TIP3    H2 4599   3.176   4.951   1.175
 1556TIP3   OH2 4600   3.506   4.932   1.062
 1556TIP3    H1 4601   3.432   4.928   1.126
 1556TIP3    H2 4602   3.581   4.899   1.115
 1557TIP3   OH2 4603   3.729   4.867   1.210
 1557TIP3    H1 4604   3.746   4.771   1.224
 1557TIP3    H2 4605   3.731   4.903   1.301
 1558TIP3   OH2 4606   2.724   4.812   1.402
 1558TIP3    H1 4607   2.727   4.720   1.368
 1558TIP3    H2 4608   2.764   4.798   1.491
 1559TIP3   OH2 4609   3.233   4.482   1.250
 1559TIP3    H1 4610   3.301   4.411   1.244
 1559TIP3    H2 4611   3.195   4.477   1.160
 1560TIP3   OH2 4612   3.302   4.697   1.407
 1560TIP3    H1 4613   3.282   4.625   1.344
 1560TIP3    H2 4614   3.222   4.754   1.400
 1561TIP3   OH2 4615   2.009   5.308  -0.266
 1561TIP3    H1 4616   2.073   5.298  -0.337
 1561TIP3    H2 4617   1.951   5.232  -0.278
 1562TIP3   OH2 4618   1.924   5.900   0.129
 1562TIP3    H1 4619   1.836   5.940   0.152
 1562TIP3    H2 4620   1.947   5.851   0.208
 1563TIP3   OH2 4621   2.067   5.761   0.322
 1563TIP3    H1 4622   2.048   5.694   0.391
 1563TIP3    H2 4623   2.114   5.826   0.378
 1564TIP3   OH2 4624   3.804   6.194   0.411
 1564TIP3    H1 4625   3.775   6.101   0.404
 1564TIP3    H2 4626   3.898   6.179   0.432
 1565TIP3   OH2 4627   3.847   5.870   0.983
 1565TIP3    H1 4628   3.779   5.887   1.050
 1565TIP3    H2 4629   3.896   5.954   0.981
 1566TIP3   OH2 4630   3.854   5.632   0.233
 1566TIP3    H1 4631   3.903   5.565   0.182
 1566TIP3    H2 4632   3.824   5.694   0.165
 1567TIP3   OH2 4633   3.682   5.935   0.430
 1567TIP3    H1 4634   3.614   5.982   0.481
 1567TIP3    H2 4635   3.630   5.886   0.363
 1568TIP3   OH2 4636   3.613   5.089  -0.041
 1568TIP3    H1 4637   3.624   4.992  -0.047
 1568TIP3    H2 4638   3.602   5.103   0.055
 1569TIP3   OH2 4639   2.237   5.181   0.695
 1569TIP3    H1 4640   2.235   5.145   0.604
 1569TIP3    H2 4641   2.334   5.181   0.712
 1570TIP3   OH2 4642   3.903   5.530   0.805
 1570TIP3    H1 4643   3.973   5.462   0.796
 1570TIP3    H2 4644   3.934   5.599   0.743
 1571TIP3   OH2 4645   4.084   5.331   0.817
 1571TIP3    H1 4646   4.011   5.279   0.857
 1571TIP3    H2 4647   4.159   5.269   0.833
 1572TIP3   OH2 4648   3.607   4.812  -0.164
 1572TIP3    H1 4649   3.645   4.722  -0.145
 1572TIP3    H2 4650   3.681   4.851  -0.213
 1573TIP3   OH2 4651   3.758   4.989   0.345
 1573TIP3    H1 4652   3.843   5.018   0.304
 1573TIP3    H2 4653   3.776   5.021   0.436
 1574TIP3   OH2 4654   3.841   5.139   0.571
 1574TIP3    H1 4655   3.764   5.175   0.617
 1574TIP3    H2 4656   3.876   5.218   0.523
 1575TIP3   OH2 4657   2.459   4.866   1.376
 1575TIP3    H1 4658   2.556   4.858   1.376
 1575TIP3    H2 4659   2.434   4.778   1.410
 1576TIP3   OH2 4660   4.290   4.729   1.123
 1576TIP3    H1 4661   4.353   4.664   1.083
 1576TIP3    H2 4662   4.265   4.782   1.044
 1577TIP3   OH2 4663   3.700   4.569  -0.110
 1577TIP3    H1 4664   3.761   4.547  -0.038
 1577TIP3    H2 4665   3.648   4.485  -0.115
 1578TIP3   OH2 4666   2.418   4.558   0.702
 1578TIP3    H1 4667   2.477   4.481   0.708
 1578TIP3    H2 4668   2.482   4.630   0.691
 1579TIP3   OH2 4669   2.218   4.831   0.770
 1579TIP3    H1 4670   2.268   4.824   0.686
 1579TIP3    H2 4671   2.254   4.912   0.807
 1580TIP3   OH2 4672   4.160   4.868   0.925
 1580TIP3    H1 4673   4.073   4.909   0.939
 1580TIP3    H2 4674   4.134   4.792   0.869
 1581TIP3   OH2 4675   2.206   4.341   0.276
 1581TIP3    H1 4676   2.114   4.329   0.302
 1581TIP3    H2 4677   2.198   4.395   0.195
 1582TIP3   OH2 4678   2.426   4.420   1.090
 1582TIP3    H1 4679   2.372   4.408   1.170
 1582TIP3    H2 4680   2.360   4.452   1.027
 1583TIP3   OH2 4681   2.461   5.852   1.164
 1583TIP3    H1 4682   2.371   5.820   1.146
 1583TIP3    H2 4683   2.478   5.818   1.253
 1584TIP3   OH2 4684   2.644   5.879   0.712
 1584TIP3    H1 4685   2.598   5.956   0.672
 1584TIP3    H2 4686   2.730   5.890   0.668
 1585TIP3   OH2 4687   3.090   6.115   0.854
 1585TIP3    H1 4688   3.145   6.096   0.930
 1585TIP3    H2 4689   3.151   6.169   0.799
 1586TIP3   OH2 4690   3.268   6.269   0.713
 1586TIP3    H1 4691   3.338   6.223   0.664
 1586TIP3    H2 4692   3.322   6.325   0.774
 1587TIP3   OH2 4693   4.062   4.627   0.811
 1587TIP3    H1 4694   3.973   4.612   0.774
 1587TIP3    H2 4695   4.101   4.537   0.802
 1588TIP3   OH2 4696   2.315   6.132   0.734
 1588TIP3    H1 4697   2.227   6.167   0.712
 1588TIP3    H2 4698   2.328   6.170   0.822
 1589TIP3   OH2 4699   2.555   6.112   0.596
 1589TIP3    H1 4700   2.467   6.125   0.637
 1589TIP3    H2 4701   2.539   6.144   0.505
 1590TIP3   OH2 4702   2.980   6.137   0.402
 1590TIP3    H1 4703   2.927   6.149   0.321
 1590TIP3    H2 4704   2.986   6.228   0.436
 1591TIP3   OH2 4705   3.246   6.070   0.444
 1591TIP3    H1 4706   3.153   6.098   0.429
 1591TIP3    H2 4707   3.295   6.146   0.410
 1592TIP3   OH2 4708   3.443   6.255   0.371
 1592TIP3    H1 4709   3.432   6.341   0.324
 1592TIP3    H2 4710   3.485   6.199   0.302
 1593TIP3   OH2 4711   2.233   5.922   0.479
 1593TIP3    H1 4712   2.255   5.894   0.570
 1593TIP3    H2 4713   2.308   5.879   0.431
 1594TIP3   OH2 4714   2.429   5.797   0.338
 1594TIP3    H1 4715   2.444   5.713   0.389
 1594TIP3    H2 4716   2.521   5.833   0.335
 1595TIP3   OH2 4717   2.692   5.890   0.346
 1595TIP3    H1 4718   2.723   5.798   0.332
 1595TIP3    H2 4719   2.741   5.912   0.427
 1596TIP3   OH2 4720   3.258   4.543   0.421
 1596TIP3    H1 4721   3.222   4.471   0.476
 1596TIP3    H2 4722   3.338   4.502   0.382
 1597TIP3   OH2 4723   3.780   4.432   0.343
 1597TIP3    H1 4724   3.818   4.478   0.265
 1597TIP3    H2 4725   3.684   4.448   0.332
 1598TIP3   OH2 4726   3.877   4.513   0.100
 1598TIP3    H1 4727   3.949   4.461   0.059
 1598TIP3    H2 4728   3.913   4.603   0.083
 1599TIP3   OH2 4729   2.513   4.255   0.443
 1599TIP3    H1 4730   2.421   4.222   0.447
 1599TIP3    H2 4731   2.561   4.169   0.439
 1600TIP3   OH2 4732   2.281   4.125   0.090
 1600TIP3    H1 4733   2.333   4.173   0.021
 1600TIP3    H2 4734   2.273   4.195   0.158
 1601TIP3   OH2 4735   2.960   4.288   0.326
 1601TIP3    H1 4736   3.015   4.334   0.262
 1601TIP3    H2 4737   2.991   4.325   0.410
 1602TIP3   OH2 4738   3.496   4.435   0.308
 1602TIP3    H1 4739   3.508   4.396   0.220
 1602TIP3    H2 4740   3.486   4.355   0.364
 1603TIP3   OH2 4741   3.531   4.358  -0.094
 1603TIP3    H1 4742   3.441   4.393  -0.101
 1603TIP3    H2 4743   3.518   4.268  -0.057
 1604TIP3   OH2 4744   2.424   4.274  -0.093
 1604TIP3    H1 4745   2.447   4.225  -0.173
 1604TIP3    H2 4746   2.502   4.332  -0.081
 1605TIP3   OH2 4747   2.927   4.458  -0.041
 1605TIP3    H1 4748   2.989   4.411   0.017
 1605TIP3    H2 4749   2.950   4.551  -0.018
 1606TIP3   OH2 4750   2.721   4.539   1.338
 1606TIP3    H1 4751   2.686   4.466   1.391
 1606TIP3    H2 4752   2.816   4.537   1.365
 1607TIP3   OH2 4753   2.973   4.535   1.454
 1607TIP3    H1 4754   3.058   4.510   1.413
 1607TIP3    H2 4755   2.962   4.464   1.520
 1608TIP3   OH2 4756   3.800   4.599   1.240
 1608TIP3    H1 4757   3.818   4.566   1.331
 1608TIP3    H2 4758   3.889   4.593   1.199
 1609TIP3   OH2 4759   3.723   6.149   0.748
 1609TIP3    H1 4760   3.652   6.124   0.686
 1609TIP3    H2 4761   3.722   6.246   0.740
 1610TIP3   OH2 4762   4.313   5.415   0.241
 1610TIP3    H1 4763   4.338   5.346   0.306
 1610TIP3    H2 4764   4.355   5.493   0.282
 1611TIP3   OH2 4765   4.191   5.054   0.100
 1611TIP3    H1 4766   4.287   5.039   0.096
 1611TIP3    H2 4767   4.176   5.113   0.022
 1612TIP3   OH2 4768   4.549   4.891   0.372
 1612TIP3    H1 4769   4.494   4.923   0.297
 1612TIP3    H2 4770   4.489   4.908   0.448
 1613TIP3   OH2 4771   4.453   4.982   0.130
 1613TIP3    H1 4772   4.511   5.060   0.143
 1613TIP3    H2 4773   4.494   4.942   0.052
 1614TIP3   OH2 4774   4.489   5.843   0.293
 1614TIP3    H1 4775   4.470   5.912   0.226
 1614TIP3    H2 4776   4.402   5.838   0.337
 1615TIP3   OH2 4777   4.891   4.593   0.130
 1615TIP3    H1 4778   4.858   4.507   0.166
 1615TIP3    H2 4779   4.814   4.650   0.152
 1616TIP3   OH2 4780   4.646   5.940   0.495
 1616TIP3    H1 4781   4.602   6.028   0.496
 1616TIP3    H2 4782   4.594   5.896   0.424
 1617TIP3   OH2 4783   4.431   5.544   0.490
 1617TIP3    H1 4784   4.440   5.631   0.533
 1617TIP3    H2 4785   4.342   5.517   0.523
 1618TIP3   OH2 4786   4.470   6.159   0.481
 1618TIP3    H1 4787   4.424   6.164   0.396
 1618TIP3    H2 4788   4.396   6.135   0.542
 1619TIP3   OH2 4789   4.054   5.674   0.435
 1619TIP3    H1 4790   3.988   5.650   0.367
 1619TIP3    H2 4791   4.093   5.587   0.461
 1620TIP3   OH2 4792   5.632   5.475   0.448
 1620TIP3    H1 4793   5.672   5.491   0.361
 1620TIP3    H2 4794   5.606   5.381   0.439
 1621TIP3   OH2 4795   4.250   5.864   0.429
 1621TIP3    H1 4796   4.302   5.847   0.510
 1621TIP3    H2 4797   4.181   5.795   0.435
 1622TIP3   OH2 4798   4.653   4.696   0.213
 1622TIP3    H1 4799   4.564   4.666   0.187
 1622TIP3    H2 4800   4.627   4.771   0.270
 1623TIP3   OH2 4801   5.199   4.806   0.398
 1623TIP3    H1 4802   5.268   4.781   0.462
 1623TIP3    H2 4803   5.116   4.780   0.444
 1624TIP3   OH2 4804   5.454   5.271   0.353
 1624TIP3    H1 4805   5.402   5.234   0.425
 1624TIP3    H2 4806   5.402   5.241   0.275
 1625TIP3   OH2 4807   4.604   5.215   0.213
 1625TIP3    H1 4808   4.554   5.233   0.294
 1625TIP3    H2 4809   4.545   5.252   0.144
 1626TIP3   OH2 4810   5.143   5.451   0.554
 1626TIP3    H1 4811   5.124   5.373   0.610
 1626TIP3    H2 4812   5.240   5.457   0.565
 1627TIP3   OH2 4813   4.409   5.227   0.427
 1627TIP3    H1 4814   4.470   5.277   0.485
 1627TIP3    H2 4815   4.399   5.144   0.477
 1628TIP3   OH2 4816   4.009   4.738   0.030
 1628TIP3    H1 4817   4.078   4.763   0.093
 1628TIP3    H2 4818   4.025   4.803  -0.043
 1629TIP3   OH2 4819   4.421   5.782   0.639
 1629TIP3    H1 4820   4.506   5.816   0.674
 1629TIP3    H2 4821   4.366   5.783   0.720
 1630TIP3   OH2 4822   4.862   5.093   0.207
 1630TIP3    H1 4823   4.782   5.145   0.190
 1630TIP3    H2 4824   4.928   5.161   0.225
 1631TIP3   OH2 4825   5.000   5.826   0.336
 1631TIP3    H1 4826   5.021   5.816   0.430
 1631TIP3    H2 4827   4.914   5.874   0.340
 1632TIP3   OH2 4828   4.178   5.468   0.573
 1632TIP3    H1 4829   4.201   5.454   0.667
 1632TIP3    H2 4830   4.112   5.398   0.559
 1633TIP3   OH2 4831   4.907   5.581   0.594
 1633TIP3    H1 4832   4.850   5.532   0.533
 1633TIP3    H2 4833   4.995   5.542   0.574
 1634TIP3   OH2 4834   4.384   4.976   0.577
 1634TIP3    H1 4835   4.287   4.971   0.589
 1634TIP3    H2 4836   4.416   4.918   0.648
 1635TIP3   OH2 4837   4.071   6.048   0.299
 1635TIP3    H1 4838   4.133   5.982   0.338
 1635TIP3    H2 4839   4.131   6.118   0.272
 1636TIP3   OH2 4840   5.193   5.066   0.300
 1636TIP3    H1 4841   5.266   5.049   0.236
 1636TIP3    H2 4842   5.191   4.980   0.345
 1637TIP3   OH2 4843   5.038   5.293   0.333
 1637TIP3    H1 4844   5.091   5.337   0.402
 1637TIP3    H2 4845   5.095   5.214   0.317
 1638TIP3   OH2 4846   4.395   4.610   0.200
 1638TIP3    H1 4847   4.362   4.574   0.114
 1638TIP3    H2 4848   4.391   4.531   0.257
 1639TIP3   OH2 4849   4.079   6.348   0.664
 1639TIP3    H1 4850   4.172   6.360   0.690
 1639TIP3    H2 4851   4.075   6.253   0.645
 1640TIP3   OH2 4852   4.573   6.327   0.678
 1640TIP3    H1 4853   4.667   6.305   0.684
 1640TIP3    H2 4854   4.547   6.273   0.600
 1641TIP3   OH2 4855   4.223   5.772   0.835
 1641TIP3    H1 4856   4.240   5.676   0.840
 1641TIP3    H2 4857   4.138   5.774   0.786
 1642TIP3   OH2 4858   4.865   5.857   0.617
 1642TIP3    H1 4859   4.788   5.878   0.559
 1642TIP3    H2 4860   4.874   5.760   0.607
 1643TIP3   OH2 4861   4.346   5.506   0.812
 1643TIP3    H1 4862   4.425   5.456   0.787
 1643TIP3    H2 4863   4.373   5.540   0.900
 1644TIP3   OH2 4864   4.647   5.377   0.486
 1644TIP3    H1 4865   4.578   5.447   0.490
 1644TIP3    H2 4866   4.709   5.419   0.422
 1645TIP3   OH2 4867   5.201   5.797   0.606
 1645TIP3    H1 4868   5.297   5.796   0.608
 1645TIP3    H2 4869   5.180   5.727   0.670
 1646TIP3   OH2 4870   4.800   5.179   0.606
 1646TIP3    H1 4871   4.806   5.096   0.553
 1646TIP3    H2 4872   4.750   5.237   0.546
 1647TIP3   OH2 4873   4.804   4.959   0.437
 1647TIP3    H1 4874   4.835   4.999   0.352
 1647TIP3    H2 4875   4.712   4.935   0.414
 1648TIP3   OH2 4876   4.823   5.508   0.325
 1648TIP3    H1 4877   4.912   5.466   0.329
 1648TIP3    H2 4878   4.839   5.576   0.256
 1649TIP3   OH2 4879   5.423   5.470   0.660
 1649TIP3    H1 4880   5.430   5.373   0.655
 1649TIP3    H2 4881   5.507   5.495   0.618
 1650TIP3   OH2 4882   4.677   5.289   0.833
 1650TIP3    H1 4883   4.612   5.217   0.848
 1650TIP3    H2 4884   4.713   5.264   0.746
 1651TIP3   OH2 4885   4.942   4.724   0.481
 1651TIP3    H1 4886   4.890   4.806   0.466
 1651TIP3    H2 4887   4.873   4.655   0.468
 1652TIP3   OH2 4888   5.057   5.233   0.695
 1652TIP3    H1 4889   5.042   5.217   0.790
 1652TIP3    H2 4890   4.969   5.209   0.660
 1653TIP3   OH2 4891   5.313   5.206   0.575
 1653TIP3    H1 4892   5.230   5.182   0.620
 1653TIP3    H2 4893   5.380   5.153   0.622
 1654TIP3   OH2 4894   5.541   5.119   0.703
 1654TIP3    H1 4895   5.551   5.024   0.721
 1654TIP3    H2 4896   5.534   5.158   0.792
 1655TIP3   OH2 4897   4.518   5.071   0.891
 1655TIP3    H1 4898   4.520   4.979   0.857
 1655TIP3    H2 4899   4.559   5.057   0.979
 1656TIP3   OH2 4900   5.031   4.737   0.738
 1656TIP3    H1 4901   5.096   4.664   0.731
 1656TIP3    H2 4902   4.992   4.734   0.649
 1657TIP3   OH2 4903   5.098   4.954   0.895
 1657TIP3    H1 4904   5.078   4.882   0.831
 1657TIP3    H2 4905   5.019   5.011   0.887
 1658TIP3   OH2 4906   4.043   5.429   0.182
 1658TIP3    H1 4907   4.053   5.417   0.086
 1658TIP3    H2 4908   4.138   5.433   0.207
 1659TIP3   OH2 4909   4.253   5.122   0.858
 1659TIP3    H1 4910   4.351   5.117   0.859
 1659TIP3    H2 4911   4.231   5.034   0.894
 1660TIP3   OH2 4912   6.086   4.996   0.596
 1660TIP3    H1 4913   6.141   4.920   0.568
 1660TIP3    H2 4914   6.116   5.064   0.532
 1661TIP3   OH2 4915   4.198   4.796   0.231
 1661TIP3    H1 4916   4.271   4.731   0.228
 1661TIP3    H2 4917   4.240   4.874   0.189
 1662TIP3   OH2 4918   3.996   5.100   0.280
 1662TIP3    H1 4919   4.061   5.072   0.212
 1662TIP3    H2 4920   4.041   5.175   0.319
 1663TIP3   OH2 4921   5.894   5.154   0.434
 1663TIP3    H1 4922   5.832   5.121   0.501
 1663TIP3    H2 4923   5.940   5.076   0.405
 1664TIP3   OH2 4924   4.221   4.676   0.579
 1664TIP3    H1 4925   4.166   4.666   0.659
 1664TIP3    H2 4926   4.154   4.707   0.514
 1665TIP3   OH2 4927   4.263   6.099   0.649
 1665TIP3    H1 4928   4.171   6.071   0.634
 1665TIP3    H2 4929   4.272   6.089   0.744
 1666TIP3   OH2 4930   5.816   4.871   0.318
 1666TIP3    H1 4931   5.738   4.836   0.272
 1666TIP3    H2 4932   5.878   4.795   0.312
 1667TIP3   OH2 4933   4.300   4.497  -0.025
 1667TIP3    H1 4934   4.206   4.467  -0.025
 1667TIP3    H2 4935   4.346   4.414  -0.047
 1668TIP3   OH2 4936   4.515   4.803   0.829
 1668TIP3    H1 4937   4.482   4.722   0.869
 1668TIP3    H2 4938   4.611   4.797   0.852
 1669TIP3   OH2 4939   4.769   4.793   0.941
 1669TIP3    H1 4940   4.853   4.766   0.899
 1669TIP3    H2 4941   4.757   4.722   1.007
 1670TIP3   OH2 4942   5.601   4.851   0.733
 1670TIP3    H1 4943   5.617   4.822   0.825
 1670TIP3    H2 4944   5.692   4.848   0.696
 1671TIP3   OH2 4945   0.407   6.020   1.821
 1671TIP3    H1 4946   0.417   5.942   1.738
 1671TIP3    H2 4947   0.475   6.082   1.781
 1672TIP3   OH2 4948   1.853   6.358   0.585
 1672TIP3    H1 4949   1.889   6.445   0.611
 1672TIP3    H2 4950   1.850   6.367   0.487
 1673TIP3   OH2 4951   1.938   6.582   0.744
 1673TIP3    H1 4952   1.871   6.632   0.693
 1673TIP3    H2 4953   1.927   6.617   0.833
 1674TIP3   OH2 4954   1.676   6.271   0.782
 1674TIP3    H1 4955   1.584   6.289   0.760
 1674TIP3    H2 4956   1.724   6.297   0.699
 1675TIP3   OH2 4957   1.719   6.743   1.081
 1675TIP3    H1 4958   1.637   6.780   1.044
 1675TIP3    H2 4959   1.719   6.653   1.041
 1676TIP3   OH2 4960   1.247   6.092   1.081
 1676TIP3    H1 4961   1.317   6.057   1.140
 1676TIP3    H2 4962   1.165   6.068   1.127
 1677TIP3   OH2 4963   1.498   6.554   0.993
 1677TIP3    H1 4964   1.447   6.519   1.070
 1677TIP3    H2 4965   1.433   6.619   0.961
 1678TIP3   OH2 4966   1.186   6.781   1.253
 1678TIP3    H1 4967   1.158   6.688   1.266
 1678TIP3    H2 4968   1.278   6.778   1.285
 1679TIP3   OH2 4969   1.361   6.288   0.932
 1679TIP3    H1 4970   1.396   6.326   1.013
 1679TIP3    H2 4971   1.319   6.206   0.970
 1680TIP3   OH2 4972   1.754   6.486   0.970
 1680TIP3    H1 4973   1.656   6.494   0.979
 1680TIP3    H2 4974   1.758   6.422   0.897
 1681TIP3   OH2 4975   1.259   7.119   1.334
 1681TIP3    H1 4976   1.260   7.100   1.238
 1681TIP3    H2 4977   1.254   7.031   1.373
 1682TIP3   OH2 4978   1.460   6.772   1.320
 1682TIP3    H1 4979   1.514   6.692   1.327
 1682TIP3    H2 4980   1.524   6.838   1.289
 1683TIP3   OH2 4981   1.520   7.013   1.057
 1683TIP3    H1 4982   1.446   7.073   1.036
 1683TIP3    H2 4983   1.589   7.056   1.003
 1684TIP3   OH2 4984   0.994   6.012   1.147
 1684TIP3    H1 4985   0.956   6.057   1.069
 1684TIP3    H2 4986   0.957   5.923   1.136
 1685TIP3   OH2 4987   1.107   6.536   1.355
 1685TIP3    H1 4988   1.118   6.542   1.451
 1685TIP3    H2 4989   1.045   6.462   1.351
 1686TIP3   OH2 4990   1.357   6.474   1.208
 1686TIP3    H1 4991   1.275   6.480   1.260
 1686TIP3    H2 4992   1.423   6.447   1.274
 1687TIP3   OH2 4993   1.601   6.435   1.359
 1687TIP3    H1 4994   1.606   6.337   1.368
 1687TIP3    H2 4995   1.579   6.464   1.449
 1688TIP3   OH2 4996   1.082   6.040   1.412
 1688TIP3    H1 4997   1.143   5.964   1.400
 1688TIP3    H2 4998   1.032   6.035   1.328
 1689TIP3   OH2 4999   1.151   6.263   1.550
 1689TIP3    H1 5000   1.133   6.182   1.497
 1689TIP3    H2 5001   1.062   6.305   1.551
 1690TIP3   OH2 5002   1.712   7.445   1.140
 1690TIP3    H1 5003   1.636   7.437   1.203
 1690TIP3    H2 5004   1.739   7.537   1.156
 1691TIP3   OH2 5005   1.773   7.101   0.931
 1691TIP3    H1 5006   1.831   7.026   0.948
 1691TIP3    H2 5007   1.789   7.115   0.835
 1692TIP3   OH2 5008   1.924   6.886   0.978
 1692TIP3    H1 5009   1.854   6.831   1.018
 1692TIP3    H2 5010   2.002   6.826   0.989
 1693TIP3   OH2 5011   2.116   6.277   1.281
 1693TIP3    H1 5012   2.186   6.219   1.241
 1693TIP3    H2 5013   2.106   6.345   1.213
 1694TIP3   OH2 5014   1.991   6.430   1.084
 1694TIP3    H1 5015   1.903   6.464   1.055
 1694TIP3    H2 5016   1.991   6.347   1.034
 1695TIP3   OH2 5017   1.904   6.186   0.962
 1695TIP3    H1 5018   1.816   6.178   0.921
 1695TIP3    H2 5019   1.938   6.093   0.952
 1696TIP3   OH2 5020   1.691   5.995   0.492
 1696TIP3    H1 5021   1.713   6.071   0.437
 1696TIP3    H2 5022   1.598   5.977   0.463
 1697TIP3   OH2 5023   7.072   2.870   8.045
 1697TIP3    H1 5024   7.039   2.784   8.057
 1697TIP3    H2 5025   7.026   2.924   8.108
 1698TIP3   OH2 5026   0.839   6.093   1.624
 1698TIP3    H1 5027   0.914   6.035   1.601
 1698TIP3    H2 5028   0.789   6.033   1.683
 1699TIP3   OH2 5029   1.640   6.160   1.391
 1699TIP3    H1 5030   1.656   6.124   1.481
 1699TIP3    H2 5031   1.728   6.149   1.349
 1700TIP3   OH2 5032   2.189   6.972   0.424
 1700TIP3    H1 5033   2.210   6.904   0.491
 1700TIP3    H2 5034   2.260   7.036   0.438
 1701TIP3   OH2 5035   2.401   6.482   0.075
 1701TIP3    H1 5036   2.348   6.534   0.014
 1701TIP3    H2 5037   2.387   6.391   0.042
 1702TIP3   OH2 5038   3.714   6.830   0.258
 1702TIP3    H1 5039   3.684   6.917   0.283
 1702TIP3    H2 5040   3.800   6.826   0.303
 1703TIP3   OH2 5041   2.391   6.443   0.520
 1703TIP3    H1 5042   2.339   6.483   0.446
 1703TIP3    H2 5043   2.333   6.465   0.596
 1704TIP3   OH2 5044   2.533   7.232   0.296
 1704TIP3    H1 5045   2.440   7.257   0.315
 1704TIP3    H2 5046   2.563   7.309   0.245
 1705TIP3   OH2 5047   2.263   6.548   0.305
 1705TIP3    H1 5048   2.288   6.641   0.320
 1705TIP3    H2 5049   2.318   6.528   0.226
 1706TIP3   OH2 5050   3.413   6.494   0.238
 1706TIP3    H1 5051   3.316   6.500   0.221
 1706TIP3    H2 5052   3.442   6.580   0.202
 1707TIP3   OH2 5053   2.743   6.168   0.227
 1707TIP3    H1 5054   2.737   6.074   0.250
 1707TIP3    H2 5055   2.665   6.205   0.275
 1708TIP3   OH2 5056   3.264   7.069   0.382
 1708TIP3    H1 5057   3.242   7.130   0.455
 1708TIP3    H2 5058   3.175   7.051   0.345
 1709TIP3   OH2 5059   2.464   6.971   0.212
 1709TIP3    H1 5060   2.407   6.980   0.133
 1709TIP3    H2 5061   2.491   7.062   0.229
 1710TIP3   OH2 5062   2.545   7.432   0.550
 1710TIP3    H1 5063   2.511   7.523   0.560
 1710TIP3    H2 5064   2.490   7.399   0.479
 1711TIP3   OH2 5065   2.285   7.105   0.659
 1711TIP3    H1 5066   2.293   7.191   0.704
 1711TIP3    H2 5067   2.190   7.087   0.671
 1712TIP3   OH2 5068   3.497   7.005   0.531
 1712TIP3    H1 5069   3.416   7.010   0.477
 1712TIP3    H2 5070   3.513   6.909   0.535
 1713TIP3   OH2 5071   2.092   7.413   0.602
 1713TIP3    H1 5072   2.167   7.395   0.661
 1713TIP3    H2 5073   2.034   7.338   0.619
 1714TIP3   OH2 5074   2.508   6.244   0.357
 1714TIP3    H1 5075   2.420   6.212   0.330
 1714TIP3    H2 5076   2.482   6.325   0.405
 1715TIP3   OH2 5077   3.040   6.362   0.551
 1715TIP3    H1 5078   3.109   6.331   0.613
 1715TIP3    H2 5079   2.956   6.339   0.598
 1716TIP3   OH2 5080   3.270   6.788   0.464
 1716TIP3    H1 5081   3.223   6.788   0.550
 1716TIP3    H2 5082   3.244   6.873   0.425
 1717TIP3   OH2 5083   2.434   6.760   0.384
 1717TIP3    H1 5084   2.379   6.789   0.458
 1717TIP3    H2 5085   2.435   6.838   0.324
 1718TIP3   OH2 5086   2.991   7.004   0.697
 1718TIP3    H1 5087   2.968   6.932   0.760
 1718TIP3    H2 5088   3.084   7.019   0.721
 1719TIP3   OH2 5089   2.266   6.782   0.616
 1719TIP3    H1 5090   2.323   6.825   0.682
 1719TIP3    H2 5091   2.254   6.693   0.654
 1720TIP3   OH2 5092   3.014   6.996   0.309
 1720TIP3    H1 5093   2.989   6.986   0.215
 1720TIP3    H2 5094   2.962   6.926   0.352
 1721TIP3   OH2 5095   2.665   6.463  -0.025
 1721TIP3    H1 5096   2.585   6.495   0.022
 1721TIP3    H2 5097   2.733   6.471   0.043
 1722TIP3   OH2 5098   3.139   6.514   0.194
 1722TIP3    H1 5099   3.104   6.568   0.267
 1722TIP3    H2 5100   3.059   6.465   0.167
 1723TIP3   OH2 5101   2.277   7.342   0.796
 1723TIP3    H1 5102   2.357   7.367   0.848
 1723TIP3    H2 5103   2.210   7.334   0.866
 1724TIP3   OH2 5104   2.847   6.753   0.125
 1724TIP3    H1 5105   2.770   6.744   0.068
 1724TIP3    H2 5106   2.811   6.719   0.212
 1725TIP3   OH2 5107   2.323   6.237  -0.048
 1725TIP3    H1 5108   2.292   6.157  -0.003
 1725TIP3    H2 5109   2.415   6.210  -0.076
 1726TIP3   OH2 5110   2.699   6.687   0.354
 1726TIP3    H1 5111   2.608   6.722   0.360
 1726TIP3    H2 5112   2.750   6.751   0.409
 1727TIP3   OH2 5113   2.878   7.436   0.438
 1727TIP3    H1 5114   2.887   7.368   0.504
 1727TIP3    H2 5115   2.790   7.472   0.459
 1728TIP3   OH2 5116   2.012   7.050   0.740
 1728TIP3    H1 5117   2.044   7.026   0.828
 1728TIP3    H2 5118   1.986   6.965   0.703
 1729TIP3   OH2 5119   2.751   7.128   0.744
 1729TIP3    H1 5120   2.690   7.082   0.684
 1729TIP3    H2 5121   2.838   7.094   0.712
 1730TIP3   OH2 5122   2.226   6.525   0.731
 1730TIP3    H1 5123   2.128   6.526   0.735
 1730TIP3    H2 5124   2.249   6.462   0.801
 1731TIP3   OH2 5125   3.051   6.613   0.438
 1731TIP3    H1 5126   3.140   6.644   0.462
 1731TIP3    H2 5127   3.046   6.526   0.482
 1732TIP3   OH2 5128   2.888   6.831   0.491
 1732TIP3    H1 5129   2.927   6.882   0.565
 1732TIP3    H2 5130   2.947   6.752   0.488
 1733TIP3   OH2 5131   3.538   6.738   0.484
 1733TIP3    H1 5132   3.440   6.734   0.473
 1733TIP3    H2 5133   3.569   6.711   0.396
 1734TIP3   OH2 5134   2.248   6.158   0.331
 1734TIP3    H1 5135   2.214   6.118   0.249
 1734TIP3    H2 5136   2.240   6.083   0.394
 1735TIP3   OH2 5137   2.057   7.296   0.963
 1735TIP3    H1 5138   2.093   7.205   0.961
 1735TIP3    H2 5139   1.968   7.280   0.997
 1736TIP3   OH2 5140   2.686   7.392   0.780
 1736TIP3    H1 5141   2.642   7.403   0.693
 1736TIP3    H2 5142   2.722   7.301   0.771
 1737TIP3   OH2 5143   3.157   7.439   0.357
 1737TIP3    H1 5144   3.156   7.534   0.329
 1737TIP3    H2 5145   3.064   7.431   0.386
 1738TIP3   OH2 5146   2.192   7.055   0.967
 1738TIP3    H1 5147   2.276   7.020   0.935
 1738TIP3    H2 5148   2.218   7.090   1.055
 1739TIP3   OH2 5149   2.515   6.947   0.629
 1739TIP3    H1 5150   2.443   7.013   0.629
 1739TIP3    H2 5151   2.573   6.981   0.557
 1740TIP3   OH2 5152   3.044   7.341   0.757
 1740TIP3    H1 5153   3.124   7.314   0.709
 1740TIP3    H2 5154   3.041   7.278   0.831
 1741TIP3   OH2 5155   2.642   6.739   0.752
 1741TIP3    H1 5156   2.645   6.660   0.695
 1741TIP3    H2 5157   2.601   6.805   0.693
 1742TIP3   OH2 5158   2.645   6.522   0.571
 1742TIP3    H1 5159   2.672   6.566   0.487
 1742TIP3    H2 5160   2.552   6.498   0.552
 1743TIP3   OH2 5161   2.681   7.062   0.452
 1743TIP3    H1 5162   2.765   7.051   0.407
 1743TIP3    H2 5163   2.634   7.125   0.394
 1744TIP3   OH2 5164   3.254   7.027   0.811
 1744TIP3    H1 5165   3.305   6.945   0.818
 1744TIP3    H2 5166   3.323   7.090   0.784
 1745TIP3   OH2 5167   3.274   7.288   0.558
 1745TIP3    H1 5168   3.230   7.347   0.493
 1745TIP3    H2 5169   3.367   7.297   0.529
 1746TIP3   OH2 5170   2.520   6.847   0.985
 1746TIP3    H1 5171   2.457   6.773   0.997
 1746TIP3    H2 5172   2.556   6.826   0.896
 1747TIP3   OH2 5173   2.780   6.286   0.631
 1747TIP3    H1 5174   2.728   6.366   0.609
 1747TIP3    H2 5175   2.713   6.216   0.617
 1748TIP3   OH2 5176   2.904   6.788   0.842
 1748TIP3    H1 5177   2.887   6.775   0.937
 1748TIP3    H2 5178   2.815   6.765   0.807
 1749TIP3   OH2 5179   3.145   6.747   0.699
 1749TIP3    H1 5180   3.070   6.744   0.762
 1749TIP3    H2 5181   3.219   6.715   0.755
 1750TIP3   OH2 5182   3.362   6.676   0.850
 1750TIP3    H1 5183   3.383   6.583   0.870
 1750TIP3    H2 5184   3.368   6.719   0.938
 1751TIP3   OH2 5185   2.361   6.627   1.038
 1751TIP3    H1 5186   2.365   6.535   1.004
 1751TIP3    H2 5187   2.396   6.615   1.129
 1752TIP3   OH2 5188   2.871   6.296   0.889
 1752TIP3    H1 5189   2.936   6.224   0.884
 1752TIP3    H2 5190   2.833   6.293   0.799
 1753TIP3   OH2 5191   2.942   6.514   1.042
 1753TIP3    H1 5192   2.921   6.442   0.979
 1753TIP3    H2 5193   2.862   6.570   1.037
 1754TIP3   OH2 5194   3.517   7.694   0.578
 1754TIP3    H1 5195   3.444   7.679   0.642
 1754TIP3    H2 5196   3.558   7.774   0.614
 1755TIP3   OH2 5197   3.534   7.348   0.472
 1755TIP3    H1 5198   3.601   7.275   0.481
 1755TIP3    H2 5199   3.590   7.421   0.443
 1756TIP3   OH2 5200   3.718   7.154   0.525
 1756TIP3    H1 5201   3.644   7.090   0.524
 1756TIP3    H2 5202   3.793   7.098   0.497
 1757TIP3   OH2 5203   2.094   6.680   1.016
 1757TIP3    H1 5204   2.192   6.672   1.012
 1757TIP3    H2 5205   2.070   6.590   1.046
 1758TIP3   OH2 5206   3.922   6.544   0.763
 1758TIP3    H1 5207   3.982   6.475   0.726
 1758TIP3    H2 5208   3.903   6.598   0.683
 1759TIP3   OH2 5209   2.059   6.365   0.337
 1759TIP3    H1 5210   2.131   6.301   0.353
 1759TIP3    H2 5211   2.112   6.447   0.324
 1760TIP3   OH2 5212   3.797   6.693   0.566
 1760TIP3    H1 5213   3.704   6.723   0.572
 1760TIP3    H2 5214   3.786   6.614   0.510
 1761TIP3   OH2 5215   2.061   6.234   0.726
 1761TIP3    H1 5216   2.006   6.224   0.805
 1761TIP3    H2 5217   1.997   6.269   0.662
 1762TIP3   OH2 5218   3.691   6.437   0.472
 1762TIP3    H1 5219   3.615   6.435   0.413
 1762TIP3    H2 5220   3.732   6.349   0.454
 1763TIP3   OH2 5221   2.935   6.342   0.080
 1763TIP3    H1 5222   2.869   6.293   0.132
 1763TIP3    H2 5223   2.943   6.286   0.002
 1764TIP3   OH2 5224   2.150   6.046   0.098
 1764TIP3    H1 5225   2.061   6.005   0.100
 1764TIP3    H2 5226   2.204   5.964   0.089
 1765TIP3   OH2 5227   2.594   6.068   0.011
 1765TIP3    H1 5228   2.674   6.048  -0.043
 1765TIP3    H2 5229   2.637   6.116   0.084
 1766TIP3   OH2 5230   2.355   6.349   0.979
 1766TIP3    H1 5231   2.324   6.274   1.033
 1766TIP3    H2 5232   2.450   6.351   1.003
 1767TIP3   OH2 5233   2.609   6.352   1.093
 1767TIP3    H1 5234   2.689   6.324   1.046
 1767TIP3    H2 5235   2.598   6.280   1.158
 1768TIP3   OH2 5236   3.448   6.408   0.883
 1768TIP3    H1 5237   3.494   6.384   0.964
 1768TIP3    H2 5238   3.526   6.416   0.822
 1769TIP3   OH2 5239   3.835   7.541   0.504
 1769TIP3    H1 5240   3.883   7.459   0.481
 1769TIP3    H2 5241   3.820   7.582   0.416
 1770TIP3   OH2 5242   3.988   7.325   0.455
 1770TIP3    H1 5243   4.033   7.243   0.434
 1770TIP3    H2 5244   4.022   7.346   0.544
 1771TIP3   OH2 5245   4.316   7.089   0.456
 1771TIP3    H1 5246   4.252   7.024   0.494
 1771TIP3    H2 5247   4.363   7.030   0.393
 1772TIP3   OH2 5248   4.158   6.870   0.509
 1772TIP3    H1 5249   4.166   6.792   0.452
 1772TIP3    H2 5250   4.195   6.838   0.593
 1773TIP3   OH2 5251   4.736   6.766   0.521
 1773TIP3    H1 5252   4.702   6.706   0.453
 1773TIP3    H2 5253   4.661   6.829   0.533
 1774TIP3   OH2 5254   3.894   6.940   0.481
 1774TIP3    H1 5255   3.990   6.922   0.484
 1774TIP3    H2 5256   3.862   6.857   0.523
 1775TIP3   OH2 5257   3.758   6.511   0.201
 1775TIP3    H1 5258   3.793   6.486   0.285
 1775TIP3    H2 5259   3.835   6.578   0.178
 1776TIP3   OH2 5260   4.402   6.624   0.609
 1776TIP3    H1 5261   4.465   6.592   0.543
 1776TIP3    H2 5262   4.379   6.541   0.656
 1777TIP3   OH2 5263   1.394   0.039   3.992
 1777TIP3    H1 5264   1.387  -0.006   4.076
 1777TIP3    H2 5265   1.420   0.129   4.017
 1778TIP3   OH2 5266   1.052   0.507   3.980
 1778TIP3    H1 5267   1.087   0.426   3.943
 1778TIP3    H2 5268   1.031   0.481   4.071
 1779TIP3   OH2 5269   1.995  -0.505   4.521
 1779TIP3    H1 5270   1.918  -0.448   4.502
 1779TIP3    H2 5271   2.055  -0.446   4.569
 1780TIP3   OH2 5272   1.460   0.301   4.137
 1780TIP3    H1 5273   1.367   0.297   4.167
 1780TIP3    H2 5274   1.458   0.387   4.089
 1781TIP3   OH2 5275   1.679   0.207   4.477
 1781TIP3    H1 5276   1.669   0.132   4.416
 1781TIP3    H2 5277   1.662   0.284   4.418
 1782TIP3   OH2 5278   1.879  -0.150   4.325
 1782TIP3    H1 5279   1.796  -0.098   4.327
 1782TIP3    H2 5280   1.911  -0.128   4.235
 1783TIP3   OH2 5281   1.208   0.317   4.230
 1783TIP3    H1 5282   1.197   0.399   4.281
 1783TIP3    H2 5283   1.197   0.247   4.297
 1784TIP3   OH2 5284   1.916   0.552   4.523
 1784TIP3    H1 5285   1.915   0.456   4.542
 1784TIP3    H2 5286   1.834   0.579   4.571
 1785TIP3   OH2 5287   1.059   0.369   4.624
 1785TIP3    H1 5288   1.045   0.453   4.672
 1785TIP3    H2 5289   0.982   0.317   4.657
 1786TIP3   OH2 5290   1.817  -0.328   4.801
 1786TIP3    H1 5291   1.733  -0.279   4.797
 1786TIP3    H2 5292   1.789  -0.419   4.787
 1787TIP3   OH2 5293   1.615   0.907   4.627
 1787TIP3    H1 5294   1.613   0.933   4.533
 1787TIP3    H2 5295   1.694   0.955   4.658
 1788TIP3   OH2 5296   1.643  -0.003   4.306
 1788TIP3    H1 5297   1.680   0.049   4.231
 1788TIP3    H2 5298   1.564  -0.043   4.266
 1789TIP3   OH2 5299   1.329   0.339   4.600
 1789TIP3    H1 5300   1.231   0.346   4.592
 1789TIP3    H2 5301   1.345   0.401   4.674
 1790TIP3   OH2 5302   1.928   0.272   4.557
 1790TIP3    H1 5303   1.831   0.258   4.552
 1790TIP3    H2 5304   1.955   0.242   4.467
 1791TIP3   OH2 5305   1.427  -0.153   4.214
 1791TIP3    H1 5306   1.336  -0.173   4.240
 1791TIP3    H2 5307   1.444  -0.218   4.143
 1792TIP3   OH2 5308   0.829   0.452   4.480
 1792TIP3    H1 5309   0.853   0.514   4.409
 1792TIP3    H2 5310   0.916   0.425   4.513
 1793TIP3   OH2 5311   1.249   0.101   4.411
 1793TIP3    H1 5312   1.215   0.100   4.500
 1793TIP3    H2 5313   1.345   0.099   4.427
 1794TIP3   OH2 5314   1.444   0.594   4.463
 1794TIP3    H1 5315   1.361   0.544   4.450
 1794TIP3    H2 5316   1.435   0.660   4.390
 1795TIP3   OH2 5317   1.471   0.566   4.058
 1795TIP3    H1 5318   1.426   0.618   3.987
 1795TIP3    H2 5319   1.565   0.582   4.034
 1796TIP3   OH2 5320   1.362   0.468   4.850
 1796TIP3    H1 5321   1.407   0.391   4.888
 1796TIP3    H2 5322   1.432   0.535   4.858
 1797TIP3   OH2 5323   1.470   0.108   4.625
 1797TIP3    H1 5324   1.555   0.136   4.585
 1797TIP3    H2 5325   1.422   0.194   4.619
 1798TIP3   OH2 5326   1.635  -0.065   4.786
 1798TIP3    H1 5327   1.578  -0.010   4.730
 1798TIP3    H2 5328   1.723  -0.039   4.750
 1799TIP3   OH2 5329   1.733   0.639   4.022
 1799TIP3    H1 5330   1.747   0.691   4.104
 1799TIP3    H2 5331   1.760   0.702   3.954
 1800TIP3   OH2 5332   1.749   0.679   4.304
 1800TIP3    H1 5333   1.705   0.592   4.292
 1800TIP3    H2 5334   1.812   0.655   4.375
 1801TIP3   OH2 5335   1.793   0.356   4.867
 1801TIP3    H1 5336   1.725   0.363   4.937
 1801TIP3    H2 5337   1.840   0.441   4.876
 1802TIP3   OH2 5338   1.801   0.129   4.130
 1802TIP3    H1 5339   1.849   0.060   4.080
 1802TIP3    H2 5340   1.802   0.204   4.068
 1803TIP3   OH2 5341   1.624   0.430   4.322
 1803TIP3    H1 5342   1.552   0.474   4.372
 1803TIP3    H2 5343   1.575   0.386   4.250
 1804TIP3   OH2 5344   1.867   0.028   4.682
 1804TIP3    H1 5345   1.936  -0.042   4.676
 1804TIP3    H2 5346   1.903   0.099   4.626
 1805TIP3   OH2 5347   2.030  -0.183   4.702
 1805TIP3    H1 5348   1.957  -0.235   4.743
 1805TIP3    H2 5349   2.106  -0.241   4.724
 1806TIP3   OH2 5350   1.707  -0.514   4.246
 1806TIP3    H1 5351   1.786  -0.489   4.195
 1806TIP3    H2 5352   1.725  -0.468   4.330
 1807TIP3   OH2 5353   1.762  -0.356   4.466
 1807TIP3    H1 5354   1.677  -0.317   4.494
 1807TIP3    H2 5355   1.806  -0.280   4.422
 1808TIP3   OH2 5356   1.286   0.545   3.671
 1808TIP3    H1 5357   1.319   0.494   3.596
 1808TIP3    H2 5358   1.366   0.579   3.713
 1809TIP3   OH2 5359   1.033   0.615   4.753
 1809TIP3    H1 5360   1.074   0.612   4.841
 1809TIP3    H2 5361   1.097   0.669   4.701
 1810TIP3   OH2 5362   1.213   0.759   4.607
 1810TIP3    H1 5363   1.283   0.714   4.557
 1810TIP3    H2 5364   1.266   0.817   4.665
 1811TIP3   OH2 5365   0.931   0.629   4.281
 1811TIP3    H1 5366   0.854   0.645   4.223
 1811TIP3    H2 5367   0.945   0.718   4.319
 1812TIP3   OH2 5368   1.195   0.569   4.340
 1812TIP3    H1 5369   1.099   0.586   4.323
 1812TIP3    H2 5370   1.235   0.645   4.294
 1813TIP3   OH2 5371   1.402   0.757   4.249
 1813TIP3    H1 5372   1.384   0.841   4.201
 1813TIP3    H2 5373   1.424   0.697   4.175
 1814TIP3   OH2 5374   1.676   0.639   4.618
 1814TIP3    H1 5375   1.596   0.609   4.570
 1814TIP3    H2 5376   1.655   0.733   4.630
 1815TIP3   OH2 5377   2.940   0.003   3.395
 1815TIP3    H1 5378   2.912   0.095   3.375
 1815TIP3    H2 5379   2.870  -0.046   3.348
 1816TIP3   OH2 5380   2.943   0.011   3.775
 1816TIP3    H1 5381   2.974  -0.012   3.865
 1816TIP3    H2 5382   2.904  -0.072   3.745
 1817TIP3   OH2 5383   2.238  -0.100   4.137
 1817TIP3    H1 5384   2.265  -0.170   4.199
 1817TIP3    H2 5385   2.319  -0.047   4.134
 1818TIP3   OH2 5386   3.188   0.311   3.458
 1818TIP3    H1 5387   3.172   0.248   3.529
 1818TIP3    H2 5388   3.218   0.390   3.507
 1819TIP3   OH2 5389   2.230   0.313   3.883
 1819TIP3    H1 5390   2.212   0.217   3.877
 1819TIP3    H2 5391   2.319   0.316   3.841
 1820TIP3   OH2 5392   1.987  -0.178   3.809
 1820TIP3    H1 5393   2.024  -0.263   3.840
 1820TIP3    H2 5394   2.064  -0.124   3.787
 1821TIP3   OH2 5395   2.836   0.770   3.474
 1821TIP3    H1 5396   2.878   0.700   3.421
 1821TIP3    H2 5397   2.836   0.731   3.562
 1822TIP3   OH2 5398   2.739   0.234   3.825
 1822TIP3    H1 5399   2.783   0.160   3.780
 1822TIP3    H2 5400   2.820   0.284   3.851
 1823TIP3   OH2 5401   3.160  -0.267   3.868
 1823TIP3    H1 5402   3.173  -0.358   3.894
 1823TIP3    H2 5403   3.119  -0.274   3.779
 1824TIP3   OH2 5404   2.470  -0.658   3.779
 1824TIP3    H1 5405   2.443  -0.567   3.756
 1824TIP3    H2 5406   2.395  -0.709   3.750
 1825TIP3   OH2 5407   3.152  -0.481   3.489
 1825TIP3    H1 5408   3.216  -0.532   3.543
 1825TIP3    H2 5409   3.198  -0.477   3.404
 1826TIP3   OH2 5410   2.099  -0.407   3.907
 1826TIP3    H1 5411   2.191  -0.399   3.941
 1826TIP3    H2 5412   2.106  -0.491   3.861
 1827TIP3   OH2 5413   2.560  -0.209   3.719
 1827TIP3    H1 5414   2.656  -0.226   3.735
 1827TIP3    H2 5415   2.528  -0.300   3.704
 1828TIP3   OH2 5416   3.787  -0.252   4.025
 1828TIP3    H1 5417   3.713  -0.205   3.983
 1828TIP3    H2 5418   3.846  -0.179   4.048
 1829TIP3   OH2 5419   2.825   0.223   3.265
 1829TIP3    H1 5420   2.798   0.220   3.171
 1829TIP3    H2 5421   2.786   0.308   3.293
 1830TIP3   OH2 5422   2.594   0.156   4.046
 1830TIP3    H1 5423   2.544   0.229   4.088
 1830TIP3    H2 5424   2.639   0.202   3.971
 1831TIP3   OH2 5425   2.356  -0.437   3.980
 1831TIP3    H1 5426   2.423  -0.385   4.027
 1831TIP3    H2 5427   2.379  -0.526   4.013
 1832TIP3   OH2 5428   2.417   0.357   4.141
 1832TIP3    H1 5429   2.374   0.367   4.054
 1832TIP3    H2 5430   2.341   0.337   4.198
 1833TIP3   OH2 5431   3.255   0.553   3.619
 1833TIP3    H1 5432   3.165   0.547   3.659
 1833TIP3    H2 5433   3.249   0.640   3.575
 1834TIP3   OH2 5434   2.953   0.597   3.293
 1834TIP3    H1 5435   3.003   0.515   3.272
 1834TIP3    H2 5436   3.016   0.663   3.253
 1835TIP3   OH2 5437   3.096   0.381   3.207
 1835TIP3    H1 5438   3.072   0.300   3.161
 1835TIP3    H2 5439   3.135   0.347   3.291
 1836TIP3   OH2 5440   3.483   0.463   3.968
 1836TIP3    H1 5441   3.469   0.388   3.907
 1836TIP3    H2 5442   3.460   0.539   3.911
 1837TIP3   OH2 5443   2.781  -0.141   3.219
 1837TIP3    H1 5444   2.700  -0.092   3.195
 1837TIP3    H2 5445   2.822  -0.157   3.132
 1838TIP3   OH2 5446   3.678   0.109   3.814
 1838TIP3    H1 5447   3.594   0.159   3.814
 1838TIP3    H2 5448   3.710   0.131   3.723
 1839TIP3   OH2 5449   3.125  -0.047   3.197
 1839TIP3    H1 5450   3.070  -0.029   3.276
 1839TIP3    H2 5451   3.210  -0.070   3.240
 1840TIP3   OH2 5452   3.351  -0.017   4.109
 1840TIP3    H1 5453   3.347   0.065   4.162
 1840TIP3    H2 5454   3.265  -0.013   4.064
 1841TIP3   OH2 5455   2.353  -0.063   3.613
 1841TIP3    H1 5456   2.335  -0.106   3.527
 1841TIP3    H2 5457   2.431  -0.114   3.645
 1842TIP3   OH2 5458   2.474   0.332   3.764
 1842TIP3    H1 5459   2.465   0.321   3.668
 1842TIP3    H2 5460   2.567   0.305   3.779
 1843TIP3   OH2 5461   2.489  -0.088   3.970
 1843TIP3    H1 5462   2.523  -0.115   3.883
 1843TIP3    H2 5463   2.535  -0.003   3.986
 1844TIP3   OH2 5464   3.015   0.550   3.744
 1844TIP3    H1 5465   3.001   0.633   3.793
 1844TIP3    H2 5466   2.996   0.481   3.811
 1845TIP3   OH2 5467   2.630   0.472   4.282
 1845TIP3    H1 5468   2.586   0.503   4.362
 1845TIP3    H2 5469   2.558   0.431   4.231
 1846TIP3   OH2 5470   2.979  -0.200   3.021
 1846TIP3    H1 5471   3.033  -0.136   3.072
 1846TIP3    H2 5472   3.002  -0.176   2.928
 1847TIP3   OH2 5473   2.373   0.042   4.383
 1847TIP3    H1 5474   2.382   0.119   4.442
 1847TIP3    H2 5475   2.283   0.011   4.407
 1848TIP3   OH2 5476   2.705   0.477   3.307
 1848TIP3    H1 5477   2.788   0.530   3.309
 1848TIP3    H2 5478   2.649   0.530   3.249
 1849TIP3   OH2 5479   3.277   0.406   2.621
 1849TIP3    H1 5480   3.284   0.503   2.603
 1849TIP3    H2 5481   3.371   0.379   2.608
 1850TIP3   OH2 5482   2.013   0.175   4.318
 1850TIP3    H1 5483   1.944   0.150   4.252
 1850TIP3    H2 5484   2.048   0.088   4.346
 1851TIP3   OH2 5485   1.852   0.354   3.973
 1851TIP3    H1 5486   1.944   0.367   3.947
 1851TIP3    H2 5487   1.819   0.444   3.987
 1852TIP3   OH2 5488   3.715   0.817   4.017
 1852TIP3    H1 5489   3.714   0.719   4.023
 1852TIP3    H2 5490   3.628   0.837   4.060
 1853TIP3   OH2 5491   2.831   0.597   4.145
 1853TIP3    H1 5492   2.826   0.689   4.177
 1853TIP3    H2 5493   2.758   0.555   4.196
 1854TIP3   OH2 5494   2.588   0.724   3.105
 1854TIP3    H1 5495   2.550   0.711   3.016
 1854TIP3    H2 5496   2.557   0.813   3.128
 1855TIP3   OH2 5497   2.034   0.591   3.485
 1855TIP3    H1 5498   2.078   0.574   3.571
 1855TIP3    H2 5499   1.985   0.506   3.475
 1856TIP3   OH2 5500   2.787   0.628   2.743
 1856TIP3    H1 5501   2.846   0.557   2.708
 1856TIP3    H2 5502   2.821   0.636   2.835
 1857TIP3   OH2 5503   2.838   0.676   3.010
 1857TIP3    H1 5504   2.750   0.683   3.053
 1857TIP3    H2 5505   2.894   0.646   3.084
 1858TIP3   OH2 5506   3.606  -0.077   4.296
 1858TIP3    H1 5507   3.532  -0.027   4.259
 1858TIP3    H2 5508   3.576  -0.167   4.273
 1859TIP3   OH2 5509   2.203   0.372   4.328
 1859TIP3    H1 5510   2.256   0.337   4.403
 1859TIP3    H2 5511   2.134   0.302   4.320
 1860TIP3   OH2 5512   3.402  -0.265   4.238
 1860TIP3    H1 5513   3.345  -0.248   4.314
 1860TIP3    H2 5514   3.372  -0.199   4.174
 1861TIP3   OH2 5515   3.044  -0.136   2.756
 1861TIP3    H1 5516   3.038  -0.153   2.661
 1861TIP3    H2 5517   3.128  -0.087   2.758
 1862TIP3   OH2 5518   2.552  -0.303   4.131
 1862TIP3    H1 5519   2.494  -0.284   4.207
 1862TIP3    H2 5520   2.540  -0.222   4.077
 1863TIP3   OH2 5521   2.413  -0.438   3.619
 1863TIP3    H1 5522   2.320  -0.424   3.597
 1863TIP3    H2 5523   2.454  -0.451   3.533
 1864TIP3   OH2 5524   2.908  -0.343   3.354
 1864TIP3    H1 5525   2.867  -0.268   3.307
 1864TIP3    H2 5526   2.969  -0.379   3.285
 1865TIP3   OH2 5527   3.093  -0.035   4.426
 1865TIP3    H1 5528   3.068  -0.115   4.479
 1865TIP3    H2 5529   3.188  -0.028   4.451
 1866TIP3   OH2 5530   3.044  -0.269   3.618
 1866TIP3    H1 5531   2.992  -0.221   3.551
 1866TIP3    H2 5532   3.069  -0.348   3.565
 1867TIP3   OH2 5533   2.353  -0.277   4.326
 1867TIP3    H1 5534   2.381  -0.219   4.398
 1867TIP3    H2 5535   2.336  -0.361   4.372
 1868TIP3   OH2 5536   3.071  -0.062   4.018
 1868TIP3    H1 5537   3.111  -0.132   3.961
 1868TIP3    H2 5538   3.048  -0.116   4.096
 1869TIP3   OH2 5539   3.408   1.164   4.103
 1869TIP3    H1 5540   3.385   1.201   4.016
 1869TIP3    H2 5541   3.487   1.217   4.124
 1870TIP3   OH2 5542   2.372   0.279   4.540
 1870TIP3    H1 5543   2.447   0.277   4.602
 1870TIP3    H2 5544   2.299   0.277   4.607
 1871TIP3   OH2 5545   2.814  -0.273   3.789
 1871TIP3    H1 5546   2.899  -0.297   3.749
 1871TIP3    H2 5547   2.822  -0.309   3.880
 1872TIP3   OH2 5548   2.828  -0.346   4.050
 1872TIP3    H1 5549   2.738  -0.350   4.088
 1872TIP3    H2 5550   2.878  -0.300   4.120
 1873TIP3   OH2 5551   2.532  -0.003   3.183
 1873TIP3    H1 5552   2.435   0.005   3.174
 1873TIP3    H2 5553   2.540   0.036   3.273
 1874TIP3   OH2 5554   3.443   0.248   3.800
 1874TIP3    H1 5555   3.467   0.301   3.720
 1874TIP3    H2 5556   3.358   0.207   3.772
 1875TIP3   OH2 5557   2.937   0.329   4.175
 1875TIP3    H1 5558   2.961   0.315   4.267
 1875TIP3    H2 5559   2.908   0.422   4.175
 1876TIP3   OH2 5560   3.069  -0.426   3.149
 1876TIP3    H1 5561   3.165  -0.411   3.149
 1876TIP3    H2 5562   3.036  -0.353   3.092
 1877TIP3   OH2 5563   2.232   0.029   3.847
 1877TIP3    H1 5564   2.273   0.004   3.762
 1877TIP3    H2 5565   2.285  -0.022   3.910
 1878TIP3   OH2 5566   2.687   0.162   3.020
 1878TIP3    H1 5567   2.645   0.251   3.026
 1878TIP3    H2 5568   2.629   0.110   3.078
 1879TIP3   OH2 5569   2.119  -0.039   4.464
 1879TIP3    H1 5570   2.143  -0.056   4.558
 1879TIP3    H2 5571   2.051  -0.107   4.450
 1880TIP3   OH2 5572   2.844   0.075   4.483
 1880TIP3    H1 5573   2.782   0.018   4.434
 1880TIP3    H2 5574   2.931   0.045   4.449
 1881TIP3   OH2 5575   3.103   0.581   4.073
 1881TIP3    H1 5576   3.006   0.588   4.081
 1881TIP3    H2 5577   3.131   0.640   4.146
 1882TIP3   OH2 5578   3.510  -0.341   2.963
 1882TIP3    H1 5579   3.457  -0.393   2.899
 1882TIP3    H2 5580   3.494  -0.250   2.926
 1883TIP3   OH2 5581   3.733   0.526   4.053
 1883TIP3    H1 5582   3.636   0.518   4.043
 1883TIP3    H2 5583   3.761   0.494   3.964
 1884TIP3   OH2 5584   3.214   0.483   2.884
 1884TIP3    H1 5585   3.184   0.411   2.941
 1884TIP3    H2 5586   3.228   0.439   2.798
 1885TIP3   OH2 5587   3.209   0.114   3.718
 1885TIP3    H1 5588   3.115   0.090   3.731
 1885TIP3    H2 5589   3.242   0.035   3.671
 1886TIP3   OH2 5590   2.337   0.343   3.476
 1886TIP3    H1 5591   2.337   0.426   3.423
 1886TIP3    H2 5592   2.244   0.318   3.469
 1887TIP3   OH2 5593   2.469   0.108   3.420
 1887TIP3    H1 5594   2.440   0.200   3.433
 1887TIP3    H2 5595   2.438   0.066   3.502
 1888TIP3   OH2 5596   2.611   0.681   3.924
 1888TIP3    H1 5597   2.657   0.756   3.881
 1888TIP3    H2 5598   2.679   0.647   3.983
 1889TIP3   OH2 5599   2.260   0.579   3.324
 1889TIP3    H1 5600   2.174   0.593   3.370
 1889TIP3    H2 5601   2.295   0.671   3.325
 1890TIP3   OH2 5602   2.989   0.315   3.906
 1890TIP3    H1 5603   2.980   0.313   4.004
 1890TIP3    H2 5604   3.073   0.269   3.893
 1891TIP3   OH2 5605   2.979   0.211   2.778
 1891TIP3    H1 5606   3.018   0.185   2.865
 1891TIP3    H2 5607   2.887   0.182   2.787
 1892TIP3   OH2 5608   3.245   0.848   3.949
 1892TIP3    H1 5609   3.161   0.799   3.939
 1892TIP3    H2 5610   3.233   0.916   3.879
 1893TIP3   OH2 5611   3.306   0.680   2.605
 1893TIP3    H1 5612   3.339   0.744   2.540
 1893TIP3    H2 5613   3.229   0.730   2.639
 1894TIP3   OH2 5614   3.131   0.145   3.003
 1894TIP3    H1 5615   3.123   0.080   3.075
 1894TIP3    H2 5616   3.228   0.142   2.988
 1895TIP3   OH2 5617   2.295   0.199   3.041
 1895TIP3    H1 5618   2.325   0.190   3.132
 1895TIP3    H2 5619   2.285   0.296   3.037
 1896TIP3   OH2 5620   2.555   0.394   3.028
 1896TIP3    H1 5621   2.468   0.428   3.055
 1896TIP3    H2 5622   2.553   0.410   2.932
 1897TIP3   OH2 5623   2.715  -0.526   3.407
 1897TIP3    H1 5624   2.783  -0.456   3.393
 1897TIP3    H2 5625   2.762  -0.585   3.468
 1898TIP3   OH2 5626   3.019  -0.223   4.230
 1898TIP3    H1 5627   3.015  -0.155   4.300
 1898TIP3    H2 5628   3.056  -0.297   4.281
 1899TIP3   OH2 5629   2.290   0.467   3.073
 1899TIP3    H1 5630   2.264   0.540   3.013
 1899TIP3    H2 5631   2.274   0.508   3.161
 1900TIP3   OH2 5632   3.296  -0.130   3.598
 1900TIP3    H1 5633   3.216  -0.181   3.619
 1900TIP3    H2 5634   3.366  -0.179   3.647
 1901TIP3   OH2 5635   3.264   0.818   3.540
 1901TIP3    H1 5636   3.219   0.865   3.466
 1901TIP3    H2 5637   3.357   0.840   3.519
 1902TIP3   OH2 5638   1.917   0.344   3.465
 1902TIP3    H1 5639   1.822   0.328   3.464
 1902TIP3    H2 5640   1.940   0.306   3.378
 1903TIP3   OH2 5641   2.042   0.854   4.521
 1903TIP3    H1 5642   2.125   0.863   4.574
 1903TIP3    H2 5643   2.014   0.765   4.545
 1904TIP3   OH2 5644   2.517   0.819   4.561
 1904TIP3    H1 5645   2.594   0.806   4.618
 1904TIP3    H2 5646   2.557   0.804   4.474
 1905TIP3   OH2 5647   2.514   0.403   2.753
 1905TIP3    H1 5648   2.443   0.339   2.748
 1905TIP3    H2 5649   2.548   0.394   2.662
 1906TIP3   OH2 5650   3.152   0.726   4.303
 1906TIP3    H1 5651   3.145   0.657   4.372
 1906TIP3    H2 5652   3.227   0.780   4.334
 1907TIP3   OH2 5653   2.933   0.434   2.611
 1907TIP3    H1 5654   2.980   0.373   2.670
 1907TIP3    H2 5655   2.991   0.437   2.532
 1908TIP3   OH2 5656   2.158   0.265   4.708
 1908TIP3    H1 5657   2.173   0.175   4.741
 1908TIP3    H2 5658   2.068   0.262   4.672
 1909TIP3   OH2 5659   2.803   0.358   4.481
 1909TIP3    H1 5660   2.744   0.359   4.404
 1909TIP3    H2 5661   2.817   0.262   4.495
 1910TIP3   OH2 5662   2.705   0.115   2.749
 1910TIP3    H1 5663   2.692   0.132   2.845
 1910TIP3    H2 5664   2.686   0.021   2.742
 1911TIP3   OH2 5665   3.265   0.356   4.106
 1911TIP3    H1 5666   3.340   0.399   4.061
 1911TIP3    H2 5667   3.196   0.425   4.093
 1912TIP3   OH2 5668   2.301   0.001   4.709
 1912TIP3    H1 5669   2.376  -0.058   4.698
 1912TIP3    H2 5670   2.335   0.057   4.780
 1913TIP3   OH2 5671   2.614  -0.092   4.362
 1913TIP3    H1 5672   2.533  -0.036   4.356
 1913TIP3    H2 5673   2.665  -0.064   4.283
 1914TIP3   OH2 5674   3.145   0.285   4.504
 1914TIP3    H1 5675   3.209   0.242   4.447
 1914TIP3    H2 5676   3.128   0.217   4.572
 1915TIP3   OH2 5677   3.286  -0.052   2.644
 1915TIP3    H1 5678   3.256  -0.096   2.561
 1915TIP3    H2 5679   3.252   0.038   2.624
 1916TIP3   OH2 5680   2.710  -0.312   4.484
 1916TIP3    H1 5681   2.657  -0.371   4.427
 1916TIP3    H2 5682   2.680  -0.224   4.449
 1917TIP3   OH2 5683   2.780  -0.007   4.166
 1917TIP3    H1 5684   2.865   0.007   4.123
 1917TIP3    H2 5685   2.723   0.059   4.122
 1918TIP3   OH2 5686   3.345  -0.044   4.530
 1918TIP3    H1 5687   3.378  -0.099   4.606
 1918TIP3    H2 5688   3.416   0.018   4.517
 1919TIP3   OH2 5689   3.397   0.209   4.288
 1919TIP3    H1 5690   3.335   0.263   4.233
 1919TIP3    H2 5691   3.482   0.238   4.248
 1920TIP3   OH2 5692   2.580  -0.187   4.707
 1920TIP3    H1 5693   2.546  -0.258   4.764
 1920TIP3    H2 5694   2.644  -0.233   4.651
 1921TIP3   OH2 5695   2.984  -0.262   4.522
 1921TIP3    H1 5696   3.004  -0.290   4.614
 1921TIP3    H2 5697   2.888  -0.270   4.520
 1922TIP3   OH2 5698   2.260   0.662   2.886
 1922TIP3    H1 5699   2.358   0.665   2.876
 1922TIP3    H2 5700   2.236   0.717   2.809
 1923TIP3   OH2 5701   1.639   0.655   3.507
 1923TIP3    H1 5702   1.600   0.580   3.461
 1923TIP3    H2 5703   1.691   0.609   3.577
 1924TIP3   OH2 5704   1.768   0.534   3.711
 1924TIP3    H1 5705   1.782   0.444   3.741
 1924TIP3    H2 5706   1.835   0.584   3.761
 1925TIP3   OH2 5707   3.519   0.901   3.501
 1925TIP3    H1 5708   3.542   0.928   3.593
 1925TIP3    H2 5709   3.566   0.967   3.448
 1926TIP3   OH2 5710   3.573   0.909   3.769
 1926TIP3    H1 5711   3.515   0.830   3.774
 1926TIP3    H2 5712   3.628   0.896   3.847
 1927TIP3   OH2 5713   3.589   0.601   4.361
 1927TIP3    H1 5714   3.516   0.614   4.425
 1927TIP3    H2 5715   3.631   0.690   4.363
 1928TIP3   OH2 5716   3.409   0.122   2.973
 1928TIP3    H1 5717   3.472   0.190   2.942
 1928TIP3    H2 5718   3.456   0.089   3.053
 1929TIP3   OH2 5719   3.537  -0.004   3.178
 1929TIP3    H1 5720   3.470  -0.042   3.240
 1929TIP3    H2 5721   3.602   0.037   3.239
 1930TIP3   OH2 5722   3.596   0.388   3.616
 1930TIP3    H1 5723   3.643   0.320   3.564
 1930TIP3    H2 5724   3.593   0.463   3.553
 1931TIP3   OH2 5725   3.419   0.680   3.812
 1931TIP3    H1 5726   3.348   0.732   3.856
 1931TIP3    H2 5727   3.370   0.640   3.737
 1932TIP3   OH2 5728   3.468  -0.106   2.830
 1932TIP3    H1 5729   3.406  -0.089   2.756
 1932TIP3    H2 5730   3.446  -0.030   2.887
 1933TIP3   OH2 5731   3.341  -0.445   2.769
 1933TIP3    H1 5732   3.327  -0.357   2.731
 1933TIP3    H2 5733   3.246  -0.473   2.784
 1934TIP3   OH2 5734   3.351  -0.136   3.326
 1934TIP3    H1 5735   3.348  -0.231   3.300
 1934TIP3    H2 5736   3.337  -0.138   3.423
 1935TIP3   OH2 5737   1.972  -0.080   4.074
 1935TIP3    H1 5738   1.967  -0.109   3.980
 1935TIP3    H2 5739   2.070  -0.079   4.087
 1936TIP3   OH2 5740   3.641   0.275   4.184
 1936TIP3    H1 5741   3.713   0.211   4.170
 1936TIP3    H2 5742   3.659   0.342   4.115
 1937TIP3   OH2 5743   3.820   0.071   4.200
 1937TIP3    H1 5744   3.748   0.015   4.236
 1937TIP3    H2 5745   3.897   0.015   4.223
 1938TIP3   OH2 5746   3.345  -0.390   3.194
 1938TIP3    H1 5747   3.374  -0.469   3.244
 1938TIP3    H2 5748   3.409  -0.387   3.120
 1939TIP3   OH2 5749   3.506  -0.260   3.725
 1939TIP3    H1 5750   3.590  -0.235   3.682
 1939TIP3    H2 5751   3.519  -0.218   3.812
 1940TIP3   OH2 5752   3.570  -0.106   3.947
 1940TIP3    H1 5753   3.493  -0.070   3.995
 1940TIP3    H2 5754   3.605  -0.027   3.902
 1941TIP3   OH2 5755   2.192  -0.398   4.736
 1941TIP3    H1 5756   2.286  -0.395   4.756
 1941TIP3    H2 5757   2.165  -0.483   4.776
 1942TIP3   OH2 5758   1.951  -0.423   4.148
 1942TIP3    H1 5759   1.998  -0.412   4.063
 1942TIP3    H2 5760   1.982  -0.347   4.198
 1943TIP3   OH2 5761   3.097   0.779   3.156
 1943TIP3    H1 5762   3.153   0.776   3.076
 1943TIP3    H2 5763   3.141   0.847   3.210
 1944TIP3   OH2 5764   2.192   0.586   4.553
 1944TIP3    H1 5765   2.107   0.553   4.589
 1944TIP3    H2 5766   2.250   0.572   4.631
 1945TIP3   OH2 5767   2.819   0.864   4.232
 1945TIP3    H1 5768   2.864   0.863   4.319
 1945TIP3    H2 5769   2.884   0.914   4.178
 1946TIP3   OH2 5770   2.998   1.016   4.093
 1946TIP3    H1 5771   3.065   0.976   4.037
 1946TIP3    H2 5772   3.053   1.073   4.151
 1947TIP3   OH2 5773   2.051   0.857   4.138
 1947TIP3    H1 5774   1.961   0.884   4.111
 1947TIP3    H2 5775   2.073   0.933   4.196
 1948TIP3   OH2 5776   2.294   0.869   3.980
 1948TIP3    H1 5777   2.205   0.874   4.019
 1948TIP3    H2 5778   2.277   0.895   3.887
 1949TIP3   OH2 5779   2.721   0.884   3.770
 1949TIP3    H1 5780   2.652   0.903   3.704
 1949TIP3    H2 5781   2.733   0.973   3.811
 1950TIP3   OH2 5782   2.989   0.817   3.827
 1950TIP3    H1 5783   2.898   0.842   3.804
 1950TIP3    H2 5784   3.040   0.887   3.782
 1951TIP3   OH2 5785   3.178   1.003   3.738
 1951TIP3    H1 5786   3.174   1.094   3.700
 1951TIP3    H2 5787   3.216   0.954   3.662
 1952TIP3   OH2 5788   1.969   0.671   3.852
 1952TIP3    H1 5789   2.014   0.694   3.934
 1952TIP3    H2 5790   2.041   0.625   3.803
 1953TIP3   OH2 5791   2.166   0.541   3.723
 1953TIP3    H1 5792   2.189   0.456   3.766
 1953TIP3    H2 5793   2.255   0.582   3.716
 1954TIP3   OH2 5794   2.425   0.637   3.729
 1954TIP3    H1 5795   2.470   0.554   3.706
 1954TIP3    H2 5796   2.476   0.662   3.809
 1955TIP3   OH2 5797   1.710   0.454   3.269
 1955TIP3    H1 5798   1.623   0.446   3.228
 1955TIP3    H2 5799   1.734   0.546   3.252
 1956TIP3   OH2 5800   2.529   0.662   2.838
 1956TIP3    H1 5801   2.617   0.682   2.801
 1956TIP3    H2 5802   2.519   0.571   2.801
 1957TIP3   OH2 5803   3.249   0.751   2.927
 1957TIP3    H1 5804   3.240   0.653   2.916
 1957TIP3    H2 5805   3.202   0.782   2.847
 1958TIP3   OH2 5806   3.468   0.894   4.116
 1958TIP3    H1 5807   3.392   0.862   4.062
 1958TIP3    H2 5808   3.450   0.991   4.113
 1959TIP3   OH2 5809   4.722   0.225   2.923
 1959TIP3    H1 5810   4.760   0.309   2.895
 1959TIP3    H2 5811   4.654   0.214   2.855
 1960TIP3   OH2 5812   4.722   0.281   3.266
 1960TIP3    H1 5813   4.763   0.236   3.342
 1960TIP3    H2 5814   4.706   0.209   3.203
 1961TIP3   OH2 5815   4.036   0.164   3.628
 1961TIP3    H1 5816   4.069   0.091   3.684
 1961TIP3    H2 5817   4.119   0.206   3.602
 1962TIP3   OH2 5818   4.013   0.569   3.349
 1962TIP3    H1 5819   4.004   0.472   3.351
 1962TIP3    H2 5820   4.110   0.578   3.336
 1963TIP3   OH2 5821   3.702  -0.222   3.146
 1963TIP3    H1 5822   3.653  -0.138   3.159
 1963TIP3    H2 5823   3.639  -0.271   3.091
 1964TIP3   OH2 5824   3.767   0.070   3.307
 1964TIP3    H1 5825   3.810  -0.013   3.336
 1964TIP3    H2 5826   3.835   0.109   3.249
 1965TIP3   OH2 5827   4.637   1.031   2.961
 1965TIP3    H1 5828   4.676   0.959   2.907
 1965TIP3    H2 5829   4.625   0.987   3.046
 1966TIP3   OH2 5830   4.534   0.494   3.313
 1966TIP3    H1 5831   4.577   0.414   3.275
 1966TIP3    H2 5832   4.616   0.543   3.334
 1967TIP3   OH2 5833   4.943  -0.012   3.360
 1967TIP3    H1 5834   4.978  -0.100   3.376
 1967TIP3    H2 5835   4.916  -0.016   3.266
 1968TIP3   OH2 5836   4.259  -0.383   3.290
 1968TIP3    H1 5837   4.247  -0.298   3.242
 1968TIP3    H2 5838   4.190  -0.437   3.251
 1969TIP3   OH2 5839   4.941  -0.234   2.976
 1969TIP3    H1 5840   5.004  -0.275   3.037
 1969TIP3    H2 5841   4.996  -0.223   2.897
 1970TIP3   OH2 5842   3.895  -0.150   3.403
 1970TIP3    H1 5843   3.987  -0.145   3.441
 1970TIP3    H2 5844   3.913  -0.210   3.329
 1971TIP3   OH2 5845   4.357   0.052   3.215
 1971TIP3    H1 5846   4.452   0.028   3.225
 1971TIP3    H2 5847   4.320  -0.034   3.185
 1972TIP3   OH2 5848   5.583   0.003   3.513
 1972TIP3    H1 5849   5.512   0.054   3.471
 1972TIP3    H2 5850   5.646   0.073   3.538
 1973TIP3   OH2 5851   4.603   0.483   2.762
 1973TIP3    H1 5852   4.607   0.479   2.666
 1973TIP3    H2 5853   4.555   0.566   2.778
 1974TIP3   OH2 5854   4.391   0.411   3.532
 1974TIP3    H1 5855   4.332   0.481   3.567
 1974TIP3    H2 5856   4.433   0.457   3.457
 1975TIP3   OH2 5857   4.150  -0.181   3.478
 1975TIP3    H1 5858   4.224  -0.141   3.527
 1975TIP3    H2 5859   4.190  -0.265   3.449
 1976TIP3   OH2 5860   4.220   0.608   3.635
 1976TIP3    H1 5861   4.196   0.694   3.594
 1976TIP3    H2 5862   4.139   0.593   3.688
 1977TIP3   OH2 5863   3.608   0.295   2.868
 1977TIP3    H1 5864   3.571   0.323   2.782
 1977TIP3    H2 5865   3.640   0.381   2.904
 1978TIP3   OH2 5866   5.062   0.826   3.129
 1978TIP3    H1 5867   4.971   0.798   3.153
 1978TIP3    H2 5868   5.043   0.905   3.074
 1979TIP3   OH2 5869   4.750   0.851   2.782
 1979TIP3    H1 5870   4.804   0.772   2.800
 1979TIP3    H2 5871   4.817   0.910   2.739
 1980TIP3   OH2 5872   5.278   0.721   3.453
 1980TIP3    H1 5873   5.264   0.645   3.392
 1980TIP3    H2 5874   5.260   0.797   3.394
 1981TIP3   OH2 5875   4.567   0.116   2.703
 1981TIP3    H1 5876   4.491   0.175   2.686
 1981TIP3    H2 5877   4.623   0.130   2.625
 1982TIP3   OH2 5878   4.525  -0.097   2.424
 1982TIP3    H1 5879   4.587  -0.049   2.481
 1982TIP3    H2 5880   4.583  -0.163   2.383
 1983TIP3   OH2 5881   5.475   0.368   3.304
 1983TIP3    H1 5882   5.389   0.416   3.304
 1983TIP3    H2 5883   5.505   0.389   3.212
 1984TIP3   OH2 5884   5.150   0.238   3.599
 1984TIP3    H1 5885   5.143   0.322   3.648
 1984TIP3    H2 5886   5.065   0.239   3.550
 1985TIP3   OH2 5887   4.148   0.196   3.102
 1985TIP3    H1 5888   4.110   0.138   3.032
 1985TIP3    H2 5889   4.226   0.144   3.132
 1986TIP3   OH2 5890   4.277   0.605   3.248
 1986TIP3    H1 5891   4.259   0.576   3.157
 1986TIP3    H2 5892   4.366   0.568   3.264
 1987TIP3   OH2 5893   4.282   0.166   3.461
 1987TIP3    H1 5894   4.313   0.136   3.373
 1987TIP3    H2 5895   4.329   0.251   3.473
 1988TIP3   OH2 5896   4.806   0.805   3.224
 1988TIP3    H1 5897   4.800   0.884   3.281
 1988TIP3    H2 5898   4.793   0.731   3.286
 1989TIP3   OH2 5899   4.426   0.723   3.779
 1989TIP3    H1 5900   4.363   0.785   3.822
 1989TIP3    H2 5901   4.363   0.670   3.726
 1990TIP3   OH2 5902   4.781   0.081   2.519
 1990TIP3    H1 5903   4.834   0.157   2.552
 1990TIP3    H2 5904   4.799   0.088   2.422
 1991TIP3   OH2 5905   4.173   0.285   3.883
 1991TIP3    H1 5906   4.176   0.373   3.926
 1991TIP3    H2 5907   4.077   0.265   3.890
 1992TIP3   OH2 5908   4.494   0.743   2.780
 1992TIP3    H1 5909   4.579   0.789   2.788
 1992TIP3    H2 5910   4.438   0.808   2.736
 1993TIP3   OH2 5911   4.218   0.888   3.863
 1993TIP3    H1 5912   4.187   0.894   3.770
 1993TIP3    H2 5913   4.135   0.870   3.911
 1994TIP3   OH2 5914   4.016   0.038   2.902
 1994TIP3    H1 5915   3.951   0.088   2.848
 1994TIP3    H2 5916   3.972  -0.047   2.909
 1995TIP3   OH2 5917   5.071   0.664   2.108
 1995TIP3    H1 5918   5.081   0.760   2.090
 1995TIP3    H2 5919   5.164   0.634   2.096
 1996TIP3   OH2 5920   3.797   0.426   3.811
 1996TIP3    H1 5921   3.729   0.410   3.741
 1996TIP3    H2 5922   3.835   0.337   3.825
 1997TIP3   OH2 5923   3.649   0.615   3.450
 1997TIP3    H1 5924   3.745   0.621   3.439
 1997TIP3    H2 5925   3.629   0.699   3.495
 1998TIP3   OH2 5926   5.516   1.072   3.501
 1998TIP3    H1 5927   5.513   0.976   3.513
 1998TIP3    H2 5928   5.432   1.097   3.546
 1999TIP3   OH2 5929   4.622   0.852   3.637
 1999TIP3    H1 5930   4.618   0.945   3.667
 1999TIP3    H2 5931   4.550   0.812   3.690
 2000TIP3   OH2 5932   4.386   0.982   2.586
 2000TIP3    H1 5933   4.336   0.964   2.505
 2000TIP3    H2 5934   4.350   1.069   2.614
 2001TIP3   OH2 5935   3.821   0.832   2.973
 2001TIP3    H1 5936   3.868   0.821   3.058
 2001TIP3    H2 5937   3.763   0.753   2.974
 2002TIP3   OH2 5938   4.585   0.886   2.224
 2002TIP3    H1 5939   4.643   0.814   2.189
 2002TIP3    H2 5940   4.619   0.895   2.315
 2003TIP3   OH2 5941   4.635   0.934   2.494
 2003TIP3    H1 5942   4.545   0.944   2.532
 2003TIP3    H2 5943   4.681   0.893   2.569
 2004TIP3   OH2 5944   5.401   0.184   3.778
 2004TIP3    H1 5945   5.325   0.219   3.729
 2004TIP3    H2 5946   5.393   0.089   3.760
 2005TIP3   OH2 5947   3.999   0.612   3.802
 2005TIP3    H1 5948   4.051   0.587   3.881
 2005TIP3    H2 5949   3.925   0.547   3.805
 2006TIP3   OH2 5950   5.173  -0.019   3.721
 2006TIP3    H1 5951   5.148   0.020   3.805
 2006TIP3    H2 5952   5.158   0.054   3.658
 2007TIP3   OH2 5953   4.834   0.089   2.252
 2007TIP3    H1 5954   4.797   0.078   2.162
 2007TIP3    H2 5955   4.915   0.141   2.232
 2008TIP3   OH2 5956   4.353  -0.049   3.619
 2008TIP3    H1 5957   4.291  -0.029   3.691
 2008TIP3    H2 5958   4.339   0.029   3.561
 2009TIP3   OH2 5959   4.218  -0.171   3.125
 2009TIP3    H1 5960   4.122  -0.182   3.132
 2009TIP3    H2 5961   4.234  -0.199   3.032
 2010TIP3   OH2 5962   4.695  -0.086   2.841
 2010TIP3    H1 5963   4.654  -0.005   2.803
 2010TIP3    H2 5964   4.764  -0.106   2.774
 2011TIP3   OH2 5965   4.890   0.222   3.914
 2011TIP3    H1 5966   4.866   0.142   3.966
 2011TIP3    H2 5967   4.984   0.231   3.939
 2012TIP3   OH2 5968   4.840  -0.006   3.101
 2012TIP3    H1 5969   4.794   0.052   3.036
 2012TIP3    H2 5970   4.853  -0.086   3.046
 2013TIP3   OH2 5971   4.153  -0.018   3.809
 2013TIP3    H1 5972   4.174   0.048   3.877
 2013TIP3    H2 5973   4.135  -0.099   3.861
 2014TIP3   OH2 5974   3.784  -0.416   2.947
 2014TIP3    H1 5975   3.799  -0.404   2.851
 2014TIP3    H2 5976   3.690  -0.390   2.951
 2015TIP3   OH2 5977   4.869   0.195   3.510
 2015TIP3    H1 5978   4.904   0.125   3.451
 2015TIP3    H2 5979   4.841   0.140   3.586
 2016TIP3   OH2 5980   3.961  -0.293   3.165
 2016TIP3    H1 5981   3.869  -0.259   3.155
 2016TIP3    H2 5982   3.956  -0.366   3.102
 2017TIP3   OH2 5983   4.255  -0.274   2.878
 2017TIP3    H1 5984   4.347  -0.285   2.848
 2017TIP3    H2 5985   4.203  -0.283   2.794
 2018TIP3   OH2 5986   4.092  -0.290   2.649
 2018TIP3    H1 5987   4.021  -0.309   2.585
 2018TIP3    H2 5988   4.153  -0.239   2.590
 2019TIP3   OH2 5989   5.209   1.418   3.600
 2019TIP3    H1 5990   5.206   1.443   3.506
 2019TIP3    H2 5991   5.288   1.467   3.631
 2020TIP3   OH2 5992   4.161   0.530   4.022
 2020TIP3    H1 5993   4.243   0.557   4.067
 2020TIP3    H2 5994   4.099   0.526   4.097
 2021TIP3   OH2 5995   4.609  -0.036   3.274
 2021TIP3    H1 5996   4.697  -0.037   3.232
 2021TIP3    H2 5997   4.627  -0.064   3.365
 2022TIP3   OH2 5998   4.623  -0.098   3.543
 2022TIP3    H1 5999   4.533  -0.091   3.579
 2022TIP3    H2 6000   4.676  -0.050   3.609
 2023TIP3   OH2 6001   4.339   0.270   2.656
 2023TIP3    H1 6002   4.266   0.206   2.646
 2023TIP3    H2 6003   4.321   0.305   2.747
 2024TIP3   OH2 6004   5.240   0.504   3.289
 2024TIP3    H1 6005   5.254   0.556   3.207
 2024TIP3    H2 6006   5.154   0.459   3.270
 2025TIP3   OH2 6007   4.770  -0.349   2.477
 2025TIP3    H1 6008   4.715  -0.398   2.541
 2025TIP3    H2 6009   4.807  -0.280   2.537
 2026TIP3   OH2 6010   4.736   0.587   3.657
 2026TIP3    H1 6011   4.770   0.575   3.746
 2026TIP3    H2 6012   4.700   0.678   3.659
 2027TIP3   OH2 6013   4.867  -0.153   2.635
 2027TIP3    H1 6014   4.965  -0.152   2.643
 2027TIP3    H2 6015   4.850  -0.065   2.594
 2028TIP3   OH2 6016   4.031   0.288   3.334
 2028TIP3    H1 6017   4.068   0.265   3.246
 2028TIP3    H2 6018   4.084   0.231   3.392
 2029TIP3   OH2 6019   4.484   0.419   2.476
 2029TIP3    H1 6020   4.436   0.505   2.483
 2029TIP3    H2 6021   4.436   0.366   2.543
 2030TIP3   OH2 6022   3.913   0.210   3.950
 2030TIP3    H1 6023   3.927   0.193   4.045
 2030TIP3    H2 6024   3.839   0.150   3.929
 2031TIP3   OH2 6025   4.641   0.329   3.973
 2031TIP3    H1 6026   4.580   0.278   3.917
 2031TIP3    H2 6027   4.728   0.300   3.938
 2032TIP3   OH2 6028   4.898   0.849   3.555
 2032TIP3    H1 6029   4.802   0.847   3.566
 2032TIP3    H2 6030   4.925   0.901   3.633
 2033TIP3   OH2 6031   5.312  -0.081   2.453
 2033TIP3    H1 6032   5.252  -0.131   2.395
 2033TIP3    H2 6033   5.295   0.010   2.418
 2034TIP3   OH2 6034   5.528   0.781   3.539
 2034TIP3    H1 6035   5.431   0.775   3.530
 2034TIP3    H2 6036   5.555   0.749   3.450
 2035TIP3   OH2 6037   5.010   0.732   2.374
 2035TIP3    H1 6038   5.008   0.654   2.430
 2035TIP3    H2 6039   5.025   0.694   2.285
 2036TIP3   OH2 6040   5.008   0.368   3.233
 2036TIP3    H1 6041   4.913   0.357   3.220
 2036TIP3    H2 6042   5.043   0.293   3.180
 2037TIP3   OH2 6043   4.136   0.601   2.966
 2037TIP3    H1 6044   4.134   0.680   2.908
 2037TIP3    H2 6045   4.043   0.580   2.971
 2038TIP3   OH2 6046   3.699  -0.096   2.669
 2038TIP3    H1 6047   3.745  -0.012   2.688
 2038TIP3    H2 6048   3.623  -0.091   2.731
 2039TIP3   OH2 6049   4.256   0.358   2.897
 2039TIP3    H1 6050   4.231   0.450   2.919
 2039TIP3    H2 6051   4.228   0.310   2.977
 2040TIP3   OH2 6052   4.404   0.939   3.428
 2040TIP3    H1 6053   4.445   1.012   3.377
 2040TIP3    H2 6054   4.482   0.901   3.472
 2041TIP3   OH2 6055   4.052   0.835   2.812
 2041TIP3    H1 6056   3.966   0.845   2.858
 2041TIP3    H2 6057   4.085   0.927   2.814
 2042TIP3   OH2 6058   4.790   0.576   3.387
 2042TIP3    H1 6059   4.780   0.569   3.485
 2042TIP3    H2 6060   4.864   0.516   3.370
 2043TIP3   OH2 6061   4.769   0.464   2.278
 2043TIP3    H1 6062   4.812   0.441   2.362
 2043TIP3    H2 6063   4.677   0.439   2.297
 2044TIP3   OH2 6064   5.038   1.107   3.439
 2044TIP3    H1 6065   4.958   1.051   3.432
 2044TIP3    H2 6066   5.022   1.171   3.367
 2045TIP3   OH2 6067   5.103   0.938   2.090
 2045TIP3    H1 6068   5.145   1.009   2.040
 2045TIP3    H2 6069   5.024   0.985   2.123
 2046TIP3   OH2 6070   3.846   0.800   3.578
 2046TIP3    H1 6071   3.901   0.732   3.621
 2046TIP3    H2 6072   3.861   0.876   3.636
 2047TIP3   OH2 6073   4.133   0.447   2.272
 2047TIP3    H1 6074   4.144   0.354   2.246
 2047TIP3    H2 6075   4.111   0.439   2.367
 2048TIP3   OH2 6076   4.077   0.452   2.542
 2048TIP3    H1 6077   4.152   0.428   2.599
 2048TIP3    H2 6078   4.077   0.550   2.550
 2049TIP3   OH2 6079   3.808   0.145   2.749
 2049TIP3    H1 6080   3.743   0.193   2.804
 2049TIP3    H2 6081   3.822   0.212   2.679
 2050TIP3   OH2 6082   4.343   0.650   2.489
 2050TIP3    H1 6083   4.256   0.671   2.528
 2050TIP3    H2 6084   4.355   0.727   2.431
 2051TIP3   OH2 6085   4.538  -0.301   2.868
 2051TIP3    H1 6086   4.589  -0.217   2.855
 2051TIP3    H2 6087   4.556  -0.317   2.961
 2052TIP3   OH2 6088   4.808   0.031   3.717
 2052TIP3    H1 6089   4.809   0.095   3.791
 2052TIP3    H2 6090   4.868  -0.037   3.750
 2053TIP3   OH2 6091   4.089   0.723   2.561
 2053TIP3    H1 6092   4.058   0.792   2.499
 2053TIP3    H2 6093   4.071   0.766   2.648
 2054TIP3   OH2 6094   5.087   0.141   3.104
 2054TIP3    H1 6095   5.014   0.078   3.097
 2054TIP3    H2 6096   5.163   0.083   3.124
 2055TIP3   OH2 6097   3.804   0.349   2.553
 2055TIP3    H1 6098   3.868   0.421   2.560
 2055TIP3    H2 6099   3.849   0.295   2.485
 2056TIP3   OH2 6100   3.745  -0.366   2.682
 2056TIP3    H1 6101   3.748  -0.269   2.669
 2056TIP3    H2 6102   3.656  -0.387   2.651
 2057TIP3   OH2 6103   5.058   1.091   3.029
 2057TIP3    H1 6104   5.016   1.137   2.953
 2057TIP3    H2 6105   5.153   1.106   3.008
 2058TIP3   OH2 6106   3.668   0.560   2.934
 2058TIP3    H1 6107   3.607   0.596   3.000
 2058TIP3    H2 6108   3.637   0.607   2.852
 2059TIP3   OH2 6109   3.835   1.091   4.028
 2059TIP3    H1 6110   3.920   1.043   4.016
 2059TIP3    H2 6111   3.773   1.018   4.014
 2060TIP3   OH2 6112   4.297   1.089   4.043
 2060TIP3    H1 6113   4.392   1.074   4.059
 2060TIP3    H2 6114   4.278   1.018   3.979
 2061TIP3   OH2 6115   4.293   0.649   2.180
 2061TIP3    H1 6116   4.236   0.580   2.219
 2061TIP3    H2 6117   4.369   0.596   2.150
 2062TIP3   OH2 6118   4.949   0.983   3.791
 2062TIP3    H1 6119   4.942   0.913   3.860
 2062TIP3    H2 6120   5.027   1.034   3.820
 2063TIP3   OH2 6121   4.730   0.688   2.096
 2063TIP3    H1 6122   4.777   0.628   2.157
 2063TIP3    H2 6123   4.786   0.684   2.016
 2064TIP3   OH2 6124   3.960   0.521   4.214
 2064TIP3    H1 6125   3.975   0.425   4.220
 2064TIP3    H2 6126   3.875   0.523   4.165
 2065TIP3   OH2 6127   3.942   0.164   2.409
 2065TIP3    H1 6128   4.002   0.140   2.482
 2065TIP3    H2 6129   4.008   0.171   2.336
 2066TIP3   OH2 6130   4.563   0.603   3.988
 2066TIP3    H1 6131   4.527   0.626   3.900
 2066TIP3    H2 6132   4.595   0.511   3.975
 2067TIP3   OH2 6133   4.456   0.368   2.210
 2067TIP3    H1 6134   4.455   0.381   2.307
 2067TIP3    H2 6135   4.454   0.270   2.205
 2068TIP3   OH2 6136   5.062   0.618   3.597
 2068TIP3    H1 6137   5.138   0.657   3.549
 2068TIP3    H2 6138   4.992   0.683   3.575
 2069TIP3   OH2 6139   4.083   0.253   4.198
 2069TIP3    H1 6140   4.166   0.215   4.165
 2069TIP3    H2 6141   4.111   0.284   4.287
 2070TIP3   OH2 6142   4.140   0.074   2.623
 2070TIP3    H1 6143   4.122   0.037   2.711
 2070TIP3    H2 6144   4.181  -0.001   2.576
 2071TIP3   OH2 6145   4.417   0.166   3.852
 2071TIP3    H1 6146   4.334   0.218   3.845
 2071TIP3    H2 6147   4.466   0.194   3.771
 2072TIP3   OH2 6148   4.247  -0.136   2.474
 2072TIP3    H1 6149   4.220  -0.128   2.380
 2072TIP3    H2 6150   4.344  -0.131   2.465
 2073TIP3   OH2 6151   4.937   0.541   3.989
 2073TIP3    H1 6152   5.005   0.505   3.931
 2073TIP3    H2 6153   4.926   0.469   4.054
 2074TIP3   OH2 6154   5.063   0.189   2.130
 2074TIP3    H1 6155   5.045   0.151   2.042
 2074TIP3    H2 6156   5.034   0.282   2.115
 2075TIP3   OH2 6157   4.502  -0.055   3.975
 2075TIP3    H1 6158   4.455  -0.114   3.913
 2075TIP3    H2 6159   4.478   0.032   3.934
 2076TIP3   OH2 6160   4.578   0.254   3.656
 2076TIP3    H1 6161   4.661   0.263   3.607
 2076TIP3    H2 6162   4.520   0.317   3.609
 2077TIP3   OH2 6163   5.140   0.218   4.021
 2077TIP3    H1 6164   5.177   0.162   4.095
 2077TIP3    H2 6165   5.218   0.267   3.992
 2078TIP3   OH2 6166   5.192   0.468   3.779
 2078TIP3    H1 6167   5.133   0.523   3.721
 2078TIP3    H2 6168   5.278   0.492   3.739
 2079TIP3   OH2 6169   4.385   0.067   4.207
 2079TIP3    H1 6170   4.339  -0.014   4.231
 2079TIP3    H2 6171   4.447   0.036   4.139
 2080TIP3   OH2 6172   4.781  -0.001   4.015
 2080TIP3    H1 6173   4.806  -0.037   4.102
 2080TIP3    H2 6174   4.685  -0.014   4.015
 2081TIP3   OH2 6175   4.058   0.927   2.376
 2081TIP3    H1 6176   4.151   0.922   2.350
 2081TIP3    H2 6177   4.021   0.975   2.299
 2082TIP3   OH2 6178   3.535   0.306   2.591
 2082TIP3    H1 6179   3.629   0.330   2.573
 2082TIP3    H2 6180   3.528   0.221   2.544
 2083TIP3   OH2 6181   3.454   0.922   3.004
 2083TIP3    H1 6182   3.388   0.862   2.963
 2083TIP3    H2 6183   3.497   0.861   3.067
 2084TIP3   OH2 6184   3.589   0.766   3.188
 2084TIP3    H1 6185   3.570   0.700   3.256
 2084TIP3    H2 6186   3.639   0.832   3.241
 2085TIP3   OH2 6187   5.316   1.172   2.991
 2085TIP3    H1 6188   5.342   1.203   3.080
 2085TIP3    H2 6189   5.383   1.213   2.934
 2086TIP3   OH2 6190   5.345   1.195   3.272
 2086TIP3    H1 6191   5.297   1.109   3.269
 2086TIP3    H2 6192   5.418   1.169   3.330
 2087TIP3   OH2 6193   5.391   0.867   3.848
 2087TIP3    H1 6194   5.317   0.879   3.912
 2087TIP3    H2 6195   5.432   0.956   3.850
 2088TIP3   OH2 6196   5.221   0.377   2.425
 2088TIP3    H1 6197   5.290   0.435   2.457
 2088TIP3    H2 6198   5.157   0.374   2.501
 2089TIP3   OH2 6199   5.356   0.245   2.668
 2089TIP3    H1 6200   5.273   0.208   2.705
 2089TIP3    H2 6201   5.377   0.313   2.733
 2090TIP3   OH2 6202   5.394   0.648   3.105
 2090TIP3    H1 6203   5.440   0.576   3.057
 2090TIP3    H2 6204   5.377   0.712   3.034
 2091TIP3   OH2 6205   5.225   0.950   3.304
 2091TIP3    H1 6206   5.150   0.989   3.354
 2091TIP3    H2 6207   5.176   0.902   3.232
 2092TIP3   OH2 6208   5.265   0.142   2.307
 2092TIP3    H1 6209   5.192   0.159   2.242
 2092TIP3    H2 6210   5.251   0.222   2.364
 2093TIP3   OH2 6211   5.139  -0.190   2.250
 2093TIP3    H1 6212   5.118  -0.101   2.221
 2093TIP3    H2 6213   5.071  -0.242   2.204
 2094TIP3   OH2 6214   5.194   0.089   2.830
 2094TIP3    H1 6215   5.135   0.025   2.788
 2094TIP3    H2 6216   5.133   0.150   2.874
 2095TIP3   OH2 6217   3.771   0.173   3.565
 2095TIP3    H1 6218   3.768   0.147   3.470
 2095TIP3    H2 6219   3.869   0.180   3.579
 2096TIP3   OH2 6220   5.436   0.533   3.671
 2096TIP3    H1 6221   5.508   0.467   3.659
 2096TIP3    H2 6222   5.456   0.599   3.603
 2097TIP3   OH2 6223   5.616   0.330   3.686
 2097TIP3    H1 6224   5.543   0.277   3.723
 2097TIP3    H2 6225   5.691   0.270   3.705
 2098TIP3   OH2 6226   5.135  -0.149   2.667
 2098TIP3    H1 6227   5.175  -0.215   2.728
 2098TIP3    H2 6228   5.209  -0.128   2.608
 2099TIP3   OH2 6229   5.303  -0.009   3.213
 2099TIP3    H1 6230   5.385   0.017   3.167
 2099TIP3    H2 6231   5.317   0.035   3.299
 2100TIP3   OH2 6232   5.368   0.151   3.434
 2100TIP3    H1 6233   5.289   0.187   3.479
 2100TIP3    H2 6234   5.402   0.231   3.387
 2101TIP3   OH2 6235   3.991  -0.140   4.242
 2101TIP3    H1 6236   4.074  -0.159   4.197
 2101TIP3    H2 6237   3.957  -0.230   4.259
 2102TIP3   OH2 6238   3.750  -0.169   3.640
 2102TIP3    H1 6239   3.795  -0.167   3.552
 2102TIP3    H2 6240   3.774  -0.083   3.675
 2103TIP3   OH2 6241   4.904   1.031   2.650
 2103TIP3    H1 6242   4.952   1.027   2.564
 2103TIP3    H2 6243   4.951   1.102   2.696
 2104TIP3   OH2 6244   3.995   0.856   4.035
 2104TIP3    H1 6245   3.903   0.828   4.016
 2104TIP3    H2 6246   4.015   0.806   4.115
 2105TIP3   OH2 6247   4.180   0.880   3.580
 2105TIP3    H1 6248   4.130   0.954   3.539
 2105TIP3    H2 6249   4.265   0.894   3.534
 2106TIP3   OH2 6250   4.615   1.121   3.715
 2106TIP3    H1 6251   4.658   1.121   3.803
 2106TIP3    H2 6252   4.681   1.173   3.663
 2107TIP3   OH2 6253   4.796   1.275   3.578
 2107TIP3    H1 6254   4.865   1.224   3.532
 2107TIP3    H2 6255   4.850   1.330   3.638
 2108TIP3   OH2 6256   3.854   1.135   3.609
 2108TIP3    H1 6257   3.775   1.165   3.562
 2108TIP3    H2 6258   3.853   1.192   3.687
 2109TIP3   OH2 6259   4.090   1.111   3.462
 2109TIP3    H1 6260   4.004   1.124   3.508
 2109TIP3    H2 6261   4.070   1.143   3.372
 2110TIP3   OH2 6262   4.513   1.137   3.260
 2110TIP3    H1 6263   4.444   1.155   3.194
 2110TIP3    H2 6264   4.525   1.226   3.300
 2111TIP3   OH2 6265   4.784   1.078   3.315
 2111TIP3    H1 6266   4.690   1.094   3.294
 2111TIP3    H2 6267   4.827   1.150   3.266
 2112TIP3   OH2 6268   4.992   1.271   3.225
 2112TIP3    H1 6269   4.976   1.354   3.176
 2112TIP3    H2 6270   5.017   1.209   3.153
 2113TIP3   OH2 6271   3.766   0.928   3.344
 2113TIP3    H1 6272   3.788   0.894   3.434
 2113TIP3    H2 6273   3.837   0.883   3.293
 2114TIP3   OH2 6274   3.959   0.797   3.206
 2114TIP3    H1 6275   3.976   0.714   3.256
 2114TIP3    H2 6276   4.050   0.833   3.200
 2115TIP3   OH2 6277   4.226   0.891   3.210
 2115TIP3    H1 6278   4.257   0.800   3.196
 2115TIP3    H2 6279   4.273   0.913   3.292
 2116TIP3   OH2 6280   3.550   0.705   2.738
 2116TIP3    H1 6281   3.464   0.673   2.705
 2116TIP3    H2 6282   3.544   0.797   2.707
 2117TIP3   OH2 6283   4.325   0.883   2.320
 2117TIP3    H1 6284   4.413   0.907   2.282
 2117TIP3    H2 6285   4.302   0.810   2.259
 2118TIP3   OH2 6286   5.043   1.003   2.413
 2118TIP3    H1 6287   5.034   0.905   2.403
 2118TIP3    H2 6288   4.997   1.034   2.332
 2119TIP3   OH2 6289   3.626   0.716   2.370
 2119TIP3    H1 6290   3.632   0.752   2.460
 2119TIP3    H2 6291   3.716   0.678   2.357
 2120TIP3   OH2 6292   5.267   1.149   3.600
 2120TIP3    H1 6293   5.189   1.118   3.549
 2120TIP3    H2 6294   5.247   1.244   3.606
 2121TIP3   OH2 6295   6.529   0.523   2.373
 2121TIP3    H1 6296   6.502   0.614   2.350
 2121TIP3    H2 6297   6.454   0.474   2.334
 2122TIP3   OH2 6298   6.539   0.522   2.749
 2122TIP3    H1 6299   6.570   0.496   2.838
 2122TIP3    H2 6300   6.493   0.443   2.719
 2123TIP3   OH2 6301   5.834   0.417   3.108
 2123TIP3    H1 6302   5.864   0.346   3.168
 2123TIP3    H2 6303   5.915   0.469   3.099
 2124TIP3   OH2 6304   6.781   0.824   2.432
 2124TIP3    H1 6305   6.761   0.757   2.499
 2124TIP3    H2 6306   6.809   0.899   2.486
 2125TIP3   OH2 6307   5.808   0.831   2.837
 2125TIP3    H1 6308   5.801   0.733   2.837
 2125TIP3    H2 6309   5.904   0.840   2.830
 2126TIP3   OH2 6310   5.510   0.033   2.627
 2126TIP3    H1 6311   5.461   0.114   2.652
 2126TIP3    H2 6312   5.437  -0.015   2.585
 2127TIP3   OH2 6313   5.587   0.341   2.805
 2127TIP3    H1 6314   5.611   0.249   2.830
 2127TIP3    H2 6315   5.612   0.345   2.713
 2128TIP3   OH2 6316   6.434   1.290   2.449
 2128TIP3    H1 6317   6.474   1.220   2.394
 2128TIP3    H2 6318   6.417   1.242   2.531
 2129TIP3   OH2 6319   6.331   0.749   2.796
 2129TIP3    H1 6320   6.370   0.673   2.750
 2129TIP3    H2 6321   6.415   0.795   2.821
 2130TIP3   OH2 6322   6.748   0.245   2.838
 2130TIP3    H1 6323   6.765   0.157   2.872
 2130TIP3    H2 6324   6.717   0.227   2.747
 2131TIP3   OH2 6325   6.076  -0.135   2.754
 2131TIP3    H1 6326   6.048  -0.043   2.735
 2131TIP3    H2 6327   5.992  -0.182   2.750
 2132TIP3   OH2 6328   3.540   6.594   8.969
 2132TIP3    H1 6329   3.583   6.532   9.032
 2132TIP3    H2 6330   3.532   6.540   8.889
 2133TIP3   OH2 6331   5.692   0.104   2.890
 2133TIP3    H1 6332   5.785   0.112   2.923
 2133TIP3    H2 6333   5.707   0.043   2.817
 2134TIP3   OH2 6334   6.157   0.314   2.698
 2134TIP3    H1 6335   6.250   0.287   2.711
 2134TIP3    H2 6336   6.114   0.228   2.676
 2135TIP3   OH2 6337   7.383   0.260   2.978
 2135TIP3    H1 6338   7.306   0.316   2.955
 2135TIP3    H2 6339   7.439   0.320   3.028
 2136TIP3   OH2 6340   6.422   0.741   2.236
 2136TIP3    H1 6341   6.386   0.731   2.147
 2136TIP3    H2 6342   6.379   0.824   2.264
 2137TIP3   OH2 6343   6.189   0.669   3.020
 2137TIP3    H1 6344   6.127   0.735   3.057
 2137TIP3    H2 6345   6.227   0.716   2.944
 2138TIP3   OH2 6346   5.954   0.076   2.952
 2138TIP3    H1 6347   6.021   0.124   3.004
 2138TIP3    H2 6348   5.973  -0.015   2.982
 2139TIP3   OH2 6349   6.017   0.864   3.120
 2139TIP3    H1 6350   5.990   0.950   3.083
 2139TIP3    H2 6351   5.938   0.844   3.174
 2140TIP3   OH2 6352   5.430   0.563   2.356
 2140TIP3    H1 6353   5.368   0.582   2.284
 2140TIP3    H2 6354   5.452   0.653   2.388
 2141TIP3   OH2 6355   6.850   1.070   2.595
 2141TIP3    H1 6356   6.761   1.060   2.636
 2141TIP3    H2 6357   6.839   1.156   2.548
 2142TIP3   OH2 6358   6.547   1.115   2.267
 2142TIP3    H1 6359   6.596   1.031   2.249
 2142TIP3    H2 6360   6.612   1.179   2.228
 2143TIP3   OH2 6361   6.693   0.900   2.182
 2143TIP3    H1 6362   6.661   0.818   2.140
 2143TIP3    H2 6363   6.730   0.865   2.266
 2144TIP3   OH2 6364   7.077   0.979   2.939
 2144TIP3    H1 6365   7.060   0.901   2.881
 2144TIP3    H2 6366   7.055   1.053   2.879
 2145TIP3   OH2 6367   6.363   0.375   2.198
 2145TIP3    H1 6368   6.286   0.433   2.177
 2145TIP3    H2 6369   6.407   0.365   2.112
 2146TIP3   OH2 6370   7.264   0.616   2.783
 2146TIP3    H1 6371   7.181   0.668   2.786
 2146TIP3    H2 6372   7.298   0.643   2.695
 2147TIP3   OH2 6373   6.707   0.452   2.178
 2147TIP3    H1 6374   6.660   0.479   2.260
 2147TIP3    H2 6375   6.798   0.435   2.212
 2148TIP3   OH2 6376   6.944   0.498   3.084
 2148TIP3    H1 6377   6.937   0.580   3.137
 2148TIP3    H2 6378   6.856   0.498   3.040
 2149TIP3   OH2 6379   5.946   0.451   2.582
 2149TIP3    H1 6380   5.911   0.391   2.514
 2149TIP3    H2 6381   6.022   0.401   2.617
 2150TIP3   OH2 6382   6.076   0.869   2.732
 2150TIP3    H1 6383   6.053   0.832   2.646
 2150TIP3    H2 6384   6.164   0.829   2.749
 2151TIP3   OH2 6385   6.093   0.418   2.951
 2151TIP3    H1 6386   6.113   0.395   2.858
 2151TIP3    H2 6387   6.128   0.509   2.960
 2152TIP3   OH2 6388   6.611   1.063   2.719
 2152TIP3    H1 6389   6.596   1.142   2.774
 2152TIP3    H2 6390   6.592   0.989   2.780
 2153TIP3   OH2 6391   6.221   0.981   3.264
 2153TIP3    H1 6392   6.159   1.042   3.310
 2153TIP3    H2 6393   6.157   0.928   3.212
 2154TIP3   OH2 6394   6.566   0.290   2.008
 2154TIP3    H1 6395   6.623   0.347   2.065
 2154TIP3    H2 6396   6.596   0.317   1.920
 2155TIP3   OH2 6397   5.968   0.545   3.364
 2155TIP3    H1 6398   5.971   0.631   3.411
 2155TIP3    H2 6399   5.874   0.521   3.379
 2156TIP3   OH2 6400   6.300   0.989   2.272
 2156TIP3    H1 6401   6.379   1.046   2.278
 2156TIP3    H2 6402   6.238   1.045   2.223
 2157TIP3   OH2 6403   6.014   1.146   3.352
 2157TIP3    H1 6404   5.978   1.150   3.261
 2157TIP3    H2 6405   5.934   1.125   3.405
 2158TIP3   OH2 6406   5.818   0.292   2.371
 2158TIP3    H1 6407   5.746   0.340   2.325
 2158TIP3    H2 6408   5.768   0.222   2.415
 2159TIP3   OH2 6409   6.800   0.942   1.645
 2159TIP3    H1 6410   6.839   1.029   1.621
 2159TIP3    H2 6411   6.874   0.882   1.628
 2160TIP3   OH2 6412   5.593   0.682   3.297
 2160TIP3    H1 6413   5.523   0.667   3.230
 2160TIP3    H2 6414   5.629   0.592   3.311
 2161TIP3   OH2 6415   5.446   0.880   2.920
 2161TIP3    H1 6416   5.542   0.868   2.919
 2161TIP3    H2 6417   5.436   0.954   2.981
 2162TIP3   OH2 6418   7.310   1.331   2.985
 2162TIP3    H1 6419   7.310   1.234   2.998
 2162TIP3    H2 6420   7.227   1.355   3.031
 2163TIP3   OH2 6421   6.416   1.109   3.122
 2163TIP3    H1 6422   6.413   1.202   3.154
 2163TIP3    H2 6423   6.344   1.069   3.175
 2164TIP3   OH2 6424   6.183   1.238   2.073
 2164TIP3    H1 6425   6.136   1.221   1.989
 2164TIP3    H2 6426   6.149   1.325   2.100
 2165TIP3   OH2 6427   5.616   1.088   2.459
 2165TIP3    H1 6428   5.662   1.078   2.546
 2165TIP3    H2 6429   5.568   1.004   2.454
 2166TIP3   OH2 6430   6.380   1.149   1.713
 2166TIP3    H1 6431   6.435   1.074   1.684
 2166TIP3    H2 6432   6.411   1.160   1.806
 2167TIP3   OH2 6433   6.432   1.190   1.981
 2167TIP3    H1 6434   6.342   1.200   2.019
 2167TIP3    H2 6435   6.479   1.149   2.055
 2168TIP3   OH2 6436   7.200   0.442   3.259
 2168TIP3    H1 6437   7.119   0.476   3.219
 2168TIP3    H2 6438   7.180   0.347   3.257
 2169TIP3   OH2 6439   5.797   0.864   3.283
 2169TIP3    H1 6440   5.845   0.847   3.366
 2169TIP3    H2 6441   5.723   0.801   3.289
 2170TIP3   OH2 6442   6.995   0.248   3.210
 2170TIP3    H1 6443   6.938   0.258   3.287
 2170TIP3    H2 6444   6.961   0.316   3.149
 2171TIP3   OH2 6445   6.149   0.206   3.109
 2171TIP3    H1 6446   6.086   0.225   3.181
 2171TIP3    H2 6447   6.138   0.285   3.052
 2172TIP3   OH2 6448   6.011   0.097   2.611
 2172TIP3    H1 6449   5.919   0.069   2.628
 2172TIP3    H2 6450   6.025   0.064   2.520
 2173TIP3   OH2 6451   6.506   0.184   2.322
 2173TIP3    H1 6452   6.442   0.252   2.291
 2173TIP3    H2 6453   6.575   0.193   2.256
 2174TIP3   OH2 6454   6.687   0.483   3.404
 2174TIP3    H1 6455   6.661   0.402   3.454
 2174TIP3    H2 6456   6.782   0.488   3.427
 2175TIP3   OH2 6457   6.657   0.214   2.580
 2175TIP3    H1 6458   6.591   0.242   2.515
 2175TIP3    H2 6459   6.708   0.150   2.525
 2176TIP3   OH2 6460   5.948   0.236   3.297
 2176TIP3    H1 6461   5.961   0.299   3.369
 2176TIP3    H2 6462   5.928   0.153   3.343
 2177TIP3   OH2 6463   5.578  -0.167   2.424
 2177TIP3    H1 6464   5.590  -0.146   2.330
 2177TIP3    H2 6465   5.489  -0.129   2.440
 2178TIP3   OH2 6466   6.670   0.451   2.991
 2178TIP3    H1 6467   6.705   0.380   2.932
 2178TIP3    H2 6468   6.646   0.397   3.069
 2179TIP3   OH2 6469   5.766  -0.035   2.651
 2179TIP3    H1 6470   5.675   0.002   2.637
 2179TIP3    H2 6471   5.752  -0.121   2.609
 2180TIP3   OH2 6472   6.049  -0.014   2.359
 2180TIP3    H1 6473   6.130  -0.050   2.318
 2180TIP3    H2 6474   5.987  -0.028   2.286
 2181TIP3   OH2 6475   5.856  -0.048   2.131
 2181TIP3    H1 6476   5.757  -0.052   2.137
 2181TIP3    H2 6477   5.867   0.030   2.076
 2182TIP3   OH2 6478   7.006   1.675   3.086
 2182TIP3    H1 6479   7.003   1.698   2.991
 2182TIP3    H2 6480   7.084   1.725   3.116
 2183TIP3   OH2 6481   5.959   0.787   3.507
 2183TIP3    H1 6482   6.039   0.816   3.555
 2183TIP3    H2 6483   5.894   0.786   3.580
 2184TIP3   OH2 6484   6.414   0.238   2.757
 2184TIP3    H1 6485   6.500   0.203   2.727
 2184TIP3    H2 6486   6.414   0.210   2.851
 2185TIP3   OH2 6487   6.421   0.177   3.019
 2185TIP3    H1 6488   6.332   0.163   3.058
 2185TIP3    H2 6489   6.470   0.216   3.094
 2186TIP3   OH2 6490   6.135   0.522   2.148
 2186TIP3    H1 6491   6.056   0.467   2.134
 2186TIP3    H2 6492   6.116   0.559   2.238
 2187TIP3   OH2 6493   7.032   0.762   2.774
 2187TIP3    H1 6494   7.053   0.813   2.694
 2187TIP3    H2 6495   6.948   0.718   2.749
 2188TIP3   OH2 6496   6.543   0.851   3.141
 2188TIP3    H1 6497   6.557   0.822   3.231
 2188TIP3    H2 6498   6.496   0.936   3.152
 2189TIP3   OH2 6499   5.843   0.560   2.822
 2189TIP3    H1 6500   5.869   0.522   2.736
 2189TIP3    H2 6501   5.856   0.486   2.882
 2190TIP3   OH2 6502   6.286   0.683   1.987
 2190TIP3    H1 6503   6.236   0.769   1.987
 2190TIP3    H2 6504   6.229   0.629   2.046
 2191TIP3   OH2 6505   5.711   0.464   3.435
 2191TIP3    H1 6506   5.722   0.448   3.531
 2191TIP3    H2 6507   5.635   0.407   3.413
 2192TIP3   OH2 6508   6.435   0.589   3.458
 2192TIP3    H1 6509   6.371   0.533   3.409
 2192TIP3    H2 6510   6.521   0.557   3.423
 2193TIP3   OH2 6511   6.695   1.111   3.037
 2193TIP3    H1 6512   6.599   1.102   3.053
 2193TIP3    H2 6513   6.722   1.160   3.117
 2194TIP3   OH2 6514   7.327   1.041   3.024
 2194TIP3    H1 6515   7.229   1.032   3.016
 2194TIP3    H2 6516   7.354   1.011   2.935
 2195TIP3   OH2 6517   6.794   1.009   1.915
 2195TIP3    H1 6518   6.779   0.947   1.988
 2195TIP3    H2 6519   6.788   0.953   1.836
 2196TIP3   OH2 6520   6.800   0.627   2.691
 2196TIP3    H1 6521   6.707   0.602   2.706
 2196TIP3    H2 6522   6.834   0.546   2.647
 2197TIP3   OH2 6523   5.931   0.855   2.447
 2197TIP3    H1 6524   5.925   0.935   2.392
 2197TIP3    H2 6525   5.838   0.833   2.459
 2198TIP3   OH2 6526   5.497   0.162   2.163
 2198TIP3    H1 6527   5.535   0.251   2.183
 2198TIP3    H2 6528   5.416   0.165   2.220
 2199TIP3   OH2 6529   6.061   0.617   2.387
 2199TIP3    H1 6530   6.029   0.707   2.407
 2199TIP3    H2 6531   6.027   0.567   2.464
 2200TIP3   OH2 6532   6.200   1.197   2.915
 2200TIP3    H1 6533   6.243   1.269   2.865
 2200TIP3    H2 6534   6.276   1.158   2.962
 2201TIP3   OH2 6535   5.849   1.092   2.301
 2201TIP3    H1 6536   5.763   1.103   2.346
 2201TIP3    H2 6537   5.881   1.185   2.301
 2202TIP3   OH2 6538   6.585   0.829   2.874
 2202TIP3    H1 6539   6.575   0.831   2.972
 2202TIP3    H2 6540   6.662   0.772   2.864
 2203TIP3   OH2 6541   6.535   0.712   1.799
 2203TIP3    H1 6542   6.575   0.716   1.888
 2203TIP3    H2 6543   6.441   0.715   1.821
 2204TIP3   OH2 6544   6.836   1.362   2.924
 2204TIP3    H1 6545   6.756   1.305   2.921
 2204TIP3    H2 6546   6.816   1.425   2.851
 2205TIP3   OH2 6547   6.893   1.192   1.576
 2205TIP3    H1 6548   6.928   1.260   1.517
 2205TIP3    H2 6549   6.816   1.242   1.612
 2206TIP3   OH2 6550   6.697   0.675   2.015
 2206TIP3    H1 6551   6.692   0.596   2.073
 2206TIP3    H2 6552   6.794   0.685   2.008
 2207TIP3   OH2 6553   5.637   1.056   3.073
 2207TIP3    H1 6554   5.691   0.982   3.105
 2207TIP3    H2 6555   5.664   1.126   3.134
 2208TIP3   OH2 6556   5.945   0.708   1.761
 2208TIP3    H1 6557   5.932   0.622   1.718
 2208TIP3    H2 6558   5.910   0.691   1.851
 2209TIP3   OH2 6559   5.876   0.702   2.031
 2209TIP3    H1 6560   5.942   0.688   2.099
 2209TIP3    H2 6561   5.870   0.800   2.030
 2210TIP3   OH2 6562   5.611   0.405   2.234
 2210TIP3    H1 6563   5.546   0.452   2.291
 2210TIP3    H2 6564   5.617   0.472   2.162
 2211TIP3   OH2 6565   6.143   0.909   1.983
 2211TIP3    H1 6566   6.054   0.929   2.018
 2211TIP3    H2 6567   6.146   0.970   1.908
 2212TIP3   OH2 6568   6.394  -0.032   2.441
 2212TIP3    H1 6569   6.424   0.048   2.393
 2212TIP3    H2 6570   6.332   0.004   2.505
 2213TIP3   OH2 6571   6.615   0.290   3.204
 2213TIP3    H1 6572   6.606   0.354   3.277
 2213TIP3    H2 6573   6.650   0.214   3.251
 2214TIP3   OH2 6574   5.886   0.972   2.050
 2214TIP3    H1 6575   5.858   1.039   1.983
 2214TIP3    H2 6576   5.867   1.020   2.133
 2215TIP3   OH2 6577   6.886   0.386   2.574
 2215TIP3    H1 6578   6.809   0.328   2.590
 2215TIP3    H2 6579   6.958   0.337   2.621
 2216TIP3   OH2 6580   5.594   0.610   2.041
 2216TIP3    H1 6581   5.654   0.686   2.040
 2216TIP3    H2 6582   5.638   0.553   1.974
 2217TIP3   OH2 6583   5.588  -0.090   2.158
 2217TIP3    H1 6584   5.546  -0.000   2.160
 2217TIP3    H2 6585   5.516  -0.147   2.129
 2218TIP3   OH2 6586   6.855   1.341   2.518
 2218TIP3    H1 6587   6.811   1.389   2.443
 2218TIP3    H2 6588   6.949   1.360   2.496
 2219TIP3   OH2 6589   5.472   0.832   2.425
 2219TIP3    H1 6590   5.407   0.858   2.491
 2219TIP3    H2 6591   5.434   0.871   2.343
 2220TIP3   OH2 6592   5.629   1.372   3.496
 2220TIP3    H1 6593   5.715   1.371   3.543
 2220TIP3    H2 6594   5.607   1.277   3.496
 2221TIP3   OH2 6595   6.106   1.328   3.542
 2221TIP3    H1 6596   6.201   1.309   3.546
 2221TIP3    H2 6597   6.079   1.267   3.470
 2222TIP3   OH2 6598   6.087   0.924   1.685
 2222TIP3    H1 6599   6.036   0.845   1.717
 2222TIP3    H2 6600   6.154   0.882   1.628
 2223TIP3   OH2 6601   6.748   1.238   3.275
 2223TIP3    H1 6602   6.739   1.169   3.344
 2223TIP3    H2 6603   6.824   1.290   3.308
 2224TIP3   OH2 6604   6.534   0.958   1.587
 2224TIP3    H1 6605   6.607   0.927   1.644
 2224TIP3    H2 6606   6.583   1.021   1.531
 2225TIP3   OH2 6607   5.757   0.773   3.697
 2225TIP3    H1 6608   5.771   0.677   3.703
 2225TIP3    H2 6609   5.670   0.778   3.651
 2226TIP3   OH2 6610   5.729   0.418   1.906
 2226TIP3    H1 6611   5.791   0.404   1.979
 2226TIP3    H2 6612   5.791   0.427   1.830
 2227TIP3   OH2 6613   6.365   0.862   3.471
 2227TIP3    H1 6614   6.321   0.880   3.386
 2227TIP3    H2 6615   6.392   0.769   3.463
 2228TIP3   OH2 6616   6.259   0.633   1.711
 2228TIP3    H1 6617   6.245   0.640   1.806
 2228TIP3    H2 6618   6.182   0.580   1.680
 2229TIP3   OH2 6619   6.858   0.870   3.080
 2229TIP3    H1 6620   6.931   0.918   3.035
 2229TIP3    H2 6621   6.784   0.932   3.065
 2230TIP3   OH2 6622   5.882   0.509   3.683
 2230TIP3    H1 6623   5.964   0.465   3.657
 2230TIP3    H2 6624   5.906   0.544   3.771
 2231TIP3   OH2 6625   5.937   0.327   2.119
 2231TIP3    H1 6626   5.906   0.312   2.211
 2231TIP3    H2 6627   5.999   0.254   2.107
 2232TIP3   OH2 6628   6.214   0.427   3.343
 2232TIP3    H1 6629   6.128   0.474   3.336
 2232TIP3    H2 6630   6.259   0.452   3.259
 2233TIP3   OH2 6631   6.736   0.799   3.477
 2233TIP3    H1 6632   6.801   0.756   3.419
 2233TIP3    H2 6633   6.718   0.729   3.542
 2234TIP3   OH2 6634   6.298   0.201   3.461
 2234TIP3    H1 6635   6.246   0.143   3.402
 2234TIP3    H2 6636   6.272   0.289   3.422
 2235TIP3   OH2 6637   6.376   0.512   3.145
 2235TIP3    H1 6638   6.455   0.516   3.089
 2235TIP3    H2 6639   6.315   0.573   3.098
 2236TIP3   OH2 6640   6.939   0.472   3.505
 2236TIP3    H1 6641   6.970   0.414   3.581
 2236TIP3    H2 6642   7.017   0.523   3.485
 2237TIP3   OH2 6643   6.990   0.726   3.265
 2237TIP3    H1 6644   6.930   0.779   3.207
 2237TIP3    H2 6645   7.076   0.749   3.224
 2238TIP3   OH2 6646   6.179   0.325   3.693
 2238TIP3    H1 6647   6.138   0.246   3.730
 2238TIP3    H2 6648   6.238   0.287   3.625
 2239TIP3   OH2 6649   6.576   0.256   3.495
 2239TIP3    H1 6650   6.601   0.223   3.584
 2239TIP3    H2 6651   6.480   0.242   3.497
 2240TIP3   OH2 6652   5.833   1.169   1.871
 2240TIP3    H1 6653   5.906   1.201   1.817
 2240TIP3    H2 6654   5.761   1.231   1.846
 2241TIP3   OH2 6655   5.326   0.573   2.076
 2241TIP3    H1 6656   5.422   0.593   2.063
 2241TIP3    H2 6657   5.321   0.483   2.036
 2242TIP3   OH2 6658   5.247   1.179   2.492
 2242TIP3    H1 6659   5.183   1.117   2.451
 2242TIP3    H2 6660   5.291   1.119   2.556
 2243TIP3   OH2 6661   5.380   1.026   2.678
 2243TIP3    H1 6662   5.371   0.954   2.743
 2243TIP3    H2 6663   5.433   1.088   2.730
 2244TIP3   OH2 6664   7.111   1.424   2.479
 2244TIP3    H1 6665   7.140   1.466   2.562
 2244TIP3    H2 6666   7.175   1.459   2.415
 2245TIP3   OH2 6667   7.138   1.450   2.763
 2245TIP3    H1 6668   7.089   1.365   2.754
 2245TIP3    H2 6669   7.213   1.420   2.816
 2246TIP3   OH2 6670   7.186   1.124   3.334
 2246TIP3    H1 6671   7.112   1.133   3.398
 2246TIP3    H2 6672   7.224   1.214   3.336
 2247TIP3   OH2 6673   6.963   0.689   1.992
 2247TIP3    H1 6674   7.022   0.765   1.972
 2247TIP3    H2 6675   7.025   0.634   2.044
 2248TIP3   OH2 6676   7.120   0.524   2.154
 2248TIP3    H1 6677   7.054   0.465   2.195
 2248TIP3    H2 6678   7.179   0.543   2.228
 2249TIP3   OH2 6679   7.189   0.901   2.590
 2249TIP3    H1 6680   7.226   0.836   2.528
 2249TIP3    H2 6681   7.181   0.979   2.532
 2250TIP3   OH2 6682   7.013   1.199   2.781
 2250TIP3    H1 6683   6.941   1.242   2.832
 2250TIP3    H2 6684   6.963   1.154   2.709
 2251TIP3   OH2 6685   6.945   0.370   2.306
 2251TIP3    H1 6686   6.951   0.274   2.307
 2251TIP3    H2 6687   6.926   0.389   2.401
 2252TIP3   OH2 6688   5.567   0.434   3.056
 2252TIP3    H1 6689   5.566   0.406   2.962
 2252TIP3    H2 6690   5.665   0.436   3.070
 2253TIP3   OH2 6691   7.236   0.789   3.157
 2253TIP3    H1 6692   7.308   0.723   3.147
 2253TIP3    H2 6693   7.256   0.853   3.087
 2254TIP3   OH2 6694   7.417   0.587   3.178
 2254TIP3    H1 6695   7.339   0.535   3.210
 2254TIP3    H2 6696   7.488   0.521   3.196
 2255TIP3   OH2 6697   7.100   0.261   2.695
 2255TIP3    H1 6698   7.183   0.287   2.651
 2255TIP3    H2 6699   7.116   0.295   2.785
 2256TIP3   OH2 6700   7.161   0.406   2.925
 2256TIP3    H1 6701   7.083   0.440   2.974
 2256TIP3    H2 6702   7.192   0.486   2.878
 2257TIP3   OH2 6703   5.784   0.118   3.727
 2257TIP3    H1 6704   5.873   0.090   3.701
 2257TIP3    H2 6705   5.747   0.034   3.759
 2258TIP3   OH2 6706   5.547   0.087   3.129
 2258TIP3    H1 6707   5.588   0.089   3.039
 2258TIP3    H2 6708   5.567   0.175   3.160
 2259TIP3   OH2 6709   6.698   1.298   2.136
 2259TIP3    H1 6710   6.745   1.287   2.051
 2259TIP3    H2 6711   6.751   1.365   2.179
 2260TIP3   OH2 6712   5.794   1.102   3.517
 2260TIP3    H1 6713   5.701   1.078   3.500
 2260TIP3    H2 6714   5.803   1.081   3.611
 2261TIP3   OH2 6715   5.974   1.136   3.066
 2261TIP3    H1 6716   5.925   1.211   3.026
 2261TIP3    H2 6717   6.060   1.150   3.021
 2262TIP3   OH2 6718   6.414   1.376   3.202
 2262TIP3    H1 6719   6.455   1.375   3.291
 2262TIP3    H2 6720   6.480   1.429   3.152
 2263TIP3   OH2 6721   6.593   1.533   3.064
 2263TIP3    H1 6722   6.660   1.480   3.019
 2263TIP3    H2 6723   6.649   1.586   3.125
 2264TIP3   OH2 6724   5.649   1.393   3.088
 2264TIP3    H1 6725   5.558   1.424   3.065
 2264TIP3    H2 6726   5.658   1.429   3.176
 2265TIP3   OH2 6727   5.886   1.371   2.949
 2265TIP3    H1 6728   5.799   1.383   2.992
 2265TIP3    H2 6729   5.866   1.400   2.858
 2266TIP3   OH2 6730   6.310   1.396   2.747
 2266TIP3    H1 6731   6.240   1.409   2.680
 2266TIP3    H2 6732   6.318   1.486   2.784
 2267TIP3   OH2 6733   6.579   1.336   2.801
 2267TIP3    H1 6734   6.485   1.352   2.779
 2267TIP3    H2 6735   6.624   1.405   2.749
 2268TIP3   OH2 6736   6.787   1.527   2.709
 2268TIP3    H1 6737   6.771   1.610   2.659
 2268TIP3    H2 6738   6.813   1.466   2.637
 2269TIP3   OH2 6739   5.560   1.184   2.834
 2269TIP3    H1 6740   5.587   1.154   2.924
 2269TIP3    H2 6741   5.630   1.139   2.782
 2270TIP3   OH2 6742   5.754   1.056   2.693
 2270TIP3    H1 6743   5.768   0.972   2.743
 2270TIP3    H2 6744   5.846   1.090   2.687
 2271TIP3   OH2 6745   6.023   1.148   2.696
 2271TIP3    H1 6746   6.052   1.056   2.684
 2271TIP3    H2 6747   6.070   1.168   2.780
 2272TIP3   OH2 6748   5.344   0.958   2.226
 2272TIP3    H1 6749   5.262   0.921   2.190
 2272TIP3    H2 6750   5.334   1.050   2.196
 2273TIP3   OH2 6751   6.122   1.161   1.808
 2273TIP3    H1 6752   6.211   1.173   1.769
 2273TIP3    H2 6753   6.092   1.083   1.756
 2274TIP3   OH2 6754   6.842   1.272   1.902
 2274TIP3    H1 6755   6.830   1.174   1.906
 2274TIP3    H2 6756   6.792   1.295   1.821
 2275TIP3   OH2 6757   5.418   0.974   1.865
 2275TIP3    H1 6758   5.440   1.009   1.953
 2275TIP3    H2 6759   5.502   0.930   1.841
 2276TIP3   OH2 6760   7.064   1.405   3.086
 2276TIP3    H1 6761   6.986   1.374   3.035
 2276TIP3    H2 6762   7.043   1.500   3.093
 2277TIP3   OH2 6763   7.587   1.048   2.374
 2277TIP3    H1 6764   7.547   1.001   2.300
 2277TIP3    H2 6765   7.678   1.060   2.340
 2278TIP3   OH2 6766   7.386   0.571   2.283
 2278TIP3    H1 6767   7.430   0.486   2.273
 2278TIP3    H2 6768   7.385   0.604   2.192
 2279TIP3   OH2 6769   7.168   0.856   1.945
 2279TIP3    H1 6770   7.214   0.809   1.872
 2279TIP3    H2 6771   7.214   0.942   1.944
 2280TIP3   OH2 6772   7.396   0.945   2.780
 2280TIP3    H1 6773   7.322   0.922   2.719
 2280TIP3    H2 6774   7.425   0.857   2.814
 2281TIP3   OH2 6775   7.246   1.130   2.421
 2281TIP3    H1 6776   7.343   1.138   2.421
 2281TIP3    H2 6777   7.221   1.210   2.470
 2282TIP3   OH2 6778   7.391   1.354   1.944
 2282TIP3    H1 6779   7.464   1.357   2.007
 2282TIP3    H2 6780   7.364   1.259   1.950
 2283TIP3   OH2 6781   7.610   1.120   2.756
 2283TIP3    H1 6782   7.653   1.111   2.842
 2283TIP3    H2 6783   7.532   1.061   2.765
 2284TIP3   OH2 6784   7.764   1.086   3.003
 2284TIP3    H1 6785   7.826   1.014   3.027
 2284TIP3    H2 6786   7.692   1.070   3.066
 2285TIP3   OH2 6787   7.487   0.733   2.924
 2285TIP3    H1 6788   7.523   0.715   3.013
 2285TIP3    H2 6789   7.426   0.658   2.911
 2286TIP3   OH2 6790   7.434   1.311   2.560
 2286TIP3    H1 6791   7.492   1.241   2.595
 2286TIP3    H2 6792   7.456   1.386   2.616
 2287TIP3   OH2 6793   7.266   1.107   1.918
 2287TIP3    H1 6794   7.193   1.140   1.971
 2287TIP3    H2 6795   7.239   1.137   1.828
 2288TIP3   OH2 6796   7.424   1.621   2.985
 2288TIP3    H1 6797   7.511   1.601   3.024
 2288TIP3    H2 6798   7.387   1.531   2.977
 2289TIP3   OH2 6799   7.554   1.031   3.179
 2289TIP3    H1 6800   7.573   0.935   3.183
 2289TIP3    H2 6801   7.467   1.031   3.134
 2290TIP3   OH2 6802   7.676   0.777   3.162
 2290TIP3    H1 6803   7.723   0.694   3.155
 2290TIP3    H2 6804   7.701   0.805   3.253
 2291TIP3   OH2 6805   7.047   1.440   1.977
 2291TIP3    H1 6806   6.980   1.379   1.939
 2291TIP3    H2 6807   7.091   1.381   2.041
 2292TIP3   OH2 6808   7.168   1.284   2.168
 2292TIP3    H1 6809   7.164   1.211   2.231
 2292TIP3    H2 6810   7.229   1.345   2.214
 2293TIP3   OH2 6811   7.377   0.681   2.536
 2293TIP3    H1 6812   7.367   0.642   2.446
 2293TIP3    H2 6813   7.465   0.721   2.529
 2294TIP3   OH2 6814   7.583   0.375   3.216
 2294TIP3    H1 6815   7.675   0.347   3.211
 2294TIP3    H2 6816   7.541   0.292   3.246
 2295TIP3   OH2 6817   7.344   0.347   2.594
 2295TIP3    H1 6818   7.424   0.328   2.544
 2295TIP3    H2 6819   7.365   0.430   2.638
 2296TIP3   OH2 6820   7.586   1.362   3.037
 2296TIP3    H1 6821   7.502   1.339   2.995
 2296TIP3    H2 6822   7.576   1.321   3.124
 2297TIP3   OH2 6823   7.438   1.637   2.594
 2297TIP3    H1 6824   7.355   1.666   2.551
 2297TIP3    H2 6825   7.437   1.697   2.670
 2298TIP3   OH2 6826   7.705   1.628   2.486
 2298TIP3    H1 6827   7.609   1.632   2.505
 2298TIP3    H2 6828   7.700   1.654   2.391
 2299TIP3   OH2 6829   7.349   1.442   2.325
 2299TIP3    H1 6830   7.379   1.414   2.413
 2299TIP3    H2 6831   7.420   1.401   2.270
 2300TIP3   OH2 6832   7.537   1.306   2.184
 2300TIP3    H1 6833   7.543   1.211   2.200
 2300TIP3    H2 6834   7.628   1.325   2.151
 2301TIP3   OH2 6835   7.147   1.212   1.697
 2301TIP3    H1 6836   7.059   1.178   1.674
 2301TIP3    H2 6837   7.131   1.308   1.689
 2302TIP3   OH2 6838   7.211   1.267   1.375
 2302TIP3    H1 6839   7.198   1.282   1.469
 2302TIP3    H2 6840   7.272   1.190   1.372
 2303TIP3   OH2 6841   0.779   1.578   3.540
 2303TIP3    H1 6842   0.752   1.668   3.515
 2303TIP3    H2 6843   0.695   1.541   3.573
 2304TIP3   OH2 6844   0.782   1.567   3.928
 2304TIP3    H1 6845   0.819   1.547   4.016
 2304TIP3    H2 6846   0.748   1.479   3.902
 2305TIP3   OH2 6847   0.087   1.462   4.294
 2305TIP3    H1 6848   0.124   1.395   4.356
 2305TIP3    H2 6849   0.165   1.518   4.281
 2306TIP3   OH2 6850   1.027   1.865   3.611
 2306TIP3    H1 6851   1.016   1.799   3.681
 2306TIP3    H2 6852   1.061   1.942   3.661
 2307TIP3   OH2 6853   0.058   1.867   4.013
 2307TIP3    H1 6854   0.051   1.769   4.015
 2307TIP3    H2 6855   0.154   1.877   4.004
 2308TIP3   OH2 6856   0.676   2.331   3.626
 2308TIP3    H1 6857   0.718   2.262   3.571
 2308TIP3    H2 6858   0.675   2.289   3.713
 2309TIP3   OH2 6859   0.581   1.793   3.974
 2309TIP3    H1 6860   0.624   1.716   3.933
 2309TIP3    H2 6861   0.663   1.842   3.999
 2310TIP3   OH2 6862   1.601   1.110   3.971
 2310TIP3    H1 6863   1.628   1.196   4.010
 2310TIP3    H2 6864   1.621   1.125   3.877
 2311TIP3   OH2 6865   0.998   1.294   4.003
 2311TIP3    H1 6866   1.039   1.208   4.022
 2311TIP3    H2 6867   0.959   1.277   3.915
 2312TIP3   OH2 6868   1.020   1.058   3.604
 2312TIP3    H1 6869   1.098   1.036   3.661
 2312TIP3    H2 6870   1.062   1.056   3.517
 2313TIP3   OH2 6871   0.412   1.345   3.867
 2313TIP3    H1 6872   0.509   1.346   3.885
 2313TIP3    H2 6873   0.400   1.250   3.858
 2314TIP3   OH2 6874   1.672   1.321   4.142
 2314TIP3    H1 6875   1.587   1.366   4.122
 2314TIP3    H2 6876   1.692   1.358   4.230
 2315TIP3   OH2 6877   0.355   0.931   4.397
 2315TIP3    H1 6878   0.296   0.971   4.329
 2315TIP3    H2 6879   0.294   0.925   4.473
 2316TIP3   OH2 6880   0.671   1.793   3.403
 2316TIP3    H1 6881   0.634   1.783   3.313
 2316TIP3    H2 6882   0.627   1.875   3.432
 2317TIP3   OH2 6883   0.434   1.713   4.194
 2317TIP3    H1 6884   0.376   1.783   4.232
 2317TIP3    H2 6885   0.479   1.762   4.122
 2318TIP3   OH2 6886   1.236   1.049   3.770
 2318TIP3    H1 6887   1.223   1.000   3.852
 2318TIP3    H2 6888   1.288   1.126   3.798
 2319TIP3   OH2 6889   0.204   1.040   4.201
 2319TIP3    H1 6890   0.259   1.121   4.206
 2319TIP3    H2 6891   0.223   1.008   4.112
 2320TIP3   OH2 6892   0.262   1.910   4.298
 2320TIP3    H1 6893   0.239   1.997   4.260
 2320TIP3    H2 6894   0.182   1.895   4.353
 2321TIP3   OH2 6895   1.093   2.113   3.769
 2321TIP3    H1 6896   1.003   2.105   3.808
 2321TIP3    H2 6897   1.087   2.200   3.725
 2322TIP3   OH2 6898   1.389   1.011   4.137
 2322TIP3    H1 6899   1.301   1.035   4.103
 2322TIP3    H2 6900   1.449   1.044   4.066
 2323TIP3   OH2 6901   0.703   0.672   4.126
 2323TIP3    H1 6902   0.672   0.581   4.115
 2323TIP3    H2 6903   0.620   0.715   4.155
 2324TIP3   OH2 6904   0.792   2.163   3.444
 2324TIP3    H1 6905   0.845   2.081   3.429
 2324TIP3    H2 6906   0.855   2.229   3.405
 2325TIP3   OH2 6907   0.940   1.955   3.368
 2325TIP3    H1 6908   0.912   1.879   3.316
 2325TIP3    H2 6909   0.976   1.912   3.449
 2326TIP3   OH2 6910   1.321   2.022   4.117
 2326TIP3    H1 6911   1.310   1.946   4.056
 2326TIP3    H2 6912   1.304   2.098   4.057
 2327TIP3   OH2 6913   1.516   1.662   3.961
 2327TIP3    H1 6914   1.433   1.714   3.965
 2327TIP3    H2 6915   1.548   1.687   3.872
 2328TIP3   OH2 6916   0.977   1.524   3.360
 2328TIP3    H1 6917   0.900   1.538   3.422
 2328TIP3    H2 6918   1.039   1.481   3.423
 2329TIP3   OH2 6919   1.196   1.538   4.262
 2329TIP3    H1 6920   1.194   1.621   4.312
 2329TIP3    H2 6921   1.110   1.542   4.216
 2330TIP3   OH2 6922   0.192   1.490   3.761
 2330TIP3    H1 6923   0.174   1.446   3.676
 2330TIP3    H2 6924   0.272   1.443   3.792
 2331TIP3   OH2 6925   0.323   1.904   3.910
 2331TIP3    H1 6926   0.311   1.871   3.820
 2331TIP3    H2 6927   0.413   1.870   3.931
 2332TIP3   OH2 6928   0.324   1.476   4.110
 2332TIP3    H1 6929   0.366   1.452   4.025
 2332TIP3    H2 6930   0.372   1.559   4.134
 2333TIP3   OH2 6931   0.852   2.108   3.892
 2333TIP3    H1 6932   0.843   2.189   3.946
 2333TIP3    H2 6933   0.839   2.036   3.957
 2334TIP3   OH2 6934   0.470   2.028   4.440
 2334TIP3    H1 6935   0.408   2.088   4.487
 2334TIP3    H2 6936   0.407   1.973   4.390
 2335TIP3   OH2 6937   0.242   1.592   4.532
 2335TIP3    H1 6938   0.237   1.678   4.578
 2335TIP3    H2 6939   0.151   1.558   4.544
 2336TIP3   OH2 6940   0.546   2.040   3.439
 2336TIP3    H1 6941   0.630   2.087   3.452
 2336TIP3    H2 6942   0.487   2.112   3.413
 2337TIP3   OH2 6943   0.260   2.193   4.529
 2337TIP3    H1 6944   0.229   2.198   4.436
 2337TIP3    H2 6945   0.176   2.178   4.577
 2338TIP3   OH2 6946   1.126   1.972   2.773
 2338TIP3    H1 6947   1.132   2.068   2.752
 2338TIP3    H2 6948   1.219   1.945   2.756
 2339TIP3   OH2 6949  -0.133   1.714   4.466
 2339TIP3    H1 6950  -0.206   1.696   4.405
 2339TIP3    H2 6951  -0.119   1.627   4.505
 2340TIP3   OH2 6952  -0.294   1.939   4.086
 2340TIP3    H1 6953  -0.208   1.897   4.077
 2340TIP3    H2 6954  -0.278   1.999   4.161
 2341TIP3   OH2 6955   1.560   2.371   4.166
 2341TIP3    H1 6956   1.558   2.275   4.181
 2341TIP3    H2 6957   1.476   2.397   4.211
 2342TIP3   OH2 6958   0.665   2.156   4.297
 2342TIP3    H1 6959   0.662   2.248   4.330
 2342TIP3    H2 6960   0.595   2.114   4.351
 2343TIP3   OH2 6961   0.430   2.278   3.262
 2343TIP3    H1 6962   0.392   2.265   3.173
 2343TIP3    H2 6963   0.398   2.368   3.285
 2344TIP3   OH2 6964  -0.137   2.142   3.628
 2344TIP3    H1 6965  -0.101   2.115   3.715
 2344TIP3    H2 6966  -0.187   2.062   3.600
 2345TIP3   OH2 6967   0.629   2.174   2.897
 2345TIP3    H1 6968   0.695   2.112   2.862
 2345TIP3    H2 6969   0.665   2.193   2.986
 2346TIP3   OH2 6970   0.680   2.236   3.161
 2346TIP3    H1 6971   0.593   2.243   3.206
 2346TIP3    H2 6972   0.735   2.203   3.234
 2347TIP3   OH2 6973   1.447   1.497   4.440
 2347TIP3    H1 6974   1.365   1.507   4.390
 2347TIP3    H2 6975   1.464   1.401   4.430
 2348TIP3   OH2 6976   0.044   1.919   4.472
 2348TIP3    H1 6977   0.102   1.888   4.544
 2348TIP3    H2 6978  -0.024   1.847   4.470
 2349TIP3   OH2 6979   0.451   0.753   4.205
 2349TIP3    H1 6980   0.372   0.695   4.202
 2349TIP3    H2 6981   0.427   0.814   4.277
 2350TIP3   OH2 6982   1.018   0.850   4.428
 2350TIP3    H1 6983   1.082   0.818   4.496
 2350TIP3    H2 6984   0.932   0.835   4.471
 2351TIP3   OH2 6985   1.215   1.275   4.360
 2351TIP3    H1 6986   1.165   1.273   4.445
 2351TIP3    H2 6987   1.194   1.363   4.325
 2352TIP3   OH2 6988   0.377   1.251   4.255
 2352TIP3    H1 6989   0.331   1.271   4.340
 2352TIP3    H2 6990   0.359   1.334   4.205
 2353TIP3   OH2 6991   0.769   1.260   3.497
 2353TIP3    H1 6992   0.678   1.261   3.462
 2353TIP3    H2 6993   0.820   1.241   3.417
 2354TIP3   OH2 6994   0.926   1.495   4.594
 2354TIP3    H1 6995   0.904   1.422   4.656
 2354TIP3    H2 6996   1.020   1.508   4.615
 2355TIP3   OH2 6997   0.903   1.255   3.747
 2355TIP3    H1 6998   0.850   1.282   3.669
 2355TIP3    H2 6999   0.945   1.175   3.707
 2356TIP3   OH2 7000   0.203   1.285   4.468
 2356TIP3    H1 7001   0.244   1.341   4.536
 2356TIP3    H2 7002   0.184   1.204   4.517
 2357TIP3   OH2 7003   0.916   1.491   4.167
 2357TIP3    H1 7004   0.951   1.420   4.108
 2357TIP3    H2 7005   0.887   1.436   4.243
 2358TIP3   OH2 7006   0.582   0.988   3.864
 2358TIP3    H1 7007   0.524   0.915   3.890
 2358TIP3    H2 7008   0.669   0.955   3.891
 2359TIP3   OH2 7009   1.081   1.032   4.048
 2359TIP3    H1 7010   1.043   1.046   4.137
 2359TIP3    H2 7011   1.015   0.972   4.009
 2360TIP3   OH2 7012   1.253   2.720   4.264
 2360TIP3    H1 7013   1.252   2.745   4.169
 2360TIP3    H2 7014   1.335   2.765   4.294
 2361TIP3   OH2 7015   0.209   1.835   4.681
 2361TIP3    H1 7016   0.291   1.857   4.729
 2361TIP3    H2 7017   0.146   1.827   4.755
 2362TIP3   OH2 7018   0.671   1.296   3.942
 2362TIP3    H1 7019   0.732   1.243   3.887
 2362TIP3    H2 7020   0.669   1.243   4.024
 2363TIP3   OH2 7021   0.649   1.190   4.220
 2363TIP3    H1 7022   0.558   1.223   4.238
 2363TIP3    H2 7023   0.706   1.249   4.273
 2364TIP3   OH2 7024   1.283   1.808   3.948
 2364TIP3    H1 7025   1.309   1.859   3.869
 2364TIP3    H2 7026   1.199   1.765   3.920
 2365TIP3   OH2 7027   0.776   1.886   4.321
 2365TIP3    H1 7028   0.819   1.871   4.407
 2365TIP3    H2 7029   0.747   1.978   4.328
 2366TIP3   OH2 7030   0.071   1.588   3.999
 2366TIP3    H1 7031   0.103   1.556   3.912
 2366TIP3    H2 7032   0.128   1.537   4.059
 2367TIP3   OH2 7033   0.519   1.714   3.157
 2367TIP3    H1 7034   0.489   1.807   3.145
 2367TIP3    H2 7035   0.458   1.683   3.225
 2368TIP3   OH2 7036  -0.001   1.484   4.618
 2368TIP3    H1 7037   0.035   1.502   4.707
 2368TIP3    H2 7038  -0.097   1.482   4.637
 2369TIP3   OH2 7039   0.687   1.631   4.629
 2369TIP3    H1 7040   0.627   1.567   4.588
 2369TIP3    H2 7041   0.774   1.594   4.603
 2370TIP3   OH2 7042   0.941   2.146   4.220
 2370TIP3    H1 7043   0.844   2.150   4.232
 2370TIP3    H2 7044   0.970   2.201   4.296
 2371TIP3   OH2 7045   1.315   1.216   3.134
 2371TIP3    H1 7046   1.335   1.143   3.073
 2371TIP3    H2 7047   1.322   1.294   3.075
 2372TIP3   OH2 7048   1.572   2.080   4.206
 2372TIP3    H1 7049   1.474   2.074   4.197
 2372TIP3    H2 7050   1.598   2.050   4.116
 2373TIP3   OH2 7051   1.051   2.044   3.032
 2373TIP3    H1 7052   1.019   1.968   3.083
 2373TIP3    H2 7053   1.070   2.006   2.944
 2374TIP3   OH2 7054   1.048   1.671   3.863
 2374TIP3    H1 7055   0.956   1.645   3.879
 2374TIP3    H2 7056   1.082   1.589   3.821
 2375TIP3   OH2 7057   0.174   1.897   3.624
 2375TIP3    H1 7058   0.172   1.989   3.587
 2375TIP3    H2 7059   0.090   1.896   3.672
 2376TIP3   OH2 7060   0.340   1.673   3.603
 2376TIP3    H1 7061   0.294   1.758   3.598
 2376TIP3    H2 7062   0.281   1.621   3.660
 2377TIP3   OH2 7063   0.449   2.240   4.092
 2377TIP3    H1 7064   0.491   2.313   4.042
 2377TIP3    H2 7065   0.526   2.203   4.138
 2378TIP3   OH2 7066   0.118   2.141   3.518
 2378TIP3    H1 7067   0.024   2.155   3.539
 2378TIP3    H2 7068   0.145   2.232   3.493
 2379TIP3   OH2 7069   0.832   1.875   4.053
 2379TIP3    H1 7070   0.821   1.871   4.151
 2379TIP3    H2 7071   0.913   1.824   4.041
 2380TIP3   OH2 7072   0.820   1.797   2.953
 2380TIP3    H1 7073   0.857   1.777   3.042
 2380TIP3    H2 7074   0.735   1.751   2.956
 2381TIP3   OH2 7075   1.082   2.407   4.100
 2381TIP3    H1 7076   1.000   2.353   4.092
 2381TIP3    H2 7077   1.068   2.472   4.028
 2382TIP3   OH2 7078   1.148   2.247   2.754
 2382TIP3    H1 7079   1.196   2.323   2.716
 2382TIP3    H2 7080   1.067   2.295   2.783
 2383TIP3   OH2 7081   0.962   1.743   3.186
 2383TIP3    H1 7082   0.944   1.679   3.258
 2383TIP3    H2 7083   1.059   1.743   3.182
 2384TIP3   OH2 7084  -0.119   2.097   4.253
 2384TIP3    H1 7085  -0.057   2.031   4.289
 2384TIP3    H2 7086  -0.090   2.177   4.298
 2385TIP3   OH2 7087   1.005   1.095   4.307
 2385TIP3    H1 7088   1.090   1.134   4.333
 2385TIP3    H2 7089   1.006   1.009   4.354
 2386TIP3   OH2 7090   0.403   1.954   3.149
 2386TIP3    H1 7091   0.353   1.971   3.231
 2386TIP3    H2 7092   0.398   2.041   3.104
 2387TIP3   OH2 7093   0.844   1.330   4.375
 2387TIP3    H1 7094   0.872   1.378   4.456
 2387TIP3    H2 7095   0.897   1.248   4.380
 2388TIP3   OH2 7096   1.482   1.231   4.361
 2388TIP3    H1 7097   1.384   1.228   4.367
 2388TIP3    H2 7098   1.495   1.193   4.273
 2389TIP3   OH2 7099   1.136   1.426   3.745
 2389TIP3    H1 7100   1.060   1.366   3.759
 2389TIP3    H2 7101   1.207   1.379   3.793
 2390TIP3   OH2 7102   1.104   2.384   3.693
 2390TIP3    H1 7103   1.062   2.431   3.618
 2390TIP3    H2 7104   1.199   2.403   3.673
 2391TIP3   OH2 7105  -0.104   2.434   4.654
 2391TIP3    H1 7106  -0.025   2.442   4.712
 2391TIP3    H2 7107  -0.119   2.339   4.661
 2392TIP3   OH2 7108   0.355   2.371   4.722
 2392TIP3    H1 7109   0.450   2.355   4.726
 2392TIP3    H2 7110   0.330   2.311   4.648
 2393TIP3   OH2 7111   0.992   2.285   4.455
 2393TIP3    H1 7112   0.987   2.214   4.524
 2393TIP3    H2 7113   1.072   2.334   4.482
 2394TIP3   OH2 7114   0.790   1.997   2.760
 2394TIP3    H1 7115   0.816   1.928   2.824
 2394TIP3    H2 7116   0.862   1.993   2.695
 2395TIP3   OH2 7117   0.003   1.811   4.870
 2395TIP3    H1 7118   0.036   1.719   4.873
 2395TIP3    H2 7119  -0.092   1.796   4.861
 2396TIP3   OH2 7120   0.610   1.905   4.650
 2396TIP3    H1 7121   0.575   1.925   4.561
 2396TIP3    H2 7122   0.644   1.813   4.639
 2397TIP3   OH2 7123   1.104   1.918   4.255
 2397TIP3    H1 7124   1.183   1.956   4.212
 2397TIP3    H2 7125   1.039   1.988   4.238
 2398TIP3   OH2 7126   0.114   1.559   4.860
 2398TIP3    H1 7127   0.176   1.485   4.851
 2398TIP3    H2 7128   0.130   1.579   4.954
 2399TIP3   OH2 7129   0.464   1.432   4.513
 2399TIP3    H1 7130   0.391   1.498   4.514
 2399TIP3    H2 7131   0.519   1.467   4.439
 2400TIP3   OH2 7132   0.979   1.840   4.651
 2400TIP3    H1 7133   1.058   1.809   4.603
 2400TIP3    H2 7134   0.973   1.775   4.723
 2401TIP3   OH2 7135   0.587   1.220   4.633
 2401TIP3    H1 7136   0.596   1.145   4.570
 2401TIP3    H2 7137   0.545   1.289   4.577
 2402TIP3   OH2 7138   0.608   1.020   4.446
 2402TIP3    H1 7139   0.629   1.059   4.359
 2402TIP3    H2 7140   0.518   0.984   4.430
 2403TIP3   OH2 7141   0.610   1.544   4.321
 2403TIP3    H1 7142   0.699   1.558   4.284
 2403TIP3    H2 7143   0.558   1.613   4.276
 2404TIP3   OH2 7144   1.193   1.514   4.703
 2404TIP3    H1 7145   1.241   1.430   4.715
 2404TIP3    H2 7146   1.262   1.571   4.667
 2405TIP3   OH2 7147   1.235   1.769   4.440
 2405TIP3    H1 7148   1.178   1.824   4.382
 2405TIP3    H2 7149   1.323   1.790   4.402
 2406TIP3   OH2 7150   0.496   1.334   4.868
 2406TIP3    H1 7151   0.403   1.323   4.893
 2406TIP3    H2 7152   0.503   1.287   4.782
 2407TIP3   OH2 7153   0.762   0.799   4.498
 2407TIP3    H1 7154   0.708   0.879   4.481
 2407TIP3    H2 7155   0.690   0.732   4.500
 2408TIP3   OH2 7156   0.842   1.278   4.736
 2408TIP3    H1 7157   0.826   1.262   4.831
 2408TIP3    H2 7158   0.754   1.253   4.701
 2409TIP3   OH2 7159   1.084   1.233   4.593
 2409TIP3    H1 7160   1.009   1.231   4.656
 2409TIP3    H2 7161   1.158   1.200   4.648
 2410TIP3   OH2 7162   1.314   1.170   4.739
 2410TIP3    H1 7163   1.326   1.074   4.757
 2410TIP3    H2 7164   1.309   1.208   4.829
 2411TIP3   OH2 7165   0.801   0.766   4.767
 2411TIP3    H1 7166   0.878   0.705   4.766
 2411TIP3    H2 7167   0.789   0.781   4.671
 2412TIP3   OH2 7168   0.880   0.997   4.917
 2412TIP3    H1 7169   0.845   0.925   4.861
 2412TIP3    H2 7170   0.802   1.057   4.925
 2413TIP3   OH2 7171  -0.396   2.091   3.868
 2413TIP3    H1 7172  -0.377   2.014   3.924
 2413TIP3    H2 7173  -0.334   2.155   3.907
 2414TIP3   OH2 7174   1.358   2.474   3.655
 2414TIP3    H1 7175   1.387   2.509   3.741
 2414TIP3    H2 7176   1.425   2.510   3.594
 2415TIP3   OH2 7177   1.384   2.494   3.938
 2415TIP3    H1 7178   1.343   2.405   3.933
 2415TIP3    H2 7179   1.464   2.472   3.990
 2416TIP3   OH2 7180   1.433   2.170   4.510
 2416TIP3    H1 7181   1.361   2.182   4.576
 2416TIP3    H2 7182   1.477   2.258   4.513
 2417TIP3   OH2 7183   1.237   1.682   3.145
 2417TIP3    H1 7184   1.291   1.752   3.101
 2417TIP3    H2 7185   1.299   1.658   3.217
 2418TIP3   OH2 7186   1.375   1.549   3.336
 2418TIP3    H1 7187   1.321   1.506   3.405
 2418TIP3    H2 7188   1.451   1.584   3.388
 2419TIP3   OH2 7189   1.433   1.943   3.761
 2419TIP3    H1 7190   1.486   1.876   3.714
 2419TIP3    H2 7191   1.434   2.018   3.698
 2420TIP3   OH2 7192   1.261   2.242   3.958
 2420TIP3    H1 7193   1.189   2.286   4.007
 2420TIP3    H2 7194   1.213   2.197   3.885
 2421TIP3   OH2 7195   1.269   1.452   2.992
 2421TIP3    H1 7196   1.232   1.464   2.903
 2421TIP3    H2 7197   1.292   1.544   3.016
 2422TIP3   OH2 7198   1.192   1.402   3.477
 2422TIP3    H1 7199   1.194   1.305   3.461
 2422TIP3    H2 7200   1.181   1.406   3.575
 2423TIP3   OH2 7201  -0.177   1.473   4.242
 2423TIP3    H1 7202  -0.176   1.494   4.149
 2423TIP3    H2 7203  -0.080   1.477   4.262
 2424TIP3   OH2 7204   1.481   1.834   4.335
 2424TIP3    H1 7205   1.552   1.766   4.325
 2424TIP3    H2 7206   1.508   1.902   4.271
 2425TIP3   OH2 7207   1.662   1.633   4.345
 2425TIP3    H1 7208   1.588   1.583   4.387
 2425TIP3    H2 7209   1.736   1.571   4.362
 2426TIP3   OH2 7210   1.195   1.151   3.381
 2426TIP3    H1 7211   1.231   1.067   3.420
 2426TIP3    H2 7212   1.244   1.154   3.297
 2427TIP3   OH2 7213   1.348   1.297   3.868
 2427TIP3    H1 7214   1.434   1.321   3.826
 2427TIP3    H2 7215   1.363   1.335   3.957
 2428TIP3   OH2 7216   1.421   1.442   4.098
 2428TIP3    H1 7217   1.343   1.476   4.146
 2428TIP3    H2 7218   1.454   1.522   4.053
 2429TIP3   OH2 7219   1.870   1.034   4.649
 2429TIP3    H1 7220   1.932   0.972   4.606
 2429TIP3    H2 7221   1.837   1.087   4.573
 2430TIP3   OH2 7222   1.287   0.916   3.463
 2430TIP3    H1 7223   1.331   0.868   3.534
 2430TIP3    H2 7224   1.268   0.848   3.395
 2431TIP3   OH2 7225   1.737   1.170   4.457
 2431TIP3    H1 7226   1.653   1.216   4.480
 2431TIP3    H2 7227   1.702   1.099   4.400
 2432TIP3   OH2 7228   0.939   2.344   3.308
 2432TIP3    H1 7229   0.990   2.333   3.225
 2432TIP3    H2 7230   0.994   2.408   3.356
 2433TIP3   OH2 7231   0.026   2.153   4.696
 2433TIP3    H1 7232  -0.008   2.066   4.666
 2433TIP3    H2 7233   0.054   2.136   4.786
 2434TIP3   OH2 7234   0.222   2.181   4.242
 2434TIP3    H1 7235   0.177   2.258   4.201
 2434TIP3    H2 7236   0.309   2.192   4.197
 2435TIP3   OH2 7237   0.662   2.423   4.380
 2435TIP3    H1 7238   0.705   2.422   4.468
 2435TIP3    H2 7239   0.728   2.473   4.328
 2436TIP3   OH2 7240   0.843   2.575   4.241
 2436TIP3    H1 7241   0.913   2.526   4.196
 2436TIP3    H2 7242   0.896   2.632   4.301
 2437TIP3   OH2 7243   1.639   0.936   4.338
 2437TIP3    H1 7244   1.549   0.929   4.301
 2437TIP3    H2 7245   1.670   0.843   4.329
 2438TIP3   OH2 7246  -0.107   2.431   4.268
 2438TIP3    H1 7247  -0.196   2.464   4.244
 2438TIP3    H2 7248  -0.095   2.473   4.354
 2439TIP3   OH2 7249   0.133   2.414   4.126
 2439TIP3    H1 7250   0.045   2.426   4.167
 2439TIP3    H2 7251   0.116   2.443   4.035
 2440TIP3   OH2 7252   0.557   2.439   3.924
 2440TIP3    H1 7253   0.490   2.457   3.856
 2440TIP3    H2 7254   0.570   2.527   3.964
 2441TIP3   OH2 7255   0.828   2.377   3.976
 2441TIP3    H1 7256   0.735   2.398   3.955
 2441TIP3    H2 7257   0.876   2.449   3.930
 2442TIP3   OH2 7258   1.029   2.568   3.886
 2442TIP3    H1 7259   1.018   2.653   3.839
 2442TIP3    H2 7260   1.060   2.509   3.813
 2443TIP3   OH2 7261  -0.188   2.229   4.003
 2443TIP3    H1 7262  -0.174   2.201   4.095
 2443TIP3    H2 7263  -0.119   2.175   3.957
 2444TIP3   OH2 7264   0.002   2.089   3.864
 2444TIP3    H1 7265   0.021   2.011   3.922
 2444TIP3    H2 7266   0.090   2.132   3.860
 2445TIP3   OH2 7267   0.268   2.192   3.877
 2445TIP3    H1 7268   0.302   2.102   3.863
 2445TIP3    H2 7269   0.318   2.215   3.958
 2446TIP3   OH2 7270   0.843   0.858   3.957
 2446TIP3    H1 7271   0.803   0.790   4.013
 2446TIP3    H2 7272   0.913   0.809   3.910
 2447TIP3   OH2 7273   1.368   0.739   3.880
 2447TIP3    H1 7274   1.408   0.782   3.800
 2447TIP3    H2 7275   1.273   0.745   3.858
 2448TIP3   OH2 7276   1.479   0.828   3.647
 2448TIP3    H1 7277   1.544   0.775   3.595
 2448TIP3    H2 7278   1.506   0.919   3.623
 2449TIP3   OH2 7279   1.083   0.735   3.836
 2449TIP3    H1 7280   1.094   0.698   3.747
 2449TIP3    H2 7281   1.074   0.653   3.890
 2450TIP3   OH2 7282   0.374   2.192   3.003
 2450TIP3    H1 7283   0.460   2.188   2.954
 2450TIP3    H2 7284   0.311   2.163   2.935
 2451TIP3   OH2 7285   1.084   2.310   3.077
 2451TIP3    H1 7286   1.076   2.212   3.066
 2451TIP3    H2 7287   1.041   2.340   2.994
 2452TIP3   OH2 7288   1.380   0.898   4.773
 2452TIP3    H1 7289   1.400   0.869   4.864
 2452TIP3    H2 7290   1.469   0.897   4.732
 2453TIP3   OH2 7291   1.310   2.450   4.265
 2453TIP3    H1 7292   1.233   2.422   4.212
 2453TIP3    H2 7293   1.293   2.547   4.269
 2454TIP3   OH2 7294   2.578   1.818   3.030
 2454TIP3    H1 7295   2.546   1.909   3.011
 2454TIP3    H2 7296   2.503   1.767   2.994
 2455TIP3   OH2 7297   2.576   1.828   3.416
 2455TIP3    H1 7298   2.613   1.799   3.502
 2455TIP3    H2 7299   2.542   1.745   3.379
 2456TIP3   OH2 7300   1.874   1.717   3.781
 2456TIP3    H1 7301   1.906   1.649   3.843
 2456TIP3    H2 7302   1.956   1.766   3.763
 2457TIP3   OH2 7303   2.829   2.119   3.097
 2457TIP3    H1 7304   2.814   2.053   3.166
 2457TIP3    H2 7305   2.859   2.196   3.147
 2458TIP3   OH2 7306   1.851   2.125   3.499
 2458TIP3    H1 7307   1.843   2.027   3.500
 2458TIP3    H2 7308   1.947   2.136   3.488
 2459TIP3   OH2 7309   1.556   1.321   3.269
 2459TIP3    H1 7310   1.524   1.408   3.297
 2459TIP3    H2 7311   1.473   1.271   3.268
 2460TIP3   OH2 7312   1.614   1.613   3.452
 2460TIP3    H1 7313   1.665   1.538   3.490
 2460TIP3    H2 7314   1.684   1.663   3.406
 2461TIP3   OH2 7315   2.474   2.593   3.117
 2461TIP3    H1 7316   2.511   2.525   3.058
 2461TIP3    H2 7317   2.468   2.544   3.200
 2462TIP3   OH2 7318   2.377   2.049   3.462
 2462TIP3    H1 7319   2.419   1.972   3.419
 2462TIP3    H2 7320   2.458   2.098   3.486
 2463TIP3   OH2 7321   3.369   1.368   3.465
 2463TIP3    H1 7322   3.421   1.405   3.538
 2463TIP3    H2 7323   3.402   1.416   3.388
 2464TIP3   OH2 7324   2.782   1.555   3.488
 2464TIP3    H1 7325   2.825   1.471   3.512
 2464TIP3    H2 7326   2.755   1.534   3.396
 2465TIP3   OH2 7327   2.128   1.207   3.457
 2465TIP3    H1 7328   2.113   1.280   3.394
 2465TIP3    H2 7329   2.081   1.135   3.410
 2466TIP3   OH2 7330   2.828   1.302   3.079
 2466TIP3    H1 7331   2.898   1.287   3.147
 2466TIP3    H2 7332   2.883   1.336   3.005
 2467TIP3   OH2 7333   1.762   1.411   3.561
 2467TIP3    H1 7334   1.844   1.396   3.611
 2467TIP3    H2 7335   1.780   1.356   3.483
 2468TIP3   OH2 7336   2.202   1.607   3.364
 2468TIP3    H1 7337   2.297   1.585   3.372
 2468TIP3    H2 7338   2.165   1.524   3.328
 2469TIP3   OH2 7339   2.122   1.193   3.891
 2469TIP3    H1 7340   2.065   1.230   3.822
 2469TIP3    H2 7341   2.070   1.215   3.971
 2470TIP3   OH2 7342   2.447   2.031   2.909
 2470TIP3    H1 7343   2.440   2.034   2.812
 2470TIP3    H2 7344   2.413   2.119   2.933
 2471TIP3   OH2 7345   2.231   1.968   3.681
 2471TIP3    H1 7346   2.174   2.039   3.717
 2471TIP3    H2 7347   2.276   2.015   3.607
 2472TIP3   OH2 7348   3.031   1.305   3.261
 2472TIP3    H1 7349   3.017   1.272   3.351
 2472TIP3    H2 7350   3.086   1.383   3.278
 2473TIP3   OH2 7351   1.996   1.308   3.674
 2473TIP3    H1 7352   2.058   1.381   3.698
 2473TIP3    H2 7353   2.045   1.268   3.599
 2474TIP3   OH2 7354   2.062   2.166   3.783
 2474TIP3    H1 7355   2.037   2.253   3.745
 2474TIP3    H2 7356   1.982   2.150   3.838
 2475TIP3   OH2 7357   1.433   1.846   3.026
 2475TIP3    H1 7358   1.407   1.870   2.935
 2475TIP3    H2 7359   1.470   1.932   3.058
 2476TIP3   OH2 7360   2.892   2.373   3.261
 2476TIP3    H1 7361   2.802   2.362   3.299
 2476TIP3    H2 7362   2.883   2.457   3.213
 2477TIP3   OH2 7363   3.168   1.240   3.602
 2477TIP3    H1 7364   3.108   1.316   3.607
 2477TIP3    H2 7365   3.242   1.279   3.551
 2478TIP3   OH2 7366   2.478   0.908   3.605
 2478TIP3    H1 7367   2.462   0.814   3.625
 2478TIP3    H2 7368   2.402   0.949   3.652
 2479TIP3   OH2 7369   2.584   2.421   2.932
 2479TIP3    H1 7370   2.629   2.335   2.915
 2479TIP3    H2 7371   2.651   2.482   2.892
 2480TIP3   OH2 7372   2.715   2.198   2.852
 2480TIP3    H1 7373   2.736   2.138   2.779
 2480TIP3    H2 7374   2.756   2.153   2.929
 2481TIP3   OH2 7375   3.118   2.279   3.603
 2481TIP3    H1 7376   3.106   2.202   3.543
 2481TIP3    H2 7377   3.100   2.354   3.543
 2482TIP3   OH2 7378   2.409   1.673   2.862
 2482TIP3    H1 7379   2.334   1.732   2.842
 2482TIP3    H2 7380   2.459   1.675   2.778
 2483TIP3   OH2 7381   2.369   1.460   2.577
 2483TIP3    H1 7382   2.433   1.515   2.627
 2483TIP3    H2 7383   2.432   1.401   2.529
 2484TIP3   OH2 7384   3.318   1.926   3.453
 2484TIP3    H1 7385   3.231   1.970   3.457
 2484TIP3    H2 7386   3.345   1.947   3.361
 2485TIP3   OH2 7387   2.759   1.754   2.832
 2485TIP3    H1 7388   2.706   1.780   2.911
 2485TIP3    H2 7389   2.845   1.732   2.875
 2486TIP3   OH2 7390   2.993   1.798   3.755
 2486TIP3    H1 7391   2.986   1.881   3.805
 2486TIP3    H2 7392   2.908   1.799   3.706
 2487TIP3   OH2 7393   1.989   1.753   3.254
 2487TIP3    H1 7394   1.951   1.696   3.184
 2487TIP3    H2 7395   2.067   1.701   3.283
 2488TIP3   OH2 7396   2.116   2.160   3.399
 2488TIP3    H1 7397   2.100   2.135   3.307
 2488TIP3    H2 7398   2.206   2.125   3.415
 2489TIP3   OH2 7399   2.117   1.730   3.603
 2489TIP3    H1 7400   2.155   1.700   3.517
 2489TIP3    H2 7401   2.167   1.812   3.620
 2490TIP3   OH2 7402   2.650   2.365   3.381
 2490TIP3    H1 7403   2.639   2.444   3.436
 2490TIP3    H2 7404   2.635   2.292   3.444
 2491TIP3   OH2 7405   2.267   2.282   3.929
 2491TIP3    H1 7406   2.204   2.344   3.974
 2491TIP3    H2 7407   2.203   2.229   3.877
 2492TIP3   OH2 7408   2.594   1.618   2.659
 2492TIP3    H1 7409   2.655   1.678   2.709
 2492TIP3    H2 7410   2.622   1.637   2.566
 2493TIP3   OH2 7411   2.022   1.835   4.037
 2493TIP3    H1 7412   2.026   1.925   4.075
 2493TIP3    H2 7413   1.927   1.817   4.044
 2494TIP3   OH2 7414   2.340   2.298   2.940
 2494TIP3    H1 7415   2.424   2.347   2.943
 2494TIP3    H2 7416   2.284   2.357   2.887
 2495TIP3   OH2 7417   2.059   2.447   4.014
 2495TIP3    H1 7418   2.024   2.453   3.923
 2495TIP3    H2 7419   1.978   2.426   4.066
 2496TIP3   OH2 7420   3.115   0.855   2.708
 2496TIP3    H1 7421   3.033   0.879   2.756
 2496TIP3    H2 7422   3.132   0.936   2.656
 2497TIP3   OH2 7423   1.857   1.598   3.054
 2497TIP3    H1 7424   1.792   1.645   2.998
 2497TIP3    H2 7425   1.820   1.510   3.059
 2498TIP3   OH2 7426   1.636   1.982   3.962
 2498TIP3    H1 7427   1.572   1.960   3.892
 2498TIP3    H2 7428   1.676   1.895   3.984
 2499TIP3   OH2 7429   1.494   2.172   3.596
 2499TIP3    H1 7430   1.590   2.166   3.582
 2499TIP3    H2 7431   1.488   2.252   3.651
 2500TIP3   OH2 7432   3.356   2.629   3.651
 2500TIP3    H1 7433   3.355   2.532   3.665
 2500TIP3    H2 7434   3.273   2.654   3.697
 2501TIP3   OH2 7435   2.462   2.411   3.785
 2501TIP3    H1 7436   2.458   2.504   3.817
 2501TIP3    H2 7437   2.391   2.370   3.839
 2502TIP3   OH2 7438   2.225   2.536   2.739
 2502TIP3    H1 7439   2.180   2.516   2.655
 2502TIP3    H2 7440   2.191   2.624   2.762
 2503TIP3   OH2 7441   1.659   2.389   3.125
 2503TIP3    H1 7442   1.710   2.380   3.208
 2503TIP3    H2 7443   1.608   2.307   3.126
 2504TIP3   OH2 7444   2.425   2.447   2.374
 2504TIP3    H1 7445   2.484   2.378   2.337
 2504TIP3    H2 7446   2.460   2.456   2.465
 2505TIP3   OH2 7447   2.477   2.493   2.644
 2505TIP3    H1 7448   2.389   2.501   2.687
 2505TIP3    H2 7449   2.528   2.449   2.714
 2506TIP3   OH2 7450   3.239   1.751   3.918
 2506TIP3    H1 7451   3.160   1.761   3.862
 2506TIP3    H2 7452   3.258   1.657   3.910
 2507TIP3   OH2 7453   1.841   2.165   3.946
 2507TIP3    H1 7454   1.891   2.149   4.029
 2507TIP3    H2 7455   1.766   2.102   3.955
 2508TIP3   OH2 7456   2.241   0.985   3.735
 2508TIP3    H1 7457   2.152   0.958   3.704
 2508TIP3    H2 7458   2.218   1.069   3.779
 2509TIP3   OH2 7459   2.780   1.102   3.929
 2509TIP3    H1 7460   2.849   1.074   3.993
 2509TIP3    H2 7461   2.697   1.084   3.976
 2510TIP3   OH2 7462   3.000   1.522   3.835
 2510TIP3    H1 7463   2.965   1.529   3.926
 2510TIP3    H2 7464   3.001   1.614   3.804
 2511TIP3   OH2 7465   2.675   1.655   2.405
 2511TIP3    H1 7466   2.639   1.635   2.316
 2511TIP3    H2 7467   2.756   1.704   2.382
 2512TIP3   OH2 7468   2.373   1.045   2.702
 2512TIP3    H1 7469   2.351   1.037   2.797
 2512TIP3    H2 7470   2.354   0.953   2.673
 2513TIP3   OH2 7471   2.170   1.507   3.751
 2513TIP3    H1 7472   2.123   1.530   3.834
 2513TIP3    H2 7473   2.155   1.588   3.698
 2514TIP3   OH2 7474   2.058   1.390   3.270
 2514TIP3    H1 7475   1.965   1.364   3.286
 2514TIP3    H2 7476   2.072   1.349   3.181
 2515TIP3   OH2 7477   2.546   1.471   2.993
 2515TIP3    H1 7478   2.497   1.544   2.950
 2515TIP3    H2 7479   2.604   1.440   2.921
 2516TIP3   OH2 7480   2.723   1.751   4.080
 2516TIP3    H1 7481   2.703   1.677   4.142
 2516TIP3    H2 7482   2.818   1.763   4.097
 2517TIP3   OH2 7483   2.699   1.501   3.232
 2517TIP3    H1 7484   2.641   1.528   3.158
 2517TIP3    H2 7485   2.738   1.421   3.190
 2518TIP3   OH2 7486   1.991   1.534   3.962
 2518TIP3    H1 7487   2.029   1.598   4.024
 2518TIP3    H2 7488   1.983   1.453   4.016
 2519TIP3   OH2 7489   2.044   0.989   2.684
 2519TIP3    H1 7490   2.047   0.990   2.782
 2519TIP3    H2 7491   1.973   1.054   2.669
 2520TIP3   OH2 7492   1.585   1.056   3.545
 2520TIP3    H1 7493   1.663   1.087   3.596
 2520TIP3    H2 7494   1.623   1.023   3.462
 2521TIP3   OH2 7495   1.558   1.058   3.077
 2521TIP3    H1 7496   1.605   1.060   2.992
 2521TIP3    H2 7497   1.551   1.152   3.097
 2522TIP3   OH2 7498   2.708   1.748   3.657
 2522TIP3    H1 7499   2.743   1.679   3.596
 2522TIP3    H2 7500   2.681   1.692   3.732
 2523TIP3   OH2 7501   2.386   1.211   3.326
 2523TIP3    H1 7502   2.310   1.211   3.386
 2523TIP3    H2 7503   2.461   1.205   3.388
 2524TIP3   OH2 7504   1.819   1.266   3.336
 2524TIP3    H1 7505   1.727   1.270   3.303
 2524TIP3    H2 7506   1.847   1.175   3.314
 2525TIP3   OH2 7507   2.087   1.264   3.031
 2525TIP3    H1 7508   2.182   1.280   3.012
 2525TIP3    H2 7509   2.043   1.291   2.947
 2526TIP3   OH2 7510   2.856   1.295   3.525
 2526TIP3    H1 7511   2.831   1.303   3.620
 2526TIP3    H2 7512   2.794   1.227   3.494
 2527TIP3   OH2 7513   1.936   1.308   2.810
 2527TIP3    H1 7514   1.873   1.254   2.758
 2527TIP3    H2 7515   1.990   1.346   2.737
 2528TIP3   OH2 7516   3.050   2.976   3.751
 2528TIP3    H1 7517   3.048   3.001   3.656
 2528TIP3    H2 7518   3.130   3.023   3.781
 2529TIP3   OH2 7519   2.004   2.086   4.170
 2529TIP3    H1 7520   2.085   2.116   4.216
 2529TIP3    H2 7521   1.940   2.087   4.243
 2530TIP3   OH2 7522   2.467   1.538   3.420
 2530TIP3    H1 7523   2.544   1.508   3.368
 2530TIP3    H2 7524   2.482   1.494   3.506
 2531TIP3   OH2 7525   1.984   1.028   3.303
 2531TIP3    H1 7526   1.948   0.950   3.350
 2531TIP3    H2 7527   2.035   0.986   3.232
 2532TIP3   OH2 7528   2.442   1.434   3.724
 2532TIP3    H1 7529   2.355   1.477   3.731
 2532TIP3    H2 7530   2.503   1.497   3.767
 2533TIP3   OH2 7531   2.180   1.826   2.809
 2533TIP3    H1 7532   2.105   1.764   2.797
 2533TIP3    H2 7533   2.161   1.862   2.899
 2534TIP3   OH2 7534   3.078   2.063   3.437
 2534TIP3    H1 7535   3.103   2.114   3.357
 2534TIP3    H2 7536   2.995   2.019   3.409
 2535TIP3   OH2 7537   2.636   1.135   2.683
 2535TIP3    H1 7538   2.538   1.126   2.682
 2535TIP3    H2 7539   2.650   1.231   2.700
 2536TIP3   OH2 7540   2.573   2.143   3.809
 2536TIP3    H1 7541   2.614   2.132   3.895
 2536TIP3    H2 7542   2.541   2.235   3.812
 2537TIP3   OH2 7543   2.707   1.388   2.776
 2537TIP3    H1 7544   2.803   1.395   2.793
 2537TIP3    H2 7545   2.689   1.470   2.725
 2538TIP3   OH2 7546   1.866   1.841   3.484
 2538TIP3    H1 7547   1.906   1.820   3.397
 2538TIP3    H2 7548   1.927   1.794   3.543
 2539TIP3   OH2 7549   2.324   1.975   2.628
 2539TIP3    H1 7550   2.277   2.062   2.634
 2539TIP3    H2 7551   2.274   1.924   2.695
 2540TIP3   OH2 7552   1.755   1.771   4.101
 2540TIP3    H1 7553   1.775   1.757   4.195
 2540TIP3    H2 7554   1.687   1.703   4.085
 2541TIP3   OH2 7555   2.483   1.885   4.119
 2541TIP3    H1 7556   2.425   1.829   4.065
 2541TIP3    H2 7557   2.571   1.850   4.092
 2542TIP3   OH2 7558   2.738   2.404   3.706
 2542TIP3    H1 7559   2.641   2.406   3.718
 2542TIP3    H2 7560   2.766   2.458   3.783
 2543TIP3   OH2 7561   3.147   1.481   2.613
 2543TIP3    H1 7562   3.085   1.437   2.550
 2543TIP3    H2 7563   3.144   1.571   2.572
 2544TIP3   OH2 7564   3.369   2.340   3.690
 2544TIP3    H1 7565   3.271   2.332   3.683
 2544TIP3    H2 7566   3.395   2.307   3.601
 2545TIP3   OH2 7567   2.844   1.928   3.354
 2545TIP3    H1 7568   2.751   1.904   3.367
 2545TIP3    H2 7569   2.878   1.847   3.311
 2546TIP3   OH2 7570   1.979   2.158   3.117
 2546TIP3    H1 7571   1.980   2.237   3.059
 2546TIP3    H2 7572   1.885   2.137   3.116
 2547TIP3   OH2 7573   1.559   1.464   2.830
 2547TIP3    H1 7574   1.608   1.548   2.845
 2547TIP3    H2 7575   1.468   1.495   2.840
 2548TIP3   OH2 7576   2.100   1.915   3.051
 2548TIP3    H1 7577   2.076   2.007   3.071
 2548TIP3    H2 7578   2.069   1.868   3.130
 2549TIP3   OH2 7579   2.244   2.496   3.578
 2549TIP3    H1 7580   2.286   2.569   3.528
 2549TIP3    H2 7581   2.322   2.459   3.624
 2550TIP3   OH2 7582   1.894   2.394   2.965
 2550TIP3    H1 7583   1.807   2.406   3.008
 2550TIP3    H2 7584   1.927   2.486   2.965
 2551TIP3   OH2 7585   2.628   2.132   3.539
 2551TIP3    H1 7586   2.618   2.127   3.637
 2551TIP3    H2 7587   2.707   2.078   3.525
 2552TIP3   OH2 7588   2.603   2.016   2.418
 2552TIP3    H1 7589   2.657   2.005   2.499
 2552TIP3    H2 7590   2.515   1.996   2.453
 2553TIP3   OH2 7591   2.878   2.663   3.588
 2553TIP3    H1 7592   2.797   2.609   3.580
 2553TIP3    H2 7593   2.864   2.728   3.516
 2554TIP3   OH2 7594   1.961   1.276   4.105
 2554TIP3    H1 7595   1.865   1.281   4.117
 2554TIP3    H2 7596   1.988   1.221   4.180
 2555TIP3   OH2 7597   2.759   1.967   2.643
 2555TIP3    H1 7598   2.760   1.893   2.707
 2555TIP3    H2 7599   2.854   1.970   2.619
 2556TIP3   OH2 7600   1.680   2.358   3.738
 2556TIP3    H1 7601   1.737   2.288   3.772
 2556TIP3    H2 7602   1.711   2.434   3.789
 2557TIP3   OH2 7603   1.971   2.004   2.422
 2557TIP3    H1 7604   1.990   1.911   2.399
 2557TIP3    H2 7605   1.950   1.997   2.517
 2558TIP3   OH2 7606   1.920   2.010   2.695
 2558TIP3    H1 7607   1.999   1.992   2.747
 2558TIP3    H2 7608   1.916   2.108   2.697
 2559TIP3   OH2 7609   1.652   1.709   2.900
 2559TIP3    H1 7610   1.586   1.757   2.954
 2559TIP3    H2 7611   1.666   1.774   2.827
 2560TIP3   OH2 7612   2.797   1.344   3.791
 2560TIP3    H1 7613   2.882   1.389   3.810
 2560TIP3    H2 7614   2.801   1.264   3.847
 2561TIP3   OH2 7615   2.684   1.088   2.960
 2561TIP3    H1 7616   2.672   1.110   2.865
 2561TIP3    H2 7617   2.725   1.171   2.994
 2562TIP3   OH2 7618   2.184   2.206   2.643
 2562TIP3    H1 7619   2.096   2.232   2.678
 2562TIP3    H2 7620   2.198   2.277   2.578
 2563TIP3   OH2 7621   2.365   1.273   3.056
 2563TIP3    H1 7622   2.430   1.344   3.038
 2563TIP3    H2 7623   2.375   1.262   3.153
 2564TIP3   OH2 7624   2.640   1.583   3.863
 2564TIP3    H1 7625   2.671   1.633   3.941
 2564TIP3    H2 7626   2.698   1.505   3.863
 2565TIP3   OH2 7627   2.513   0.990   3.156
 2565TIP3    H1 7628   2.515   1.064   3.220
 2565TIP3    H2 7629   2.576   1.025   3.088
 2566TIP3   OH2 7630   1.930   2.280   2.712
 2566TIP3    H1 7631   1.895   2.344   2.646
 2566TIP3    H2 7632   1.912   2.328   2.796
 2567TIP3   OH2 7633   2.037   1.007   2.957
 2567TIP3    H1 7634   2.038   1.098   2.992
 2567TIP3    H2 7635   2.132   0.987   2.964
 2568TIP3   OH2 7636   2.928   1.687   3.234
 2568TIP3    H1 7637   2.855   1.624   3.247
 2568TIP3    H2 7638   3.003   1.642   3.278
 2569TIP3   OH2 7639   1.644   1.910   2.705
 2569TIP3    H1 7640   1.707   1.985   2.706
 2569TIP3    H2 7641   1.690   1.854   2.638
 2570TIP3   OH2 7642   1.585   1.191   2.832
 2570TIP3    H1 7643   1.603   1.286   2.847
 2570TIP3    H2 7644   1.565   1.194   2.736
 2571TIP3   OH2 7645   2.900   2.643   3.180
 2571TIP3    H1 7646   2.857   2.692   3.107
 2571TIP3    H2 7647   2.994   2.660   3.159
 2572TIP3   OH2 7648   1.974   0.911   3.707
 2572TIP3    H1 7649   1.944   0.883   3.618
 2572TIP3    H2 7650   1.960   0.828   3.758
 2573TIP3   OH2 7651   1.509   2.115   3.084
 2573TIP3    H1 7652   1.444   2.156   3.142
 2573TIP3    H2 7653   1.488   2.161   2.999
 2574TIP3   OH2 7654   1.675   2.674   4.162
 2574TIP3    H1 7655   1.762   2.677   4.209
 2574TIP3    H2 7656   1.659   2.578   4.160
 2575TIP3   OH2 7657   2.148   2.628   4.208
 2575TIP3    H1 7658   2.244   2.617   4.212
 2575TIP3    H2 7659   2.126   2.566   4.135
 2576TIP3   OH2 7660   2.135   2.209   2.333
 2576TIP3    H1 7661   2.082   2.135   2.369
 2576TIP3    H2 7662   2.209   2.161   2.292
 2577TIP3   OH2 7663   2.790   2.540   3.941
 2577TIP3    H1 7664   2.784   2.470   4.010
 2577TIP3    H2 7665   2.868   2.591   3.970
 2578TIP3   OH2 7666   2.558   2.242   2.247
 2578TIP3    H1 7667   2.616   2.180   2.293
 2578TIP3    H2 7668   2.595   2.246   2.156
 2579TIP3   OH2 7669   1.802   2.075   4.362
 2579TIP3    H1 7670   1.817   1.978   4.367
 2579TIP3    H2 7671   1.715   2.078   4.315
 2580TIP3   OH2 7672   1.787   1.727   2.565
 2580TIP3    H1 7673   1.852   1.706   2.636
 2580TIP3    H2 7674   1.848   1.734   2.489
 2581TIP3   OH2 7675   2.407   2.161   4.136
 2581TIP3    H1 7676   2.370   2.184   4.048
 2581TIP3    H2 7677   2.440   2.070   4.123
 2582TIP3   OH2 7678   2.289   1.918   2.363
 2582TIP3    H1 7679   2.296   1.934   2.460
 2582TIP3    H2 7680   2.292   1.820   2.360
 2583TIP3   OH2 7681   2.901   2.175   3.743
 2583TIP3    H1 7682   2.980   2.213   3.699
 2583TIP3    H2 7683   2.835   2.244   3.724
 2584TIP3   OH2 7684   1.921   1.809   4.346
 2584TIP3    H1 7685   2.002   1.768   4.313
 2584TIP3    H2 7686   1.951   1.843   4.433
 2585TIP3   OH2 7687   1.981   1.630   2.772
 2585TIP3    H1 7688   1.964   1.590   2.858
 2585TIP3    H2 7689   2.025   1.557   2.724
 2586TIP3   OH2 7690   2.253   1.688   4.002
 2586TIP3    H1 7691   2.179   1.752   4.004
 2586TIP3    H2 7692   2.309   1.725   3.929
 2587TIP3   OH2 7693   2.094   1.421   2.619
 2587TIP3    H1 7694   2.069   1.433   2.525
 2587TIP3    H2 7695   2.192   1.425   2.613
 2588TIP3   OH2 7696   2.776   2.095   4.137
 2588TIP3    H1 7697   2.852   2.066   4.086
 2588TIP3    H2 7698   2.772   2.029   4.208
 2589TIP3   OH2 7699   2.901   1.761   2.282
 2589TIP3    H1 7700   2.883   1.717   2.197
 2589TIP3    H2 7701   2.880   1.854   2.258
 2590TIP3   OH2 7702   2.378   1.482   4.130
 2590TIP3    H1 7703   2.382   1.405   4.070
 2590TIP3    H2 7704   2.337   1.550   4.072
 2591TIP3   OH2 7705   2.382   1.268   3.943
 2591TIP3    H1 7706   2.413   1.312   3.861
 2591TIP3    H2 7707   2.289   1.246   3.920
 2592TIP3   OH2 7708   2.406   1.803   3.815
 2592TIP3    H1 7709   2.493   1.814   3.774
 2592TIP3    H2 7710   2.353   1.869   3.766
 2593TIP3   OH2 7711   2.993   1.771   4.192
 2593TIP3    H1 7712   3.038   1.685   4.191
 2593TIP3    H2 7713   3.060   1.829   4.152
 2594TIP3   OH2 7714   3.028   2.030   3.932
 2594TIP3    H1 7715   2.973   2.084   3.872
 2594TIP3    H2 7716   3.117   2.047   3.893
 2595TIP3   OH2 7717   2.259   1.590   4.365
 2595TIP3    H1 7718   2.191   1.522   4.379
 2595TIP3    H2 7719   2.292   1.566   4.275
 2596TIP3   OH2 7720   2.518   1.034   4.013
 2596TIP3    H1 7721   2.468   1.114   3.987
 2596TIP3    H2 7722   2.451   0.964   3.999
 2597TIP3   OH2 7723   2.640   1.532   4.223
 2597TIP3    H1 7724   2.626   1.520   4.319
 2597TIP3    H2 7725   2.551   1.510   4.190
 2598TIP3   OH2 7726   2.885   1.498   4.082
 2598TIP3    H1 7727   2.810   1.491   4.144
 2598TIP3    H2 7728   2.959   1.462   4.135
 2599TIP3   OH2 7729   3.105   1.425   4.230
 2599TIP3    H1 7730   3.121   1.330   4.246
 2599TIP3    H2 7731   3.109   1.463   4.321
 2600TIP3   OH2 7732   2.096   1.370   4.417
 2600TIP3    H1 7733   2.110   1.281   4.380
 2600TIP3    H2 7734   2.133   1.359   4.507
 2601TIP3   OH2 7735   2.600   1.031   4.274
 2601TIP3    H1 7736   2.674   0.968   4.260
 2601TIP3    H2 7737   2.565   1.035   4.182
 2602TIP3   OH2 7738   2.672   1.253   4.425
 2602TIP3    H1 7739   2.650   1.183   4.360
 2602TIP3    H2 7740   2.595   1.314   4.416
 2603TIP3   OH2 7741   1.903   2.497   2.535
 2603TIP3    H1 7742   1.996   2.484   2.506
 2603TIP3    H2 7743   1.865   2.532   2.453
 2604TIP3   OH2 7744   1.379   1.863   2.757
 2604TIP3    H1 7745   1.469   1.891   2.727
 2604TIP3    H2 7746   1.371   1.776   2.713
 2605TIP3   OH2 7747   1.290   2.479   3.157
 2605TIP3    H1 7748   1.227   2.418   3.115
 2605TIP3    H2 7749   1.336   2.419   3.220
 2606TIP3   OH2 7750   1.427   2.324   3.340
 2606TIP3    H1 7751   1.418   2.254   3.407
 2606TIP3    H2 7752   1.481   2.389   3.389
 2607TIP3   OH2 7753   3.156   2.728   3.142
 2607TIP3    H1 7754   3.184   2.762   3.229
 2607TIP3    H2 7755   3.220   2.769   3.082
 2608TIP3   OH2 7756   3.183   2.751   3.425
 2608TIP3    H1 7757   3.137   2.664   3.418
 2608TIP3    H2 7758   3.258   2.725   3.481
 2609TIP3   OH2 7759   3.230   2.427   3.996
 2609TIP3    H1 7760   3.158   2.437   4.062
 2609TIP3    H2 7761   3.272   2.515   3.999
 2610TIP3   OH2 7762   3.038   1.929   2.616
 2610TIP3    H1 7763   3.083   2.010   2.586
 2610TIP3    H2 7764   3.095   1.899   2.689
 2611TIP3   OH2 7765   3.179   1.805   2.822
 2611TIP3    H1 7766   3.108   1.765   2.878
 2611TIP3    H2 7767   3.239   1.844   2.889
 2612TIP3   OH2 7768   3.231   2.202   3.252
 2612TIP3    H1 7769   3.282   2.132   3.205
 2612TIP3    H2 7770   3.229   2.274   3.186
 2613TIP3   OH2 7771   3.059   2.501   3.445
 2613TIP3    H1 7772   2.986   2.542   3.495
 2613TIP3    H2 7773   3.011   2.455   3.373
 2614TIP3   OH2 7774   3.109   1.712   2.459
 2614TIP3    H1 7775   3.037   1.716   2.392
 2614TIP3    H2 7776   3.082   1.787   2.516
 2615TIP3   OH2 7777   2.980   1.389   2.419
 2615TIP3    H1 7778   2.940   1.423   2.339
 2615TIP3    H2 7779   2.957   1.293   2.412
 2616TIP3   OH2 7780   2.988   1.667   2.966
 2616TIP3    H1 7781   2.997   1.570   2.958
 2616TIP3    H2 7782   2.972   1.679   3.062
 2617TIP3   OH2 7783   1.612   1.736   3.711
 2617TIP3    H1 7784   1.612   1.706   3.618
 2617TIP3    H2 7785   1.709   1.739   3.729
 2618TIP3   OH2 7786   3.275   2.090   3.824
 2618TIP3    H1 7787   3.345   2.022   3.815
 2618TIP3    H2 7788   3.300   2.155   3.756
 2619TIP3   OH2 7789   3.457   1.894   3.837
 2619TIP3    H1 7790   3.382   1.838   3.867
 2619TIP3    H2 7791   3.532   1.835   3.861
 2620TIP3   OH2 7792   2.923   1.124   2.406
 2620TIP3    H1 7793   2.998   1.090   2.458
 2620TIP3    H2 7794   2.852   1.060   2.423
 2621TIP3   OH2 7795   2.984   1.382   2.856
 2621TIP3    H1 7796   3.025   1.293   2.870
 2621TIP3    H2 7797   3.042   1.415   2.785
 2622TIP3   OH2 7798   3.141   1.555   3.343
 2622TIP3    H1 7799   3.230   1.575   3.308
 2622TIP3    H2 7800   3.153   1.589   3.435
 2623TIP3   OH2 7801   3.190   1.699   3.572
 2623TIP3    H1 7802   3.123   1.743   3.628
 2623TIP3    H2 7803   3.247   1.773   3.544
 2624TIP3   OH2 7804   1.829   1.421   4.383
 2624TIP3    H1 7805   1.927   1.417   4.388
 2624TIP3    H2 7806   1.806   1.335   4.423
 2625TIP3   OH2 7807   3.655   1.299   4.107
 2625TIP3    H1 7808   3.721   1.233   4.084
 2625TIP3    H2 7809   3.635   1.341   4.019
 2626TIP3   OH2 7810   3.093   1.132   2.896
 2626TIP3    H1 7811   3.142   1.117   2.979
 2626TIP3    H2 7812   3.032   1.055   2.895
 2627TIP3   OH2 7813   1.792   1.118   3.720
 2627TIP3    H1 7814   1.853   1.042   3.726
 2627TIP3    H2 7815   1.854   1.192   3.709
 2628TIP3   OH2 7816   1.594   1.389   3.788
 2628TIP3    H1 7817   1.644   1.385   3.704
 2628TIP3    H2 7818   1.624   1.473   3.824
 2629TIP3   OH2 7819   3.170   1.062   2.532
 2629TIP3    H1 7820   3.206   0.993   2.473
 2629TIP3    H2 7821   3.238   1.132   2.526
 2630TIP3   OH2 7822   1.581   0.906   3.298
 2630TIP3    H1 7823   1.488   0.896   3.323
 2630TIP3    H2 7824   1.572   0.954   3.212
 2631TIP3   OH2 7825   2.739   2.600   2.797
 2631TIP3    H1 7826   2.782   2.581   2.710
 2631TIP3    H2 7827   2.801   2.662   2.836
 2632TIP3   OH2 7828   1.797   0.958   4.099
 2632TIP3    H1 7829   1.750   0.968   4.183
 2632TIP3    H2 7830   1.737   1.007   4.039
 2633TIP3   OH2 7831   1.838   2.403   4.178
 2633TIP3    H1 7832   1.745   2.377   4.164
 2633TIP3    H2 7833   1.850   2.387   4.272
 2634TIP3   OH2 7834   2.018   2.437   3.727
 2634TIP3    H1 7835   1.973   2.515   3.688
 2634TIP3    H2 7836   2.105   2.449   3.683
 2635TIP3   OH2 7837   2.458   2.678   3.865
 2635TIP3    H1 7838   2.501   2.678   3.954
 2635TIP3    H2 7839   2.523   2.730   3.814
 2636TIP3   OH2 7840   2.637   2.833   3.727
 2636TIP3    H1 7841   2.707   2.782   3.683
 2636TIP3    H2 7842   2.691   2.888   3.788
 2637TIP3   OH2 7843   1.691   2.688   3.755
 2637TIP3    H1 7844   1.601   2.721   3.733
 2637TIP3    H2 7845   1.708   2.740   3.835
 2638TIP3   OH2 7846   1.929   2.670   3.613
 2638TIP3    H1 7847   1.840   2.682   3.654
 2638TIP3    H2 7848   1.912   2.701   3.521
 2639TIP3   OH2 7849   2.353   2.695   3.412
 2639TIP3    H1 7850   2.288   2.713   3.343
 2639TIP3    H2 7851   2.365   2.784   3.452
 2640TIP3   OH2 7852   2.624   2.635   3.465
 2640TIP3    H1 7853   2.531   2.653   3.443
 2640TIP3    H2 7854   2.669   2.706   3.415
 2641TIP3   OH2 7855   2.830   2.827   3.374
 2641TIP3    H1 7856   2.816   2.911   3.325
 2641TIP3    H2 7857   2.857   2.767   3.301
 2642TIP3   OH2 7858   1.602   2.481   3.497
 2642TIP3    H1 7859   1.630   2.456   3.587
 2642TIP3    H2 7860   1.675   2.440   3.445
 2643TIP3   OH2 7861   1.799   2.356   3.358
 2643TIP3    H1 7862   1.816   2.272   3.405
 2643TIP3    H2 7863   1.889   2.393   3.351
 2644TIP3   OH2 7864   2.065   2.450   3.362
 2644TIP3    H1 7865   2.098   2.360   3.344
 2644TIP3    H2 7866   2.115   2.470   3.443
 2645TIP3   OH2 7867   2.631   1.103   3.438
 2645TIP3    H1 7868   2.597   1.030   3.491
 2645TIP3    H2 7869   2.713   1.064   3.398
 2646TIP3   OH2 7870   3.160   0.973   3.342
 2646TIP3    H1 7871   3.200   1.031   3.274
 2646TIP3    H2 7872   3.073   1.015   3.355
 2647TIP3   OH2 7873   3.257   1.085   3.112
 2647TIP3    H1 7874   3.332   1.036   3.072
 2647TIP3    H2 7875   3.289   1.178   3.100
 2648TIP3   OH2 7876   1.885   0.822   3.466
 2648TIP3    H1 7877   1.796   0.787   3.445
 2648TIP3    H2 7878   1.938   0.739   3.456
 2649TIP3   OH2 7879   1.782   0.736   3.204
 2649TIP3    H1 7880   1.759   0.751   3.111
 2649TIP3    H2 7881   1.720   0.799   3.247
 2650TIP3   OH2 7882   2.336   0.846   3.342
 2650TIP3    H1 7883   2.390   0.892   3.276
 2650TIP3    H2 7884   2.366   0.888   3.424
 2651TIP3   OH2 7885   2.862   0.995   3.328
 2651TIP3    H1 7886   2.884   0.960   3.241
 2651TIP3    H2 7887   2.856   0.913   3.382
 2652TIP3   OH2 7888   2.909   0.919   2.888
 2652TIP3    H1 7889   2.823   0.963   2.904
 2652TIP3    H2 7890   2.894   0.833   2.933
 2653TIP3   OH2 7891   1.390   2.263   2.890
 2653TIP3    H1 7892   1.304   2.230   2.858
 2653TIP3    H2 7893   1.382   2.356   2.864
 2654TIP3   OH2 7894   1.793   0.869   2.924
 2654TIP3    H1 7895   1.850   0.798   2.892
 2654TIP3    H2 7896   1.860   0.936   2.946
 2655TIP3   OH2 7897   2.310   1.020   2.971
 2655TIP3    H1 7898   2.373   0.976   3.031
 2655TIP3    H2 7899   2.329   1.114   2.995
 2656TIP3   OH2 7900   2.167   2.442   2.471
 2656TIP3    H1 7901   2.255   2.464   2.434
 2656TIP3    H2 7902   2.142   2.369   2.410
 2657TIP3   OH2 7903   2.883   2.556   2.564
 2657TIP3    H1 7904   2.905   2.464   2.537
 2657TIP3    H2 7905   2.838   2.587   2.482
 2658TIP3   OH2 7906   2.098   1.082   4.340
 2658TIP3    H1 7907   2.061   1.018   4.404
 2658TIP3    H2 7908   2.191   1.087   4.373
 2659TIP3   OH2 7909   2.344   1.093   4.470
 2659TIP3    H1 7910   2.431   1.076   4.431
 2659TIP3    H2 7911   2.338   1.022   4.538
 2660TIP3   OH2 7912   1.514   2.355   2.579
 2660TIP3    H1 7913   1.488   2.312   2.660
 2660TIP3    H2 7914   1.537   2.279   2.523
 2661TIP3   OH2 7915   3.174   1.154   4.257
 2661TIP3    H1 7916   3.193   1.125   4.349
 2661TIP3    H2 7917   3.262   1.151   4.215
 2662TIP3   OH2 7918   3.107   2.707   3.750
 2662TIP3    H1 7919   3.030   2.677   3.699
 2662TIP3    H2 7920   3.088   2.802   3.756
 2663TIP3   OH2 7921   4.375   2.084   2.514
 2663TIP3    H1 7922   4.345   2.173   2.490
 2663TIP3    H2 7923   4.302   2.030   2.479
 2664TIP3   OH2 7924   4.379   2.082   2.901
 2664TIP3    H1 7925   4.412   2.052   2.988
 2664TIP3    H2 7926   4.336   2.002   2.867
 2665TIP3   OH2 7927   3.674   1.972   3.260
 2665TIP3    H1 7928   3.702   1.902   3.322
 2665TIP3    H2 7929   3.752   2.028   3.260
 2666TIP3   OH2 7930   4.621   2.384   2.580
 2666TIP3    H1 7931   4.603   2.314   2.645
 2666TIP3    H2 7932   4.651   2.457   2.637
 2667TIP3   OH2 7933   3.648   2.387   2.987
 2667TIP3    H1 7934   3.640   2.290   2.987
 2667TIP3    H2 7935   3.745   2.396   2.979
 2668TIP3   OH2 7936   3.355   1.586   2.767
 2668TIP3    H1 7937   3.305   1.667   2.788
 2668TIP3    H2 7938   3.285   1.534   2.725
 2669TIP3   OH2 7939   3.414   1.877   2.951
 2669TIP3    H1 7940   3.464   1.798   2.982
 2669TIP3    H2 7941   3.464   1.903   2.873
 2670TIP3   OH2 7942   4.277   2.845   2.599
 2670TIP3    H1 7943   4.318   2.775   2.545
 2670TIP3    H2 7944   4.252   2.796   2.679
 2671TIP3   OH2 7945   4.173   2.308   2.946
 2671TIP3    H1 7946   4.210   2.230   2.901
 2671TIP3    H2 7947   4.257   2.353   2.970
 2672TIP3   OH2 7948   5.191   1.626   2.945
 2672TIP3    H1 7949   5.221   1.709   2.986
 2672TIP3    H2 7950   5.209   1.643   2.851
 2673TIP3   OH2 7951   4.588   1.806   2.975
 2673TIP3    H1 7952   4.629   1.720   2.996
 2673TIP3    H2 7953   4.556   1.790   2.885
 2674TIP3   OH2 7954   3.930   1.466   2.940
 2674TIP3    H1 7955   3.907   1.539   2.878
 2674TIP3    H2 7956   3.881   1.392   2.898
 2675TIP3   OH2 7957   4.621   1.559   2.564
 2675TIP3    H1 7958   4.693   1.543   2.629
 2675TIP3    H2 7959   4.673   1.593   2.489
 2676TIP3   OH2 7960   3.561   1.669   3.048
 2676TIP3    H1 7961   3.643   1.648   3.097
 2676TIP3    H2 7962   3.574   1.611   2.969
 2677TIP3   OH2 7963   3.997   1.865   2.845
 2677TIP3    H1 7964   4.091   1.840   2.857
 2677TIP3    H2 7965   3.958   1.781   2.812
 2678TIP3   OH2 7966   5.264   1.837   3.111
 2678TIP3    H1 7967   5.179   1.881   3.091
 2678TIP3    H2 7968   5.271   1.857   3.206
 2679TIP3   OH2 7969   3.921   1.449   3.377
 2679TIP3    H1 7970   3.862   1.486   3.308
 2679TIP3    H2 7971   3.870   1.471   3.457
 2680TIP3   OH2 7972   4.276   2.309   2.375
 2680TIP3    H1 7973   4.225   2.285   2.296
 2680TIP3    H2 7974   4.223   2.385   2.408
 2681TIP3   OH2 7975   4.030   2.227   3.170
 2681TIP3    H1 7976   3.967   2.294   3.207
 2681TIP3    H2 7977   4.067   2.275   3.093
 2682TIP3   OH2 7978   4.828   1.562   2.740
 2682TIP3    H1 7979   4.807   1.519   2.824
 2682TIP3    H2 7980   4.876   1.642   2.770
 2683TIP3   OH2 7981   3.796   1.565   3.160
 2683TIP3    H1 7982   3.858   1.637   3.185
 2683TIP3    H2 7983   3.844   1.525   3.084
 2684TIP3   OH2 7984   3.858   2.422   3.270
 2684TIP3    H1 7985   3.831   2.508   3.233
 2684TIP3    H2 7986   3.779   2.403   3.325
 2685TIP3   OH2 7987   3.240   2.116   2.496
 2685TIP3    H1 7988   3.165   2.156   2.448
 2685TIP3    H2 7989   3.277   2.195   2.539
 2686TIP3   OH2 7990   4.690   2.625   2.746
 2686TIP3    H1 7991   4.600   2.618   2.785
 2686TIP3    H2 7992   4.683   2.711   2.701
 2687TIP3   OH2 7993   4.982   1.527   3.111
 2687TIP3    H1 7994   4.894   1.550   3.077
 2687TIP3    H2 7995   5.041   1.559   3.040
 2688TIP3   OH2 7996   4.275   1.167   3.094
 2688TIP3    H1 7997   4.258   1.072   3.109
 2688TIP3    H2 7998   4.198   1.207   3.141
 2689TIP3   OH2 7999   4.392   2.669   2.417
 2689TIP3    H1 8000   4.442   2.587   2.400
 2689TIP3    H2 8001   4.455   2.735   2.379
 2690TIP3   OH2 8002   4.532   2.445   2.328
 2690TIP3    H1 8003   4.458   2.381   2.320
 2690TIP3    H2 8004   4.573   2.416   2.412
 2691TIP3   OH2 8005   4.913   2.538   3.087
 2691TIP3    H1 8006   4.901   2.458   3.031
 2691TIP3    H2 8007   4.901   2.610   3.023
 2692TIP3   OH2 8008   4.209   1.933   2.350
 2692TIP3    H1 8009   4.126   1.984   2.331
 2692TIP3    H2 8010   4.249   1.928   2.261
 2693TIP3   OH2 8011   4.165   1.718   2.060
 2693TIP3    H1 8012   4.232   1.771   2.107
 2693TIP3    H2 8013   4.223   1.654   2.013
 2694TIP3   OH2 8014   5.111   2.180   2.936
 2694TIP3    H1 8015   5.026   2.228   2.940
 2694TIP3    H2 8016   5.138   2.201   2.844
 2695TIP3   OH2 8017   4.552   2.017   2.317
 2695TIP3    H1 8018   4.499   2.039   2.397
 2695TIP3    H2 8019   4.636   1.986   2.359
 2696TIP3   OH2 8020   4.789   2.052   3.234
 2696TIP3    H1 8021   4.785   2.135   3.284
 2696TIP3    H2 8022   4.702   2.054   3.189
 2697TIP3   OH2 8023   3.786   2.011   2.735
 2697TIP3    H1 8024   3.743   1.954   2.668
 2697TIP3    H2 8025   3.862   1.956   2.765
 2698TIP3   OH2 8026   3.917   2.426   2.882
 2698TIP3    H1 8027   3.892   2.390   2.795
 2698TIP3    H2 8028   4.005   2.386   2.897
 2699TIP3   OH2 8029   3.929   1.979   3.093
 2699TIP3    H1 8030   3.955   1.957   3.002
 2699TIP3    H2 8031   3.967   2.069   3.106
 2700TIP3   OH2 8032   4.450   2.622   2.871
 2700TIP3    H1 8033   4.440   2.694   2.935
 2700TIP3    H2 8034   4.433   2.542   2.926
 2701TIP3   OH2 8035   4.062   2.538   3.414
 2701TIP3    H1 8036   4.001   2.599   3.460
 2701TIP3    H2 8037   3.997   2.485   3.362
 2702TIP3   OH2 8038   4.394   1.871   2.143
 2702TIP3    H1 8039   4.451   1.934   2.193
 2702TIP3    H2 8040   4.422   1.891   2.050
 2703TIP3   OH2 8041   3.816   2.092   3.519
 2703TIP3    H1 8042   3.821   2.181   3.560
 2703TIP3    H2 8043   3.722   2.071   3.534
 2704TIP3   OH2 8044   4.141   2.547   2.424
 2704TIP3    H1 8045   4.220   2.604   2.429
 2704TIP3    H2 8046   4.078   2.602   2.375
 2705TIP3   OH2 8047   3.856   2.703   3.502
 2705TIP3    H1 8048   3.820   2.707   3.412
 2705TIP3    H2 8049   3.776   2.682   3.555
 2706TIP3   OH2 8050   4.910   1.110   2.195
 2706TIP3    H1 8051   4.828   1.132   2.244
 2706TIP3    H2 8052   4.924   1.193   2.145
 2707TIP3   OH2 8053   3.652   1.856   2.540
 2707TIP3    H1 8054   3.584   1.901   2.486
 2707TIP3    H2 8055   3.613   1.768   2.550
 2708TIP3   OH2 8056   4.707   2.479   1.747
 2708TIP3    H1 8057   4.711   2.574   1.725
 2708TIP3    H2 8058   4.799   2.451   1.732
 2709TIP3   OH2 8059   3.434   2.238   3.448
 2709TIP3    H1 8060   3.365   2.219   3.381
 2709TIP3    H2 8061   3.470   2.149   3.467
 2710TIP3   OH2 8062   3.288   2.429   3.083
 2710TIP3    H1 8063   3.384   2.426   3.070
 2710TIP3    H2 8064   3.277   2.510   3.135
 2711TIP3   OH2 8065   5.159   2.881   3.139
 2711TIP3    H1 8066   5.157   2.784   3.151
 2711TIP3    H2 8067   5.075   2.905   3.183
 2712TIP3   OH2 8068   4.256   2.666   3.271
 2712TIP3    H1 8069   4.254   2.759   3.304
 2712TIP3    H2 8070   4.184   2.626   3.324
 2713TIP3   OH2 8071   4.024   2.796   2.223
 2713TIP3    H1 8072   3.975   2.776   2.142
 2713TIP3    H2 8073   3.987   2.882   2.250
 2714TIP3   OH2 8074   3.460   2.645   2.608
 2714TIP3    H1 8075   3.500   2.633   2.696
 2714TIP3    H2 8076   3.408   2.562   2.601
 2715TIP3   OH2 8077   4.218   2.707   1.864
 2715TIP3    H1 8078   4.274   2.634   1.829
 2715TIP3    H2 8079   4.253   2.715   1.955
 2716TIP3   OH2 8080   4.274   2.748   2.133
 2716TIP3    H1 8081   4.184   2.759   2.171
 2716TIP3    H2 8082   4.321   2.707   2.208
 2717TIP3   OH2 8083   5.042   2.013   3.410
 2717TIP3    H1 8084   4.957   2.023   3.365
 2717TIP3    H2 8085   5.058   1.917   3.401
 2718TIP3   OH2 8086   3.638   2.420   3.433
 2718TIP3    H1 8087   3.686   2.404   3.516
 2718TIP3    H2 8088   3.563   2.357   3.440
 2719TIP3   OH2 8089   4.039   1.244   3.224
 2719TIP3    H1 8090   3.951   1.213   3.193
 2719TIP3    H2 8091   4.011   1.325   3.271
 2720TIP3   OH2 8092   4.573   1.359   3.416
 2720TIP3    H1 8093   4.642   1.330   3.479
 2720TIP3    H2 8094   4.490   1.339   3.464
 2721TIP3   OH2 8095   4.811   1.791   3.337
 2721TIP3    H1 8096   4.758   1.786   3.420
 2721TIP3    H2 8097   4.785   1.876   3.299
 2722TIP3   OH2 8098   4.477   1.914   1.890
 2722TIP3    H1 8099   4.437   1.894   1.803
 2722TIP3    H2 8100   4.555   1.966   1.864
 2723TIP3   OH2 8101   4.185   1.289   2.194
 2723TIP3    H1 8102   4.147   1.286   2.284
 2723TIP3    H2 8103   4.142   1.210   2.155
 2724TIP3   OH2 8104   3.973   1.759   3.244
 2724TIP3    H1 8105   3.918   1.779   3.323
 2724TIP3    H2 8106   3.957   1.841   3.190
 2725TIP3   OH2 8107   3.854   1.647   2.754
 2725TIP3    H1 8108   3.761   1.621   2.772
 2725TIP3    H2 8109   3.865   1.606   2.665
 2726TIP3   OH2 8110   4.345   1.733   2.485
 2726TIP3    H1 8111   4.294   1.804   2.440
 2726TIP3    H2 8112   4.398   1.698   2.411
 2727TIP3   OH2 8113   4.519   2.007   3.565
 2727TIP3    H1 8114   4.496   1.935   3.628
 2727TIP3    H2 8115   4.612   2.022   3.589
 2728TIP3   OH2 8116   4.501   1.760   2.718
 2728TIP3    H1 8117   4.438   1.786   2.649
 2728TIP3    H2 8118   4.536   1.680   2.674
 2729TIP3   OH2 8119   3.790   1.786   3.448
 2729TIP3    H1 8120   3.808   1.851   3.517
 2729TIP3    H2 8121   3.777   1.704   3.499
 2730TIP3   OH2 8122   3.843   1.270   2.158
 2730TIP3    H1 8123   3.828   1.265   2.255
 2730TIP3    H2 8124   3.763   1.319   2.130
 2731TIP3   OH2 8125   3.380   1.309   3.028
 2731TIP3    H1 8126   3.453   1.343   3.083
 2731TIP3    H2 8127   3.424   1.280   2.947
 2732TIP3   OH2 8128   3.349   1.292   2.550
 2732TIP3    H1 8129   3.394   1.328   2.470
 2732TIP3    H2 8130   3.286   1.365   2.567
 2733TIP3   OH2 8131   4.514   2.004   3.141
 2733TIP3    H1 8132   4.547   1.933   3.082
 2733TIP3    H2 8133   4.482   1.950   3.216
 2734TIP3   OH2 8134   4.186   1.466   2.814
 2734TIP3    H1 8135   4.102   1.466   2.864
 2734TIP3    H2 8136   4.252   1.463   2.885
 2735TIP3   OH2 8137   3.615   1.526   2.820
 2735TIP3    H1 8138   3.521   1.535   2.792
 2735TIP3    H2 8139   3.635   1.433   2.798
 2736TIP3   OH2 8140   3.881   1.520   2.513
 2736TIP3    H1 8141   3.973   1.535   2.486
 2736TIP3    H2 8142   3.830   1.541   2.430
 2737TIP3   OH2 8143   4.673   1.543   3.016
 2737TIP3    H1 8144   4.642   1.557   3.108
 2737TIP3    H2 8145   4.603   1.483   2.983
 2738TIP3   OH2 8146   3.731   1.555   2.291
 2738TIP3    H1 8147   3.658   1.510   2.244
 2738TIP3    H2 8148   3.781   1.590   2.214
 2739TIP3   OH2 8149   3.801   2.344   3.656
 2739TIP3    H1 8150   3.880   2.373   3.705
 2739TIP3    H2 8151   3.736   2.340   3.728
 2740TIP3   OH2 8152   4.262   1.798   2.914
 2740TIP3    H1 8153   4.335   1.757   2.865
 2740TIP3    H2 8154   4.266   1.753   3.000
 2741TIP3   OH2 8155   3.787   1.282   2.794
 2741TIP3    H1 8156   3.748   1.206   2.843
 2741TIP3    H2 8157   3.821   1.239   2.715
 2742TIP3   OH2 8158   4.240   1.698   3.198
 2742TIP3    H1 8159   4.149   1.730   3.215
 2742TIP3    H2 8160   4.295   1.759   3.250
 2743TIP3   OH2 8161   3.978   2.083   2.299
 2743TIP3    H1 8162   3.906   2.017   2.286
 2743TIP3    H2 8163   3.955   2.117   2.389
 2744TIP3   OH2 8164   4.875   2.320   2.924
 2744TIP3    H1 8165   4.897   2.371   2.843
 2744TIP3    H2 8166   4.791   2.275   2.898
 2745TIP3   OH2 8167   4.434   1.392   2.164
 2745TIP3    H1 8168   4.338   1.371   2.172
 2745TIP3    H2 8169   4.438   1.487   2.188
 2746TIP3   OH2 8170   4.393   2.416   3.291
 2746TIP3    H1 8171   4.400   2.381   3.381
 2746TIP3    H2 8172   4.335   2.494   3.303
 2747TIP3   OH2 8173   4.500   1.645   2.268
 2747TIP3    H1 8174   4.597   1.651   2.282
 2747TIP3    H2 8175   4.481   1.725   2.215
 2748TIP3   OH2 8176   3.676   2.114   2.972
 2748TIP3    H1 8177   3.709   2.079   2.886
 2748TIP3    H2 8178   3.705   2.045   3.034
 2749TIP3   OH2 8179   4.123   2.234   2.124
 2749TIP3    H1 8180   4.074   2.319   2.125
 2749TIP3    H2 8181   4.066   2.179   2.182
 2750TIP3   OH2 8182   3.554   2.021   3.585
 2750TIP3    H1 8183   3.562   2.005   3.681
 2750TIP3    H2 8184   3.480   1.962   3.562
 2751TIP3   OH2 8185   4.277   2.144   3.604
 2751TIP3    H1 8186   4.213   2.082   3.564
 2751TIP3    H2 8187   4.362   2.104   3.574
 2752TIP3   OH2 8188   4.536   2.701   3.179
 2752TIP3    H1 8189   4.445   2.669   3.195
 2752TIP3    H2 8190   4.562   2.726   3.270
 2753TIP3   OH2 8191   4.950   1.729   2.085
 2753TIP3    H1 8192   4.885   1.663   2.053
 2753TIP3    H2 8193   4.936   1.793   2.015
 2754TIP3   OH2 8194   5.164   2.594   3.178
 2754TIP3    H1 8195   5.066   2.588   3.170
 2754TIP3    H2 8196   5.190   2.563   3.088
 2755TIP3   OH2 8197   4.662   2.551   2.013
 2755TIP3    H1 8198   4.599   2.494   2.059
 2755TIP3    H2 8199   4.664   2.514   1.923
 2756TIP3   OH2 8200   4.642   2.183   2.841
 2756TIP3    H1 8201   4.549   2.157   2.854
 2756TIP3    H2 8202   4.676   2.103   2.796
 2757TIP3   OH2 8203   3.771   2.413   2.599
 2757TIP3    H1 8204   3.764   2.493   2.543
 2757TIP3    H2 8205   3.678   2.389   2.609
 2758TIP3   OH2 8206   3.339   1.713   2.305
 2758TIP3    H1 8207   3.379   1.801   2.325
 2758TIP3    H2 8208   3.259   1.717   2.362
 2759TIP3   OH2 8209   3.906   2.176   2.542
 2759TIP3    H1 8210   3.870   2.265   2.560
 2759TIP3    H2 8211   3.868   2.124   2.615
 2760TIP3   OH2 8212   4.039   2.753   3.067
 2760TIP3    H1 8213   4.080   2.826   3.016
 2760TIP3    H2 8214   4.116   2.717   3.114
 2761TIP3   OH2 8215   3.689   2.649   2.450
 2761TIP3    H1 8216   3.603   2.658   2.495
 2761TIP3    H2 8217   3.720   2.742   2.451
 2762TIP3   OH2 8218   4.429   2.389   3.024
 2762TIP3    H1 8219   4.418   2.388   3.122
 2762TIP3    H2 8220   4.501   2.326   3.012
 2763TIP3   OH2 8221   4.399   2.277   1.906
 2763TIP3    H1 8222   4.447   2.246   1.986
 2763TIP3    H2 8223   4.308   2.254   1.930
 2764TIP3   OH2 8224   4.661   2.920   3.072
 2764TIP3    H1 8225   4.623   2.845   3.123
 2764TIP3    H2 8226   4.595   2.920   2.998
 2765TIP3   OH2 8227   4.739   2.752   1.728
 2765TIP3    H1 8228   4.759   2.807   1.651
 2765TIP3    H2 8229   4.664   2.804   1.765
 2766TIP3   OH2 8230   3.771   1.530   3.592
 2766TIP3    H1 8231   3.680   1.514   3.625
 2766TIP3    H2 8232   3.818   1.487   3.665
 2767TIP3   OH2 8233   4.552   2.205   2.121
 2767TIP3    H1 8234   4.538   2.140   2.193
 2767TIP3    H2 8235   4.634   2.246   2.150
 2768TIP3   OH2 8236   3.479   2.615   3.224
 2768TIP3    H1 8237   3.531   2.540   3.258
 2768TIP3    H2 8238   3.506   2.686   3.284
 2769TIP3   OH2 8239   3.769   2.260   1.907
 2769TIP3    H1 8240   3.779   2.167   1.881
 2769TIP3    H2 8241   3.748   2.252   2.002
 2770TIP3   OH2 8242   3.715   2.268   2.177
 2770TIP3    H1 8243   3.784   2.241   2.239
 2770TIP3    H2 8244   3.717   2.366   2.187
 2771TIP3   OH2 8245   3.446   1.962   2.386
 2771TIP3    H1 8246   3.375   2.008   2.436
 2771TIP3    H2 8247   3.458   2.028   2.314
 2772TIP3   OH2 8248   4.603   1.595   3.276
 2772TIP3    H1 8249   4.682   1.632   3.319
 2772TIP3    H2 8250   4.587   1.514   3.330
 2773TIP3   OH2 8251   4.483   1.342   2.445
 2773TIP3    H1 8252   4.466   1.363   2.351
 2773TIP3    H2 8253   4.519   1.427   2.479
 2774TIP3   OH2 8254   3.983   2.465   2.131
 2774TIP3    H1 8255   3.894   2.487   2.165
 2774TIP3    H2 8256   3.993   2.535   2.065
 2775TIP3   OH2 8257   4.169   1.528   2.544
 2775TIP3    H1 8258   4.230   1.602   2.529
 2775TIP3    H2 8259   4.172   1.520   2.642
 2776TIP3   OH2 8260   4.438   1.845   3.348
 2776TIP3    H1 8261   4.460   1.897   3.427
 2776TIP3    H2 8262   4.489   1.763   3.361
 2777TIP3   OH2 8263   4.309   1.250   2.645
 2777TIP3    H1 8264   4.295   1.330   2.699
 2777TIP3    H2 8265   4.371   1.283   2.577
 2778TIP3   OH2 8266   3.728   2.539   2.198
 2778TIP3    H1 8267   3.695   2.608   2.136
 2778TIP3    H2 8268   3.708   2.581   2.285
 2779TIP3   OH2 8269   3.823   1.254   2.436
 2779TIP3    H1 8270   3.820   1.345   2.472
 2779TIP3    H2 8271   3.920   1.237   2.441
 2780TIP3   OH2 8272   5.077   1.745   3.328
 2780TIP3    H1 8273   4.979   1.747   3.340
 2780TIP3    H2 8274   5.081   1.692   3.247
 2781TIP3   OH2 8275   4.730   1.942   2.719
 2781TIP3    H1 8276   4.653   1.883   2.726
 2781TIP3    H2 8277   4.799   1.892   2.766
 2782TIP3   OH2 8278   3.449   2.161   2.195
 2782TIP3    H1 8279   3.512   2.234   2.199
 2782TIP3    H2 8280   3.489   2.108   2.123
 2783TIP3   OH2 8281   3.384   1.443   2.325
 2783TIP3    H1 8282   3.382   1.541   2.322
 2783TIP3    H2 8283   3.308   1.420   2.269
 2784TIP3   OH2 8284   4.697   2.891   2.671
 2784TIP3    H1 8285   4.651   2.948   2.606
 2784TIP3    H2 8286   4.789   2.918   2.652
 2785TIP3   OH2 8287   3.776   1.163   3.193
 2785TIP3    H1 8288   3.743   1.132   3.105
 2785TIP3    H2 8289   3.764   1.083   3.248
 2786TIP3   OH2 8290   3.313   2.396   2.578
 2786TIP3    H1 8291   3.232   2.404   2.630
 2786TIP3    H2 8292   3.281   2.430   2.491
 2787TIP3   OH2 8293   3.471   2.930   3.647
 2787TIP3    H1 8294   3.557   2.931   3.694
 2787TIP3    H2 8295   3.451   2.835   3.647
 2788TIP3   OH2 8296   3.946   2.886   3.693
 2788TIP3    H1 8297   4.041   2.868   3.698
 2788TIP3    H2 8298   3.920   2.824   3.622
 2789TIP3   OH2 8299   3.931   2.464   1.819
 2789TIP3    H1 8300   3.876   2.390   1.854
 2789TIP3    H2 8301   4.007   2.415   1.782
 2790TIP3   OH2 8302   4.599   2.793   3.424
 2790TIP3    H1 8303   4.584   2.726   3.495
 2790TIP3    H2 8304   4.672   2.846   3.461
 2791TIP3   OH2 8305   4.359   2.507   1.750
 2791TIP3    H1 8306   4.408   2.436   1.795
 2791TIP3    H2 8307   4.398   2.505   1.659
 2792TIP3   OH2 8308   3.598   2.332   3.847
 2792TIP3    H1 8309   3.615   2.236   3.853
 2792TIP3    H2 8310   3.512   2.335   3.801
 2793TIP3   OH2 8311   3.578   1.979   2.040
 2793TIP3    H1 8312   3.632   1.949   2.115
 2793TIP3    H2 8313   3.646   1.984   1.970
 2794TIP3   OH2 8314   4.206   2.420   3.621
 2794TIP3    H1 8315   4.161   2.438   3.536
 2794TIP3    H2 8316   4.234   2.326   3.611
 2795TIP3   OH2 8317   4.096   2.182   1.853
 2795TIP3    H1 8318   4.092   2.192   1.950
 2795TIP3    H2 8319   4.094   2.084   1.844
 2796TIP3   OH2 8320   4.702   2.424   3.232
 2796TIP3    H1 8321   4.772   2.474   3.185
 2796TIP3    H2 8322   4.623   2.478   3.215
 2797TIP3   OH2 8323   3.717   2.074   3.832
 2797TIP3    H1 8324   3.786   2.011   3.808
 2797TIP3    H2 8325   3.748   2.103   3.921
 2798TIP3   OH2 8326   3.787   1.887   2.265
 2798TIP3    H1 8327   3.752   1.846   2.345
 2798TIP3    H2 8328   3.821   1.810   2.215
 2799TIP3   OH2 8329   4.057   1.955   3.497
 2799TIP3    H1 8330   3.975   2.008   3.494
 2799TIP3    H2 8331   4.106   1.989   3.418
 2800TIP3   OH2 8332   3.885   1.682   2.102
 2800TIP3    H1 8333   3.860   1.690   2.008
 2800TIP3    H2 8334   3.983   1.683   2.095
 2801TIP3   OH2 8335   4.573   2.355   3.625
 2801TIP3    H1 8336   4.649   2.320   3.578
 2801TIP3    H2 8337   4.563   2.290   3.697
 2802TIP3   OH2 8338   4.727   2.009   1.772
 2802TIP3    H1 8339   4.701   1.963   1.691
 2802TIP3    H2 8340   4.687   2.097   1.753
 2803TIP3   OH2 8341   4.181   1.741   3.613
 2803TIP3    H1 8342   4.177   1.662   3.555
 2803TIP3    H2 8343   4.134   1.809   3.559
 2804TIP3   OH2 8344   4.179   1.526   3.425
 2804TIP3    H1 8345   4.206   1.567   3.341
 2804TIP3    H2 8346   4.085   1.503   3.406
 2805TIP3   OH2 8347   4.204   2.063   3.300
 2805TIP3    H1 8348   4.287   2.072   3.251
 2805TIP3    H2 8349   4.145   2.125   3.252
 2806TIP3   OH2 8350   4.784   2.025   3.676
 2806TIP3    H1 8351   4.833   1.943   3.692
 2806TIP3    H2 8352   4.853   2.084   3.641
 2807TIP3   OH2 8353   4.830   2.280   3.417
 2807TIP3    H1 8354   4.772   2.334   3.359
 2807TIP3    H2 8355   4.918   2.301   3.377
 2808TIP3   OH2 8356   4.060   1.847   3.850
 2808TIP3    H1 8357   3.992   1.778   3.865
 2808TIP3    H2 8358   4.090   1.826   3.760
 2809TIP3   OH2 8359   4.311   1.288   3.495
 2809TIP3    H1 8360   4.261   1.369   3.471
 2809TIP3    H2 8361   4.244   1.218   3.483
 2810TIP3   OH2 8362   4.438   1.790   3.709
 2810TIP3    H1 8363   4.421   1.775   3.804
 2810TIP3    H2 8364   4.349   1.767   3.674
 2811TIP3   OH2 8365   4.675   1.740   3.564
 2811TIP3    H1 8366   4.601   1.743   3.628
 2811TIP3    H2 8367   4.750   1.711   3.620
 2812TIP3   OH2 8368   4.908   1.684   3.712
 2812TIP3    H1 8369   4.920   1.588   3.728
 2812TIP3    H2 8370   4.902   1.721   3.802
 2813TIP3   OH2 8371   3.901   1.626   3.899
 2813TIP3    H1 8372   3.899   1.534   3.864
 2813TIP3    H2 8373   3.930   1.611   3.991
 2814TIP3   OH2 8374   4.399   1.299   3.754
 2814TIP3    H1 8375   4.466   1.227   3.749
 2814TIP3    H2 8376   4.362   1.294   3.664
 2815TIP3   OH2 8377   4.473   1.513   3.911
 2815TIP3    H1 8378   4.451   1.443   3.847
 2815TIP3    H2 8379   4.395   1.572   3.904
 2816TIP3   OH2 8380   3.695   2.744   2.012
 2816TIP3    H1 8381   3.790   2.734   1.991
 2816TIP3    H2 8382   3.666   2.794   1.933
 2817TIP3   OH2 8383   3.177   2.139   2.153
 2817TIP3    H1 8384   3.263   2.151   2.197
 2817TIP3    H2 8385   3.165   2.042   2.159
 2818TIP3   OH2 8386   3.085   2.740   2.641
 2818TIP3    H1 8387   3.022   2.677   2.599
 2818TIP3    H2 8388   3.132   2.680   2.703
 2819TIP3   OH2 8389   3.218   2.590   2.830
 2819TIP3    H1 8390   3.207   2.513   2.887
 2819TIP3    H2 8391   3.274   2.647   2.885
 2820TIP3   OH2 8392   4.952   2.988   2.628
 2820TIP3    H1 8393   4.990   3.022   2.710
 2820TIP3    H2 8394   5.015   3.018   2.561
 2821TIP3   OH2 8395   4.954   3.033   2.914
 2821TIP3    H1 8396   4.916   2.943   2.908
 2821TIP3    H2 8397   5.034   3.013   2.965
 2822TIP3   OH2 8398   5.025   2.684   3.482
 2822TIP3    H1 8399   4.954   2.695   3.549
 2822TIP3    H2 8400   5.069   2.771   3.486
 2823TIP3   OH2 8401   5.031   2.458   2.739
 2823TIP3    H1 8402   5.077   2.388   2.689
 2823TIP3    H2 8403   5.025   2.530   2.673
 2824TIP3   OH2 8404   4.856   2.760   2.928
 2824TIP3    H1 8405   4.778   2.790   2.977
 2824TIP3    H2 8406   4.814   2.714   2.851
 2825TIP3   OH2 8407   4.777   1.647   1.893
 2825TIP3    H1 8408   4.724   1.681   1.821
 2825TIP3    H2 8409   4.754   1.552   1.890
 2826TIP3   OH2 8410   4.769   1.916   2.445
 2826TIP3    H1 8411   4.788   1.821   2.443
 2826TIP3    H2 8412   4.768   1.935   2.541
 2827TIP3   OH2 8413   3.408   1.994   3.200
 2827TIP3    H1 8414   3.405   1.961   3.108
 2827TIP3    H2 8415   3.505   1.995   3.215
 2828TIP3   OH2 8416   5.075   2.347   3.308
 2828TIP3    H1 8417   5.145   2.279   3.297
 2828TIP3    H2 8418   5.101   2.415   3.244
 2829TIP3   OH2 8419   5.258   2.147   3.315
 2829TIP3    H1 8420   5.182   2.099   3.356
 2829TIP3    H2 8421   5.330   2.083   3.335
 2830TIP3   OH2 8422   4.719   1.383   1.893
 2830TIP3    H1 8423   4.790   1.345   1.948
 2830TIP3    H2 8424   4.644   1.323   1.909
 2831TIP3   OH2 8425   4.781   1.634   2.346
 2831TIP3    H1 8426   4.819   1.543   2.357
 2831TIP3    H2 8427   4.847   1.673   2.286
 2832TIP3   OH2 8428   4.941   1.806   2.841
 2832TIP3    H1 8429   5.026   1.830   2.800
 2832TIP3    H2 8430   4.954   1.844   2.930
 2833TIP3   OH2 8431   5.012   1.955   3.069
 2833TIP3    H1 8432   4.935   1.987   3.119
 2833TIP3    H2 8433   5.044   2.038   3.026
 2834TIP3   OH2 8434   3.639   1.706   3.895
 2834TIP3    H1 8435   3.730   1.675   3.896
 2834TIP3    H2 8436   3.594   1.622   3.864
 2835TIP3   OH2 8437   5.463   1.550   3.625
 2835TIP3    H1 8438   5.524   1.484   3.584
 2835TIP3    H2 8439   5.432   1.600   3.548
 2836TIP3   OH2 8440   4.891   1.385   2.380
 2836TIP3    H1 8441   4.936   1.371   2.465
 2836TIP3    H2 8442   4.828   1.310   2.380
 2837TIP3   OH2 8443   3.592   1.373   3.192
 2837TIP3    H1 8444   3.653   1.298   3.205
 2837TIP3    H2 8445   3.654   1.448   3.190
 2838TIP3   OH2 8446   3.393   1.642   3.272
 2838TIP3    H1 8447   3.442   1.645   3.188
 2838TIP3    H2 8448   3.415   1.727   3.312
 2839TIP3   OH2 8449   5.331   1.684   3.429
 2839TIP3    H1 8450   5.247   1.728   3.452
 2839TIP3    H2 8451   5.297   1.611   3.373
 2840TIP3   OH2 8452   4.967   1.318   2.019
 2840TIP3    H1 8453   5.002   1.246   1.962
 2840TIP3    H2 8454   5.037   1.385   2.013
 2841TIP3   OH2 8455   3.377   1.148   2.776
 2841TIP3    H1 8456   3.284   1.143   2.804
 2841TIP3    H2 8457   3.371   1.208   2.698
 2842TIP3   OH2 8458   4.538   2.855   2.286
 2842TIP3    H1 8459   4.584   2.843   2.200
 2842TIP3    H2 8460   4.592   2.924   2.326
 2843TIP3   OH2 8461   3.635   2.660   3.666
 2843TIP3    H1 8462   3.542   2.635   3.649
 2843TIP3    H2 8463   3.644   2.640   3.760
 2844TIP3   OH2 8464   3.814   2.693   3.216
 2844TIP3    H1 8465   3.765   2.768   3.177
 2844TIP3    H2 8466   3.899   2.707   3.170
 2845TIP3   OH2 8467   4.255   2.932   3.350
 2845TIP3    H1 8468   4.295   2.931   3.439
 2845TIP3    H2 8469   4.318   2.990   3.302
 2846TIP3   OH2 8470   4.434   3.091   3.214
 2846TIP3    H1 8471   4.498   3.031   3.171
 2846TIP3    H2 8472   4.492   3.139   3.278
 2847TIP3   OH2 8473   5.231   1.446   3.312
 2847TIP3    H1 8474   5.141   1.435   3.277
 2847TIP3    H2 8475   5.266   1.355   3.303
 2848TIP3   OH2 8476   3.490   2.950   3.239
 2848TIP3    H1 8477   3.399   2.980   3.217
 2848TIP3    H2 8478   3.501   2.993   3.325
 2849TIP3   OH2 8479   3.727   2.928   3.099
 2849TIP3    H1 8480   3.639   2.940   3.142
 2849TIP3    H2 8481   3.707   2.957   3.008
 2850TIP3   OH2 8482   4.150   2.949   2.899
 2850TIP3    H1 8483   4.080   2.963   2.833
 2850TIP3    H2 8484   4.159   3.038   2.938
 2851TIP3   OH2 8485   4.428   2.924   2.927
 2851TIP3    H1 8486   4.331   2.914   2.936
 2851TIP3    H2 8487   4.432   2.963   2.839
 2852TIP3   OH2 8488   3.400   2.741   2.986
 2852TIP3    H1 8489   3.429   2.713   3.076
 2852TIP3    H2 8490   3.471   2.698   2.933
 2853TIP3   OH2 8491   3.595   2.614   2.846
 2853TIP3    H1 8492   3.610   2.530   2.894
 2853TIP3    H2 8493   3.686   2.648   2.837
 2854TIP3   OH2 8494   3.865   2.706   2.846
 2854TIP3    H1 8495   3.892   2.613   2.834
 2854TIP3    H2 8496   3.910   2.726   2.930
 2855TIP3   OH2 8497   4.440   1.364   2.939
 2855TIP3    H1 8498   4.394   1.293   2.986
 2855TIP3    H2 8499   4.509   1.315   2.890
 2856TIP3   OH2 8500   4.956   1.244   2.830
 2856TIP3    H1 8501   4.991   1.299   2.756
 2856TIP3    H2 8502   4.861   1.263   2.825
 2857TIP3   OH2 8503   5.055   1.349   2.598
 2857TIP3    H1 8504   5.129   1.296   2.560
 2857TIP3    H2 8505   5.088   1.441   2.582
 2858TIP3   OH2 8506   3.685   1.072   2.946
 2858TIP3    H1 8507   3.591   1.041   2.949
 2858TIP3    H2 8508   3.731   0.986   2.941
 2859TIP3   OH2 8509   3.483   0.942   2.599
 2859TIP3    H1 8510   3.506   0.997   2.522
 2859TIP3    H2 8511   3.450   1.009   2.662
 2860TIP3   OH2 8512   4.134   1.099   2.828
 2860TIP3    H1 8513   4.188   1.149   2.765
 2860TIP3    H2 8514   4.153   1.145   2.911
 2861TIP3   OH2 8515   4.675   1.251   2.810
 2861TIP3    H1 8516   4.669   1.210   2.723
 2861TIP3    H2 8517   4.664   1.173   2.869
 2862TIP3   OH2 8518   4.705   1.176   2.376
 2862TIP3    H1 8519   4.619   1.220   2.392
 2862TIP3    H2 8520   4.689   1.090   2.419
 2863TIP3   OH2 8521   3.194   2.514   2.367
 2863TIP3    H1 8522   3.115   2.456   2.378
 2863TIP3    H2 8523   3.158   2.594   2.325
 2864TIP3   OH2 8524   3.591   1.097   2.364
 2864TIP3    H1 8525   3.634   1.034   2.302
 2864TIP3    H2 8526   3.667   1.148   2.396
 2865TIP3   OH2 8527   4.100   1.279   2.457
 2865TIP3    H1 8528   4.158   1.230   2.517
 2865TIP3    H2 8529   4.123   1.371   2.482
 2866TIP3   OH2 8530   3.960   2.698   1.958
 2866TIP3    H1 8531   4.048   2.722   1.921
 2866TIP3    H2 8532   3.938   2.624   1.896
 2867TIP3   OH2 8533   4.681   2.822   2.053
 2867TIP3    H1 8534   4.679   2.724   2.041
 2867TIP3    H2 8535   4.635   2.851   1.971
 2868TIP3   OH2 8536   3.917   1.357   3.831
 2868TIP3    H1 8537   3.851   1.309   3.883
 2868TIP3    H2 8538   4.000   1.339   3.879
 2869TIP3   OH2 8539   4.165   1.328   3.968
 2869TIP3    H1 8540   4.227   1.343   3.895
 2869TIP3    H2 8541   4.210   1.251   4.011
 2870TIP3   OH2 8542   3.264   2.538   2.010
 2870TIP3    H1 8543   3.258   2.556   2.105
 2870TIP3    H2 8544   3.351   2.494   2.002
 2871TIP3   OH2 8545   4.969   1.412   3.744
 2871TIP3    H1 8546   4.986   1.382   3.836
 2871TIP3    H2 8547   5.059   1.407   3.705
 2872TIP3   OH2 8548   4.912   2.960   3.233
 2872TIP3    H1 8549   4.830   2.937   3.186
 2872TIP3    H2 8550   4.902   3.054   3.250
 2873TIP3   OH2 8551   6.172   2.337   2.002
 2873TIP3    H1 8552   6.141   2.428   1.980
 2873TIP3    H2 8553   6.098   2.285   1.966
 2874TIP3   OH2 8554   6.173   2.338   2.384
 2874TIP3    H1 8555   6.206   2.308   2.470
 2874TIP3    H2 8556   6.132   2.258   2.348
 2875TIP3   OH2 8557   5.468   2.228   2.749
 2875TIP3    H1 8558   5.498   2.159   2.811
 2875TIP3    H2 8559   5.546   2.286   2.748
 2876TIP3   OH2 8560   6.418   2.640   2.067
 2876TIP3    H1 8561   6.399   2.574   2.135
 2876TIP3    H2 8562   6.448   2.716   2.120
 2877TIP3   OH2 8563   5.443   2.640   2.472
 2877TIP3    H1 8564   5.435   2.542   2.474
 2877TIP3    H2 8565   5.540   2.649   2.462
 2878TIP3   OH2 8566   5.225   2.131   2.403
 2878TIP3    H1 8567   5.258   2.050   2.446
 2878TIP3    H2 8568   5.307   2.178   2.383
 2879TIP3   OH2 8569   6.068   3.101   2.084
 2879TIP3    H1 8570   6.109   3.030   2.031
 2879TIP3    H2 8571   6.058   3.059   2.170
 2880TIP3   OH2 8572   5.968   2.561   2.435
 2880TIP3    H1 8573   6.010   2.487   2.388
 2880TIP3    H2 8574   6.050   2.609   2.461
 2881TIP3   OH2 8575   6.985   1.880   2.430
 2881TIP3    H1 8576   7.015   1.964   2.469
 2881TIP3    H2 8577   7.012   1.892   2.337
 2882TIP3   OH2 8578   6.384   2.060   2.463
 2882TIP3    H1 8579   6.428   1.974   2.479
 2882TIP3    H2 8580   6.350   2.047   2.373
 2883TIP3   OH2 8581   5.728   1.722   2.429
 2883TIP3    H1 8582   5.704   1.795   2.368
 2883TIP3    H2 8583   5.682   1.647   2.385
 2884TIP3   OH2 8584   6.416   1.819   2.049
 2884TIP3    H1 8585   6.487   1.803   2.116
 2884TIP3    H2 8586   6.470   1.850   1.974
 2885TIP3   OH2 8587   5.357   1.924   2.530
 2885TIP3    H1 8588   5.437   1.905   2.583
 2885TIP3    H2 8589   5.373   1.865   2.454
 2886TIP3   OH2 8590   5.795   2.123   2.335
 2886TIP3    H1 8591   5.889   2.098   2.344
 2886TIP3    H2 8592   5.755   2.039   2.305
 2887TIP3   OH2 8593   7.059   2.090   2.604
 2887TIP3    H1 8594   6.976   2.136   2.582
 2887TIP3    H2 8595   7.083   2.132   2.688
 2888TIP3   OH2 8596   5.719   1.707   2.865
 2888TIP3    H1 8597   5.658   1.743   2.798
 2888TIP3    H2 8598   5.666   1.722   2.946
 2889TIP3   OH2 8599   6.059   2.556   1.871
 2889TIP3    H1 8600   6.020   2.545   1.783
 2889TIP3    H2 8601   6.016   2.639   1.900
 2890TIP3   OH2 8602   5.827   2.481   2.659
 2890TIP3    H1 8603   5.767   2.550   2.695
 2890TIP3    H2 8604   5.868   2.528   2.583
 2891TIP3   OH2 8605   6.620   1.822   2.226
 2891TIP3    H1 8606   6.624   1.763   2.302
 2891TIP3    H2 8607   6.675   1.898   2.255
 2892TIP3   OH2 8608   5.591   1.821   2.648
 2892TIP3    H1 8609   5.654   1.893   2.672
 2892TIP3    H2 8610   5.641   1.780   2.573
 2893TIP3   OH2 8611   5.656   2.678   2.757
 2893TIP3    H1 8612   5.630   2.764   2.719
 2893TIP3    H2 8613   5.576   2.661   2.811
 2894TIP3   OH2 8614   5.045   2.342   2.003
 2894TIP3    H1 8615   4.999   2.368   1.919
 2894TIP3    H2 8616   5.062   2.432   2.040
 2895TIP3   OH2 8617   6.485   2.883   2.231
 2895TIP3    H1 8618   6.395   2.875   2.270
 2895TIP3    H2 8619   6.477   2.970   2.186
 2896TIP3   OH2 8620   6.775   1.784   2.596
 2896TIP3    H1 8621   6.688   1.805   2.557
 2896TIP3    H2 8622   6.837   1.816   2.527
 2897TIP3   OH2 8623   6.071   1.421   2.582
 2897TIP3    H1 8624   6.054   1.327   2.598
 2897TIP3    H2 8625   5.993   1.461   2.628
 2898TIP3   OH2 8626   6.184   2.926   1.904
 2898TIP3    H1 8627   6.234   2.844   1.884
 2898TIP3    H2 8628   6.248   2.992   1.865
 2899TIP3   OH2 8629   6.329   2.711   1.817
 2899TIP3    H1 8630   6.292   2.631   1.778
 2899TIP3    H2 8631   6.367   2.677   1.900
 2900TIP3   OH2 8632   6.710   2.791   2.578
 2900TIP3    H1 8633   6.698   2.716   2.516
 2900TIP3    H2 8634   6.691   2.868   2.519
 2901TIP3   OH2 8635   6.005   2.189   1.836
 2901TIP3    H1 8636   5.925   2.242   1.816
 2901TIP3    H2 8637   6.049   2.186   1.750
 2902TIP3   OH2 8638   5.961   1.976   1.544
 2902TIP3    H1 8639   6.027   2.028   1.593
 2902TIP3    H2 8640   6.019   1.912   1.499
 2903TIP3   OH2 8641   6.906   2.433   2.425
 2903TIP3    H1 8642   6.822   2.484   2.427
 2903TIP3    H2 8643   6.937   2.456   2.334
 2904TIP3   OH2 8644   6.351   2.272   1.804
 2904TIP3    H1 8645   6.297   2.295   1.883
 2904TIP3    H2 8646   6.436   2.248   1.847
 2905TIP3   OH2 8647   6.585   2.303   2.723
 2905TIP3    H1 8648   6.585   2.389   2.770
 2905TIP3    H2 8649   6.499   2.309   2.676
 2906TIP3   OH2 8650   5.584   2.269   2.226
 2906TIP3    H1 8651   5.535   2.208   2.167
 2906TIP3    H2 8652   5.660   2.214   2.254
 2907TIP3   OH2 8653   5.709   2.675   2.372
 2907TIP3    H1 8654   5.692   2.647   2.281
 2907TIP3    H2 8655   5.799   2.639   2.388
 2908TIP3   OH2 8656   5.718   2.240   2.577
 2908TIP3    H1 8657   5.751   2.213   2.488
 2908TIP3    H2 8658   5.763   2.325   2.593
 2909TIP3   OH2 8659   6.245   2.877   2.354
 2909TIP3    H1 8660   6.231   2.959   2.405
 2909TIP3    H2 8661   6.226   2.807   2.420
 2910TIP3   OH2 8662   5.859   2.791   2.907
 2910TIP3    H1 8663   5.796   2.854   2.950
 2910TIP3    H2 8664   5.795   2.740   2.853
 2911TIP3   OH2 8665   6.189   2.130   1.631
 2911TIP3    H1 8666   6.248   2.190   1.681
 2911TIP3    H2 8667   6.216   2.150   1.538
 2912TIP3   OH2 8668   5.613   2.349   3.006
 2912TIP3    H1 8669   5.617   2.437   3.047
 2912TIP3    H2 8670   5.518   2.328   3.020
 2913TIP3   OH2 8671   5.936   2.805   1.909
 2913TIP3    H1 8672   6.018   2.858   1.916
 2913TIP3    H2 8673   5.875   2.866   1.864
 2914TIP3   OH2 8674   5.653   2.958   2.988
 2914TIP3    H1 8675   5.616   2.965   2.898
 2914TIP3    H2 8676   5.573   2.938   3.042
 2915TIP3   OH2 8677   6.704   1.364   1.679
 2915TIP3    H1 8678   6.622   1.388   1.728
 2915TIP3    H2 8679   6.720   1.446   1.629
 2916TIP3   OH2 8680   5.430   2.106   2.049
 2916TIP3    H1 8681   5.383   2.151   1.977
 2916TIP3    H2 8682   5.449   2.018   2.011
 2917TIP3   OH2 8683   6.506   2.734   1.229
 2917TIP3    H1 8684   6.514   2.831   1.214
 2917TIP3    H2 8685   6.600   2.706   1.218
 2918TIP3   OH2 8686   5.229   2.494   2.936
 2918TIP3    H1 8687   5.161   2.476   2.868
 2918TIP3    H2 8688   5.267   2.406   2.954
 2919TIP3   OH2 8689   5.085   2.687   2.567
 2919TIP3    H1 8690   5.181   2.683   2.556
 2919TIP3    H2 8691   5.075   2.765   2.623
 2920TIP3   OH2 8692   6.951   3.143   2.629
 2920TIP3    H1 8693   6.946   3.047   2.643
 2920TIP3    H2 8694   6.867   3.171   2.672
 2921TIP3   OH2 8695   6.054   2.921   2.761
 2921TIP3    H1 8696   6.052   3.015   2.790
 2921TIP3    H2 8697   5.982   2.883   2.816
 2922TIP3   OH2 8698   5.820   3.052   1.711
 2922TIP3    H1 8699   5.771   3.036   1.629
 2922TIP3    H2 8700   5.785   3.139   1.740
 2923TIP3   OH2 8701   5.255   2.901   2.095
 2923TIP3    H1 8702   5.300   2.892   2.182
 2923TIP3    H2 8703   5.196   2.824   2.096
 2924TIP3   OH2 8704   6.017   2.956   1.347
 2924TIP3    H1 8705   6.076   2.886   1.312
 2924TIP3    H2 8706   6.051   2.967   1.438
 2925TIP3   OH2 8707   6.069   3.003   1.616
 2925TIP3    H1 8708   5.980   3.014   1.657
 2925TIP3    H2 8709   6.120   2.967   1.691
 2926TIP3   OH2 8710   6.837   2.266   2.901
 2926TIP3    H1 8711   6.758   2.282   2.847
 2926TIP3    H2 8712   6.853   2.171   2.886
 2927TIP3   OH2 8713   5.435   2.676   2.918
 2927TIP3    H1 8714   5.482   2.662   3.002
 2927TIP3    H2 8715   5.359   2.614   2.927
 2928TIP3   OH2 8716   5.834   1.501   2.709
 2928TIP3    H1 8717   5.747   1.469   2.679
 2928TIP3    H2 8718   5.805   1.581   2.759
 2929TIP3   OH2 8719   6.371   1.621   2.906
 2929TIP3    H1 8720   6.438   1.582   2.965
 2929TIP3    H2 8721   6.287   1.595   2.948
 2930TIP3   OH2 8722   6.599   2.049   2.836
 2930TIP3    H1 8723   6.559   2.079   2.918
 2930TIP3    H2 8724   6.589   2.128   2.779
 2931TIP3   OH2 8725   6.265   2.170   1.375
 2931TIP3    H1 8726   6.232   2.148   1.286
 2931TIP3    H2 8727   6.348   2.216   1.352
 2932TIP3   OH2 8728   5.971   1.555   1.660
 2932TIP3    H1 8729   5.957   1.553   1.757
 2932TIP3    H2 8730   5.933   1.470   1.636
 2933TIP3   OH2 8731   5.768   2.020   2.729
 2933TIP3    H1 8732   5.714   2.037   2.808
 2933TIP3    H2 8733   5.749   2.100   2.675
 2934TIP3   OH2 8734   5.645   1.908   2.250
 2934TIP3    H1 8735   5.550   1.883   2.256
 2934TIP3    H2 8736   5.662   1.883   2.156
 2935TIP3   OH2 8737   6.141   1.990   1.973
 2935TIP3    H1 8738   6.091   2.061   1.927
 2935TIP3    H2 8739   6.196   1.954   1.900
 2936TIP3   OH2 8740   6.295   2.016   2.207
 2936TIP3    H1 8741   6.233   2.043   2.136
 2936TIP3    H2 8742   6.332   1.937   2.162
 2937TIP3   OH2 8743   5.589   2.044   2.935
 2937TIP3    H1 8744   5.600   2.109   3.006
 2937TIP3    H2 8745   5.575   1.961   2.985
 2938TIP3   OH2 8746   5.181   1.574   2.507
 2938TIP3    H1 8747   5.258   1.597   2.564
 2938TIP3    H2 8748   5.219   1.522   2.434
 2939TIP3   OH2 8749   5.151   1.543   2.041
 2939TIP3    H1 8750   5.191   1.577   1.958
 2939TIP3    H2 8751   5.089   1.617   2.059
 2940TIP3   OH2 8752   6.308   2.260   2.626
 2940TIP3    H1 8753   6.343   2.191   2.565
 2940TIP3    H2 8754   6.274   2.203   2.698
 2941TIP3   OH2 8755   5.985   1.727   2.306
 2941TIP3    H1 8756   5.901   1.722   2.355
 2941TIP3    H2 8757   6.051   1.718   2.377
 2942TIP3   OH2 8758   5.405   1.761   2.309
 2942TIP3    H1 8759   5.318   1.724   2.288
 2942TIP3    H2 8760   5.463   1.684   2.292
 2943TIP3   OH2 8761   5.682   1.827   1.997
 2943TIP3    H1 8762   5.773   1.799   1.978
 2943TIP3    H2 8763   5.632   1.793   1.919
 2944TIP3   OH2 8764   6.465   1.800   2.517
 2944TIP3    H1 8765   6.414   1.810   2.600
 2944TIP3    H2 8766   6.409   1.736   2.470
 2945TIP3   OH2 8767   5.502   1.830   1.774
 2945TIP3    H1 8768   5.453   1.760   1.730
 2945TIP3    H2 8769   5.563   1.858   1.703
 2946TIP3   OH2 8770   6.632   3.486   2.720
 2946TIP3    H1 8771   6.636   3.513   2.627
 2946TIP3    H2 8772   6.716   3.526   2.754
 2947TIP3   OH2 8773   5.598   2.598   3.142
 2947TIP3    H1 8774   5.675   2.631   3.191
 2947TIP3    H2 8775   5.531   2.596   3.214
 2948TIP3   OH2 8776   6.059   2.055   2.400
 2948TIP3    H1 8777   6.130   2.014   2.348
 2948TIP3    H2 8778   6.063   2.006   2.484
 2949TIP3   OH2 8779   5.577   1.547   2.277
 2949TIP3    H1 8780   5.545   1.466   2.324
 2949TIP3    H2 8781   5.608   1.510   2.193
 2950TIP3   OH2 8782   6.032   1.951   2.682
 2950TIP3    H1 8783   5.941   1.982   2.697
 2950TIP3    H2 8784   6.086   2.014   2.732
 2951TIP3   OH2 8785   5.772   2.338   1.783
 2951TIP3    H1 8786   5.699   2.274   1.772
 2951TIP3    H2 8787   5.752   2.373   1.873
 2952TIP3   OH2 8788   6.671   2.576   2.410
 2952TIP3    H1 8789   6.695   2.628   2.330
 2952TIP3    H2 8790   6.587   2.533   2.382
 2953TIP3   OH2 8791   6.228   1.651   1.649
 2953TIP3    H1 8792   6.131   1.634   1.653
 2953TIP3    H2 8793   6.235   1.745   1.676
 2954TIP3   OH2 8794   6.166   2.660   2.785
 2954TIP3    H1 8795   6.199   2.660   2.876
 2954TIP3    H2 8796   6.131   2.750   2.776
 2955TIP3   OH2 8797   6.297   1.902   1.754
 2955TIP3    H1 8798   6.394   1.906   1.767
 2955TIP3    H2 8799   6.279   1.982   1.702
 2956TIP3   OH2 8800   5.461   2.356   2.458
 2956TIP3    H1 8801   5.505   2.334   2.373
 2956TIP3    H2 8802   5.513   2.303   2.521
 2957TIP3   OH2 8803   5.917   2.490   1.606
 2957TIP3    H1 8804   5.869   2.576   1.608
 2957TIP3    H2 8805   5.863   2.436   1.668
 2958TIP3   OH2 8806   5.350   2.278   3.071
 2958TIP3    H1 8807   5.361   2.265   3.167
 2958TIP3    H2 8808   5.277   2.217   3.051
 2959TIP3   OH2 8809   6.067   2.385   3.082
 2959TIP3    H1 8810   5.993   2.325   3.060
 2959TIP3    H2 8811   6.109   2.394   2.995
 2960TIP3   OH2 8812   6.330   2.911   2.684
 2960TIP3    H1 8813   6.234   2.919   2.694
 2960TIP3    H2 8814   6.361   2.968   2.757
 2961TIP3   OH2 8815   6.739   1.994   1.587
 2961TIP3    H1 8816   6.678   1.951   1.522
 2961TIP3    H2 8817   6.737   2.084   1.546
 2962TIP3   OH2 8818   6.960   2.848   2.667
 2962TIP3    H1 8819   6.863   2.844   2.657
 2962TIP3    H2 8820   6.987   2.819   2.576
 2963TIP3   OH2 8821   6.444   2.810   1.494
 2963TIP3    H1 8822   6.415   2.741   1.555
 2963TIP3    H2 8823   6.456   2.763   1.410
 2964TIP3   OH2 8824   6.438   2.439   2.330
 2964TIP3    H1 8825   6.344   2.416   2.341
 2964TIP3    H2 8826   6.470   2.359   2.284
 2965TIP3   OH2 8827   5.569   2.670   2.086
 2965TIP3    H1 8828   5.567   2.751   2.031
 2965TIP3    H2 8829   5.475   2.652   2.096
 2966TIP3   OH2 8830   5.075   2.013   1.842
 2966TIP3    H1 8831   5.151   2.066   1.815
 2966TIP3    H2 8832   5.010   2.034   1.771
 2967TIP3   OH2 8833   5.697   2.430   2.025
 2967TIP3    H1 8834   5.666   2.521   2.045
 2967TIP3    H2 8835   5.664   2.381   2.103
 2968TIP3   OH2 8836   5.837   3.010   2.551
 2968TIP3    H1 8837   5.878   3.085   2.501
 2968TIP3    H2 8838   5.915   2.975   2.598
 2969TIP3   OH2 8839   5.487   2.905   1.937
 2969TIP3    H1 8840   5.401   2.917   1.981
 2969TIP3    H2 8841   5.521   2.997   1.939
 2970TIP3   OH2 8842   6.219   2.643   2.515
 2970TIP3    H1 8843   6.213   2.640   2.613
 2970TIP3    H2 8844   6.301   2.594   2.499
 2971TIP3   OH2 8845   6.202   2.539   1.396
 2971TIP3    H1 8846   6.254   2.513   1.475
 2971TIP3    H2 8847   6.113   2.512   1.423
 2972TIP3   OH2 8848   6.471   3.174   2.557
 2972TIP3    H1 8849   6.388   3.124   2.548
 2972TIP3    H2 8850   6.459   3.243   2.488
 2973TIP3   OH2 8851   6.537   3.010   1.214
 2973TIP3    H1 8852   6.574   3.083   1.162
 2973TIP3    H2 8853   6.457   3.055   1.249
 2974TIP3   OH2 8854   5.553   1.789   3.077
 2974TIP3    H1 8855   5.457   1.792   3.089
 2974TIP3    H2 8856   5.580   1.732   3.150
 2975TIP3   OH2 8857   6.361   2.470   1.610
 2975TIP3    H1 8858   6.351   2.405   1.682
 2975TIP3    H2 8859   6.459   2.467   1.598
 2976TIP3   OH2 8860   5.273   2.873   2.713
 2976TIP3    H1 8861   5.325   2.800   2.750
 2976TIP3    H2 8862   5.306   2.948   2.765
 2977TIP3   OH2 8863   5.565   2.517   1.395
 2977TIP3    H1 8864   5.576   2.423   1.370
 2977TIP3    H2 8865   5.544   2.509   1.490
 2978TIP3   OH2 8866   5.512   2.523   1.666
 2978TIP3    H1 8867   5.587   2.501   1.723
 2978TIP3    H2 8868   5.510   2.621   1.672
 2979TIP3   OH2 8869   5.252   2.223   1.868
 2979TIP3    H1 8870   5.197   2.291   1.912
 2979TIP3    H2 8871   5.276   2.275   1.788
 2980TIP3   OH2 8872   6.385   1.868   2.789
 2980TIP3    H1 8873   6.480   1.892   2.792
 2980TIP3    H2 8874   6.383   1.778   2.829
 2981TIP3   OH2 8875   6.284   1.597   1.933
 2981TIP3    H1 8876   6.261   1.618   1.840
 2981TIP3    H2 8877   6.317   1.683   1.966
 2982TIP3   OH2 8878   5.776   2.720   1.615
 2982TIP3    H1 8879   5.689   2.743   1.651
 2982TIP3    H2 8880   5.791   2.798   1.558
 2983TIP3   OH2 8881   5.963   1.785   2.038
 2983TIP3    H1 8882   6.023   1.860   2.018
 2983TIP3    H2 8883   5.968   1.781   2.135
 2984TIP3   OH2 8884   6.233   2.091   2.824
 2984TIP3    H1 8885   6.247   2.105   2.918
 2984TIP3    H2 8886   6.281   2.006   2.809
 2985TIP3   OH2 8887   6.121   1.510   2.153
 2985TIP3    H1 8888   6.094   1.596   2.188
 2985TIP3    H2 8889   6.168   1.536   2.071
 2986TIP3   OH2 8890   5.522   2.794   1.685
 2986TIP3    H1 8891   5.491   2.863   1.622
 2986TIP3    H2 8892   5.505   2.838   1.771
 2987TIP3   OH2 8893   6.869   2.002   2.822
 2987TIP3    H1 8894   6.771   1.993   2.827
 2987TIP3    H2 8895   6.885   1.964   2.734
 2988TIP3   OH2 8896   6.523   2.196   2.207
 2988TIP3    H1 8897   6.447   2.135   2.216
 2988TIP3    H2 8898   6.594   2.148   2.254
 2989TIP3   OH2 8899   5.239   2.423   1.673
 2989TIP3    H1 8900   5.303   2.495   1.680
 2989TIP3    H2 8901   5.284   2.369   1.604
 2990TIP3   OH2 8902   5.168   1.701   1.820
 2990TIP3    H1 8903   5.170   1.796   1.819
 2990TIP3    H2 8904   5.108   1.676   1.748
 2991TIP3   OH2 8905   6.494   3.153   2.154
 2991TIP3    H1 8906   6.451   3.200   2.079
 2991TIP3    H2 8907   6.588   3.172   2.133
 2992TIP3   OH2 8908   5.570   1.421   2.680
 2992TIP3    H1 8909   5.539   1.385   2.594
 2992TIP3    H2 8910   5.559   1.343   2.739
 2993TIP3   OH2 8911   5.096   2.622   2.056
 2993TIP3    H1 8912   5.038   2.663   2.121
 2993TIP3    H2 8913   5.070   2.672   1.975
 2994TIP3   OH2 8914   5.267   3.181   3.133
 2994TIP3    H1 8915   5.353   3.187   3.181
 2994TIP3    H2 8916   5.253   3.085   3.132
 2995TIP3   OH2 8917   5.740   3.140   3.183
 2995TIP3    H1 8918   5.837   3.135   3.184
 2995TIP3    H2 8919   5.719   3.079   3.109
 2996TIP3   OH2 8920   5.726   2.720   1.303
 2996TIP3    H1 8921   5.670   2.649   1.342
 2996TIP3    H2 8922   5.803   2.668   1.274
 2997TIP3   OH2 8923   6.384   3.052   2.915
 2997TIP3    H1 8924   6.381   2.982   2.985
 2997TIP3    H2 8925   6.460   3.106   2.942
 2998TIP3   OH2 8926   6.162   2.759   1.219
 2998TIP3    H1 8927   6.205   2.695   1.280
 2998TIP3    H2 8928   6.219   2.756   1.140
 2999TIP3   OH2 8929   5.395   2.589   3.333
 2999TIP3    H1 8930   5.410   2.492   3.341
 2999TIP3    H2 8931   5.308   2.592   3.289
 3000TIP3   OH2 8932   5.377   2.234   1.534
 3000TIP3    H1 8933   5.439   2.206   1.604
 3000TIP3    H2 8934   5.439   2.241   1.459
 3001TIP3   OH2 8935   6.004   2.674   3.108
 3001TIP3    H1 8936   5.958   2.702   3.025
 3001TIP3    H2 8937   6.023   2.580   3.092
 3002TIP3   OH2 8938   5.890   2.438   1.336
 3002TIP3    H1 8939   5.890   2.450   1.434
 3002TIP3    H2 8940   5.888   2.340   1.330
 3003TIP3   OH2 8941   6.493   2.688   2.717
 3003TIP3    H1 8942   6.571   2.727   2.672
 3003TIP3    H2 8943   6.427   2.758   2.700
 3004TIP3   OH2 8944   5.515   2.327   3.319
 3004TIP3    H1 8945   5.587   2.267   3.297
 3004TIP3    H2 8946   5.544   2.360   3.407
 3005TIP3   OH2 8947   5.579   2.138   1.749
 3005TIP3    H1 8948   5.568   2.082   1.827
 3005TIP3    H2 8949   5.619   2.073   1.687
 3006TIP3   OH2 8950   5.858   2.222   2.983
 3006TIP3    H1 8951   5.771   2.269   2.982
 3006TIP3    H2 8952   5.900   2.254   2.901
 3007TIP3   OH2 8953   5.682   1.941   1.589
 3007TIP3    H1 8954   5.658   1.946   1.494
 3007TIP3    H2 8955   5.779   1.938   1.583
 3008TIP3   OH2 8956   6.369   2.588   3.110
 3008TIP3    H1 8957   6.433   2.596   3.038
 3008TIP3    H2 8958   6.424   2.567   3.185
 3009TIP3   OH2 8959   6.500   2.264   1.257
 3009TIP3    H1 8960   6.480   2.222   1.172
 3009TIP3    H2 8961   6.467   2.355   1.237
 3010TIP3   OH2 8962   5.964   1.998   3.103
 3010TIP3    H1 8963   5.971   1.919   3.045
 3010TIP3    H2 8964   5.925   2.065   3.043
 3011TIP3   OH2 8965   5.978   1.784   2.912
 3011TIP3    H1 8966   6.002   1.822   2.825
 3011TIP3    H2 8967   5.884   1.760   2.897
 3012TIP3   OH2 8968   6.016   2.333   2.791
 3012TIP3    H1 8969   6.090   2.337   2.730
 3012TIP3    H2 8970   5.951   2.392   2.746
 3013TIP3   OH2 8971   6.559   2.261   3.183
 3013TIP3    H1 8972   6.639   2.206   3.186
 3013TIP3    H2 8973   6.598   2.347   3.157
 3014TIP3   OH2 8974   6.622   2.536   2.896
 3014TIP3    H1 8975   6.566   2.592   2.837
 3014TIP3    H2 8976   6.711   2.559   2.861
 3015TIP3   OH2 8977   5.860   2.101   3.337
 3015TIP3    H1 8978   5.789   2.037   3.355
 3015TIP3    H2 8979   5.889   2.072   3.247
 3016TIP3   OH2 8980   6.110   1.543   2.976
 3016TIP3    H1 8981   6.057   1.624   2.956
 3016TIP3    H2 8982   6.041   1.473   2.967
 3017TIP3   OH2 8983   6.437   1.999   3.107
 3017TIP3    H1 8984   6.413   1.913   3.064
 3017TIP3    H2 8985   6.529   1.979   3.133
 3018TIP3   OH2 8986   6.688   1.939   3.197
 3018TIP3    H1 8987   6.710   1.844   3.210
 3018TIP3    H2 8988   6.684   1.973   3.288
 3019TIP3   OH2 8989   5.692   1.886   3.391
 3019TIP3    H1 8990   5.693   1.793   3.358
 3019TIP3    H2 8991   5.730   1.873   3.480
 3020TIP3   OH2 8992   6.198   1.552   3.235
 3020TIP3    H1 8993   6.264   1.480   3.232
 3020TIP3    H2 8994   6.159   1.545   3.146
 3021TIP3   OH2 8995   6.270   1.768   3.391
 3021TIP3    H1 8996   6.240   1.699   3.328
 3021TIP3    H2 8997   6.202   1.837   3.383
 3022TIP3   OH2 8998   5.491   2.997   1.499
 3022TIP3    H1 8999   5.586   2.992   1.476
 3022TIP3    H2 9000   5.459   3.049   1.423
 3023TIP3   OH2 9001   4.975   2.362   1.734
 3023TIP3    H1 9002   5.063   2.394   1.703
 3023TIP3    H2 9003   4.961   2.286   1.674
 3024TIP3   OH2 9004   4.885   2.993   2.129
 3024TIP3    H1 9005   4.820   2.933   2.086
 3024TIP3    H2 9006   4.929   2.930   2.191
 3025TIP3   OH2 9007   5.023   2.835   2.311
 3025TIP3    H1 9008   5.005   2.768   2.379
 3025TIP3    H2 9009   5.075   2.899   2.362
 3026TIP3   OH2 9010   6.750   3.238   2.115
 3026TIP3    H1 9011   6.772   3.275   2.203
 3026TIP3    H2 9012   6.808   3.287   2.056
 3027TIP3   OH2 9013   6.773   3.263   2.396
 3027TIP3    H1 9014   6.732   3.174   2.393
 3027TIP3    H2 9015   6.850   3.245   2.452
 3028TIP3   OH2 9016   6.824   2.938   2.971
 3028TIP3    H1 9017   6.750   2.950   3.035
 3028TIP3    H2 9018   6.865   3.027   2.972
 3029TIP3   OH2 9019   6.639   2.452   1.587
 3029TIP3    H1 9020   6.704   2.518   1.556
 3029TIP3    H2 9021   6.685   2.416   1.666
 3030TIP3   OH2 9022   6.767   2.320   1.793
 3030TIP3    H1 9023   6.699   2.279   1.851
 3030TIP3    H2 9024   6.831   2.357   1.858
 3031TIP3   OH2 9025   6.824   2.715   2.226
 3031TIP3    H1 9026   6.874   2.647   2.176
 3031TIP3    H2 9027   6.821   2.789   2.162
 3032TIP3   OH2 9028   6.650   3.011   2.420
 3032TIP3    H1 9029   6.579   3.057   2.469
 3032TIP3    H2 9030   6.601   2.968   2.347
 3033TIP3   OH2 9031   6.704   2.229   1.437
 3033TIP3    H1 9032   6.633   2.229   1.370
 3033TIP3    H2 9033   6.675   2.304   1.492
 3034TIP3   OH2 9034   6.576   1.903   1.390
 3034TIP3    H1 9035   6.527   1.934   1.313
 3034TIP3    H2 9036   6.552   1.808   1.389
 3035TIP3   OH2 9037   6.579   2.180   1.937
 3035TIP3    H1 9038   6.585   2.083   1.928
 3035TIP3    H2 9039   6.564   2.191   2.034
 3036TIP3   OH2 9040   5.203   2.243   2.679
 3036TIP3    H1 9041   5.201   2.217   2.585
 3036TIP3    H2 9042   5.300   2.246   2.696
 3037TIP3   OH2 9043   6.868   2.602   2.796
 3037TIP3    H1 9044   6.941   2.537   2.784
 3037TIP3    H2 9045   6.892   2.672   2.733
 3038TIP3   OH2 9046   7.051   2.403   2.805
 3038TIP3    H1 9047   6.977   2.355   2.849
 3038TIP3    H2 9048   7.124   2.341   2.822
 3039TIP3   OH2 9049   6.512   1.641   1.386
 3039TIP3    H1 9050   6.589   1.601   1.432
 3039TIP3    H2 9051   6.443   1.573   1.393
 3040TIP3   OH2 9052   6.577   1.895   1.830
 3040TIP3    H1 9053   6.617   1.806   1.845
 3040TIP3    H2 9054   6.635   1.927   1.758
 3041TIP3   OH2 9055   6.737   2.065   2.329
 3041TIP3    H1 9056   6.822   2.089   2.286
 3041TIP3    H2 9057   6.753   2.104   2.417
 3042TIP3   OH2 9058   6.810   2.213   2.559
 3042TIP3    H1 9059   6.731   2.250   2.603
 3042TIP3    H2 9060   6.844   2.292   2.512
 3043TIP3   OH2 9061   5.426   1.938   3.364
 3043TIP3    H1 9062   5.524   1.930   3.366
 3043TIP3    H2 9063   5.401   1.850   3.398
 3044TIP3   OH2 9064   7.263   1.806   3.112
 3044TIP3    H1 9065   7.321   1.740   3.068
 3044TIP3    H2 9066   7.228   1.857   3.035
 3045TIP3   OH2 9067   6.685   1.645   1.870
 3045TIP3    H1 9068   6.733   1.627   1.953
 3045TIP3    H2 9069   6.623   1.569   1.867
 3046TIP3   OH2 9070   5.385   1.627   2.686
 3046TIP3    H1 9071   5.447   1.552   2.697
 3046TIP3    H2 9072   5.448   1.701   2.682
 3047TIP3   OH2 9073   5.188   1.900   2.762
 3047TIP3    H1 9074   5.235   1.899   2.676
 3047TIP3    H2 9075   5.211   1.987   2.796
 3048TIP3   OH2 9076   7.124   1.937   2.919
 3048TIP3    H1 9077   7.038   1.983   2.935
 3048TIP3    H2 9078   7.092   1.866   2.860
 3049TIP3   OH2 9079   6.764   1.573   1.505
 3049TIP3    H1 9080   6.805   1.505   1.448
 3049TIP3    H2 9081   6.829   1.646   1.501
 3050TIP3   OH2 9082   5.172   1.408   2.273
 3050TIP3    H1 9083   5.078   1.397   2.296
 3050TIP3    H2 9084   5.166   1.463   2.191
 3051TIP3   OH2 9085   6.331   3.110   1.770
 3051TIP3    H1 9086   6.382   3.101   1.687
 3051TIP3    H2 9087   6.382   3.179   1.816
 3052TIP3   OH2 9088   5.393   1.488   3.078
 3052TIP3    H1 9089   5.341   1.481   3.159
 3052TIP3    H2 9090   5.327   1.525   3.017
 3053TIP3   OH2 9091   5.434   2.912   3.153
 3053TIP3    H1 9092   5.340   2.889   3.137
 3053TIP3    H2 9093   5.441   2.900   3.248
 3054TIP3   OH2 9094   5.612   2.949   2.700
 3054TIP3    H1 9095   5.564   3.026   2.662
 3054TIP3    H2 9096   5.697   2.963   2.656
 3055TIP3   OH2 9097   6.051   3.189   2.836
 3055TIP3    H1 9098   6.091   3.191   2.926
 3055TIP3    H2 9099   6.116   3.243   2.786
 3056TIP3   OH2 9100   6.229   3.344   2.699
 3056TIP3    H1 9101   6.301   3.296   2.655
 3056TIP3    H2 9102   6.281   3.400   2.761
 3057TIP3   OH2 9103   7.025   1.702   2.799
 3057TIP3    H1 9104   6.936   1.690   2.763
 3057TIP3    H2 9105   7.061   1.611   2.790
 3058TIP3   OH2 9106   5.291   3.202   2.733
 3058TIP3    H1 9107   5.204   3.239   2.705
 3058TIP3    H2 9108   5.308   3.258   2.810
 3059TIP3   OH2 9109   5.523   3.181   2.584
 3059TIP3    H1 9110   5.436   3.194   2.628
 3059TIP3    H2 9111   5.504   3.215   2.494
 3060TIP3   OH2 9112   5.947   3.210   2.384
 3060TIP3    H1 9113   5.877   3.226   2.318
 3060TIP3    H2 9114   5.957   3.299   2.423
 3061TIP3   OH2 9115   6.217   3.146   2.436
 3061TIP3    H1 9116   6.123   3.167   2.416
 3061TIP3    H2 9117   6.263   3.218   2.390
 3062TIP3   OH2 9118   6.419   3.339   2.346
 3062TIP3    H1 9119   6.406   3.424   2.299
 3062TIP3    H2 9120   6.448   3.280   2.273
 3063TIP3   OH2 9121   5.193   2.994   2.472
 3063TIP3    H1 9122   5.223   2.969   2.562
 3063TIP3    H2 9123   5.266   2.954   2.419
 3064TIP3   OH2 9124   5.390   2.870   2.331
 3064TIP3    H1 9125   5.407   2.786   2.381
 3064TIP3    H2 9126   5.481   2.907   2.325
 3065TIP3   OH2 9127   5.657   2.961   2.335
 3065TIP3    H1 9128   5.689   2.871   2.322
 3065TIP3    H2 9129   5.705   2.985   2.416
 3066TIP3   OH2 9130   6.239   1.623   2.435
 3066TIP3    H1 9131   6.190   1.550   2.478
 3066TIP3    H2 9132   6.296   1.576   2.372
 3067TIP3   OH2 9133   6.754   1.507   2.327
 3067TIP3    H1 9134   6.790   1.553   2.249
 3067TIP3    H2 9135   6.658   1.515   2.314
 3068TIP3   OH2 9136   6.849   1.598   2.088
 3068TIP3    H1 9137   6.923   1.546   2.049
 3068TIP3    H2 9138   6.882   1.689   2.072
 3069TIP3   OH2 9139   5.479   1.328   2.433
 3069TIP3    H1 9140   5.387   1.294   2.438
 3069TIP3    H2 9141   5.528   1.243   2.429
 3070TIP3   OH2 9142   5.268   1.194   2.098
 3070TIP3    H1 9143   5.318   1.246   2.033
 3070TIP3    H2 9144   5.240   1.263   2.162
 3071TIP3   OH2 9145   5.931   1.360   2.315
 3071TIP3    H1 9146   5.994   1.403   2.255
 3071TIP3    H2 9147   5.956   1.399   2.400
 3072TIP3   OH2 9148   6.475   1.509   2.295
 3072TIP3    H1 9149   6.462   1.470   2.208
 3072TIP3    H2 9150   6.460   1.432   2.354
 3073TIP3   OH2 9151   6.503   1.432   1.862
 3073TIP3    H1 9152   6.418   1.478   1.879
 3073TIP3    H2 9153   6.486   1.347   1.907
 3074TIP3   OH2 9154   4.985   2.775   1.859
 3074TIP3    H1 9155   4.897   2.744   1.830
 3074TIP3    H2 9156   4.979   2.868   1.828
 3075TIP3   OH2 9157   5.947   1.536   1.925
 3075TIP3    H1 9158   5.921   1.477   1.996
 3075TIP3    H2 9159   5.951   1.623   1.969
 3076TIP3   OH2 9160   5.759   2.953   1.445
 3076TIP3    H1 9161   5.846   2.977   1.407
 3076TIP3    H2 9162   5.735   2.880   1.383
 3077TIP3   OH2 9163   6.477   3.078   1.538
 3077TIP3    H1 9164   6.469   2.980   1.527
 3077TIP3    H2 9165   6.430   3.109   1.457
 3078TIP3   OH2 9166   5.688   1.613   3.328
 3078TIP3    H1 9167   5.651   1.541   3.381
 3078TIP3    H2 9168   5.782   1.609   3.356
 3079TIP3   OH2 9169   5.940   1.606   3.445
 3079TIP3    H1 9170   6.024   1.576   3.407
 3079TIP3    H2 9171   5.925   1.537   3.513
 3080TIP3   OH2 9172   5.090   2.831   1.513
 3080TIP3    H1 9173   5.064   2.816   1.605
 3080TIP3    H2 9174   5.166   2.771   1.500
 3081TIP3   OH2 9175   6.767   1.672   3.230
 3081TIP3    H1 9176   6.782   1.640   3.322
 3081TIP3    H2 9177   6.856   1.663   3.191
 3082TIP3   OH2 9178   6.700   3.221   2.722
 3082TIP3    H1 9179   6.622   3.192   2.671
 3082TIP3    H2 9180   6.681   3.317   2.729
 3083TIP3   OH2 9181   7.265   2.485   2.235
 3083TIP3    H1 9182   7.291   2.416   2.299
 3083TIP3    H2 9183   7.343   2.542   2.235
 3084TIP3   OH2 9184   7.237   2.900   1.960
 3084TIP3    H1 9185   7.230   2.802   1.961
 3084TIP3    H2 9186   7.333   2.910   1.951
 3085TIP3   OH2 9187   6.944   2.098   1.741
 3085TIP3    H1 9188   6.896   2.180   1.761
 3085TIP3    H2 9189   6.874   2.046   1.699
 3086TIP3   OH2 9190   7.003   2.387   1.923
 3086TIP3    H1 9191   7.053   2.308   1.955
 3086TIP3    H2 9192   7.060   2.418   1.851
 3087TIP3   OH2 9193   7.871   3.320   1.550
 3087TIP3    H1 9194   7.967   3.296   1.554
 3087TIP3    H2 9195   7.852   3.332   1.643
 3088TIP3   OH2 9196   7.777   2.801   1.922
 3088TIP3    H1 9197   7.780   2.779   1.827
 3088TIP3    H2 9198   7.852   2.862   1.932
 3089TIP3   OH2 9199   7.493   1.978   1.929
 3089TIP3    H1 9200   7.508   2.046   1.860
 3089TIP3    H2 9201   7.457   1.905   1.875
 3090TIP3   OH2 9202   7.151   2.180   2.022
 3090TIP3    H1 9203   7.232   2.161   2.074
 3090TIP3    H2 9204   7.168   2.126   1.942
 3091TIP3   OH2 9205   7.574   2.381   1.816
 3091TIP3    H1 9206   7.666   2.349   1.829
 3091TIP3    H2 9207   7.532   2.298   1.784
 3092TIP3   OH2 9208   7.518   1.975   2.365
 3092TIP3    H1 9209   7.461   2.003   2.290
 3092TIP3    H2 9210   7.459   1.995   2.440
 3093TIP3   OH2 9211   7.625   2.736   2.155
 3093TIP3    H1 9212   7.561   2.804   2.188
 3093TIP3    H2 9213   7.668   2.784   2.082
 3094TIP3   OH2 9214   7.378   2.079   2.148
 3094TIP3    H1 9215   7.443   2.151   2.167
 3094TIP3    H2 9216   7.422   2.038   2.069
 3095TIP3   OH2 9217   7.452   2.934   2.242
 3095TIP3    H1 9218   7.426   3.021   2.206
 3095TIP3    H2 9219   7.372   2.915   2.296
 3096TIP3   OH2 9220   6.839   2.623   1.478
 3096TIP3    H1 9221   6.800   2.652   1.394
 3096TIP3    H2 9222   6.871   2.709   1.515
 3097TIP3   OH2 9223   7.367   2.526   1.708
 3097TIP3    H1 9224   7.329   2.468   1.639
 3097TIP3    H2 9225   7.444   2.474   1.738
 3098TIP3   OH2 9226   7.498   2.938   1.854
 3098TIP3    H1 9227   7.473   2.908   1.764
 3098TIP3    H2 9228   7.582   2.893   1.870
 3099TIP3   OH2 9229   7.514   2.497   2.063
 3099TIP3    H1 9230   7.541   2.472   1.972
 3099TIP3    H2 9231   7.557   2.584   2.076
 3100TIP3   OH2 9232   7.651   3.046   2.398
 3100TIP3    H1 9233   7.589   3.111   2.439
 3100TIP3    H2 9234   7.587   2.996   2.343
 3101TIP3   OH2 9235   7.404   2.614   2.492
 3101TIP3    H1 9236   7.407   2.703   2.535
 3101TIP3    H2 9237   7.310   2.590   2.506
 3102TIP3   OH2 9238   7.745   3.101   1.427
 3102TIP3    H1 9239   7.767   3.192   1.455
 3102TIP3    H2 9240   7.684   3.115   1.353
 3103TIP3   OH2 9241   7.448   3.216   2.476
 3103TIP3    H1 9242   7.411   3.223   2.386
 3103TIP3    H2 9243   7.368   3.194   2.529
 3104TIP3   OH2 9244   7.246   2.366   1.510
 3104TIP3    H1 9245   7.177   2.411   1.456
 3104TIP3    H2 9246   7.202   2.282   1.529
 3105TIP3   OH2 9247   7.025   2.753   2.422
 3105TIP3    H1 9248   6.958   2.734   2.354
 3105TIP3    H2 9249   7.063   2.664   2.441
 3106TIP3   OH2 9250   6.880   2.944   2.057
 3106TIP3    H1 9251   6.977   2.944   2.048
 3106TIP3    H2 9252   6.866   3.025   2.108
 3107TIP3   OH2 9253   7.839   3.161   2.237
 3107TIP3    H1 9254   7.845   3.253   2.269
 3107TIP3    H2 9255   7.769   3.126   2.296
 3108TIP3   OH2 9256   7.617   3.307   1.196
 3108TIP3    H1 9257   7.570   3.291   1.112
 3108TIP3    H2 9258   7.581   3.394   1.223
 3109TIP3   OH2 9259   7.049   3.158   1.582
 3109TIP3    H1 9260   7.097   3.150   1.668
 3109TIP3    H2 9261   6.995   3.078   1.584
 3110TIP3   OH2 9262   7.882   3.271   1.134
 3110TIP3    H1 9263   7.789   3.288   1.158
 3110TIP3    H2 9264   7.890   3.175   1.151
 3111TIP3   OH2 9265   7.232   2.931   2.403
 3111TIP3    H1 9266   7.277   2.921   2.489
 3111TIP3    H2 9267   7.156   2.871   2.413
 3112TIP3   OH2 9268   7.620   1.734   2.234
 3112TIP3    H1 9269   7.536   1.714   2.188
 3112TIP3    H2 9270   7.609   1.829   2.248
 3113TIP3   OH2 9271   7.554   2.278   2.214
 3113TIP3    H1 9272   7.501   2.298   2.294
 3113TIP3    H2 9273   7.538   2.359   2.160
 3114TIP3   OH2 9274   7.447   2.158   1.723
 3114TIP3    H1 9275   7.357   2.128   1.746
 3114TIP3    H2 9276   7.459   2.117   1.635
 3115TIP3   OH2 9277   7.370   2.301   2.422
 3115TIP3    H1 9278   7.419   2.358   2.484
 3115TIP3    H2 9279   7.363   2.218   2.474
 3116TIP3   OH2 9280   7.386   1.721   1.133
 3116TIP3    H1 9281   7.410   1.766   1.215
 3116TIP3    H2 9282   7.360   1.794   1.076
 3117TIP3   OH2 9283   6.975   1.820   2.004
 3117TIP3    H1 9284   7.048   1.855   2.058
 3117TIP3    H2 9285   7.018   1.790   1.923
 3118TIP3   OH2 9286   6.939   1.804   1.523
 3118TIP3    H1 9287   6.984   1.843   1.445
 3118TIP3    H2 9288   6.877   1.876   1.544
 3119TIP3   OH2 9289   7.207   2.041   1.791
 3119TIP3    H1 9290   7.112   2.047   1.765
 3119TIP3    H2 9291   7.229   1.948   1.775
 3120TIP3   OH2 9292   7.485   2.040   1.476
 3120TIP3    H1 9293   7.567   2.053   1.426
 3120TIP3    H2 9294   7.418   2.052   1.405
 3121TIP3   OH2 9295   7.327   2.056   1.261
 3121TIP3    H1 9296   7.249   2.025   1.212
 3121TIP3    H2 9297   7.378   2.099   1.189
 3122TIP3   OH2 9298   7.395   2.856   2.632
 3122TIP3    H1 9299   7.474   2.887   2.680
 3122TIP3    H2 9300   7.328   2.859   2.703
 3123TIP3   OH2 9301   7.368   1.798   1.762
 3123TIP3    H1 9302   7.333   1.726   1.820
 3123TIP3    H2 9303   7.410   1.745   1.692
 3124TIP3   OH2 9304   7.822   2.207   2.239
 3124TIP3    H1 9305   7.732   2.228   2.207
 3124TIP3    H2 9306   7.871   2.289   2.220
 3125TIP3   OH2 9307   7.540   2.624   1.272
 3125TIP3    H1 9308   7.490   2.540   1.265
 3125TIP3    H2 9309   7.544   2.638   1.369
 3126TIP3   OH2 9310   7.931   2.886   2.303
 3126TIP3    H1 9311   7.967   2.886   2.392
 3126TIP3    H2 9312   7.905   2.979   2.291
 3127TIP3   OH2 9313   7.264   2.625   1.946
 3127TIP3    H1 9314   7.296   2.592   1.859
 3127TIP3    H2 9315   7.301   2.559   2.007
 3128TIP3   OH2 9316   7.676   2.743   1.066
 3128TIP3    H1 9317   7.649   2.834   1.091
 3128TIP3    H2 9318   7.645   2.693   1.145
 3129TIP3   OH2 9319   7.145   2.539   2.559
 3129TIP3    H1 9320   7.161   2.524   2.654
 3129TIP3    H2 9321   7.075   2.474   2.540
 3130TIP3   OH2 9322   7.870   2.653   2.578
 3130TIP3    H1 9323   7.815   2.609   2.511
 3130TIP3    H2 9324   7.958   2.619   2.557
 3131TIP3   OH2 9325   7.366   2.926   1.575
 3131TIP3    H1 9326   7.363   3.005   1.518
 3131TIP3    H2 9327   7.272   2.905   1.581
 3132TIP3   OH2 9328   6.925   2.231   1.273
 3132TIP3    H1 9329   6.970   2.315   1.296
 3132TIP3    H2 9330   6.850   2.233   1.336
 3133TIP3   OH2 9331   7.514   2.691   1.538
 3133TIP3    H1 9332   7.471   2.779   1.540
 3133TIP3    H2 9333   7.458   2.640   1.600
 3134TIP3   OH2 9334   7.631   3.263   2.039
 3134TIP3    H1 9335   7.666   3.341   1.991
 3134TIP3    H2 9336   7.709   3.234   2.089
 3135TIP3   OH2 9337   7.283   3.162   1.424
 3135TIP3    H1 9338   7.197   3.174   1.469
 3135TIP3    H2 9339   7.317   3.254   1.425
 3136TIP3   OH2 9340   7.346   2.048   2.570
 3136TIP3    H1 9341   7.249   2.048   2.577
 3136TIP3    H2 9342   7.371   1.984   2.639
 3137TIP3   OH2 9343   7.071   3.128   2.196
 3137TIP3    H1 9344   7.127   3.060   2.237
 3137TIP3    H2 9345   7.093   3.206   2.250
 3138TIP3   OH2 9346   7.356   2.773   0.884
 3138TIP3    H1 9347   7.355   2.680   0.856
 3138TIP3    H2 9348   7.337   2.765   0.980
 3139TIP3   OH2 9349   7.308   2.777   1.156
 3139TIP3    H1 9350   7.391   2.747   1.197
 3139TIP3    H2 9351   7.312   2.874   1.167
 3140TIP3   OH2 9352   7.038   2.472   1.359
 3140TIP3    H1 9353   6.971   2.518   1.414
 3140TIP3    H2 9354   7.052   2.540   1.290
 3141TIP3   OH2 9355   7.574   2.989   1.114
 3141TIP3    H1 9356   7.483   3.010   1.141
 3141TIP3    H2 9357   7.593   3.065   1.057
 3142TIP3   OH2 9358   7.313   3.052   1.171
 3142TIP3    H1 9359   7.280   3.121   1.109
 3142TIP3    H2 9360   7.299   3.095   1.258
 3143TIP3   OH2 9361   7.428   1.775   1.414
 3143TIP3    H1 9362   7.412   1.859   1.460
 3143TIP3    H2 9363   7.509   1.798   1.364
 3144TIP3   OH2 9364   7.035   2.675   1.162
 3144TIP3    H1 9365   7.104   2.744   1.173
 3144TIP3    H2 9366   7.079   2.621   1.093
 3145TIP3   OH2 9367   6.976   1.964   1.308
 3145TIP3    H1 9368   6.973   2.061   1.298
 3145TIP3    H2 9369   6.906   1.936   1.247
 3146TIP3   OH2 9370   7.351   1.679   2.167
 3146TIP3    H1 9371   7.332   1.645   2.078
 3146TIP3    H2 9372   7.345   1.599   2.223
 3147TIP3   OH2 9373   6.899   2.890   1.545
 3147TIP3    H1 9374   6.836   2.924   1.611
 3147TIP3    H2 9375   6.867   2.936   1.464
 3148TIP3   OH2 9376   7.070   3.447   2.610
 3148TIP3    H1 9377   7.153   3.449   2.663
 3148TIP3    H2 9378   7.046   3.353   2.618
 3149TIP3   OH2 9379   7.538   3.398   2.668
 3149TIP3    H1 9380   7.633   3.383   2.673
 3149TIP3    H2 9381   7.513   3.337   2.595
 3150TIP3   OH2 9382   7.517   2.975   0.793
 3150TIP3    H1 9383   7.454   2.906   0.824
 3150TIP3    H2 9384   7.601   2.932   0.812
 3151TIP3   OH2 9385   7.191   2.844   2.821
 3151TIP3    H1 9386   7.205   2.747   2.826
 3151TIP3    H2 9387   7.104   2.849   2.776
 3152TIP3   OH2 9388   7.173   2.493   1.013
 3152TIP3    H1 9389   7.229   2.466   1.088
 3152TIP3    H2 9390   7.240   2.496   0.942
 3153TIP3   OH2 9391   7.813   2.934   2.591
 3153TIP3    H1 9392   7.759   2.954   2.511
 3153TIP3    H2 9393   7.825   2.837   2.585
 3154TIP3   OH2 9394   7.666   2.675   0.809
 3154TIP3    H1 9395   7.686   2.710   0.899
 3154TIP3    H2 9396   7.588   2.622   0.832
 3155TIP3   OH2 9397   7.311   2.578   2.807
 3155TIP3    H1 9398   7.390   2.533   2.777
 3155TIP3    H2 9399   7.340   2.614   2.894
 3156TIP3   OH2 9400   7.375   2.397   1.234
 3156TIP3    H1 9401   7.347   2.355   1.317
 3156TIP3    H2 9402   7.418   2.323   1.186
 3157TIP3   OH2 9403   7.610   2.443   2.488
 3157TIP3    H1 9404   7.542   2.513   2.489
 3157TIP3    H2 9405   7.673   2.481   2.421
 3158TIP3   OH2 9406   7.481   2.187   1.074
 3158TIP3    H1 9407   7.451   2.202   0.982
 3158TIP3    H2 9408   7.573   2.158   1.053
 3159TIP3   OH2 9409   7.780   2.253   2.585
 3159TIP3    H1 9410   7.774   2.169   2.537
 3159TIP3    H2 9411   7.715   2.309   2.537
 3160TIP3   OH2 9412   7.786   2.012   2.423
 3160TIP3    H1 9413   7.790   2.076   2.348
 3160TIP3    H2 9414   7.694   1.980   2.412
 3161TIP3   OH2 9415   7.771   2.570   2.315
 3161TIP3    H1 9416   7.839   2.561   2.247
 3161TIP3    H2 9417   7.712   2.635   2.272
 3162TIP3   OH2 9418   7.654   2.360   2.823
 3162TIP3    H1 9419   7.584   2.293   2.836
 3162TIP3    H2 9420   7.682   2.343   2.731
 3163TIP3   OH2 9421   7.484   2.145   2.875
 3163TIP3    H1 9422   7.487   2.055   2.839
 3163TIP3    H2 9423   7.518   2.131   2.965
 3164TIP3   OH2 9424   7.275   3.256   0.984
 3164TIP3    H1 9425   7.372   3.250   0.972
 3164TIP3    H2 9426   7.252   3.309   0.905
 3165TIP3   OH2 9427   6.765   2.638   1.199
 3165TIP3    H1 9428   6.860   2.659   1.184
 3165TIP3    H2 9429   6.759   2.549   1.158
 3166TIP3   OH2 9430   6.682   3.248   1.614
 3166TIP3    H1 9431   6.616   3.188   1.574
 3166TIP3    H2 9432   6.726   3.188   1.678
 3167TIP3   OH2 9433   6.817   3.093   1.799
 3167TIP3    H1 9434   6.802   3.026   1.867
 3167TIP3    H2 9435   6.869   3.158   1.851
 3168TIP3   OH2 9436   7.000   2.503   2.175
 3168TIP3    H1 9437   6.997   2.471   2.082
 3168TIP3    H2 9438   7.097   2.506   2.189
 3169TIP3   OH2 9439   7.215   2.190   2.845
 3169TIP3    H1 9440   7.313   2.188   2.846
 3169TIP3    H2 9441   7.195   2.103   2.885
 3170TIP3   OH2 9442   7.174   1.890   2.184
 3170TIP3    H1 9443   7.234   1.812   2.185
 3170TIP3    H2 9444   7.240   1.962   2.176
 3171TIP3   OH2 9445   6.981   2.159   2.249
 3171TIP3    H1 9446   7.031   2.151   2.165
 3171TIP3    H2 9447   7.011   2.246   2.280
 3172TIP3   OH2 9448   6.966   1.661   1.750
 3172TIP3    H1 9449   6.873   1.656   1.778
 3172TIP3    H2 9450   6.961   1.720   1.673
 3173TIP3   OH2 9451   7.187   1.747   2.566
 3173TIP3    H1 9452   7.132   1.742   2.646
 3173TIP3    H2 9453   7.123   1.783   2.502
 3174TIP3   OH2 9454   7.229   3.163   2.639
 3174TIP3    H1 9455   7.134   3.147   2.624
 3174TIP3    H2 9456   7.235   3.160   2.735
 3175TIP3   OH2 9457   7.408   3.203   2.188
 3175TIP3    H1 9458   7.357   3.278   2.150
 3175TIP3    H2 9459   7.492   3.219   2.142
 3176TIP3   OH2 9460   7.835   3.428   2.327
 3176TIP3    H1 9461   7.882   3.437   2.413
 3176TIP3    H2 9462   7.884   3.491   2.270
 3177TIP3   OH2 9463   7.978   3.597   2.150
 3177TIP3    H1 9464   8.025   3.595   2.066
 3177TIP3    H2 9465   8.019   3.674   2.194
 3178TIP3   OH2 9466   7.081   3.458   2.218
 3178TIP3    H1 9467   6.991   3.487   2.194
 3178TIP3    H2 9468   7.097   3.513   2.296
 3179TIP3   OH2 9469   7.315   3.435   2.072
 3179TIP3    H1 9470   7.228   3.449   2.116
 3179TIP3    H2 9471   7.297   3.470   1.982
 3180TIP3   OH2 9472   7.714   3.473   1.874
 3180TIP3    H1 9473   7.639   3.486   1.811
 3180TIP3    H2 9474   7.726   3.565   1.906
 3181TIP3   OH2 9475   7.964   3.371   1.852
 3181TIP3    H1 9476   7.875   3.407   1.858
 3181TIP3    H2 9477   8.018   3.447   1.879
 3182TIP3   OH2 9478   6.992   3.253   1.955
 3182TIP3    H1 9479   7.017   3.226   2.046
 3182TIP3    H2 9480   7.064   3.210   1.905
 3183TIP3   OH2 9481   7.187   3.126   1.816
 3183TIP3    H1 9482   7.202   3.043   1.867
 3183TIP3    H2 9483   7.277   3.163   1.811
 3184TIP3   OH2 9484   7.452   3.220   1.820
 3184TIP3    H1 9485   7.481   3.128   1.808
 3184TIP3    H2 9486   7.500   3.243   1.902
 3185TIP3   OH2 9487   7.273   1.593   1.914
 3185TIP3    H1 9488   7.182   1.556   1.921
 3185TIP3    H2 9489   7.324   1.509   1.911
 3186TIP3   OH2 9490   7.064   1.455   1.577
 3186TIP3    H1 9491   7.087   1.511   1.501
 3186TIP3    H2 9492   7.036   1.521   1.643
 3187TIP3   OH2 9493   6.780   3.031   1.348
 3187TIP3    H1 9494   6.694   2.998   1.315
 3187TIP3    H2 9495   6.773   3.124   1.322
 3188TIP3   OH2 9496   7.180   1.610   1.343
 3188TIP3    H1 9497   7.234   1.549   1.292
 3188TIP3    H2 9498   7.247   1.675   1.371
 3189TIP3   OH2 9499   7.542   3.210   0.940
 3189TIP3    H1 9500   7.635   3.220   0.909
 3189TIP3    H2 9501   7.514   3.141   0.876
 3190TIP3   OH2 9502   7.471   1.865   2.810
 3190TIP3    H1 9503   7.436   1.795   2.867
 3190TIP3    H2 9504   7.564   1.867   2.840
 3191TIP3   OH2 9505   7.715   1.864   2.931
 3191TIP3    H1 9506   7.805   1.856   2.896
 3191TIP3    H2 9507   7.715   1.798   3.004
 3192TIP3   OH2 9508   6.855   3.047   0.984
 3192TIP3    H1 9509   6.860   3.073   1.077
 3192TIP3    H2 9510   6.943   3.005   0.969
 3193TIP3   OH2 9511   0.421   3.381   3.179
 3193TIP3    H1 9512   0.390   3.471   3.158
 3193TIP3    H2 9513   0.346   3.329   3.144
 3194TIP3   OH2 9514   0.420   3.384   3.564
 3194TIP3    H1 9515   0.454   3.356   3.651
 3194TIP3    H2 9516   0.380   3.302   3.531
 3195TIP3   OH2 9517  -0.247   3.241   3.892
 3195TIP3    H1 9518  -0.271   3.207   3.979
 3195TIP3    H2 9519  -0.208   3.327   3.911
 3196TIP3   OH2 9520   0.665   3.685   3.245
 3196TIP3    H1 9521   0.650   3.616   3.311
 3196TIP3    H2 9522   0.697   3.759   3.299
 3197TIP3   OH2 9523  -0.301   3.672   3.596
 3197TIP3    H1 9524  -0.315   3.577   3.614
 3197TIP3    H2 9525  -0.206   3.680   3.613
 3198TIP3   OH2 9526  -0.527   3.170   3.565
 3198TIP3    H1 9527  -0.491   3.129   3.645
 3198TIP3    H2 9528  -0.470   3.246   3.552
 3199TIP3   OH2 9529   0.317   4.146   3.264
 3199TIP3    H1 9530   0.356   4.078   3.205
 3199TIP3    H2 9531   0.315   4.097   3.348
 3200TIP3   OH2 9532   0.219   3.606   3.612
 3200TIP3    H1 9533   0.260   3.529   3.569
 3200TIP3    H2 9534   0.302   3.653   3.637
 3201TIP3   OH2 9535   1.233   2.925   3.608
 3201TIP3    H1 9536   1.264   3.009   3.648
 3201TIP3    H2 9537   1.260   2.938   3.515
 3202TIP3   OH2 9538   0.627   3.106   3.640
 3202TIP3    H1 9539   0.674   3.023   3.660
 3202TIP3    H2 9540   0.599   3.089   3.548
 3203TIP3   OH2 9541  -0.025   2.763   3.603
 3203TIP3    H1 9542  -0.045   2.838   3.542
 3203TIP3    H2 9543  -0.072   2.691   3.556
 3204TIP3   OH2 9544   0.666   2.860   3.225
 3204TIP3    H1 9545   0.737   2.846   3.292
 3204TIP3    H2 9546   0.720   2.894   3.151
 3205TIP3   OH2 9547  -0.392   2.968   3.718
 3205TIP3    H1 9548  -0.309   2.960   3.769
 3205TIP3    H2 9549  -0.368   2.924   3.634
 3206TIP3   OH2 9550   0.047   3.167   3.497
 3206TIP3    H1 9551   0.140   3.141   3.515
 3206TIP3    H2 9552   0.007   3.081   3.471
 3207TIP3   OH2 9553   1.307   3.134   3.780
 3207TIP3    H1 9554   1.223   3.181   3.761
 3207TIP3    H2 9555   1.332   3.173   3.865
 3208TIP3   OH2 9556  -0.032   2.751   4.044
 3208TIP3    H1 9557  -0.088   2.790   3.974
 3208TIP3    H2 9558  -0.089   2.765   4.123
 3209TIP3   OH2 9559   0.303   3.598   3.051
 3209TIP3    H1 9560   0.271   3.590   2.960
 3209TIP3    H2 9561   0.261   3.682   3.078
 3210TIP3   OH2 9562   0.072   3.533   3.839
 3210TIP3    H1 9563   0.014   3.602   3.876
 3210TIP3    H2 9564   0.114   3.579   3.763
 3211TIP3   OH2 9565   0.868   2.865   3.404
 3211TIP3    H1 9566   0.862   2.820   3.489
 3211TIP3    H2 9567   0.924   2.942   3.427
 3212TIP3   OH2 9568  -0.152   2.863   3.824
 3212TIP3    H1 9569  -0.093   2.939   3.847
 3212TIP3    H2 9570  -0.103   2.826   3.747
 3213TIP3   OH2 9571  -0.116   3.709   3.957
 3213TIP3    H1 9572  -0.165   3.769   3.898
 3213TIP3    H2 9573  -0.191   3.671   4.006
 3214TIP3   OH2 9574   0.732   3.929   3.410
 3214TIP3    H1 9575   0.642   3.920   3.448
 3214TIP3    H2 9576   0.724   4.015   3.363
 3215TIP3   OH2 9577   1.027   2.823   3.772
 3215TIP3    H1 9578   0.941   2.853   3.738
 3215TIP3    H2 9579   1.089   2.857   3.705
 3216TIP3   OH2 9580   0.318   2.465   3.754
 3216TIP3    H1 9581   0.302   2.371   3.773
 3216TIP3    H2 9582   0.242   2.505   3.802
 3217TIP3   OH2 9583   0.430   3.974   3.079
 3217TIP3    H1 9584   0.479   3.890   3.062
 3217TIP3    H2 9585   0.495   4.037   3.041
 3218TIP3   OH2 9586   0.573   3.757   2.995
 3218TIP3    H1 9587   0.553   3.676   2.947
 3218TIP3    H2 9588   0.612   3.722   3.078
 3219TIP3   OH2 9589   0.958   3.837   3.753
 3219TIP3    H1 9590   0.947   3.760   3.693
 3219TIP3    H2 9591   0.941   3.912   3.692
 3220TIP3   OH2 9592   0.252   3.233   3.013
 3220TIP3    H1 9593   0.174   3.288   2.992
 3220TIP3    H2 9594   0.299   3.230   2.928
 3221TIP3   OH2 9595   0.214   3.025   2.731
 3221TIP3    H1 9596   0.284   3.075   2.777
 3221TIP3    H2 9597   0.268   2.957   2.686
 3222TIP3   OH2 9598   1.153   3.477   3.600
 3222TIP3    H1 9599   1.070   3.528   3.603
 3222TIP3    H2 9600   1.185   3.501   3.510
 3223TIP3   OH2 9601   0.599   3.316   2.981
 3223TIP3    H1 9602   0.546   3.339   3.060
 3223TIP3    H2 9603   0.684   3.292   3.023
 3224TIP3   OH2 9604   0.833   3.352   3.900
 3224TIP3    H1 9605   0.832   3.435   3.951
 3224TIP3    H2 9606   0.748   3.358   3.852
 3225TIP3   OH2 9607  -0.168   3.306   3.401
 3225TIP3    H1 9608  -0.208   3.248   3.332
 3225TIP3    H2 9609  -0.088   3.255   3.426
 3226TIP3   OH2 9610  -0.025   3.732   3.545
 3226TIP3    H1 9611  -0.050   3.694   3.459
 3226TIP3    H2 9612   0.063   3.692   3.560
 3227TIP3   OH2 9613   0.020   3.275   3.752
 3227TIP3    H1 9614   0.022   3.262   3.655
 3227TIP3    H2 9615   0.030   3.372   3.763
 3228TIP3   OH2 9616   0.490   3.923   3.531
 3228TIP3    H1 9617   0.481   4.002   3.586
 3228TIP3    H2 9618   0.476   3.849   3.594
 3229TIP3   OH2 9619   0.102   3.843   4.077
 3229TIP3    H1 9620   0.046   3.904   4.128
 3229TIP3    H2 9621   0.034   3.787   4.034
 3230TIP3   OH2 9622   0.437   3.175   2.810
 3230TIP3    H1 9623   0.497   3.235   2.859
 3230TIP3    H2 9624   0.465   3.195   2.717
 3231TIP3   OH2 9625  -0.179   3.394   4.207
 3231TIP3    H1 9626  -0.168   3.478   4.258
 3231TIP3    H2 9627  -0.247   3.421   4.144
 3232TIP3   OH2 9628   0.183   3.852   3.086
 3232TIP3    H1 9629   0.267   3.902   3.091
 3232TIP3    H2 9630   0.126   3.913   3.038
 3233TIP3   OH2 9631  -0.115   4.011   4.158
 3233TIP3    H1 9632  -0.135   4.019   4.063
 3233TIP3    H2 9633  -0.196   3.970   4.193
 3234TIP3   OH2 9634   0.950   2.414   2.856
 3234TIP3    H1 9635   0.871   2.441   2.908
 3234TIP3    H2 9636   0.972   2.498   2.810
 3235TIP3   OH2 9637  -0.290   3.146   3.203
 3235TIP3    H1 9638  -0.355   3.192   3.145
 3235TIP3    H2 9639  -0.336   3.063   3.220
 3236TIP3   OH2 9640   0.756   3.778   2.410
 3236TIP3    H1 9641   0.764   3.874   2.390
 3236TIP3    H2 9642   0.848   3.747   2.395
 3237TIP3   OH2 9643   1.196   4.186   3.800
 3237TIP3    H1 9644   1.196   4.089   3.816
 3237TIP3    H2 9645   1.113   4.211   3.847
 3238TIP3   OH2 9646   0.302   3.968   3.934
 3238TIP3    H1 9647   0.300   4.061   3.967
 3238TIP3    H2 9648   0.231   3.928   3.988
 3239TIP3   OH2 9649   0.066   4.095   2.888
 3239TIP3    H1 9650   0.022   4.082   2.803
 3239TIP3    H2 9651   0.037   4.184   2.915
 3240TIP3   OH2 9652   0.266   4.001   2.524
 3240TIP3    H1 9653   0.325   3.931   2.487
 3240TIP3    H2 9654   0.302   4.011   2.614
 3241TIP3   OH2 9655   0.317   4.049   2.794
 3241TIP3    H1 9656   0.228   4.058   2.835
 3241TIP3    H2 9657   0.367   4.010   2.868
 3242TIP3   OH2 9658   1.084   3.312   4.077
 3242TIP3    H1 9659   1.004   3.321   4.024
 3242TIP3    H2 9660   1.102   3.216   4.068
 3243TIP3   OH2 9661   0.083   2.543   3.887
 3243TIP3    H1 9662  -0.004   2.512   3.857
 3243TIP3    H2 9663   0.057   2.625   3.934
 3244TIP3   OH2 9664   0.620   2.659   4.079
 3244TIP3    H1 9665   0.690   2.631   4.142
 3244TIP3    H2 9666   0.538   2.640   4.128
 3245TIP3   OH2 9667   0.849   3.087   3.993
 3245TIP3    H1 9668   0.801   3.087   4.079
 3245TIP3    H2 9669   0.832   3.177   3.959
 3246TIP3   OH2 9670   0.516   3.222   2.558
 3246TIP3    H1 9671   0.479   3.201   2.470
 3246TIP3    H2 9672   0.603   3.259   2.532
 3247TIP3   OH2 9673   0.236   2.645   2.867
 3247TIP3    H1 9674   0.204   2.615   2.955
 3247TIP3    H2 9675   0.190   2.583   2.808
 3248TIP3   OH2 9676   0.008   3.062   3.910
 3248TIP3    H1 9677  -0.048   3.104   3.976
 3248TIP3    H2 9678   0.014   3.137   3.846
 3249TIP3   OH2 9679  -0.102   2.949   3.423
 3249TIP3    H1 9680  -0.197   2.930   3.434
 3249TIP3    H2 9681  -0.086   2.909   3.334
 3250TIP3   OH2 9682   0.389   3.031   3.146
 3250TIP3    H1 9683   0.339   3.103   3.101
 3250TIP3    H2 9684   0.445   2.998   3.073
 3251TIP3   OH2 9685   0.565   3.309   4.229
 3251TIP3    H1 9686   0.545   3.235   4.291
 3251TIP3    H2 9687   0.659   3.324   4.250
 3252TIP3   OH2 9688   0.543   3.059   3.383
 3252TIP3    H1 9689   0.482   3.087   3.311
 3252TIP3    H2 9690   0.580   2.980   3.338
 3253TIP3   OH2 9691  -0.173   3.096   4.170
 3253TIP3    H1 9692  -0.082   3.134   4.169
 3253TIP3    H2 9693  -0.157   3.001   4.185
 3254TIP3   OH2 9694  -0.566   2.626   3.721
 3254TIP3    H1 9695  -0.479   2.645   3.760
 3254TIP3    H2 9696  -0.545   2.595   3.632
 3255TIP3   OH2 9697   0.552   3.304   3.805
 3255TIP3    H1 9698   0.587   3.233   3.745
 3255TIP3    H2 9699   0.523   3.249   3.881
 3256TIP3   OH2 9700   0.232   2.769   3.477
 3256TIP3    H1 9701   0.151   2.766   3.532
 3256TIP3    H2 9702   0.302   2.763   3.543
 3257TIP3   OH2 9703  -0.341   2.817   3.486
 3257TIP3    H1 9704  -0.429   2.801   3.449
 3257TIP3    H2 9705  -0.294   2.734   3.466
 3258TIP3   OH2 9706  -0.066   2.825   3.186
 3258TIP3    H1 9707   0.029   2.836   3.165
 3258TIP3    H2 9708  -0.111   2.852   3.103
 3259TIP3   OH2 9709   0.718   2.847   3.683
 3259TIP3    H1 9710   0.683   2.859   3.774
 3259TIP3    H2 9711   0.652   2.786   3.646
 3260TIP3   OH2 9712  -0.217   2.877   2.970
 3260TIP3    H1 9713  -0.300   2.830   2.953
 3260TIP3    H2 9714  -0.182   2.896   2.881
 3261TIP3   OH2 9715   0.891   4.535   3.901
 3261TIP3    H1 9716   0.889   4.559   3.807
 3261TIP3    H2 9717   0.971   4.581   3.932
 3262TIP3   OH2 9718  -0.165   3.622   4.362
 3262TIP3    H1 9719  -0.084   3.658   4.404
 3262TIP3    H2 9720  -0.230   3.690   4.388
 3263TIP3   OH2 9721   0.308   3.097   3.572
 3263TIP3    H1 9722   0.383   3.063   3.521
 3263TIP3    H2 9723   0.318   3.052   3.658
 3264TIP3   OH2 9724  -0.178   2.591   3.447
 3264TIP3    H1 9725  -0.194   2.506   3.492
 3264TIP3    H2 9726  -0.146   2.562   3.360
 3265TIP3   OH2 9727   0.283   2.994   3.871
 3265TIP3    H1 9728   0.195   3.035   3.880
 3265TIP3    H2 9729   0.343   3.057   3.916
 3266TIP3   OH2 9730   0.020   3.385   2.959
 3266TIP3    H1 9731  -0.052   3.319   2.948
 3266TIP3    H2 9732   0.002   3.418   3.050
 3267TIP3   OH2 9733   0.919   3.622   3.586
 3267TIP3    H1 9734   0.944   3.673   3.506
 3267TIP3    H2 9735   0.836   3.578   3.559
 3268TIP3   OH2 9736   0.494   2.702   2.817
 3268TIP3    H1 9737   0.398   2.694   2.834
 3268TIP3    H2 9738   0.513   2.794   2.845
 3269TIP3   OH2 9739   0.414   3.701   3.959
 3269TIP3    H1 9740   0.459   3.690   4.044
 3269TIP3    H2 9741   0.383   3.793   3.962
 3270TIP3   OH2 9742   0.552   2.948   2.929
 3270TIP3    H1 9743   0.648   2.955   2.945
 3270TIP3    H2 9744   0.532   3.028   2.877
 3271TIP3   OH2 9745  -0.274   3.401   3.643
 3271TIP3    H1 9746  -0.234   3.358   3.564
 3271TIP3    H2 9747  -0.273   3.331   3.710
 3272TIP3   OH2 9748   0.166   3.535   2.783
 3272TIP3    H1 9749   0.117   3.621   2.786
 3272TIP3    H2 9750   0.113   3.481   2.845
 3273TIP3   OH2 9751   0.325   3.440   4.268
 3273TIP3    H1 9752   0.274   3.395   4.200
 3273TIP3    H2 9753   0.416   3.408   4.246
 3274TIP3   OH2 9754   0.578   3.962   3.856
 3274TIP3    H1 9755   0.482   3.964   3.868
 3274TIP3    H2 9756   0.608   4.015   3.933
 3275TIP3   OH2 9757   0.985   3.041   2.765
 3275TIP3    H1 9758   0.923   2.996   2.701
 3275TIP3    H2 9759   0.984   3.129   2.722
 3276TIP3   OH2 9760   1.209   3.896   3.841
 3276TIP3    H1 9761   1.111   3.889   3.833
 3276TIP3    H2 9762   1.235   3.865   3.751
 3277TIP3   OH2 9763   0.693   3.855   2.672
 3277TIP3    H1 9764   0.666   3.782   2.729
 3277TIP3    H2 9765   0.707   3.811   2.586
 3278TIP3   OH2 9766   0.686   3.485   3.505
 3278TIP3    H1 9767   0.592   3.461   3.517
 3278TIP3    H2 9768   0.720   3.404   3.460
 3279TIP3   OH2 9769  -0.178   3.714   3.262
 3279TIP3    H1 9770  -0.187   3.792   3.203
 3279TIP3    H2 9771  -0.266   3.707   3.299
 3280TIP3   OH2 9772   7.535   1.404   1.348
 3280TIP3    H1 9773   7.595   1.478   1.374
 3280TIP3    H2 9774   7.456   1.425   1.400
 3281TIP3   OH2 9775  -0.053   3.473   3.202
 3281TIP3    H1 9776  -0.084   3.563   3.221
 3281TIP3    H2 9777  -0.087   3.424   3.279
 3282TIP3   OH2 9778   0.095   4.057   3.729
 3282TIP3    H1 9779   0.138   4.127   3.676
 3282TIP3    H2 9780   0.172   4.018   3.774
 3283TIP3   OH2 9781  -0.269   3.954   3.117
 3283TIP3    H1 9782  -0.349   3.981   3.162
 3283TIP3    H2 9783  -0.222   4.041   3.114
 3284TIP3   OH2 9784   0.470   3.690   3.690
 3284TIP3    H1 9785   0.459   3.685   3.788
 3284TIP3    H2 9786   0.549   3.637   3.676
 3285TIP3   OH2 9787   0.451   3.584   2.575
 3285TIP3    H1 9788   0.504   3.559   2.654
 3285TIP3    H2 9789   0.362   3.557   2.604
 3286TIP3   OH2 9790   0.719   4.221   3.738
 3286TIP3    H1 9791   0.638   4.167   3.730
 3286TIP3    H2 9792   0.705   4.286   3.666
 3287TIP3   OH2 9793   0.785   4.054   2.390
 3287TIP3    H1 9794   0.819   4.125   2.332
 3287TIP3    H2 9795   0.706   4.099   2.426
 3288TIP3   OH2 9796  -0.187   2.824   4.264
 3288TIP3    H1 9797  -0.282   2.809   4.279
 3288TIP3    H2 9798  -0.149   2.771   4.336
 3289TIP3   OH2 9799   0.610   3.521   2.793
 3289TIP3    H1 9800   0.599   3.451   2.860
 3289TIP3    H2 9801   0.707   3.514   2.777
 3290TIP3   OH2 9802  -0.184   3.564   2.573
 3290TIP3    H1 9803  -0.173   3.470   2.549
 3290TIP3    H2 9804  -0.210   3.556   2.667
 3291TIP3   OH2 9805  -0.239   3.571   2.847
 3291TIP3    H1 9806  -0.160   3.544   2.896
 3291TIP3    H2 9807  -0.233   3.669   2.852
 3292TIP3   OH2 9808  -0.491   3.258   3.059
 3292TIP3    H1 9809  -0.535   3.318   3.121
 3292TIP3    H2 9810  -0.478   3.318   2.983
 3293TIP3   OH2 9811   0.641   2.900   3.943
 3293TIP3    H1 9812   0.725   2.939   3.973
 3293TIP3    H2 9813   0.634   2.818   3.997
 3294TIP3   OH2 9814   0.527   2.646   3.108
 3294TIP3    H1 9815   0.513   2.670   3.015
 3294TIP3    H2 9816   0.567   2.728   3.145
 3295TIP3   OH2 9817   0.025   3.765   2.793
 3295TIP3    H1 9818  -0.062   3.792   2.829
 3295TIP3    H2 9819   0.041   3.839   2.732
 3296TIP3   OH2 9820   0.212   2.829   3.208
 3296TIP3    H1 9821   0.275   2.901   3.189
 3296TIP3    H2 9822   0.219   2.821   3.305
 3297TIP3   OH2 9823   0.480   3.144   4.014
 3297TIP3    H1 9824   0.510   3.195   4.092
 3297TIP3    H2 9825   0.535   3.064   4.019
 3298TIP3   OH2 9826   0.357   2.550   3.309
 3298TIP3    H1 9827   0.351   2.628   3.366
 3298TIP3    H2 9828   0.418   2.584   3.239
 3299TIP3   OH2 9829  -0.230   3.842   2.863
 3299TIP3    H1 9830  -0.258   3.911   2.798
 3299TIP3    H2 9831  -0.248   3.887   2.948
 3300TIP3   OH2 9832  -0.120   2.549   3.151
 3300TIP3    H1 9833  -0.128   2.646   3.142
 3300TIP3    H2 9834  -0.026   2.538   3.126
 3301TIP3   OH2 9835   1.118   3.048   4.000
 3301TIP3    H1 9836   1.020   3.042   4.000
 3301TIP3    H2 9837   1.137   3.010   3.913
 3302TIP3   OH2 9838   0.771   3.241   3.384
 3302TIP3    H1 9839   0.697   3.180   3.395
 3302TIP3    H2 9840   0.844   3.195   3.431
 3303TIP3   OH2 9841  -0.511   3.473   2.887
 3303TIP3    H1 9842  -0.433   3.531   2.877
 3303TIP3    H2 9843  -0.490   3.413   2.812
 3304TIP3   OH2 9844   0.741   4.200   3.331
 3304TIP3    H1 9845   0.698   4.248   3.256
 3304TIP3    H2 9846   0.835   4.218   3.310
 3305TIP3   OH2 9847  -0.181   2.461   3.854
 3305TIP3    H1 9848  -0.215   2.423   3.770
 3305TIP3    H2 9849  -0.190   2.384   3.915
 3306TIP3   OH2 9850  -0.019   4.185   4.362
 3306TIP3    H1 9851   0.078   4.191   4.365
 3306TIP3    H2 9852  -0.032   4.122   4.289
 3307TIP3   OH2 9853  -0.023   3.765   2.480
 3307TIP3    H1 9854  -0.078   3.692   2.516
 3307TIP3    H2 9855   0.052   3.715   2.444
 3308TIP3   OH2 9856   0.631   4.097   4.091
 3308TIP3    H1 9857   0.625   4.028   4.160
 3308TIP3    H2 9858   0.710   4.148   4.120
 3309TIP3   OH2 9859   0.411   3.804   2.396
 3309TIP3    H1 9860   0.457   3.741   2.454
 3309TIP3    H2 9861   0.463   3.801   2.314
 3310TIP3   OH2 9862  -0.377   3.292   2.731
 3310TIP3    H1 9863  -0.310   3.260   2.794
 3310TIP3    H2 9864  -0.324   3.295   2.649
 3311TIP3   OH2 9865   0.245   3.718   4.287
 3311TIP3    H1 9866   0.213   3.740   4.197
 3311TIP3    H2 9867   0.282   3.628   4.275
 3312TIP3   OH2 9868   0.136   3.479   2.516
 3312TIP3    H1 9869   0.137   3.495   2.612
 3312TIP3    H2 9870   0.136   3.381   2.514
 3313TIP3   OH2 9871   0.742   3.733   3.893
 3313TIP3    H1 9872   0.820   3.771   3.849
 3313TIP3    H2 9873   0.676   3.802   3.874
 3314TIP3   OH2 9874  -0.217   3.326   4.502
 3314TIP3    H1 9875  -0.136   3.355   4.456
 3314TIP3    H2 9876  -0.208   3.374   4.586
 3315TIP3   OH2 9877  -0.171   3.185   2.923
 3315TIP3    H1 9878  -0.191   3.140   3.007
 3315TIP3    H2 9879  -0.134   3.112   2.870
 3316TIP3   OH2 9880   0.072   3.238   4.145
 3316TIP3    H1 9881   0.014   3.315   4.157
 3316TIP3    H2 9882   0.138   3.275   4.081
 3317TIP3   OH2 9883  -0.062   2.977   2.752
 3317TIP3    H1 9884  -0.059   2.950   2.659
 3317TIP3    H2 9885   0.034   2.989   2.768
 3318TIP3   OH2 9886   0.614   3.652   4.288
 3318TIP3    H1 9887   0.694   3.626   4.240
 3318TIP3    H2 9888   0.613   3.588   4.361
 3319TIP3   OH2 9889   0.746   3.311   2.434
 3319TIP3    H1 9890   0.734   3.267   2.347
 3319TIP3    H2 9891   0.712   3.400   2.410
 3320TIP3   OH2 9892   0.217   3.043   4.282
 3320TIP3    H1 9893   0.224   2.962   4.227
 3320TIP3    H2 9894   0.175   3.106   4.220
 3321TIP3   OH2 9895   0.225   2.830   4.095
 3321TIP3    H1 9896   0.254   2.871   4.011
 3321TIP3    H2 9897   0.132   2.805   4.073
 3322TIP3   OH2 9898   0.244   3.366   3.980
 3322TIP3    H1 9899   0.328   3.368   3.932
 3322TIP3    H2 9900   0.188   3.424   3.924
 3323TIP3   OH2 9901   0.831   3.328   4.340
 3323TIP3    H1 9902   0.880   3.245   4.350
 3323TIP3    H2 9903   0.899   3.387   4.305
 3324TIP3   OH2 9904   0.872   3.583   4.077
 3324TIP3    H1 9905   0.815   3.638   4.019
 3324TIP3    H2 9906   0.960   3.604   4.039
 3325TIP3   OH2 9907   0.091   3.150   4.515
 3325TIP3    H1 9908   0.027   3.077   4.526
 3325TIP3    H2 9909   0.128   3.129   4.426
 3326TIP3   OH2 9910   0.356   2.589   4.159
 3326TIP3    H1 9911   0.307   2.670   4.136
 3326TIP3    H2 9912   0.288   2.520   4.146
 3327TIP3   OH2 9913   0.483   3.091   4.373
 3327TIP3    H1 9914   0.473   3.077   4.469
 3327TIP3    H2 9915   0.392   3.068   4.344
 3328TIP3   OH2 9916   0.720   3.046   4.227
 3328TIP3    H1 9917   0.647   3.045   4.292
 3328TIP3    H2 9918   0.796   3.016   4.281
 3329TIP3   OH2 9919   0.942   2.983   4.377
 3329TIP3    H1 9920   0.960   2.888   4.393
 3329TIP3    H2 9921   0.944   3.020   4.468
 3330TIP3   OH2 9922  -0.064   2.926   4.575
 3330TIP3    H1 9923  -0.061   2.835   4.538
 3330TIP3    H2 9924  -0.017   2.911   4.660
 3331TIP3   OH2 9925   0.446   2.597   4.418
 3331TIP3    H1 9926   0.515   2.528   4.411
 3331TIP3    H2 9927   0.409   2.594   4.328
 3332TIP3   OH2 9928   0.515   2.812   4.577
 3332TIP3    H1 9929   0.496   2.741   4.512
 3332TIP3    H2 9930   0.437   2.870   4.567
 3333TIP3   OH2 9931  -0.260   4.032   2.669
 3333TIP3    H1 9932  -0.165   4.034   2.649
 3333TIP3    H2 9933  -0.293   4.091   2.599
 3334TIP3   OH2 9934   0.996   4.287   3.292
 3334TIP3    H1 9935   1.024   4.319   3.380
 3334TIP3    H2 9936   1.062   4.328   3.233
 3335TIP3   OH2 9937   1.024   4.308   3.575
 3335TIP3    H1 9938   0.979   4.221   3.569
 3335TIP3    H2 9939   1.099   4.283   3.632
 3336TIP3   OH2 9940   1.069   3.985   4.145
 3336TIP3    H1 9941   0.998   3.996   4.212
 3336TIP3    H2 9942   1.113   4.072   4.150
 3337TIP3   OH2 9943   0.886   3.498   2.765
 3337TIP3    H1 9944   0.952   3.562   2.732
 3337TIP3    H2 9945   0.933   3.461   2.843
 3338TIP3   OH2 9946   1.015   3.367   2.970
 3338TIP3    H1 9947   0.949   3.325   3.028
 3338TIP3    H2 9948   1.081   3.401   3.033
 3339TIP3   OH2 9949   1.071   3.759   3.400
 3339TIP3    H1 9950   1.123   3.689   3.354
 3339TIP3    H2 9951   1.069   3.830   3.333
 3340TIP3   OH2 9952   0.899   4.059   3.594
 3340TIP3    H1 9953   0.826   4.100   3.645
 3340TIP3    H2 9954   0.850   4.012   3.522
 3341TIP3   OH2 9955   0.951   3.274   2.614
 3341TIP3    H1 9956   0.881   3.274   2.545
 3341TIP3    H2 9957   0.921   3.350   2.668
 3342TIP3   OH2 9958   0.816   2.951   2.572
 3342TIP3    H1 9959   0.786   2.982   2.486
 3342TIP3    H2 9960   0.798   2.855   2.563
 3343TIP3   OH2 9961   0.826   3.225   3.114
 3343TIP3    H1 9962   0.837   3.129   3.104
 3343TIP3    H2 9963   0.813   3.235   3.211
 3344TIP3   OH2 9964   1.118   3.648   3.972
 3344TIP3    H1 9965   1.189   3.580   3.962
 3344TIP3    H2 9966   1.145   3.715   3.908
 3345TIP3   OH2 9967   1.299   3.448   3.983
 3345TIP3    H1 9968   1.226   3.397   4.024
 3345TIP3    H2 9969   1.374   3.386   3.998
 3346TIP3   OH2 9970   0.771   2.684   2.551
 3346TIP3    H1 9971   0.840   2.653   2.613
 3346TIP3    H2 9972   0.697   2.622   2.566
 3347TIP3   OH2 9973   0.827   2.941   3.006
 3347TIP3    H1 9974   0.867   2.852   3.021
 3347TIP3    H2 9975   0.884   2.973   2.933
 3348TIP3   OH2 9976   0.984   3.110   3.504
 3348TIP3    H1 9977   1.070   3.134   3.462
 3348TIP3    H2 9978   1.001   3.147   3.593
 3349TIP3   OH2 9979   1.057   3.256   3.735
 3349TIP3    H1 9980   0.980   3.292   3.782
 3349TIP3    H2 9981   1.091   3.336   3.689
 3350TIP3   OH2 9982  -0.321   3.023   4.495
 3350TIP3    H1 9983  -0.239   2.981   4.528
 3350TIP3    H2 9984  -0.389   2.976   4.546
 3351TIP3   OH2 9985   1.501   2.845   4.290
 3351TIP3    H1 9986   1.566   2.783   4.249
 3351TIP3    H2 9987   1.475   2.900   4.213
 3352TIP3   OH2 9988   0.930   2.691   3.049
 3352TIP3    H1 9989   0.982   2.674   3.131
 3352TIP3    H2 9990   0.872   2.613   3.048
 3353TIP3   OH2 9991  -0.348   2.678   3.873
 3353TIP3    H1 9992  -0.287   2.601   3.875
 3353TIP3    H2 9993  -0.285   2.750   3.853
 3354TIP3   OH2 9994   1.375   2.985   4.093
 3354TIP3    H1 9995   1.289   3.028   4.112
 3354TIP3    H2 9996   1.344   2.911   4.037
 3355TIP3   OH2 9997   1.009   2.635   2.700
 3355TIP3    H1 9998   1.041   2.565   2.640
 3355TIP3    H2 9999   1.079   2.704   2.690
 3356TIP3   OH210000   0.581   4.156   2.948
 3356TIP3    H110001   0.629   4.143   2.863
 3356TIP3    H210002   0.635   4.222   2.992
 3357TIP3   OH210003  -0.362   2.548   4.264
 3357TIP3    H110004  -0.416   2.539   4.344
 3357TIP3    H210005  -0.425   2.591   4.204
 3358TIP3   OH210006  -0.141   4.029   3.874
 3358TIP3    H110007  -0.160   4.107   3.818
 3358TIP3    H210008  -0.050   4.011   3.842
 3359TIP3   OH210009   0.301   4.234   4.014
 3359TIP3    H110010   0.342   4.234   4.104
 3359TIP3    H210011   0.366   4.287   3.964
 3360TIP3   OH210012   0.480   4.390   3.878
 3360TIP3    H110013   0.550   4.340   3.835
 3360TIP3    H210014   0.532   4.446   3.939
 3361TIP3   OH210015   1.275   2.748   3.976
 3361TIP3    H110016   1.187   2.738   3.938
 3361TIP3    H210017   1.311   2.656   3.967
 3362TIP3   OH210018  -0.229   4.255   3.735
 3362TIP3    H110019  -0.254   4.348   3.759
 3362TIP3    H210020  -0.280   4.240   3.656
 3363TIP3   OH210021   0.197   4.253   3.564
 3363TIP3    H110022   0.148   4.274   3.482
 3363TIP3    H210023   0.211   4.343   3.602
 3364TIP3   OH210024   0.466   4.192   3.614
 3364TIP3    H110025   0.373   4.211   3.593
 3364TIP3    H210026   0.512   4.264   3.567
 3365TIP3   OH210027   0.669   4.384   3.523
 3365TIP3    H110028   0.656   4.468   3.475
 3365TIP3    H210029   0.697   4.324   3.451
 3366TIP3   OH210030  -0.357   3.919   3.498
 3366TIP3    H110031  -0.350   3.829   3.538
 3366TIP3    H210032  -0.264   3.946   3.499
 3367TIP3   OH210033  -0.080   4.014   3.512
 3367TIP3    H110034  -0.055   3.921   3.492
 3367TIP3    H210035  -0.027   4.026   3.594
 3368TIP3   OH210036   0.479   2.664   3.595
 3368TIP3    H110037   0.439   2.590   3.644
 3368TIP3    H210038   0.556   2.620   3.552
 3369TIP3   OH210039   1.000   2.544   3.500
 3369TIP3    H110040   1.039   2.594   3.425
 3369TIP3    H210041   0.906   2.566   3.493
 3370TIP3   OH210042   1.096   2.642   3.265
 3370TIP3    H110043   1.170   2.590   3.226
 3370TIP3    H210044   1.131   2.733   3.250
 3371TIP3   OH210045  -0.285   2.365   3.602
 3371TIP3    H110046  -0.364   2.312   3.618
 3371TIP3    H210047  -0.218   2.293   3.600
 3372TIP3   OH210048   0.175   2.410   3.491
 3372TIP3    H110049   0.230   2.457   3.426
 3372TIP3    H210050   0.208   2.446   3.575
 3373TIP3   OH210051   0.712   2.553   3.476
 3373TIP3    H110052   0.722   2.514   3.388
 3373TIP3    H210053   0.702   2.473   3.532
 3374TIP3   OH210054   0.748   2.477   3.038
 3374TIP3    H110055   0.664   2.523   3.057
 3374TIP3    H210056   0.733   2.392   3.084
 3375TIP3   OH210057   0.155   2.576   3.121
 3375TIP3    H110058   0.212   2.532   3.186
 3375TIP3    H210059   0.171   2.669   3.147
 3376TIP3   OH210060   0.009   3.998   2.622
 3376TIP3    H110061   0.097   4.022   2.584
 3376TIP3    H210062  -0.014   3.925   2.560
 3377TIP3   OH210063   0.725   4.122   2.715
 3377TIP3    H110064   0.718   4.024   2.705
 3377TIP3    H210065   0.679   4.152   2.634
 3378TIP3   OH210066  -0.063   2.656   4.500
 3378TIP3    H110067  -0.099   2.581   4.553
 3378TIP3    H210068   0.030   2.653   4.530
 3379TIP3   OH210069   0.188   2.653   4.622
 3379TIP3    H110070   0.272   2.631   4.579
 3379TIP3    H210071   0.178   2.579   4.685
 3380TIP3   OH210072   1.015   2.714   4.407
 3380TIP3    H110073   1.033   2.682   4.498
 3380TIP3    H210074   1.104   2.710   4.367
 3381TIP3   OH210075   0.948   4.265   3.900
 3381TIP3    H110076   0.870   4.235   3.849
 3381TIP3    H210077   0.929   4.360   3.907
 3382TIP3   OH210078   2.218   3.641   2.664
 3382TIP3    H110079   2.181   3.729   2.642
 3382TIP3    H210080   2.147   3.584   2.630
 3383TIP3   OH210081   2.216   3.642   3.054
 3383TIP3    H110082   2.251   3.611   3.139
 3383TIP3    H210083   2.178   3.560   3.017
 3384TIP3   OH210084   1.513   3.531   3.416
 3384TIP3    H110085   1.542   3.461   3.477
 3384TIP3    H210086   1.595   3.580   3.403
 3385TIP3   OH210087   2.458   3.945   2.735
 3385TIP3    H110088   2.440   3.861   2.780
 3385TIP3    H210089   2.500   3.997   2.805
 3386TIP3   OH210090   1.488   3.943   3.135
 3386TIP3    H110091   1.479   3.845   3.135
 3386TIP3    H210092   1.584   3.952   3.133
 3387TIP3   OH210093   1.192   3.142   2.919
 3387TIP3    H110094   1.144   3.225   2.935
 3387TIP3    H210095   1.123   3.090   2.874
 3388TIP3   OH210096   1.251   3.431   3.099
 3388TIP3    H110097   1.300   3.352   3.132
 3388TIP3    H210098   1.309   3.462   3.028
 3389TIP3   OH210099   2.111   4.404   2.741
 3389TIP3    H110100   2.182   4.351   2.703
 3389TIP3    H210101   2.106   4.372   2.832
 3390TIP3   OH210102   2.014   3.866   3.095
 3390TIP3    H110103   2.053   3.786   3.056
 3390TIP3    H210104   2.098   3.911   3.119
 3391TIP3   OH210105   3.030   3.182   3.094
 3391TIP3    H110106   3.062   3.266   3.133
 3391TIP3    H210107   3.055   3.194   3.001
 3392TIP3   OH210108   2.427   3.365   3.125
 3392TIP3    H110109   2.471   3.280   3.147
 3392TIP3    H210110   2.395   3.346   3.035
 3393TIP3   OH210111   1.768   3.024   3.092
 3393TIP3    H110112   1.749   3.096   3.028
 3393TIP3    H210113   1.722   2.950   3.047
 3394TIP3   OH210114   2.462   3.120   2.712
 3394TIP3    H110115   2.532   3.102   2.778
 3394TIP3    H210116   2.517   3.150   2.637
 3395TIP3   OH210117   1.399   3.224   3.200
 3395TIP3    H110118   1.482   3.206   3.247
 3395TIP3    H210119   1.413   3.169   3.120
 3396TIP3   OH210120   1.838   3.423   3.000
 3396TIP3    H110121   1.933   3.399   3.009
 3396TIP3    H210122   1.800   3.339   2.965
 3397TIP3   OH210123   3.106   3.394   3.262
 3397TIP3    H110124   3.020   3.437   3.244
 3397TIP3    H210125   3.119   3.418   3.355
 3398TIP3   OH210126   1.762   3.008   3.527
 3398TIP3    H110127   1.702   3.044   3.459
 3398TIP3    H210128   1.709   3.026   3.608
 3399TIP3   OH210129   2.098   3.856   2.537
 3399TIP3    H110130   2.065   3.836   2.448
 3399TIP3    H210131   2.071   3.949   2.548
 3400TIP3   OH210132   1.870   3.784   3.318
 3400TIP3    H110133   1.810   3.852   3.356
 3400TIP3    H210134   1.911   3.833   3.244
 3401TIP3   OH210135   2.665   3.123   2.889
 3401TIP3    H110136   2.663   3.067   2.968
 3401TIP3    H210137   2.720   3.198   2.918
 3402TIP3   OH210138   1.634   3.122   3.310
 3402TIP3    H110139   1.697   3.193   3.335
 3402TIP3    H210140   1.682   3.082   3.235
 3403TIP3   OH210141   1.698   3.980   3.420
 3403TIP3    H110142   1.671   4.067   3.385
 3403TIP3    H210143   1.619   3.960   3.475
 3404TIP3   OH210144   1.086   3.668   2.654
 3404TIP3    H110145   1.048   3.693   2.568
 3404TIP3    H210146   1.119   3.753   2.688
 3405TIP3   OH210147   2.534   4.179   2.907
 3405TIP3    H110148   2.445   4.168   2.949
 3405TIP3    H210149   2.509   4.215   2.821
 3406TIP3   OH210150   2.822   3.085   3.261
 3406TIP3    H110151   2.735   3.108   3.226
 3406TIP3    H210152   2.883   3.116   3.191
 3407TIP3   OH210153   2.114   2.724   3.241
 3407TIP3    H110154   2.100   2.629   3.259
 3407TIP3    H210155   2.038   2.762   3.289
 3408TIP3   OH210156   2.306   4.286   2.558
 3408TIP3    H110157   2.332   4.191   2.561
 3408TIP3    H210158   2.237   4.276   2.489
 3409TIP3   OH210159   2.365   4.021   2.486
 3409TIP3    H110160   2.347   3.943   2.432
 3409TIP3    H210161   2.398   3.980   2.569
 3410TIP3   OH210162   2.755   4.096   3.238
 3410TIP3    H110163   2.743   4.016   3.181
 3410TIP3    H210164   2.743   4.168   3.173
 3411TIP3   OH210165   2.051   3.493   2.499
 3411TIP3    H110166   1.970   3.543   2.475
 3411TIP3    H210167   2.094   3.482   2.413
 3412TIP3   OH210168   2.006   3.275   2.212
 3412TIP3    H110169   2.075   3.328   2.256
 3412TIP3    H210170   2.062   3.210   2.164
 3413TIP3   OH210171   2.950   3.736   3.088
 3413TIP3    H110172   2.865   3.786   3.091
 3413TIP3    H210173   2.980   3.757   2.997
 3414TIP3   OH210174   2.397   3.576   2.466
 3414TIP3    H110175   2.342   3.596   2.545
 3414TIP3    H210176   2.481   3.547   2.508
 3415TIP3   OH210177   2.629   3.610   3.385
 3415TIP3    H110178   2.625   3.693   3.436
 3415TIP3    H210179   2.542   3.612   3.340
 3416TIP3   OH210180   1.629   3.570   2.887
 3416TIP3    H110181   1.584   3.512   2.822
 3416TIP3    H210182   1.703   3.514   2.917
 3417TIP3   OH210183   1.760   3.986   3.031
 3417TIP3    H110184   1.736   3.944   2.947
 3417TIP3    H210185   1.848   3.945   3.049
 3418TIP3   OH210186   1.759   3.541   3.242
 3418TIP3    H110187   1.793   3.512   3.154
 3418TIP3    H210188   1.807   3.625   3.257
 3419TIP3   OH210189   2.289   4.177   3.015
 3419TIP3    H110190   2.277   4.256   3.072
 3419TIP3    H210191   2.272   4.103   3.077
 3420TIP3   OH210192   1.903   4.098   3.562
 3420TIP3    H110193   1.842   4.158   3.611
 3420TIP3    H210194   1.838   4.044   3.512
 3421TIP3   OH210195   2.231   3.434   2.295
 3421TIP3    H110196   2.292   3.492   2.344
 3421TIP3    H210197   2.258   3.453   2.201
 3422TIP3   OH210198   1.659   3.654   3.669
 3422TIP3    H110199   1.662   3.741   3.713
 3422TIP3    H210200   1.564   3.632   3.681
 3423TIP3   OH210201   2.012   4.131   2.545
 3423TIP3    H110202   2.009   4.181   2.628
 3423TIP3    H210203   1.927   4.154   2.505
 3424TIP3   OH210204   1.695   4.263   3.653
 3424TIP3    H110205   1.659   4.265   3.562
 3424TIP3    H210206   1.616   4.242   3.706
 3425TIP3   OH210207   2.751   2.670   2.351
 3425TIP3    H110208   2.666   2.694   2.392
 3425TIP3    H210209   2.766   2.743   2.288
 3426TIP3   OH210210   1.490   3.414   2.698
 3426TIP3    H110211   1.423   3.455   2.639
 3426TIP3    H210212   1.462   3.322   2.697
 3427TIP3   OH210213   2.553   4.038   1.900
 3427TIP3    H110214   2.563   4.133   1.877
 3427TIP3    H210215   2.645   4.005   1.884
 3428TIP3   OH210216   1.274   3.797   3.598
 3428TIP3    H110217   1.208   3.775   3.530
 3428TIP3    H210218   1.313   3.710   3.621
 3429TIP3   OH210219   1.129   3.989   3.230
 3429TIP3    H110220   1.225   3.981   3.221
 3429TIP3    H210221   1.121   4.067   3.286
 3430TIP3   OH210222   2.991   4.441   3.287
 3430TIP3    H110223   2.992   4.345   3.302
 3430TIP3    H210224   2.908   4.465   3.333
 3431TIP3   OH210225   2.095   4.227   3.419
 3431TIP3    H110226   2.094   4.319   3.454
 3431TIP3    H210227   2.025   4.186   3.474
 3432TIP3   OH210228   1.869   4.359   2.367
 3432TIP3    H110229   1.818   4.335   2.287
 3432TIP3    H210230   1.827   4.442   2.396
 3433TIP3   OH210231   1.300   4.202   2.759
 3433TIP3    H110232   1.344   4.193   2.846
 3433TIP3    H210233   1.250   4.119   2.755
 3434TIP3   OH210234   2.066   4.257   2.016
 3434TIP3    H110235   2.119   4.187   1.973
 3434TIP3    H210236   2.111   4.264   2.102
 3435TIP3   OH210237   2.124   4.296   2.309
 3435TIP3    H110238   2.035   4.326   2.338
 3435TIP3    H210239   2.116   4.201   2.330
 3436TIP3   OH210240   2.880   3.570   3.561
 3436TIP3    H110241   2.797   3.576   3.512
 3436TIP3    H210242   2.899   3.474   3.554
 3437TIP3   OH210243   1.479   3.980   3.585
 3437TIP3    H110244   1.528   3.963   3.667
 3437TIP3    H210245   1.405   3.916   3.592
 3438TIP3   OH210246   1.878   2.800   3.375
 3438TIP3    H110247   1.790   2.771   3.343
 3438TIP3    H210248   1.852   2.882   3.422
 3439TIP3   OH210249   2.415   2.917   3.566
 3439TIP3    H110250   2.485   2.888   3.629
 3439TIP3    H210251   2.333   2.897   3.615
 3440TIP3   OH210252   2.649   3.346   3.485
 3440TIP3    H110253   2.598   3.343   3.570
 3440TIP3    H210254   2.625   3.433   3.449
 3441TIP3   OH210255   2.314   3.482   2.044
 3441TIP3    H110256   2.274   3.455   1.959
 3441TIP3    H210257   2.401   3.516   2.014
 3442TIP3   OH210258   2.023   2.850   2.343
 3442TIP3    H110259   1.985   2.845   2.434
 3442TIP3    H210260   1.984   2.769   2.305
 3443TIP3   OH210261   1.810   3.319   3.391
 3443TIP3    H110262   1.760   3.340   3.472
 3443TIP3    H210263   1.794   3.400   3.337
 3444TIP3   OH210264   1.694   3.206   2.905
 3444TIP3    H110265   1.601   3.178   2.922
 3444TIP3    H210266   1.707   3.166   2.816
 3445TIP3   OH210267   2.186   3.291   2.635
 3445TIP3    H110268   2.136   3.361   2.588
 3445TIP3    H210269   2.242   3.255   2.563
 3446TIP3   OH210270   2.360   3.566   3.717
 3446TIP3    H110271   2.337   3.493   3.779
 3446TIP3    H210272   2.454   3.578   3.739
 3447TIP3   OH210273   2.340   3.317   2.868
 3447TIP3    H110274   2.277   3.339   2.796
 3447TIP3    H210275   2.380   3.237   2.826
 3448TIP3   OH210276   1.628   3.347   3.599
 3448TIP3    H110277   1.666   3.407   3.665
 3448TIP3    H210278   1.620   3.264   3.650
 3449TIP3   OH210279   1.682   2.827   2.309
 3449TIP3    H110280   1.668   2.821   2.406
 3449TIP3    H210281   1.601   2.875   2.282
 3450TIP3   OH210282   1.222   2.866   3.185
 3450TIP3    H110283   1.299   2.899   3.234
 3450TIP3    H210284   1.258   2.839   3.099
 3451TIP3   OH210285   1.191   2.851   2.704
 3451TIP3    H110286   1.237   2.881   2.623
 3451TIP3    H210287   1.130   2.926   2.716
 3452TIP3   OH210288   2.353   3.562   3.291
 3452TIP3    H110289   2.386   3.491   3.232
 3452TIP3    H210290   2.323   3.508   3.367
 3453TIP3   OH210291   2.028   3.031   2.966
 3453TIP3    H110292   1.947   3.026   3.020
 3453TIP3    H210293   2.098   3.017   3.032
 3454TIP3   OH210294   1.455   3.082   2.972
 3454TIP3    H110295   1.362   3.088   2.942
 3454TIP3    H210296   1.480   2.991   2.948
 3455TIP3   OH210297   1.720   3.081   2.663
 3455TIP3    H110298   1.815   3.090   2.640
 3455TIP3    H210299   1.674   3.100   2.578
 3456TIP3   OH210300   2.514   3.105   3.172
 3456TIP3    H110301   2.478   3.116   3.262
 3456TIP3    H210302   2.450   3.042   3.134
 3457TIP3   OH210303   1.569   3.118   2.439
 3457TIP3    H110304   1.502   3.067   2.390
 3457TIP3    H210305   1.622   3.152   2.364
 3458TIP3   OH210306   2.688   4.792   3.389
 3458TIP3    H110307   2.688   4.815   3.294
 3458TIP3    H210308   2.769   4.837   3.420
 3459TIP3   OH210309   1.642   3.904   3.807
 3459TIP3    H110310   1.723   3.930   3.856
 3459TIP3    H210311   1.578   3.899   3.881
 3460TIP3   OH210312   2.104   3.358   3.063
 3460TIP3    H110313   2.174   3.316   3.011
 3460TIP3    H210314   2.109   3.309   3.148
 3461TIP3   OH210315   1.625   2.843   2.942
 3461TIP3    H110316   1.591   2.764   2.990
 3461TIP3    H210317   1.667   2.802   2.865
 3462TIP3   OH210318   2.080   3.254   3.350
 3462TIP3    H110319   1.990   3.289   3.366
 3462TIP3    H210320   2.137   3.316   3.401
 3463TIP3   OH210321   1.813   3.645   2.445
 3463TIP3    H110322   1.745   3.575   2.435
 3463TIP3    H210323   1.795   3.676   2.537
 3464TIP3   OH210324   2.715   3.880   3.073
 3464TIP3    H110325   2.739   3.929   2.991
 3464TIP3    H210326   2.633   3.834   3.047
 3465TIP3   OH210327   2.275   2.949   2.322
 3465TIP3    H110328   2.179   2.928   2.325
 3465TIP3    H210329   2.278   3.044   2.340
 3466TIP3   OH210330   2.225   3.967   3.441
 3466TIP3    H110331   2.246   3.936   3.529
 3466TIP3    H210332   2.176   4.049   3.457
 3467TIP3   OH210333   2.343   3.206   2.419
 3467TIP3    H110334   2.439   3.207   2.430
 3467TIP3    H210335   2.326   3.283   2.362
 3468TIP3   OH210336   1.513   3.668   3.120
 3468TIP3    H110337   1.549   3.637   3.034
 3468TIP3    H210338   1.555   3.607   3.182
 3469TIP3   OH210339   1.964   3.794   2.275
 3469TIP3    H110340   1.914   3.879   2.278
 3469TIP3    H210341   1.908   3.737   2.332
 3470TIP3   OH210342   1.393   3.587   3.737
 3470TIP3    H110343   1.415   3.573   3.831
 3470TIP3    H210344   1.326   3.518   3.722
 3471TIP3   OH210345   2.121   3.704   3.752
 3471TIP3    H110346   2.060   3.641   3.710
 3471TIP3    H210347   2.207   3.665   3.727
 3472TIP3   OH210348   2.373   4.240   3.330
 3472TIP3    H110349   2.280   4.222   3.350
 3472TIP3    H210350   2.402   4.280   3.415
 3473TIP3   OH210351   2.784   3.295   2.249
 3473TIP3    H110352   2.722   3.252   2.186
 3473TIP3    H210353   2.782   3.385   2.208
 3474TIP3   OH210354   3.005   4.154   3.327
 3474TIP3    H110355   2.908   4.145   3.320
 3474TIP3    H210356   3.031   4.122   3.238
 3475TIP3   OH210357   2.486   4.113   2.161
 3475TIP3    H110358   2.463   4.034   2.213
 3475TIP3    H210359   2.502   4.075   2.073
 3476TIP3   OH210360   2.483   3.742   2.989
 3476TIP3    H110361   2.390   3.716   3.004
 3476TIP3    H210362   2.517   3.660   2.947
 3477TIP3   OH210363   1.612   3.973   2.748
 3477TIP3    H110364   1.600   4.053   2.693
 3477TIP3    H210365   1.521   3.944   2.759
 3478TIP3   OH210366   1.182   3.272   2.460
 3478TIP3    H110367   1.223   3.359   2.480
 3478TIP3    H210368   1.102   3.276   2.517
 3479TIP3   OH210369   1.745   3.735   2.691
 3479TIP3    H110370   1.708   3.822   2.713
 3479TIP3    H210371   1.712   3.680   2.765
 3480TIP3   OH210372   1.881   4.311   3.217
 3480TIP3    H110373   1.926   4.383   3.168
 3480TIP3    H210374   1.956   4.272   3.265
 3481TIP3   OH210375   1.530   4.208   2.600
 3481TIP3    H110376   1.444   4.217   2.647
 3481TIP3    H210377   1.561   4.301   2.601
 3482TIP3   OH210378   2.269   3.947   3.173
 3482TIP3    H110379   2.257   3.947   3.271
 3482TIP3    H210380   2.342   3.885   3.162
 3483TIP3   OH210381   2.246   3.847   2.060
 3483TIP3    H110382   2.298   3.820   2.140
 3483TIP3    H210383   2.160   3.806   2.080
 3484TIP3   OH210384   2.512   4.479   3.233
 3484TIP3    H110385   2.440   4.413   3.234
 3484TIP3    H210386   2.488   4.534   3.156
 3485TIP3   OH210387   2.582   4.312   1.876
 3485TIP3    H110388   2.617   4.383   1.820
 3485TIP3    H210389   2.502   4.357   1.911
 3486TIP3   OH210390   1.601   3.090   3.741
 3486TIP3    H110391   1.504   3.090   3.755
 3486TIP3    H210392   1.632   3.036   3.816
 3487TIP3   OH210393   2.406   3.786   2.283
 3487TIP3    H110394   2.393   3.713   2.347
 3487TIP3    H210395   2.502   3.774   2.265
 3488TIP3   OH210396   1.319   4.172   3.374
 3488TIP3    H110397   1.373   4.098   3.407
 3488TIP3    H210398   1.346   4.243   3.434
 3489TIP3   OH210399   1.608   3.820   2.060
 3489TIP3    H110400   1.619   3.727   2.029
 3489TIP3    H210401   1.584   3.806   2.154
 3490TIP3   OH210402   1.551   3.825   2.332
 3490TIP3    H110403   1.627   3.794   2.383
 3490TIP3    H210404   1.558   3.922   2.341
 3491TIP3   OH210405   1.288   3.518   2.536
 3491TIP3    H110406   1.220   3.563   2.591
 3491TIP3    H210407   1.300   3.585   2.466
 3492TIP3   OH210408   2.437   3.157   3.432
 3492TIP3    H110409   2.522   3.192   3.465
 3492TIP3    H210410   2.427   3.075   3.484
 3493TIP3   OH210411   2.315   2.904   2.598
 3493TIP3    H110412   2.305   2.921   2.503
 3493TIP3    H210413   2.357   2.987   2.629
 3494TIP3   OH210414   1.825   4.027   2.286
 3494TIP3    H110415   1.735   4.049   2.317
 3494TIP3    H210416   1.828   4.079   2.204
 3495TIP3   OH210417   2.005   3.089   2.696
 3495TIP3    H110418   2.071   3.160   2.678
 3495TIP3    H210419   2.013   3.079   2.793
 3496TIP3   OH210420   2.279   3.402   3.498
 3496TIP3    H110421   2.305   3.450   3.579
 3496TIP3    H210422   2.331   3.319   3.505
 3497TIP3   OH210423   2.148   2.806   2.795
 3497TIP3    H110424   2.145   2.884   2.852
 3497TIP3    H210425   2.210   2.838   2.725
 3498TIP3   OH210426   1.570   4.098   2.349
 3498TIP3    H110427   1.537   4.167   2.286
 3498TIP3    H210428   1.549   4.140   2.435
 3499TIP3   OH210429   1.662   2.813   2.587
 3499TIP3    H110430   1.665   2.903   2.623
 3499TIP3    H210431   1.758   2.791   2.592
 3500TIP3   OH210432   2.916   3.304   3.481
 3500TIP3    H110433   2.819   3.303   3.490
 3500TIP3    H210434   2.926   3.252   3.400
 3501TIP3   OH210435   2.567   3.499   2.871
 3501TIP3    H110436   2.492   3.438   2.880
 3501TIP3    H210437   2.639   3.451   2.917
 3502TIP3   OH210438   1.283   3.722   2.338
 3502TIP3    H110439   1.356   3.786   2.346
 3502TIP3    H210440   1.324   3.662   2.271
 3503TIP3   OH210441   1.220   3.002   2.480
 3503TIP3    H110442   1.224   3.099   2.475
 3503TIP3    H210443   1.156   2.980   2.412
 3504TIP3   OH210444   1.611   2.723   3.345
 3504TIP3    H110445   1.583   2.689   3.257
 3504TIP3    H210446   1.601   2.644   3.402
 3505TIP3   OH210447   1.152   3.944   2.722
 3505TIP3    H110448   1.086   3.971   2.787
 3505TIP3    H210449   1.116   3.985   2.640
 3506TIP3   OH210450   1.312   4.488   3.798
 3506TIP3    H110451   1.398   4.487   3.844
 3506TIP3    H210452   1.292   4.393   3.796
 3507TIP3   OH210453   1.789   4.446   3.839
 3507TIP3    H110454   1.882   4.421   3.850
 3507TIP3    H210455   1.762   4.384   3.769
 3508TIP3   OH210456   1.775   4.020   1.975
 3508TIP3    H110457   1.718   3.946   2.007
 3508TIP3    H210458   1.848   3.970   1.933
 3509TIP3   OH210459   2.431   4.354   3.574
 3509TIP3    H110460   2.420   4.283   3.642
 3509TIP3    H210461   2.507   4.403   3.608
 3510TIP3   OH210462   2.207   4.063   1.885
 3510TIP3    H110463   2.246   3.995   1.943
 3510TIP3    H210464   2.262   4.056   1.804
 3511TIP3   OH210465   1.439   3.891   3.997
 3511TIP3    H110466   1.455   3.795   4.009
 3511TIP3    H210467   1.353   3.891   3.951
 3512TIP3   OH210468   1.418   3.538   2.194
 3512TIP3    H110469   1.475   3.503   2.265
 3512TIP3    H210470   1.483   3.542   2.121
 3513TIP3   OH210471   2.046   3.978   3.772
 3513TIP3    H110472   2.005   3.994   3.685
 3513TIP3    H210473   2.078   3.885   3.764
 3514TIP3   OH210474   1.936   3.740   2.003
 3514TIP3    H110475   1.935   3.748   2.101
 3514TIP3    H210476   1.938   3.642   1.994
 3515TIP3   OH210477   2.541   3.985   3.381
 3515TIP3    H110478   2.615   4.031   3.336
 3515TIP3    H210479   2.467   4.045   3.363
 3516TIP3   OH210480   1.561   3.624   3.979
 3516TIP3    H110481   1.640   3.574   3.955
 3516TIP3    H210482   1.587   3.657   4.068
 3517TIP3   OH210483   1.627   3.444   2.413
 3517TIP3    H110484   1.598   3.397   2.493
 3517TIP3    H210485   1.665   3.371   2.359
 3518TIP3   OH210486   1.891   3.505   3.641
 3518TIP3    H110487   1.816   3.568   3.641
 3518TIP3    H210488   1.946   3.542   3.567
 3519TIP3   OH210489   1.727   3.243   2.253
 3519TIP3    H110490   1.703   3.246   2.158
 3519TIP3    H210491   1.825   3.239   2.246
 3520TIP3   OH210492   2.414   3.911   3.774
 3520TIP3    H110493   2.489   3.873   3.726
 3520TIP3    H210494   2.405   3.848   3.848
 3521TIP3   OH210495   2.545   3.568   1.921
 3521TIP3    H110496   2.528   3.522   1.836
 3521TIP3    H210497   2.510   3.657   1.898
 3522TIP3   OH210498   2.017   3.297   3.766
 3522TIP3    H110499   2.019   3.218   3.708
 3522TIP3    H210500   1.973   3.364   3.709
 3523TIP3   OH210501   2.020   3.085   3.576
 3523TIP3    H110502   2.050   3.125   3.492
 3523TIP3    H210503   1.927   3.062   3.556
 3524TIP3   OH210504   2.043   3.618   3.451
 3524TIP3    H110505   2.128   3.625   3.407
 3524TIP3    H210506   1.988   3.682   3.401
 3525TIP3   OH210507   2.627   3.583   3.825
 3525TIP3    H110508   2.670   3.499   3.849
 3525TIP3    H210509   2.700   3.632   3.786
 3526TIP3   OH210510   2.670   3.840   3.568
 3526TIP3    H110511   2.613   3.894   3.509
 3526TIP3    H210512   2.758   3.859   3.529
 3527TIP3   OH210513   1.891   3.405   3.996
 3527TIP3    H110514   1.826   3.335   4.015
 3527TIP3    H210515   1.929   3.376   3.911
 3528TIP3   OH210516   2.152   2.846   3.646
 3528TIP3    H110517   2.102   2.927   3.622
 3528TIP3    H210518   2.085   2.776   3.633
 3529TIP3   OH210519   2.278   3.349   3.860
 3529TIP3    H110520   2.267   3.335   3.956
 3529TIP3    H210521   2.188   3.324   3.830
 3530TIP3   OH210522   2.516   3.302   3.716
 3530TIP3    H110523   2.443   3.301   3.780
 3530TIP3    H210524   2.592   3.271   3.770
 3531TIP3   OH210525   2.746   3.240   3.860
 3531TIP3    H110526   2.760   3.144   3.878
 3531TIP3    H210527   2.742   3.278   3.950
 3532TIP3   OH210528   1.733   3.185   4.055
 3532TIP3    H110529   1.740   3.092   4.024
 3532TIP3    H210530   1.772   3.176   4.145
 3533TIP3   OH210531   2.243   2.854   3.905
 3533TIP3    H110532   2.311   2.784   3.898
 3533TIP3    H210533   2.205   2.851   3.815
 3534TIP3   OH210534   2.312   3.071   4.061
 3534TIP3    H110535   2.291   3.000   3.997
 3534TIP3    H210536   2.233   3.129   4.055
 3535TIP3   OH210537   1.537   4.305   2.164
 3535TIP3    H110538   1.631   4.295   2.140
 3535TIP3    H210539   1.505   4.351   2.085
 3536TIP3   OH210540   1.014   3.680   2.377
 3536TIP3    H110541   1.108   3.701   2.359
 3536TIP3    H210542   1.007   3.591   2.336
 3537TIP3   OH210543   0.930   4.295   2.792
 3537TIP3    H110544   0.865   4.233   2.751
 3537TIP3    H210545   0.974   4.235   2.856
 3538TIP3   OH210546   1.063   4.141   2.978
 3538TIP3    H110547   1.051   4.070   3.043
 3538TIP3    H210548   1.116   4.203   3.032
 3539TIP3   OH210549   2.755   4.580   2.768
 3539TIP3    H110550   2.791   4.579   2.858
 3539TIP3    H210551   2.836   4.583   2.714
 3540TIP3   OH210552   2.816   4.562   3.052
 3540TIP3    H110553   2.773   4.474   3.057
 3540TIP3    H210554   2.895   4.544   3.105
 3541TIP3   OH210555   2.865   4.243   3.632
 3541TIP3    H110556   2.792   4.252   3.696
 3541TIP3    H210557   2.909   4.330   3.638
 3542TIP3   OH210558   2.681   3.756   2.253
 3542TIP3    H110559   2.750   3.817   2.219
 3542TIP3    H210560   2.727   3.717   2.331
 3543TIP3   OH210561   2.810   3.624   2.458
 3543TIP3    H110562   2.744   3.579   2.515
 3543TIP3    H210563   2.876   3.656   2.522
 3544TIP3   OH210564   2.864   4.015   2.883
 3544TIP3    H110565   2.920   3.944   2.843
 3544TIP3    H210566   2.867   4.084   2.815
 3545TIP3   OH210567   2.693   4.318   3.080
 3545TIP3    H110568   2.622   4.348   3.140
 3545TIP3    H210569   2.644   4.265   3.014
 3546TIP3   OH210570   2.749   3.532   2.101
 3546TIP3    H110571   2.678   3.530   2.033
 3546TIP3    H210572   2.717   3.606   2.156
 3547TIP3   OH210573   2.616   3.206   2.055
 3547TIP3    H110574   2.577   3.231   1.971
 3547TIP3    H210575   2.596   3.109   2.055
 3548TIP3   OH210576   2.623   3.479   2.600
 3548TIP3    H110577   2.630   3.383   2.588
 3548TIP3    H210578   2.609   3.487   2.697
 3549TIP3   OH210579   1.248   3.552   3.350
 3549TIP3    H110580   1.246   3.517   3.258
 3549TIP3    H210581   1.346   3.553   3.367
 3550TIP3   OH210582   2.916   3.905   3.459
 3550TIP3    H110583   2.985   3.835   3.451
 3550TIP3    H210584   2.945   3.970   3.393
 3551TIP3   OH210585   3.097   3.706   3.472
 3551TIP3    H110586   3.022   3.654   3.509
 3551TIP3    H210587   3.171   3.642   3.487
 3552TIP3   OH210588   2.561   2.940   2.046
 3552TIP3    H110589   2.635   2.902   2.098
 3552TIP3    H210590   2.488   2.878   2.060
 3553TIP3   OH210591   2.624   3.198   2.493
 3553TIP3    H110592   2.662   3.108   2.510
 3553TIP3    H210593   2.681   3.225   2.420
 3554TIP3   OH210594   2.780   3.368   2.991
 3554TIP3    H110595   2.866   3.392   2.949
 3554TIP3    H210596   2.797   3.403   3.081
 3555TIP3   OH210597   2.854   3.513   3.221
 3555TIP3    H110598   2.777   3.546   3.270
 3555TIP3    H210599   2.887   3.594   3.177
 3556TIP3   OH210600   1.467   3.236   4.018
 3556TIP3    H110601   1.565   3.234   4.025
 3556TIP3    H210602   1.445   3.150   4.059
 3557TIP3   OH210603   3.300   3.104   3.776
 3557TIP3    H110604   3.363   3.041   3.735
 3557TIP3    H210605   3.272   3.157   3.698
 3558TIP3   OH210606   2.726   2.948   2.536
 3558TIP3    H110607   2.776   2.928   2.618
 3558TIP3    H210608   2.668   2.870   2.531
 3559TIP3   OH210609   1.428   2.932   3.360
 3559TIP3    H110610   1.489   2.856   3.364
 3559TIP3    H210611   1.492   3.005   3.346
 3560TIP3   OH210612   1.229   3.204   3.424
 3560TIP3    H110613   1.279   3.198   3.340
 3560TIP3    H210614   1.262   3.287   3.460
 3561TIP3   OH210615   3.172   3.242   3.578
 3561TIP3    H110616   3.086   3.285   3.598
 3561TIP3    H210617   3.140   3.167   3.523
 3562TIP3   OH210618   2.811   2.875   2.169
 3562TIP3    H110619   2.850   2.802   2.117
 3562TIP3    H210620   2.879   2.944   2.160
 3563TIP3   OH210621   1.218   2.715   2.934
 3563TIP3    H110622   1.123   2.703   2.951
 3563TIP3    H210623   1.216   2.771   2.853
 3564TIP3   OH210624   1.436   2.787   3.741
 3564TIP3    H110625   1.385   2.785   3.823
 3564TIP3    H210626   1.371   2.824   3.679
 3565TIP3   OH210627   1.475   4.222   3.817
 3565TIP3    H110628   1.383   4.193   3.802
 3565TIP3    H210629   1.490   4.194   3.908
 3566TIP3   OH210630   1.654   4.251   3.366
 3566TIP3    H110631   1.607   4.327   3.326
 3566TIP3    H210632   1.741   4.264   3.322
 3567TIP3   OH210633   2.097   4.494   3.503
 3567TIP3    H110634   2.139   4.491   3.592
 3567TIP3    H210635   2.164   4.544   3.453
 3568TIP3   OH210636   2.280   4.645   3.364
 3568TIP3    H110637   2.352   4.590   3.329
 3568TIP3    H210638   2.330   4.704   3.424
 3569TIP3   OH210639   3.072   3.004   3.462
 3569TIP3    H110640   2.982   2.992   3.427
 3569TIP3    H210641   3.108   2.912   3.454
 3570TIP3   OH210642   1.330   4.507   3.388
 3570TIP3    H110643   1.240   4.539   3.367
 3570TIP3    H210644   1.341   4.546   3.476
 3571TIP3   OH210645   1.567   4.486   3.249
 3571TIP3    H110646   1.480   4.498   3.292
 3571TIP3    H210647   1.548   4.516   3.158
 3572TIP3   OH210648   1.992   4.512   3.045
 3572TIP3    H110649   1.920   4.528   2.982
 3572TIP3    H210650   2.001   4.599   3.088
 3573TIP3   OH210651   2.261   4.454   3.088
 3573TIP3    H110652   2.166   4.470   3.072
 3573TIP3    H210653   2.301   4.537   3.061
 3574TIP3   OH210654   2.471   4.647   3.010
 3574TIP3    H110655   2.449   4.734   2.970
 3574TIP3    H210656   2.532   4.611   2.943
 3575TIP3   OH210657   1.241   4.298   3.135
 3575TIP3    H110658   1.268   4.270   3.225
 3575TIP3    H210659   1.313   4.254   3.083
 3576TIP3   OH210660   1.437   4.171   2.994
 3576TIP3    H110661   1.451   4.087   3.043
 3576TIP3    H210662   1.528   4.205   2.988
 3577TIP3   OH210663   1.707   4.262   2.997
 3577TIP3    H110664   1.733   4.168   2.988
 3577TIP3    H210665   1.753   4.284   3.079
 3578TIP3   OH210666   2.275   2.920   3.082
 3578TIP3    H110667   2.235   2.847   3.132
 3578TIP3    H210668   2.350   2.876   3.037
 3579TIP3   OH210669   2.797   2.811   2.993
 3579TIP3    H110670   2.834   2.855   2.913
 3579TIP3    H210671   2.701   2.819   2.978
 3580TIP3   OH210672   2.893   2.901   2.753
 3580TIP3    H110673   2.966   2.849   2.713
 3580TIP3    H210674   2.926   2.992   2.737
 3581TIP3   OH210675   1.525   2.630   3.098
 3581TIP3    H110676   1.432   2.599   3.099
 3581TIP3    H210677   1.572   2.544   3.092
 3582TIP3   OH210678   1.301   2.493   2.760
 3582TIP3    H110679   1.348   2.530   2.683
 3582TIP3    H210680   1.286   2.573   2.814
 3583TIP3   OH210681   1.972   2.661   2.982
 3583TIP3    H110682   2.025   2.705   2.913
 3583TIP3    H210683   2.007   2.701   3.062
 3584TIP3   OH210684   2.513   2.809   2.960
 3584TIP3    H110685   2.519   2.766   2.873
 3584TIP3    H210686   2.501   2.732   3.020
 3585TIP3   OH210687   2.544   2.737   2.527
 3585TIP3    H110688   2.455   2.773   2.539
 3585TIP3    H210689   2.534   2.649   2.570
 3586TIP3   OH210690   1.028   4.076   2.522
 3586TIP3    H110691   0.943   4.041   2.490
 3586TIP3    H210692   1.019   4.169   2.493
 3587TIP3   OH210693   1.430   2.664   2.507
 3587TIP3    H110694   1.473   2.591   2.459
 3587TIP3    H210695   1.508   2.711   2.544
 3588TIP3   OH210696   1.938   2.839   2.607
 3588TIP3    H110697   1.998   2.785   2.662
 3588TIP3    H210698   1.966   2.929   2.634
 3589TIP3   OH210699   1.802   4.260   2.102
 3589TIP3    H110700   1.891   4.280   2.068
 3589TIP3    H210701   1.779   4.184   2.043
 3590TIP3   OH210702   2.515   4.382   2.213
 3590TIP3    H110703   2.507   4.284   2.203
 3590TIP3    H210704   2.473   4.410   2.129
 3591TIP3   OH210705   1.733   2.908   3.986
 3591TIP3    H110706   1.697   2.838   4.044
 3591TIP3    H210707   1.827   2.908   4.015
 3592TIP3   OH210708   1.983   2.906   4.105
 3592TIP3    H110709   2.069   2.885   4.066
 3592TIP3    H210710   1.973   2.835   4.172
 3593TIP3   OH210711   1.108   4.096   2.161
 3593TIP3    H110712   1.109   4.112   2.256
 3593TIP3    H210713   1.195   4.051   2.146
 3594TIP3   OH210714   2.810   2.970   3.894
 3594TIP3    H110715   2.828   2.939   3.986
 3594TIP3    H210716   2.900   2.965   3.855
 3595TIP3   OH210717   2.744   4.522   3.388
 3595TIP3    H110718   2.665   4.492   3.340
 3595TIP3    H210719   2.725   4.617   3.396
 3596TIP3   OH210720   4.013   3.893   2.153
 3596TIP3    H110721   3.982   3.984   2.132
 3596TIP3    H210722   3.939   3.842   2.116
 3597TIP3   OH210723   4.012   3.897   2.538
 3597TIP3    H110724   4.047   3.868   2.625
 3597TIP3    H210725   3.972   3.815   2.505
 3598TIP3   OH210726   3.308   3.787   2.903
 3598TIP3    H110727   3.337   3.717   2.964
 3598TIP3    H210728   3.390   3.836   2.889
 3599TIP3   OH210729   4.256   4.198   2.219
 3599TIP3    H110730   4.244   4.128   2.283
 3599TIP3    H210731   4.291   4.271   2.274
 3600TIP3   OH210732   3.283   4.200   2.623
 3600TIP3    H110733   3.277   4.102   2.623
 3600TIP3    H210734   3.379   4.211   2.615
 3601TIP3   OH210735   2.990   3.402   2.405
 3601TIP3    H110736   2.938   3.483   2.420
 3601TIP3    H210737   2.922   3.345   2.364
 3602TIP3   OH210738   3.047   3.689   2.587
 3602TIP3    H110739   3.095   3.609   2.620
 3602TIP3    H210740   3.104   3.717   2.515
 3603TIP3   OH210741   3.911   4.659   2.237
 3603TIP3    H110742   3.949   4.590   2.180
 3603TIP3    H210743   3.902   4.611   2.321
 3604TIP3   OH210744   3.810   4.122   2.584
 3604TIP3    H110745   3.849   4.045   2.540
 3604TIP3    H210746   3.893   4.169   2.608
 3605TIP3   OH210747   4.830   3.434   2.583
 3605TIP3    H110748   4.850   3.523   2.616
 3605TIP3    H210749   4.850   3.444   2.488
 3606TIP3   OH210750   4.225   3.617   2.614
 3606TIP3    H110751   4.269   3.531   2.631
 3606TIP3    H210752   4.192   3.603   2.523
 3607TIP3   OH210753   3.567   3.280   2.577
 3607TIP3    H110754   3.544   3.352   2.515
 3607TIP3    H210755   3.518   3.206   2.535
 3608TIP3   OH210756   4.258   3.375   2.199
 3608TIP3    H110757   4.330   3.359   2.264
 3608TIP3    H210758   4.311   3.408   2.124
 3609TIP3   OH210759   3.196   3.481   2.686
 3609TIP3    H110760   3.278   3.461   2.734
 3609TIP3    H210761   3.209   3.425   2.607
 3610TIP3   OH210762   3.633   3.679   2.486
 3610TIP3    H110763   3.728   3.656   2.495
 3610TIP3    H210764   3.595   3.596   2.451
 3611TIP3   OH210765   4.885   3.643   2.785
 3611TIP3    H110766   4.811   3.696   2.748
 3611TIP3    H210767   4.935   3.711   2.834
 3612TIP3   OH210768   3.559   3.265   3.014
 3612TIP3    H110769   3.499   3.300   2.947
 3612TIP3    H210770   3.506   3.280   3.095
 3613TIP3   OH210771   3.895   4.111   2.025
 3613TIP3    H110772   3.863   4.101   1.934
 3613TIP3    H210773   3.853   4.195   2.052
 3614TIP3   OH210774   3.666   4.040   2.806
 3614TIP3    H110775   3.606   4.109   2.843
 3614TIP3    H210776   3.708   4.088   2.731
 3615TIP3   OH210777   4.463   3.378   2.376
 3615TIP3    H110778   4.450   3.330   2.459
 3615TIP3    H210779   4.515   3.455   2.405
 3616TIP3   OH210780   3.431   3.378   2.796
 3616TIP3    H110781   3.494   3.450   2.821
 3616TIP3    H210782   3.480   3.338   2.721
 3617TIP3   OH210783   3.494   4.237   2.908
 3617TIP3    H110784   3.467   4.323   2.871
 3617TIP3    H210785   3.415   4.218   2.963
 3618TIP3   OH210786   2.882   3.924   2.141
 3618TIP3    H110787   2.845   3.949   2.054
 3618TIP3    H210788   2.917   4.008   2.174
 3619TIP3   OH210789   4.325   4.445   2.384
 3619TIP3    H110790   4.235   4.434   2.421
 3619TIP3    H210791   4.315   4.530   2.337
 3620TIP3   OH210792   4.620   3.315   2.739
 3620TIP3    H110793   4.531   3.338   2.706
 3620TIP3    H210794   4.677   3.354   2.669
 3621TIP3   OH210795   3.914   2.979   2.734
 3621TIP3    H110796   3.894   2.884   2.749
 3621TIP3    H210797   3.836   3.019   2.779
 3622TIP3   OH210798   4.022   4.487   2.052
 3622TIP3    H110799   4.070   4.403   2.035
 3622TIP3    H210800   4.087   4.550   2.014
 3623TIP3   OH210801   4.164   4.270   1.969
 3623TIP3    H110802   4.148   4.190   1.918
 3623TIP3    H210803   4.202   4.235   2.052
 3624TIP3   OH210804   4.550   4.353   2.726
 3624TIP3    H110805   4.542   4.275   2.666
 3624TIP3    H210806   4.537   4.427   2.663
 3625TIP3   OH210807   3.845   3.747   1.986
 3625TIP3    H110808   3.766   3.800   1.964
 3625TIP3    H210809   3.890   3.742   1.900
 3626TIP3   OH210810   3.802   3.532   1.697
 3626TIP3    H110811   3.869   3.586   1.744
 3626TIP3    H210812   3.861   3.469   1.650
 3627TIP3   OH210813   4.748   3.989   2.575
 3627TIP3    H110814   4.665   4.042   2.577
 3627TIP3    H210815   4.781   4.015   2.486
 3628TIP3   OH210816   4.191   3.829   1.954
 3628TIP3    H110817   4.138   3.852   2.033
 3628TIP3    H210818   4.277   3.805   1.996
 3629TIP3   OH210819   4.425   3.866   2.870
 3629TIP3    H110820   4.421   3.950   2.919
 3629TIP3    H210821   4.338   3.868   2.824
 3630TIP3   OH210822   3.423   3.826   2.375
 3630TIP3    H110823   3.381   3.768   2.308
 3630TIP3    H210824   3.499   3.771   2.405
 3631TIP3   OH210825   3.551   4.237   2.522
 3631TIP3    H110826   3.532   4.204   2.433
 3631TIP3    H210827   3.640   4.200   2.538
 3632TIP3   OH210828   3.555   3.798   2.730
 3632TIP3    H110829   3.588   3.770   2.641
 3632TIP3    H210830   3.602   3.882   2.745
 3633TIP3   OH210831   4.083   4.437   2.505
 3633TIP3    H110832   4.074   4.514   2.563
 3633TIP3    H210833   4.068   4.362   2.566
 3634TIP3   OH210834   3.699   4.355   3.051
 3634TIP3    H110835   3.637   4.415   3.098
 3634TIP3    H210836   3.636   4.301   3.000
 3635TIP3   OH210837   4.028   3.689   1.781
 3635TIP3    H110838   4.088   3.749   1.830
 3635TIP3    H210839   4.056   3.708   1.688
 3636TIP3   OH210840   3.455   3.910   3.156
 3636TIP3    H110841   3.459   3.997   3.200
 3636TIP3    H210842   3.361   3.888   3.168
 3637TIP3   OH210843   3.775   4.366   2.061
 3637TIP3    H110844   3.859   4.415   2.065
 3637TIP3    H210845   3.718   4.427   2.012
 3638TIP3   OH210846   3.491   4.521   3.138
 3638TIP3    H110847   3.456   4.523   3.047
 3638TIP3    H210848   3.410   4.501   3.190
 3639TIP3   OH210849   4.549   2.927   1.834
 3639TIP3    H110850   4.466   2.950   1.879
 3639TIP3    H210851   4.564   3.007   1.779
 3640TIP3   OH210852   3.288   3.670   2.182
 3640TIP3    H110853   3.221   3.711   2.124
 3640TIP3    H210854   3.256   3.579   2.187
 3641TIP3   OH210855   4.348   4.292   1.384
 3641TIP3    H110856   4.357   4.388   1.363
 3641TIP3    H210857   4.440   4.261   1.370
 3642TIP3   OH210858   3.070   4.053   3.085
 3642TIP3    H110859   3.006   4.027   3.016
 3642TIP3    H210860   3.110   3.967   3.111
 3643TIP3   OH210861   2.930   4.248   2.715
 3643TIP3    H110862   3.022   4.223   2.697
 3643TIP3    H210863   2.944   4.317   2.782
 3644TIP3   OH210864   4.780   4.692   2.763
 3644TIP3    H110865   4.789   4.596   2.779
 3644TIP3    H210866   4.702   4.713   2.819
 3645TIP3   OH210867   3.894   4.483   2.908
 3645TIP3    H110868   3.891   4.575   2.942
 3645TIP3    H210869   3.823   4.441   2.961
 3646TIP3   OH210870   3.658   4.607   1.862
 3646TIP3    H110871   3.614   4.590   1.777
 3646TIP3    H210872   3.625   4.696   1.886
 3647TIP3   OH210873   3.093   4.459   2.248
 3647TIP3    H110874   3.141   4.450   2.333
 3647TIP3    H210875   3.051   4.370   2.242
 3648TIP3   OH210876   3.856   4.514   1.499
 3648TIP3    H110877   3.914   4.443   1.462
 3648TIP3    H210878   3.893   4.523   1.589
 3649TIP3   OH210879   3.909   4.563   1.769
 3649TIP3    H110880   3.821   4.570   1.812
 3649TIP3    H210881   3.961   4.522   1.840
 3650TIP3   OH210882   4.678   3.820   3.045
 3650TIP3    H110883   4.596   3.850   3.002
 3650TIP3    H210884   4.655   3.729   3.065
 3651TIP3   OH210885   3.274   4.238   3.072
 3651TIP3    H110886   3.325   4.219   3.154
 3651TIP3    H210887   3.201   4.173   3.079
 3652TIP3   OH210888   3.675   3.058   2.859
 3652TIP3    H110889   3.587   3.027   2.829
 3652TIP3    H210890   3.647   3.138   2.908
 3653TIP3   OH210891   4.207   3.174   3.053
 3653TIP3    H110892   4.274   3.145   3.119
 3653TIP3    H210893   4.123   3.154   3.098
 3654TIP3   OH210894   4.478   3.615   2.990
 3654TIP3    H110895   4.411   3.605   3.061
 3654TIP3    H210896   4.441   3.690   2.939
 3655TIP3   OH210897   4.108   3.730   1.527
 3655TIP3    H110898   4.072   3.708   1.439
 3655TIP3    H210899   4.192   3.772   1.502
 3656TIP3   OH210900   3.819   3.106   1.830
 3656TIP3    H110901   3.783   3.101   1.921
 3656TIP3    H210902   3.780   3.025   1.793
 3657TIP3   OH210903   3.608   3.575   2.877
 3657TIP3    H110904   3.557   3.595   2.959
 3657TIP3    H210905   3.591   3.656   2.824
 3658TIP3   OH210906   3.490   3.462   2.391
 3658TIP3    H110907   3.397   3.434   2.409
 3658TIP3    H210908   3.502   3.421   2.302
 3659TIP3   OH210909   3.982   3.546   2.121
 3659TIP3    H110910   3.931   3.617   2.076
 3659TIP3    H210911   4.037   3.512   2.048
 3660TIP3   OH210912   4.155   3.821   3.201
 3660TIP3    H110913   4.133   3.750   3.266
 3660TIP3    H210914   4.249   3.837   3.224
 3661TIP3   OH210915   4.137   3.573   2.357
 3661TIP3    H110916   4.075   3.602   2.287
 3661TIP3    H210917   4.173   3.494   2.311
 3662TIP3   OH210918   3.426   3.602   3.085
 3662TIP3    H110919   3.461   3.662   3.152
 3662TIP3    H210920   3.414   3.519   3.135
 3663TIP3   OH210921   3.477   3.082   1.795
 3663TIP3    H110922   3.465   3.079   1.892
 3663TIP3    H210923   3.398   3.134   1.768
 3664TIP3   OH210924   3.015   3.127   2.671
 3664TIP3    H110925   3.097   3.154   2.718
 3664TIP3    H210926   3.047   3.091   2.586
 3665TIP3   OH210927   2.988   3.104   2.186
 3665TIP3    H110928   3.033   3.140   2.106
 3665TIP3    H210929   2.925   3.177   2.203
 3666TIP3   OH210930   4.149   3.817   2.777
 3666TIP3    H110931   4.182   3.745   2.718
 3666TIP3    H210932   4.117   3.763   2.853
 3667TIP3   OH210933   3.824   3.281   2.451
 3667TIP3    H110934   3.740   3.280   2.502
 3667TIP3    H210935   3.890   3.279   2.523
 3668TIP3   OH210936   3.252   3.339   2.458
 3668TIP3    H110937   3.158   3.347   2.430
 3668TIP3    H210938   3.273   3.246   2.437
 3669TIP3   OH210939   3.518   3.336   2.150
 3669TIP3    H110940   3.611   3.348   2.125
 3669TIP3    H210941   3.470   3.356   2.066
 3670TIP3   OH210942   4.315   3.354   2.657
 3670TIP3    H110943   4.280   3.370   2.747
 3670TIP3    H210944   4.245   3.296   2.621
 3671TIP3   OH210945   3.367   3.372   1.927
 3671TIP3    H110946   3.296   3.324   1.880
 3671TIP3    H210947   3.418   3.407   1.851
 3672TIP3   OH210948   4.473   5.046   2.880
 3672TIP3    H110949   4.468   5.065   2.785
 3672TIP3    H210950   4.508   5.128   2.916
 3673TIP3   OH210951   3.437   4.162   3.293
 3673TIP3    H110952   3.518   4.188   3.342
 3673TIP3    H210953   3.374   4.154   3.367
 3674TIP3   OH210954   3.899   3.612   2.549
 3674TIP3    H110955   3.973   3.573   2.499
 3674TIP3    H210956   3.906   3.566   2.635
 3675TIP3   OH210957   3.422   3.096   2.433
 3675TIP3    H110958   3.383   3.021   2.481
 3675TIP3    H210959   3.461   3.051   2.356
 3676TIP3   OH210960   3.877   3.512   2.838
 3676TIP3    H110961   3.786   3.545   2.851
 3676TIP3    H210962   3.932   3.576   2.887
 3677TIP3   OH210963   3.611   3.899   1.932
 3677TIP3    H110964   3.540   3.832   1.922
 3677TIP3    H210965   3.592   3.932   2.023
 3678TIP3   OH210966   4.514   4.134   2.561
 3678TIP3    H110967   4.542   4.183   2.481
 3678TIP3    H210968   4.430   4.092   2.532
 3679TIP3   OH210969   4.072   3.206   1.806
 3679TIP3    H110970   3.975   3.187   1.809
 3679TIP3    H210971   4.077   3.301   1.825
 3680TIP3   OH210972   4.013   4.217   2.931
 3680TIP3    H110973   4.044   4.197   3.020
 3680TIP3    H210974   3.974   4.305   2.940
 3681TIP3   OH210975   4.139   3.461   1.904
 3681TIP3    H110976   4.236   3.466   1.916
 3681TIP3    H210977   4.120   3.540   1.850
 3682TIP3   OH210978   3.307   3.925   2.607
 3682TIP3    H110979   3.344   3.895   2.521
 3682TIP3    H210980   3.350   3.864   2.669
 3683TIP3   OH210981   3.760   4.047   1.757
 3683TIP3    H110982   3.711   4.133   1.760
 3683TIP3    H210983   3.706   3.993   1.818
 3684TIP3   OH210984   3.188   3.844   3.224
 3684TIP3    H110985   3.211   3.830   3.318
 3684TIP3    H210986   3.122   3.775   3.209
 3685TIP3   OH210987   3.916   3.960   3.238
 3685TIP3    H110988   3.854   3.897   3.196
 3685TIP3    H210989   4.003   3.922   3.210
 3686TIP3   OH210990   4.171   4.483   2.826
 3686TIP3    H110991   4.075   4.477   2.841
 3686TIP3    H210992   4.199   4.533   2.906
 3687TIP3   OH210993   4.579   3.554   1.736
 3687TIP3    H110994   4.518   3.510   1.673
 3687TIP3    H210995   4.576   3.643   1.696
 3688TIP3   OH210996   4.800   4.408   2.820
 3688TIP3    H110997   4.703   4.403   2.808
 3688TIP3    H210998   4.829   4.379   2.730
 3689TIP3   OH210999   4.282   4.367   1.645
 3689TIP3    H111000   4.259   4.292   1.700
 3689TIP3    H211001   4.299   4.326   1.558
 3690TIP3   OH211002   4.278   3.998   2.479
 3690TIP3    H111003   4.185   3.974   2.491
 3690TIP3    H211004   4.312   3.917   2.434
 3691TIP3   OH211005   3.411   4.229   2.240
 3691TIP3    H111006   3.409   4.307   2.182
 3691TIP3    H211007   3.318   4.203   2.240
 3692TIP3   OH211008   2.973   3.528   1.941
 3692TIP3    H111009   3.018   3.612   1.963
 3692TIP3    H211010   2.896   3.531   2.002
 3693TIP3   OH211011   3.538   3.988   2.176
 3693TIP3    H111012   3.509   4.079   2.199
 3693TIP3    H211013   3.505   3.937   2.252
 3694TIP3   OH211014   3.677   4.567   2.702
 3694TIP3    H111015   3.720   4.640   2.652
 3694TIP3    H211016   3.754   4.529   2.748
 3695TIP3   OH211017   3.324   4.467   2.085
 3695TIP3    H111018   3.240   4.477   2.133
 3695TIP3    H211019   3.359   4.558   2.088
 3696TIP3   OH211020   4.063   4.203   2.662
 3696TIP3    H111021   4.053   4.200   2.760
 3696TIP3    H211022   4.141   4.148   2.648
 3697TIP3   OH211023   4.041   4.098   1.550
 3697TIP3    H111024   4.095   4.073   1.628
 3697TIP3    H211025   3.954   4.068   1.577
 3698TIP3   OH211026   4.309   4.738   2.717
 3698TIP3    H111027   4.231   4.679   2.711
 3698TIP3    H211028   4.293   4.798   2.641
 3699TIP3   OH211029   4.378   4.567   1.364
 3699TIP3    H111030   4.415   4.637   1.307
 3699TIP3    H211031   4.298   4.614   1.397
 3700TIP3   OH211032   3.396   3.347   3.227
 3700TIP3    H111033   3.299   3.348   3.240
 3700TIP3    H211034   3.425   3.292   3.302
 3701TIP3   OH211035   4.203   4.036   1.767
 3701TIP3    H111036   4.192   3.965   1.834
 3701TIP3    H211037   4.299   4.028   1.750
 3702TIP3   OH211038   3.109   4.426   2.865
 3702TIP3    H111039   3.168   4.354   2.894
 3702TIP3    H211040   3.143   4.500   2.917
 3703TIP3   OH211041   3.402   4.077   1.547
 3703TIP3    H111042   3.418   3.985   1.518
 3703TIP3    H211043   3.381   4.064   1.641
 3704TIP3   OH211044   3.346   4.082   1.821
 3704TIP3    H111045   3.426   4.053   1.868
 3704TIP3    H211046   3.353   4.179   1.827
 3705TIP3   OH211047   3.084   3.773   2.022
 3705TIP3    H111048   3.016   3.817   2.077
 3705TIP3    H211049   3.098   3.841   1.953
 3706TIP3   OH211050   4.245   3.409   2.917
 3706TIP3    H111051   4.307   3.447   2.980
 3706TIP3    H211052   4.218   3.327   2.965
 3707TIP3   OH211053   4.116   3.158   2.083
 3707TIP3    H111054   4.102   3.177   1.989
 3707TIP3    H211055   4.155   3.243   2.115
 3708TIP3   OH211056   3.617   4.276   1.767
 3708TIP3    H111057   3.530   4.303   1.802
 3708TIP3    H211058   3.632   4.347   1.702
 3709TIP3   OH211059   3.803   3.343   2.182
 3709TIP3    H111060   3.867   3.416   2.164
 3709TIP3    H211061   3.809   3.336   2.279
 3710TIP3   OH211062   4.074   3.660   2.986
 3710TIP3    H111063   4.097   3.715   3.064
 3710TIP3    H211064   4.123   3.578   3.004
 3711TIP3   OH211065   3.946   3.065   2.283
 3711TIP3    H111066   3.932   3.146   2.335
 3711TIP3    H211067   4.008   3.097   2.214
 3712TIP3   OH211068   3.363   4.354   1.835
 3712TIP3    H111069   3.332   4.424   1.773
 3712TIP3    H211070   3.347   4.398   1.922
 3713TIP3   OH211071   3.460   3.069   2.071
 3713TIP3    H111072   3.458   3.159   2.110
 3713TIP3    H211073   3.556   3.051   2.078
 3714TIP3   OH211074   4.712   3.483   2.959
 3714TIP3    H111075   4.624   3.526   2.974
 3714TIP3    H211076   4.749   3.544   2.891
 3715TIP3   OH211077   4.365   3.753   2.359
 3715TIP3    H111078   4.289   3.693   2.368
 3715TIP3    H211079   4.436   3.704   2.406
 3716TIP3   OH211080   3.080   3.980   1.825
 3716TIP3    H111081   3.155   4.042   1.834
 3716TIP3    H211082   3.120   3.919   1.758
 3717TIP3   OH211083   3.020   3.257   1.961
 3717TIP3    H111084   3.017   3.355   1.957
 3717TIP3    H211085   2.944   3.233   1.907
 3718TIP3   OH211086   4.335   4.716   2.303
 3718TIP3    H111087   4.287   4.762   2.230
 3718TIP3    H211088   4.427   4.744   2.282
 3719TIP3   OH211089   3.410   2.979   2.830
 3719TIP3    H111090   3.379   2.944   2.744
 3719TIP3    H211091   3.398   2.901   2.888
 3720TIP3   OH211092   2.950   4.206   2.211
 3720TIP3    H111093   2.875   4.228   2.267
 3720TIP3    H211094   2.921   4.244   2.125
 3721TIP3   OH211095   3.107   4.743   3.287
 3721TIP3    H111096   3.195   4.744   3.332
 3721TIP3    H211097   3.090   4.648   3.283
 3722TIP3   OH211098   3.584   4.701   3.328
 3722TIP3    H111099   3.678   4.680   3.336
 3722TIP3    H211100   3.557   4.640   3.256
 3723TIP3   OH211101   3.568   4.278   1.457
 3723TIP3    H111102   3.514   4.204   1.493
 3723TIP3    H211103   3.644   4.229   1.420
 3724TIP3   OH211104   4.222   4.614   3.064
 3724TIP3    H111105   4.214   4.541   3.130
 3724TIP3    H211106   4.302   4.661   3.096
 3725TIP3   OH211107   4.000   4.318   1.372
 3725TIP3    H111108   4.047   4.255   1.430
 3725TIP3    H211109   4.052   4.314   1.289
 3726TIP3   OH211110   3.235   4.149   3.485
 3726TIP3    H111111   3.252   4.054   3.497
 3726TIP3    H211112   3.149   4.148   3.438
 3727TIP3   OH211113   3.213   3.793   1.682
 3727TIP3    H111114   3.271   3.761   1.753
 3727TIP3    H211115   3.279   3.799   1.608
 3728TIP3   OH211116   3.841   4.233   3.261
 3728TIP3    H111117   3.802   4.252   3.173
 3728TIP3    H211118   3.873   4.141   3.251
 3729TIP3   OH211119   3.725   3.995   1.488
 3729TIP3    H111120   3.730   4.005   1.585
 3729TIP3    H211121   3.728   3.897   1.481
 3730TIP3   OH211122   4.337   4.244   2.868
 3730TIP3    H111123   4.412   4.285   2.821
 3730TIP3    H211124   4.267   4.310   2.849
 3731TIP3   OH211125   3.358   3.882   3.461
 3731TIP3    H111126   3.435   3.827   3.440
 3731TIP3    H211127   3.381   3.910   3.552
 3732TIP3   OH211128   3.419   3.701   1.899
 3732TIP3    H111129   3.394   3.656   1.981
 3732TIP3    H211130   3.459   3.627   1.847
 3733TIP3   OH211131   3.689   3.763   3.127
 3733TIP3    H111132   3.612   3.823   3.128
 3733TIP3    H211133   3.742   3.798   3.052
 3734TIP3   OH211134   3.524   3.498   1.740
 3734TIP3    H111135   3.499   3.504   1.645
 3734TIP3    H211136   3.622   3.497   1.733
 3735TIP3   OH211137   4.208   4.166   3.261
 3735TIP3    H111138   4.285   4.133   3.215
 3735TIP3    H211139   4.200   4.105   3.336
 3736TIP3   OH211140   4.340   3.822   1.409
 3736TIP3    H111141   4.323   3.780   1.322
 3736TIP3    H211142   4.307   3.913   1.388
 3737TIP3   OH211143   3.818   3.555   3.250
 3737TIP3    H111144   3.815   3.475   3.194
 3737TIP3    H211145   3.771   3.621   3.195
 3738TIP3   OH211146   3.818   3.340   3.062
 3738TIP3    H111147   3.844   3.382   2.978
 3738TIP3    H211148   3.724   3.317   3.044
 3739TIP3   OH211149   3.840   3.873   2.935
 3739TIP3    H111150   3.926   3.888   2.893
 3739TIP3    H211151   3.783   3.939   2.889
 3740TIP3   OH211152   4.418   3.839   3.308
 3740TIP3    H111153   4.469   3.768   3.351
 3740TIP3    H211154   4.487   3.901   3.282
 3741TIP3   OH211155   4.467   4.094   3.050
 3741TIP3    H111156   4.408   4.149   2.994
 3741TIP3    H211157   4.554   4.118   3.011
 3742TIP3   OH211158   3.688   3.660   3.479
 3742TIP3    H111159   3.623   3.590   3.500
 3742TIP3    H211160   3.724   3.629   3.394
 3743TIP3   OH211161   3.948   3.101   3.130
 3743TIP3    H111162   3.897   3.182   3.108
 3743TIP3    H211163   3.880   3.032   3.120
 3744TIP3   OH211164   4.078   3.603   3.345
 3744TIP3    H111165   4.063   3.590   3.441
 3744TIP3    H211166   3.987   3.581   3.313
 3745TIP3   OH211167   4.310   3.545   3.193
 3745TIP3    H111168   4.235   3.556   3.255
 3745TIP3    H211169   4.383   3.522   3.254
 3746TIP3   OH211170   4.550   3.488   3.342
 3746TIP3    H111171   4.547   3.396   3.374
 3746TIP3    H211172   4.536   3.539   3.425
 3747TIP3   OH211173   3.531   3.441   3.540
 3747TIP3    H111174   3.534   3.347   3.511
 3747TIP3    H211175   3.567   3.433   3.631
 3748TIP3   OH211176   4.043   3.113   3.388
 3748TIP3    H111177   4.105   3.038   3.382
 3748TIP3    H211178   4.001   3.109   3.300
 3749TIP3   OH211179   4.110   3.329   3.547
 3749TIP3    H111180   4.088   3.258   3.483
 3749TIP3    H211181   4.030   3.386   3.542
 3750TIP3   OH211182   3.332   4.559   1.649
 3750TIP3    H111183   3.427   4.548   1.630
 3750TIP3    H211184   3.305   4.609   1.569
 3751TIP3   OH211185   2.810   3.938   1.864
 3751TIP3    H111186   2.905   3.959   1.845
 3751TIP3    H211187   2.802   3.849   1.822
 3752TIP3   OH211188   2.724   4.550   2.281
 3752TIP3    H111189   2.663   4.487   2.237
 3752TIP3    H211190   2.772   4.490   2.342
 3753TIP3   OH211191   2.848   4.400   2.474
 3753TIP3    H111192   2.856   4.322   2.531
 3753TIP3    H211193   2.909   4.461   2.519
 3754TIP3   OH211194   4.583   4.837   2.270
 3754TIP3    H111195   4.634   4.814   2.349
 3754TIP3    H211196   4.650   4.825   2.199
 3755TIP3   OH211197   4.641   4.813   2.554
 3755TIP3    H111198   4.583   4.735   2.541
 3755TIP3    H211199   4.707   4.770   2.613
 3756TIP3   OH211200   4.664   4.498   3.125
 3756TIP3    H111201   4.590   4.510   3.189
 3756TIP3    H211202   4.705   4.587   3.125
 3757TIP3   OH211203   4.477   4.011   1.737
 3757TIP3    H111204   4.544   4.075   1.704
 3757TIP3    H211205   4.524   3.973   1.814
 3758TIP3   OH211206   4.606   3.876   1.938
 3758TIP3    H111207   4.542   3.837   2.002
 3758TIP3    H211208   4.677   3.911   1.995
 3759TIP3   OH211209   4.656   4.267   2.368
 3759TIP3    H111210   4.718   4.206   2.324
 3759TIP3    H211211   4.667   4.348   2.316
 3760TIP3   OH211212   4.489   4.577   2.567
 3760TIP3    H111213   4.415   4.611   2.619
 3760TIP3    H211214   4.444   4.528   2.495
 3761TIP3   OH211215   4.545   3.787   1.587
 3761TIP3    H111216   4.474   3.788   1.519
 3761TIP3    H211217   4.516   3.862   1.642
 3762TIP3   OH211218   4.415   3.459   1.543
 3762TIP3    H111219   4.372   3.495   1.464
 3762TIP3    H211220   4.391   3.364   1.535
 3763TIP3   OH211221   4.418   3.737   2.089
 3763TIP3    H111222   4.427   3.641   2.078
 3763TIP3    H211223   4.405   3.748   2.185
 3764TIP3   OH211224   3.044   3.814   2.836
 3764TIP3    H111225   3.042   3.776   2.745
 3764TIP3    H211226   3.141   3.813   2.853
 3765TIP3   OH211227   4.712   4.161   2.945
 3765TIP3    H111228   4.784   4.096   2.933
 3765TIP3    H211229   4.736   4.231   2.881
 3766TIP3   OH211230   4.892   3.960   2.954
 3766TIP3    H111231   4.819   3.907   2.993
 3766TIP3    H211232   4.968   3.901   2.972
 3767TIP3   OH211233   4.358   3.194   1.528
 3767TIP3    H111234   4.431   3.157   1.581
 3767TIP3    H211235   4.285   3.131   1.543
 3768TIP3   OH211236   4.419   3.453   1.980
 3768TIP3    H111237   4.459   3.365   1.994
 3768TIP3    H211238   4.476   3.486   1.908
 3769TIP3   OH211239   4.580   3.621   2.479
 3769TIP3    H111240   4.665   3.646   2.437
 3769TIP3    H211241   4.593   3.662   2.567
 3770TIP3   OH211242   4.650   3.770   2.709
 3770TIP3    H111243   4.572   3.806   2.756
 3770TIP3    H211244   4.682   3.850   2.662
 3771TIP3   OH211245   3.265   3.495   3.511
 3771TIP3    H111246   3.363   3.491   3.516
 3771TIP3    H211247   3.242   3.408   3.549
 3772TIP3   OH211248   5.118   3.366   3.272
 3772TIP3    H111249   5.171   3.297   3.227
 3772TIP3    H211250   5.067   3.404   3.197
 3773TIP3   OH211251   4.526   3.203   2.021
 3773TIP3    H111252   4.573   3.185   2.105
 3773TIP3    H211253   4.464   3.127   2.018
 3774TIP3   OH211254   3.226   3.188   2.844
 3774TIP3    H111255   3.286   3.111   2.850
 3774TIP3    H211256   3.291   3.260   2.832
 3775TIP3   OH211257   3.025   3.461   2.910
 3775TIP3    H111258   3.074   3.453   2.826
 3775TIP3    H211259   3.065   3.541   2.947
 3776TIP3   OH211260   4.971   3.491   3.078
 3776TIP3    H111261   4.895   3.529   3.125
 3776TIP3    H211262   4.950   3.515   2.985
 3777TIP3   OH211263   4.607   3.127   1.651
 3777TIP3    H111264   4.648   3.060   1.593
 3777TIP3    H211265   4.672   3.201   1.646
 3778TIP3   OH211266   3.011   2.980   2.425
 3778TIP3    H111267   2.918   2.959   2.440
 3778TIP3    H211268   3.007   3.028   2.340
 3779TIP3   OH211269   4.171   4.672   1.921
 3779TIP3    H111270   4.218   4.656   1.836
 3779TIP3    H211271   4.231   4.736   1.963
 3780TIP3   OH211272   3.234   3.045   3.228
 3780TIP3    H111273   3.181   3.039   3.310
 3780TIP3    H211274   3.167   3.081   3.166
 3781TIP3   OH211275   3.269   4.482   3.302
 3781TIP3    H111276   3.179   4.448   3.287
 3781TIP3    H211277   3.289   4.449   3.391
 3782TIP3   OH211278   3.450   4.509   2.852
 3782TIP3    H111279   3.406   4.587   2.812
 3782TIP3    H211280   3.537   4.519   2.809
 3783TIP3   OH211281   3.891   4.749   2.993
 3783TIP3    H111282   3.936   4.748   3.080
 3783TIP3    H211283   3.957   4.800   2.940
 3784TIP3   OH211284   4.069   4.902   2.851
 3784TIP3    H111285   4.138   4.851   2.806
 3784TIP3    H211286   4.123   4.957   2.912
 3785TIP3   OH211287   3.124   4.760   2.875
 3785TIP3    H111288   3.035   4.797   2.855
 3785TIP3    H211289   3.140   4.803   2.960
 3786TIP3   OH211290   3.363   4.742   2.736
 3786TIP3    H111291   3.274   4.754   2.777
 3786TIP3    H211292   3.346   4.772   2.645
 3787TIP3   OH211293   3.787   4.766   2.535
 3787TIP3    H111294   3.720   4.784   2.466
 3787TIP3    H211295   3.799   4.855   2.574
 3788TIP3   OH211296   4.057   4.709   2.588
 3788TIP3    H111297   3.963   4.724   2.567
 3788TIP3    H211298   4.100   4.779   2.535
 3789TIP3   OH211299   4.274   4.900   2.498
 3789TIP3    H111300   4.258   4.984   2.449
 3789TIP3    H211301   4.297   4.839   2.425
 3790TIP3   OH211302   3.030   4.550   2.624
 3790TIP3    H111303   3.060   4.527   2.714
 3790TIP3    H211304   3.104   4.510   2.573
 3791TIP3   OH211305   3.230   4.429   2.483
 3791TIP3    H111306   3.247   4.344   2.530
 3791TIP3    H211307   3.322   4.464   2.476
 3792TIP3   OH211308   3.499   4.520   2.485
 3792TIP3    H111309   3.529   4.428   2.471
 3792TIP3    H211310   3.548   4.540   2.567
 3793TIP3   OH211311   4.079   3.179   2.578
 3793TIP3    H111312   4.032   3.107   2.624
 3793TIP3    H211313   4.145   3.131   2.526
 3794TIP3   OH211314   4.595   3.063   2.482
 3794TIP3    H111315   4.632   3.110   2.404
 3794TIP3    H211316   4.499   3.075   2.469
 3795TIP3   OH211317   4.689   3.152   2.240
 3795TIP3    H111318   4.762   3.102   2.198
 3795TIP3    H211319   4.722   3.244   2.225
 3796TIP3   OH211320   3.321   2.885   2.584
 3796TIP3    H111321   3.228   2.854   2.585
 3796TIP3    H211322   3.367   2.799   2.577
 3797TIP3   OH211323   3.129   2.755   2.244
 3797TIP3    H111324   3.141   2.810   2.164
 3797TIP3    H211325   3.089   2.817   2.306
 3798TIP3   OH211326   3.770   2.915   2.464
 3798TIP3    H111327   3.826   2.964   2.402
 3798TIP3    H211328   3.789   2.959   2.548
 3799TIP3   OH211329   4.313   3.066   2.447
 3799TIP3    H111330   4.310   3.028   2.358
 3799TIP3    H211331   4.301   2.986   2.503
 3800TIP3   OH211332   4.342   2.991   2.014
 3800TIP3    H111333   4.255   3.033   2.026
 3800TIP3    H211334   4.327   2.904   2.057
 3801TIP3   OH211335   2.822   4.333   2.011
 3801TIP3    H111336   2.738   4.297   1.978
 3801TIP3    H211337   2.815   4.425   1.978
 3802TIP3   OH211338   3.228   2.917   1.988
 3802TIP3    H111339   3.276   2.850   1.936
 3802TIP3    H211340   3.301   2.967   2.029
 3803TIP3   OH211341   3.737   3.093   2.094
 3803TIP3    H111342   3.795   3.043   2.153
 3803TIP3    H211343   3.761   3.184   2.120
 3804TIP3   OH211344   3.598   4.513   1.595
 3804TIP3    H111345   3.687   4.535   1.559
 3804TIP3    H211346   3.576   4.439   1.534
 3805TIP3   OH211347   4.314   4.634   1.689
 3805TIP3    H111348   4.307   4.536   1.678
 3805TIP3    H211349   4.272   4.665   1.606
 3806TIP3   OH211350   3.529   3.167   3.476
 3806TIP3    H111351   3.492   3.096   3.532
 3806TIP3    H211352   3.623   3.165   3.505
 3807TIP3   OH211353   3.779   3.163   3.594
 3807TIP3    H111354   3.865   3.136   3.558
 3807TIP3    H211355   3.765   3.094   3.662
 3808TIP3   OH211356   2.904   4.352   1.648
 3808TIP3    H111357   2.911   4.369   1.743
 3808TIP3    H211358   2.989   4.307   1.629
 3809TIP3   OH211359   4.612   3.214   3.388
 3809TIP3    H111360   4.601   3.181   3.479
 3809TIP3    H211361   4.705   3.237   3.392
 3810TIP3   OH211362   4.536   4.773   2.881
 3810TIP3    H111363   4.459   4.743   2.828
 3810TIP3    H211364   4.518   4.869   2.886
 3811TIP3   OH211365   5.809   4.149   1.639
 3811TIP3    H111366   5.779   4.240   1.619
 3811TIP3    H211367   5.732   4.099   1.605
 3812TIP3   OH211368   5.816   4.150   2.019
 3812TIP3    H111369   5.843   4.125   2.109
 3812TIP3    H211370   5.768   4.071   1.989
 3813TIP3   OH211371   5.106   4.050   2.397
 3813TIP3    H111372   5.145   3.979   2.451
 3813TIP3    H211373   5.182   4.108   2.384
 3814TIP3   OH211374   6.056   4.450   1.707
 3814TIP3    H111375   6.038   4.387   1.779
 3814TIP3    H211376   6.089   4.528   1.755
 3815TIP3   OH211377   4.787   3.649   1.893
 3815TIP3    H111378   4.747   3.736   1.912
 3815TIP3    H211379   4.713   3.606   1.846
 3816TIP3   OH211380   4.841   3.944   2.066
 3816TIP3    H111381   4.892   3.867   2.100
 3816TIP3    H211382   4.916   4.006   2.047
 3817TIP3   OH211383   5.702   4.912   1.718
 3817TIP3    H111384   5.754   4.847   1.667
 3817TIP3    H211385   5.696   4.869   1.805
 3818TIP3   OH211386   5.605   4.376   2.073
 3818TIP3    H111387   5.645   4.304   2.021
 3818TIP3    H211388   5.688   4.422   2.100
 3819TIP3   OH211389   6.623   3.694   2.070
 3819TIP3    H111390   6.651   3.778   2.112
 3819TIP3    H211391   6.644   3.713   1.977
 3820TIP3   OH211392   6.019   3.874   2.101
 3820TIP3    H111393   6.063   3.789   2.118
 3820TIP3    H211394   5.987   3.861   2.010
 3821TIP3   OH211395   5.363   3.536   2.065
 3821TIP3    H111396   5.341   3.609   2.003
 3821TIP3    H211397   5.314   3.463   2.021
 3822TIP3   OH211398   6.054   3.630   1.687
 3822TIP3    H111399   6.126   3.615   1.753
 3822TIP3    H211400   6.108   3.665   1.612
 3823TIP3   OH211401   4.987   3.734   2.177
 3823TIP3    H111402   5.073   3.722   2.221
 3823TIP3    H211403   5.003   3.684   2.094
 3824TIP3   OH211404   5.431   3.934   1.972
 3824TIP3    H111405   5.526   3.909   1.981
 3824TIP3    H211406   5.392   3.852   1.937
 3825TIP3   OH211407   6.694   3.902   2.244
 3825TIP3    H111408   6.612   3.952   2.225
 3825TIP3    H211409   6.722   3.943   2.328
 3826TIP3   OH211410   5.354   3.520   2.501
 3826TIP3    H111411   5.297   3.558   2.432
 3826TIP3    H211412   5.301   3.541   2.581
 3827TIP3   OH211413   5.692   4.366   1.510
 3827TIP3    H111414   5.656   4.358   1.420
 3827TIP3    H211415   5.653   4.452   1.537
 3828TIP3   OH211416   5.459   4.297   2.297
 3828TIP3    H111417   5.397   4.365   2.333
 3828TIP3    H211418   5.500   4.346   2.222
 3829TIP3   OH211419   6.260   3.634   1.864
 3829TIP3    H111420   6.247   3.590   1.949
 3829TIP3    H211421   6.311   3.713   1.890
 3830TIP3   OH211422   5.228   3.634   2.284
 3830TIP3    H111423   5.288   3.709   2.307
 3830TIP3    H211424   5.277   3.596   2.208
 3831TIP3   OH211425   5.283   4.487   2.398
 3831TIP3    H111426   5.250   4.559   2.341
 3831TIP3    H211427   5.208   4.483   2.461
 3832TIP3   OH211428   4.678   4.180   1.628
 3832TIP3    H111429   4.643   4.206   1.541
 3832TIP3    H211430   4.713   4.265   1.662
 3833TIP3   OH211431   6.122   4.698   1.867
 3833TIP3    H111432   6.032   4.691   1.907
 3833TIP3    H211433   6.115   4.784   1.822
 3834TIP3   OH211434   6.413   3.593   2.232
 3834TIP3    H111435   6.327   3.620   2.196
 3834TIP3    H211436   6.476   3.628   2.165
 3835TIP3   OH211437   5.710   3.238   2.220
 3835TIP3    H111438   5.690   3.143   2.232
 3835TIP3    H211439   5.633   3.278   2.265
 3836TIP3   OH211440   5.840   4.758   1.530
 3836TIP3    H111441   5.872   4.667   1.515
 3836TIP3    H211442   5.920   4.807   1.502
 3837TIP3   OH211443   5.959   4.526   1.460
 3837TIP3    H111444   5.933   4.448   1.409
 3837TIP3    H211445   5.996   4.486   1.542
 3838TIP3   OH211446   6.348   4.606   2.215
 3838TIP3    H111447   6.335   4.530   2.154
 3838TIP3    H211448   6.328   4.682   2.156
 3839TIP3   OH211449   5.640   4.000   1.473
 3839TIP3    H111450   5.560   4.055   1.457
 3839TIP3    H211451   5.684   4.004   1.387
 3840TIP3   OH211452   5.598   3.789   1.183
 3840TIP3    H111453   5.662   3.842   1.234
 3840TIP3    H211454   5.659   3.727   1.137
 3841TIP3   OH211455   6.542   4.246   2.061
 3841TIP3    H111456   6.458   4.297   2.064
 3841TIP3    H211457   6.574   4.272   1.972
 3842TIP3   OH211458   5.988   4.083   1.442
 3842TIP3    H111459   5.933   4.108   1.520
 3842TIP3    H211460   6.073   4.062   1.487
 3843TIP3   OH211461   6.221   4.118   2.361
 3843TIP3    H111462   6.221   4.204   2.408
 3843TIP3    H211463   6.135   4.124   2.315
 3844TIP3   OH211464   5.228   4.086   1.851
 3844TIP3    H111465   5.183   4.025   1.788
 3844TIP3    H211466   5.300   4.030   1.886
 3845TIP3   OH211467   5.372   4.520   1.989
 3845TIP3    H111468   5.326   4.463   1.927
 3845TIP3    H211469   5.453   4.470   2.010
 3846TIP3   OH211470   5.352   4.056   2.214
 3846TIP3    H111471   5.385   4.031   2.126
 3846TIP3    H211472   5.398   4.141   2.232
 3847TIP3   OH211473   5.881   4.693   1.991
 3847TIP3    H111474   5.868   4.773   2.044
 3847TIP3    H211475   5.863   4.620   2.054
 3848TIP3   OH211476   5.490   4.608   2.538
 3848TIP3    H111477   5.430   4.672   2.583
 3848TIP3    H211478   5.425   4.558   2.485
 3849TIP3   OH211479   5.828   3.941   1.268
 3849TIP3    H111480   5.885   4.004   1.318
 3849TIP3    H211481   5.854   3.962   1.175
 3850TIP3   OH211482   5.254   4.155   2.649
 3850TIP3    H111483   5.260   4.244   2.690
 3850TIP3    H211484   5.158   4.140   2.654
 3851TIP3   OH211485   5.580   4.621   1.540
 3851TIP3    H111486   5.652   4.684   1.557
 3851TIP3    H211487   5.512   4.676   1.499
 3852TIP3   OH211488   5.290   4.777   2.628
 3852TIP3    H111489   5.259   4.776   2.535
 3852TIP3    H211490   5.209   4.750   2.677
 3853TIP3   OH211491   6.343   3.182   1.318
 3853TIP3    H111492   6.262   3.205   1.367
 3853TIP3    H211493   6.359   3.264   1.268
 3854TIP3   OH211494   5.089   3.923   1.658
 3854TIP3    H111495   5.021   3.971   1.607
 3854TIP3    H211496   5.043   3.841   1.678
 3855TIP3   OH211497   6.144   4.547   0.866
 3855TIP3    H111498   6.149   4.645   0.854
 3855TIP3    H211499   6.239   4.522   0.857
 3856TIP3   OH211500   4.872   4.313   2.579
 3856TIP3    H111501   4.832   4.311   2.490
 3856TIP3    H211502   4.912   4.225   2.588
 3857TIP3   OH211503   6.586   4.957   2.264
 3857TIP3    H111504   6.583   4.860   2.276
 3857TIP3    H211505   6.502   4.982   2.308
 3858TIP3   OH211506   5.691   4.735   2.399
 3858TIP3    H111507   5.687   4.828   2.430
 3858TIP3    H211508   5.617   4.696   2.450
 3859TIP3   OH211509   5.454   4.865   1.349
 3859TIP3    H111510   5.410   4.848   1.264
 3859TIP3    H211511   5.421   4.953   1.373
 3860TIP3   OH211512   4.889   4.715   1.731
 3860TIP3    H111513   4.939   4.706   1.815
 3860TIP3    H211514   4.843   4.629   1.728
 3861TIP3   OH211515   5.654   4.769   0.990
 3861TIP3    H111516   5.711   4.699   0.952
 3861TIP3    H211517   5.696   4.783   1.077
 3862TIP3   OH211518   5.707   4.823   1.260
 3862TIP3    H111519   5.618   4.833   1.300
 3862TIP3    H211520   5.750   4.762   1.323
 3863TIP3   OH211521   6.477   4.077   2.524
 3863TIP3    H111522   6.392   4.097   2.482
 3863TIP3    H211523   6.487   3.981   2.506
 3864TIP3   OH211524   5.084   4.497   2.583
 3864TIP3    H111525   5.124   4.454   2.660
 3864TIP3    H211526   5.002   4.447   2.568
 3865TIP3   OH211527   5.472   3.313   2.347
 3865TIP3    H111528   5.383   3.284   2.316
 3865TIP3    H211529   5.446   3.396   2.393
 3866TIP3   OH211530   6.009   3.432   2.541
 3866TIP3    H111531   6.077   3.397   2.603
 3866TIP3    H211532   5.925   3.411   2.587
 3867TIP3   OH211533   6.229   3.856   2.463
 3867TIP3    H111534   6.192   3.870   2.553
 3867TIP3    H211535   6.217   3.943   2.421
 3868TIP3   OH211536   5.901   3.976   1.010
 3868TIP3    H111537   5.869   3.960   0.920
 3868TIP3    H211538   5.979   4.033   0.992
 3869TIP3   OH211539   5.618   3.361   1.317
 3869TIP3    H111540   5.581   3.358   1.408
 3869TIP3    H211541   5.575   3.281   1.280
 3870TIP3   OH211542   5.403   3.833   2.361
 3870TIP3    H111543   5.353   3.854   2.443
 3870TIP3    H211544   5.386   3.915   2.309
 3871TIP3   OH211545   5.289   3.716   1.878
 3871TIP3    H111546   5.195   3.695   1.896
 3871TIP3    H211547   5.298   3.676   1.789
 3872TIP3   OH211548   5.778   3.802   1.607
 3872TIP3    H111549   5.726   3.874   1.564
 3872TIP3    H211550   5.832   3.770   1.533
 3873TIP3   OH211551   5.937   4.071   2.675
 3873TIP3    H111552   5.923   4.008   2.748
 3873TIP3    H211553   6.029   4.098   2.686
 3874TIP3   OH211554   5.932   3.830   1.844
 3874TIP3    H111555   5.871   3.862   1.775
 3874TIP3    H211556   5.966   3.751   1.798
 3875TIP3   OH211557   5.228   3.860   2.573
 3875TIP3    H111558   5.247   3.930   2.636
 3875TIP3    H211559   5.221   3.781   2.629
 3876TIP3   OH211560   5.275   3.339   1.283
 3876TIP3    H111561   5.261   3.336   1.379
 3876TIP3    H211562   5.196   3.392   1.255
 3877TIP3   OH211563   4.814   3.376   2.161
 3877TIP3    H111564   4.891   3.414   2.208
 3877TIP3    H211565   4.847   3.356   2.073
 3878TIP3   OH211566   4.781   3.361   1.673
 3878TIP3    H111567   4.826   3.397   1.593
 3878TIP3    H211568   4.721   3.436   1.691
 3879TIP3   OH211569   5.947   4.075   2.265
 3879TIP3    H111570   5.979   4.004   2.205
 3879TIP3    H211571   5.909   4.021   2.337
 3880TIP3   OH211572   5.619   3.532   1.937
 3880TIP3    H111573   5.535   3.535   1.987
 3880TIP3    H211574   5.684   3.539   2.009
 3881TIP3   OH211575   5.047   3.597   1.947
 3881TIP3    H111576   4.953   3.606   1.918
 3881TIP3    H211577   5.068   3.506   1.921
 3882TIP3   OH211578   5.315   3.589   1.637
 3882TIP3    H111579   5.407   3.607   1.611
 3882TIP3    H211580   5.264   3.611   1.555
 3883TIP3   OH211581   6.104   3.614   2.146
 3883TIP3    H111582   6.065   3.629   2.234
 3883TIP3    H211583   6.038   3.553   2.108
 3884TIP3   OH211584   5.166   3.622   1.414
 3884TIP3    H111585   5.093   3.579   1.366
 3884TIP3    H211586   5.216   3.661   1.339
 3885TIP3   OH211587   6.279   5.304   2.360
 3885TIP3    H111588   6.274   5.326   2.265
 3885TIP3    H211589   6.359   5.353   2.388
 3886TIP3   OH211590   5.241   4.395   2.794
 3886TIP3    H111591   5.320   4.434   2.836
 3886TIP3    H211592   5.174   4.409   2.864
 3887TIP3   OH211593   5.696   3.865   2.034
 3887TIP3    H111594   5.773   3.832   1.985
 3887TIP3    H211595   5.705   3.822   2.121
 3888TIP3   OH211596   5.220   3.354   1.917
 3888TIP3    H111597   5.182   3.277   1.964
 3888TIP3    H211598   5.254   3.313   1.836
 3889TIP3   OH211599   5.670   3.763   2.327
 3889TIP3    H111600   5.580   3.801   2.337
 3889TIP3    H211601   5.726   3.828   2.373
 3890TIP3   OH211602   5.412   4.151   1.420
 3890TIP3    H111603   5.338   4.088   1.409
 3890TIP3    H211604   5.392   4.189   1.509
 3891TIP3   OH211605   6.307   4.387   2.051
 3891TIP3    H111606   6.334   4.439   1.972
 3891TIP3    H211607   6.222   4.347   2.022
 3892TIP3   OH211608   5.868   3.465   1.284
 3892TIP3    H111609   5.772   3.446   1.294
 3892TIP3    H211610   5.875   3.559   1.311
 3893TIP3   OH211611   5.807   4.473   2.419
 3893TIP3    H111612   5.838   4.460   2.509
 3893TIP3    H211613   5.769   4.563   2.421
 3894TIP3   OH211614   5.936   3.715   1.389
 3894TIP3    H111615   6.032   3.724   1.404
 3894TIP3    H211616   5.915   3.796   1.339
 3895TIP3   OH211617   5.073   4.091   2.084
 3895TIP3    H111618   5.121   4.118   2.004
 3895TIP3    H211619   5.143   4.094   2.151
 3896TIP3   OH211620   5.555   4.304   1.243
 3896TIP3    H111621   5.507   4.389   1.246
 3896TIP3    H211622   5.501   4.250   1.305
 3897TIP3   OH211623   4.990   4.090   2.709
 3897TIP3    H111624   5.003   4.078   2.805
 3897TIP3    H211625   4.914   4.033   2.691
 3898TIP3   OH211626   5.704   4.215   2.729
 3898TIP3    H111627   5.639   4.156   2.685
 3898TIP3    H211628   5.788   4.179   2.694
 3899TIP3   OH211629   5.968   4.730   2.319
 3899TIP3    H111630   5.872   4.731   2.331
 3899TIP3    H211631   5.996   4.786   2.394
 3900TIP3   OH211632   6.377   3.810   1.223
 3900TIP3    H111633   6.316   3.765   1.159
 3900TIP3    H211634   6.373   3.900   1.184
 3901TIP3   OH211635   6.599   4.664   2.302
 3901TIP3    H111636   6.501   4.659   2.293
 3901TIP3    H211637   6.625   4.634   2.212
 3902TIP3   OH211638   6.029   4.604   1.118
 3902TIP3    H111639   6.064   4.555   1.193
 3902TIP3    H211640   6.085   4.578   1.043
 3903TIP3   OH211641   6.075   4.254   1.966
 3903TIP3    H111642   5.981   4.229   1.979
 3903TIP3    H211643   6.107   4.174   1.919
 3904TIP3   OH211644   5.202   4.480   1.715
 3904TIP3    H111645   5.200   4.562   1.663
 3904TIP3    H211646   5.108   4.465   1.732
 3905TIP3   OH211647   4.771   3.785   1.427
 3905TIP3    H111648   4.814   3.870   1.447
 3905TIP3    H211649   4.693   3.789   1.487
 3906TIP3   OH211650   5.342   4.249   1.659
 3906TIP3    H111651   5.306   4.337   1.679
 3906TIP3    H211652   5.306   4.196   1.733
 3907TIP3   OH211653   5.476   4.830   2.186
 3907TIP3    H111654   5.521   4.899   2.132
 3907TIP3    H211655   5.552   4.788   2.229
 3908TIP3   OH211656   5.121   4.723   1.572
 3908TIP3    H111657   5.036   4.733   1.618
 3908TIP3    H211658   5.155   4.815   1.575
 3909TIP3   OH211659   5.858   4.458   2.150
 3909TIP3    H111660   5.849   4.456   2.248
 3909TIP3    H211661   5.940   4.408   2.137
 3910TIP3   OH211662   5.837   4.337   1.033
 3910TIP3    H111663   5.889   4.325   1.115
 3910TIP3    H211664   5.747   4.326   1.065
 3911TIP3   OH211665   6.108   4.993   2.197
 3911TIP3    H111666   6.027   4.940   2.188
 3911TIP3    H211667   6.096   5.058   2.125
 3912TIP3   OH211668   6.172   4.819   0.858
 3912TIP3    H111669   6.195   4.889   0.794
 3912TIP3    H211670   6.097   4.864   0.903
 3913TIP3   OH211671   5.197   3.603   2.720
 3913TIP3    H111672   5.101   3.595   2.732
 3913TIP3    H211673   5.230   3.545   2.790
 3914TIP3   OH211674   5.998   4.285   1.253
 3914TIP3    H111675   5.990   4.218   1.323
 3914TIP3    H211676   6.095   4.281   1.237
 3915TIP3   OH211677   5.202   4.332   1.033
 3915TIP3    H111678   5.212   4.239   1.006
 3915TIP3    H211679   5.180   4.323   1.128
 3916TIP3   OH211680   5.146   4.339   1.305
 3916TIP3    H111681   5.219   4.315   1.363
 3916TIP3    H211682   5.148   4.437   1.310
 3917TIP3   OH211683   4.880   4.030   1.510
 3917TIP3    H111684   4.813   4.075   1.565
 3917TIP3    H211685   4.892   4.098   1.440
 3918TIP3   OH211686   6.027   3.673   2.407
 3918TIP3    H111687   6.115   3.710   2.428
 3918TIP3    H211688   6.024   3.589   2.458
 3919TIP3   OH211689   5.917   3.413   1.568
 3919TIP3    H111690   5.900   3.436   1.475
 3919TIP3    H211691   5.954   3.497   1.604
 3920TIP3   OH211692   5.414   4.534   1.252
 3920TIP3    H111693   5.327   4.558   1.288
 3920TIP3    H211694   5.428   4.607   1.190
 3921TIP3   OH211695   5.602   3.598   1.667
 3921TIP3    H111696   5.663   3.672   1.650
 3921TIP3    H211697   5.605   3.592   1.765
 3922TIP3   OH211698   5.862   3.910   2.462
 3922TIP3    H111699   5.884   3.961   2.543
 3922TIP3    H211700   5.918   3.831   2.469
 3923TIP3   OH211701   5.742   3.320   1.768
 3923TIP3    H111702   5.726   3.401   1.821
 3923TIP3    H211703   5.805   3.355   1.701
 3924TIP3   OH211704   5.160   4.610   1.322
 3924TIP3    H111705   5.129   4.680   1.259
 3924TIP3    H211706   5.143   4.653   1.408
 3925TIP3   OH211707   5.257   3.325   1.560
 3925TIP3    H111708   5.254   3.417   1.594
 3925TIP3    H211709   5.353   3.309   1.566
 3926TIP3   OH211710   6.500   3.812   2.461
 3926TIP3    H111711   6.403   3.804   2.454
 3926TIP3    H211712   6.529   3.779   2.375
 3927TIP3   OH211713   6.161   4.009   1.844
 3927TIP3    H111714   6.084   3.951   1.856
 3927TIP3    H211715   6.232   3.962   1.892
 3928TIP3   OH211716   4.875   4.236   1.316
 3928TIP3    H111717   4.944   4.304   1.321
 3928TIP3    H211718   4.916   4.179   1.247
 3929TIP3   OH211719   4.815   3.514   1.448
 3929TIP3    H111720   4.819   3.612   1.446
 3929TIP3    H211721   4.737   3.497   1.393
 3930TIP3   OH211722   6.131   4.967   1.791
 3930TIP3    H111723   6.092   5.023   1.720
 3930TIP3    H211724   6.227   4.980   1.770
 3931TIP3   OH211725   5.207   3.235   2.317
 3931TIP3    H111726   5.176   3.203   2.229
 3931TIP3    H211727   5.193   3.156   2.373
 3932TIP3   OH211728   4.743   4.457   1.696
 3932TIP3    H111729   4.668   4.483   1.751
 3932TIP3    H211730   4.716   4.497   1.610
 3933TIP3   OH211731   5.377   4.953   2.819
 3933TIP3    H111732   5.472   4.938   2.818
 3933TIP3    H211733   5.347   4.892   2.748
 3934TIP3   OH211734   5.364   4.535   0.942
 3934TIP3    H111735   5.309   4.462   0.980
 3934TIP3    H211736   5.441   4.485   0.909
 3935TIP3   OH211737   6.018   4.871   2.553
 3935TIP3    H111738   6.013   4.800   2.621
 3935TIP3    H211739   6.097   4.921   2.581
 3936TIP3   OH211740   5.796   4.573   0.860
 3936TIP3    H111741   5.855   4.531   0.926
 3936TIP3    H211742   5.852   4.573   0.780
 3937TIP3   OH211743   5.029   4.403   2.976
 3937TIP3    H111744   5.044   4.307   2.979
 3937TIP3    H211745   4.944   4.409   2.927
 3938TIP3   OH211746   5.014   4.055   1.170
 3938TIP3    H111747   5.073   4.027   1.242
 3938TIP3    H211748   5.078   4.061   1.096
 3939TIP3   OH211749   5.635   4.493   2.745
 3939TIP3    H111750   5.592   4.514   2.659
 3939TIP3    H211751   5.664   4.401   2.733
 3940TIP3   OH211752   5.524   4.251   0.974
 3940TIP3    H111753   5.526   4.264   1.071
 3940TIP3    H211754   5.520   4.154   0.968
 3941TIP3   OH211755   6.132   4.500   2.354
 3941TIP3    H111756   6.208   4.541   2.310
 3941TIP3    H211757   6.063   4.569   2.338
 3942TIP3   OH211758   5.151   4.132   2.960
 3942TIP3    H111759   5.235   4.100   2.923
 3942TIP3    H211760   5.180   4.168   3.046
 3943TIP3   OH211761   5.216   3.958   1.387
 3943TIP3    H111762   5.186   3.919   1.471
 3943TIP3    H211763   5.253   3.881   1.340
 3944TIP3   OH211764   5.493   4.022   2.617
 3944TIP3    H111765   5.411   4.077   2.617
 3944TIP3    H211766   5.541   4.057   2.538
 3945TIP3   OH211767   5.319   3.751   1.227
 3945TIP3    H111768   5.293   3.763   1.133
 3945TIP3    H211769   5.417   3.755   1.219
 3946TIP3   OH211770   6.000   4.426   2.745
 3946TIP3    H111771   6.086   4.407   2.705
 3946TIP3    H211772   6.000   4.366   2.822
 3947TIP3   OH211773   6.138   4.078   0.895
 3947TIP3    H111774   6.116   4.037   0.809
 3947TIP3    H211775   6.106   4.170   0.876
 3948TIP3   OH211776   5.614   3.812   2.736
 3948TIP3    H111777   5.611   3.734   2.677
 3948TIP3    H211778   5.570   3.880   2.681
 3949TIP3   OH211779   5.613   3.595   2.550
 3949TIP3    H111780   5.641   3.640   2.467
 3949TIP3    H211781   5.520   3.574   2.531
 3950TIP3   OH211782   5.636   4.133   2.421
 3950TIP3    H111783   5.721   4.154   2.379
 3950TIP3    H211784   5.577   4.199   2.378
 3951TIP3   OH211785   6.259   4.347   2.536
 3951TIP3    H111786   6.202   4.404   2.479
 3951TIP3    H211787   6.348   4.372   2.500
 3952TIP3   OH211788   5.490   3.917   2.974
 3952TIP3    H111789   5.421   3.849   2.990
 3952TIP3    H211790   5.522   3.892   2.885
 3953TIP3   OH211791   5.746   3.358   2.618
 3953TIP3    H111792   5.696   3.439   2.595
 3953TIP3    H211793   5.678   3.289   2.606
 3954TIP3   OH211794   5.871   3.859   2.833
 3954TIP3    H111795   5.846   3.842   2.926
 3954TIP3    H211796   5.783   3.839   2.792
 3955TIP3   OH211797   6.128   3.829   2.726
 3955TIP3    H111798   6.042   3.838   2.772
 3955TIP3    H211799   6.146   3.735   2.740
 3956TIP3   OH211800   5.323   3.699   3.027
 3956TIP3    H111801   5.334   3.608   2.997
 3956TIP3    H211802   5.360   3.693   3.118
 3957TIP3   OH211803   5.838   3.369   2.878
 3957TIP3    H111804   5.904   3.297   2.870
 3957TIP3    H211805   5.798   3.366   2.789
 3958TIP3   OH211806   5.914   3.590   3.031
 3958TIP3    H111807   5.888   3.518   2.970
 3958TIP3    H211808   5.835   3.649   3.028
 3959TIP3   OH211809   5.128   4.814   1.136
 3959TIP3    H111810   5.223   4.805   1.116
 3959TIP3    H211811   5.100   4.864   1.057
 3960TIP3   OH211812   4.606   4.193   1.352
 3960TIP3    H111813   4.699   4.217   1.332
 3960TIP3    H211814   4.599   4.106   1.307
 3961TIP3   OH211815   4.519   4.808   1.767
 3961TIP3    H111816   4.457   4.744   1.726
 3961TIP3    H211817   4.565   4.750   1.832
 3962TIP3   OH211818   4.655   4.660   1.955
 3962TIP3    H111819   4.669   4.575   1.998
 3962TIP3    H211820   4.716   4.716   2.007
 3963TIP3   OH211821   6.394   5.033   1.752
 3963TIP3    H111822   6.432   5.101   1.809
 3963TIP3    H211823   6.417   5.066   1.663
 3964TIP3   OH211824   6.411   5.084   2.049
 3964TIP3    H111825   6.369   5.001   2.019
 3964TIP3    H211826   6.488   5.048   2.096
 3965TIP3   OH211827   6.459   4.755   2.607
 3965TIP3    H111828   6.387   4.765   2.673
 3965TIP3    H211829   6.501   4.843   2.610
 3966TIP3   OH211830   6.277   4.265   1.224
 3966TIP3    H111831   6.341   4.332   1.192
 3966TIP3    H211832   6.323   4.230   1.303
 3967TIP3   OH211833   6.406   4.132   1.429
 3967TIP3    H111834   6.337   4.093   1.487
 3967TIP3    H211835   6.469   4.172   1.493
 3968TIP3   OH211836   6.460   4.522   1.870
 3968TIP3    H111837   6.508   4.458   1.813
 3968TIP3    H211838   6.468   4.604   1.816
 3969TIP3   OH211839   6.287   4.825   2.058
 3969TIP3    H111840   6.215   4.873   2.103
 3969TIP3    H211841   6.241   4.782   1.983
 3970TIP3   OH211842   6.341   4.042   1.074
 3970TIP3    H111843   6.270   4.045   1.005
 3970TIP3    H211844   6.313   4.118   1.129
 3971TIP3   OH211845   6.216   3.712   1.027
 3971TIP3    H111846   6.165   3.756   0.958
 3971TIP3    H211847   6.190   3.619   1.013
 3972TIP3   OH211848   6.217   3.995   1.575
 3972TIP3    H111849   6.223   3.899   1.568
 3972TIP3    H211850   6.201   4.008   1.672
 3973TIP3   OH211851   4.843   4.057   2.326
 3973TIP3    H111852   4.840   4.033   2.232
 3973TIP3    H211853   4.941   4.062   2.340
 3974TIP3   OH211854   6.505   4.416   2.433
 3974TIP3    H111855   6.578   4.352   2.424
 3974TIP3    H211856   6.527   4.484   2.368
 3975TIP3   OH211857   6.691   4.221   2.447
 3975TIP3    H111858   6.615   4.169   2.482
 3975TIP3    H211859   6.763   4.156   2.460
 3976TIP3   OH211860   6.157   3.444   1.005
 3976TIP3    H111861   6.228   3.418   1.067
 3976TIP3    H211862   6.081   3.391   1.032
 3977TIP3   OH211863   6.214   3.709   1.468
 3977TIP3    H111864   6.255   3.621   1.481
 3977TIP3    H211865   6.272   3.744   1.397
 3978TIP3   OH211866   6.374   3.877   1.966
 3978TIP3    H111867   6.459   3.902   1.923
 3978TIP3    H211868   6.389   3.918   2.054
 3979TIP3   OH211869   6.445   4.027   2.195
 3979TIP3    H111870   6.367   4.063   2.241
 3979TIP3    H211871   6.479   4.107   2.149
 3980TIP3   OH211872   5.058   3.745   2.986
 3980TIP3    H111873   5.156   3.746   2.984
 3980TIP3    H211874   5.044   3.678   3.055
 3981TIP3   OH211875   6.880   3.587   2.755
 3981TIP3    H111876   6.949   3.551   2.695
 3981TIP3    H211877   6.871   3.679   2.723
 3982TIP3   OH211878   6.324   3.459   1.506
 3982TIP3    H111879   6.371   3.443   1.590
 3982TIP3    H211880   6.261   3.383   1.505
 3983TIP3   OH211881   5.023   3.444   2.337
 3983TIP3    H111882   5.086   3.370   2.337
 3983TIP3    H211883   5.083   3.519   2.321
 3984TIP3   OH211884   4.827   3.718   2.406
 3984TIP3    H111885   4.874   3.710   2.321
 3984TIP3    H211886   4.842   3.811   2.427
 3985TIP3   OH211887   6.771   3.757   2.545
 3985TIP3    H111888   6.684   3.791   2.574
 3985TIP3    H211889   6.743   3.674   2.501
 3986TIP3   OH211890   6.400   3.390   1.143
 3986TIP3    H111891   6.441   3.322   1.086
 3986TIP3    H211892   6.466   3.462   1.140
 3987TIP3   OH211893   4.808   3.227   1.905
 3987TIP3    H111894   4.714   3.217   1.928
 3987TIP3    H211895   4.803   3.283   1.824
 3988TIP3   OH211896   5.041   3.306   2.707
 3988TIP3    H111897   4.982   3.254   2.763
 3988TIP3    H211898   4.977   3.347   2.645
 3989TIP3   OH211899   5.071   4.735   2.796
 3989TIP3    H111900   4.984   4.712   2.758
 3989TIP3    H211901   5.056   4.719   2.890
 3990TIP3   OH211902   5.259   4.773   2.348
 3990TIP3    H111903   5.202   4.835   2.299
 3990TIP3    H211904   5.342   4.788   2.299
 3991TIP3   OH211905   5.689   5.004   2.478
 3991TIP3    H111906   5.732   5.006   2.566
 3991TIP3    H211907   5.753   5.056   2.425
 3992TIP3   OH211908   5.866   5.159   2.339
 3992TIP3    H111909   5.935   5.111   2.291
 3992TIP3    H211910   5.921   5.215   2.398
 3993TIP3   OH211911   6.665   3.518   2.436
 3993TIP3    H111912   6.576   3.511   2.399
 3993TIP3    H211913   6.698   3.426   2.426
 3994TIP3   OH211914   4.909   5.041   2.415
 3994TIP3    H111915   4.856   5.057   2.338
 3994TIP3    H211916   4.947   4.950   2.398
 3995TIP3   OH211917   5.156   5.002   2.222
 3995TIP3    H111918   5.083   5.050   2.263
 3995TIP3    H211919   5.145   5.027   2.127
 3996TIP3   OH211920   5.586   5.024   2.019
 3996TIP3    H111921   5.517   5.040   1.952
 3996TIP3    H211922   5.597   5.114   2.058
 3997TIP3   OH211923   5.855   4.963   2.074
 3997TIP3    H111924   5.761   4.982   2.053
 3997TIP3    H211925   5.901   5.032   2.024
 3998TIP3   OH211926   6.059   5.154   1.982
 3998TIP3    H111927   6.044   5.239   1.935
 3998TIP3    H211928   6.087   5.095   1.908
 3999TIP3   OH211929   4.833   4.817   2.109
 3999TIP3    H111930   4.843   4.741   2.174
 3999TIP3    H211931   4.906   4.787   2.050
 4000TIP3   OH211932   5.026   4.688   1.965
 4000TIP3    H111933   5.023   4.623   2.039
 4000TIP3    H211934   5.121   4.712   1.964
 4001TIP3   OH211935   5.296   4.780   1.972
 4001TIP3    H111936   5.326   4.688   1.959
 4001TIP3    H211937   5.346   4.800   2.053
 4002TIP3   OH211938   5.877   3.436   2.065
 4002TIP3    H111939   5.829   3.365   2.110
 4002TIP3    H211940   5.945   3.388   2.014
 4003TIP3   OH211941   6.390   3.313   1.961
 4003TIP3    H111942   6.427   3.365   1.885
 4003TIP3    H211943   6.295   3.332   1.954
 4004TIP3   OH211944   6.486   3.410   1.724
 4004TIP3    H111945   6.560   3.360   1.684
 4004TIP3    H211946   6.519   3.502   1.710
 4005TIP3   OH211947   5.117   3.142   2.071
 4005TIP3    H111948   5.024   3.113   2.072
 4005TIP3    H211949   5.163   3.056   2.063
 4006TIP3   OH211950   4.922   3.015   1.733
 4006TIP3    H111951   4.942   3.064   1.651
 4006TIP3    H211952   4.886   3.085   1.791
 4007TIP3   OH211953   5.569   3.169   1.953
 4007TIP3    H111954   5.620   3.219   1.888
 4007TIP3    H211955   5.584   3.219   2.034
 4008TIP3   OH211956   6.107   3.322   1.934
 4008TIP3    H111957   6.105   3.284   1.846
 4008TIP3    H211958   6.095   3.243   1.991
 4009TIP3   OH211959   6.138   3.247   1.499
 4009TIP3    H111960   6.054   3.293   1.516
 4009TIP3    H211961   6.122   3.161   1.543
 4010TIP3   OH211962   4.619   4.590   1.497
 4010TIP3    H111963   4.534   4.555   1.464
 4010TIP3    H211964   4.611   4.682   1.468
 4011TIP3   OH211965   5.022   3.174   1.481
 4011TIP3    H111966   5.068   3.108   1.425
 4011TIP3    H211967   5.098   3.224   1.517
 4012TIP3   OH211968   5.534   3.348   1.580
 4012TIP3    H111969   5.594   3.302   1.641
 4012TIP3    H211970   5.555   3.441   1.605
 4013TIP3   OH211971   5.395   4.769   1.083
 4013TIP3    H111972   5.484   4.791   1.048
 4013TIP3    H211973   5.372   4.697   1.020
 4014TIP3   OH211974   5.324   3.416   2.956
 4014TIP3    H111975   5.286   3.351   3.018
 4014TIP3    H211976   5.418   3.418   2.987
 4015TIP3   OH211977   5.573   3.418   3.077
 4015TIP3    H111978   5.660   3.395   3.041
 4015TIP3    H211979   5.561   3.350   3.146
 4016TIP3   OH211980   4.700   4.611   1.135
 4016TIP3    H111981   4.708   4.626   1.230
 4016TIP3    H211982   4.785   4.564   1.116
 4017TIP3   OH211983   6.395   3.481   2.863
 4017TIP3    H111984   6.416   3.461   2.956
 4017TIP3    H211985   6.485   3.488   2.824
 4018TIP3   OH211986   6.335   5.033   2.364
 4018TIP3    H111987   6.261   5.003   2.308
 4018TIP3    H211988   6.318   5.129   2.366
 4019TIP3   OH211989   7.604   4.411   1.126
 4019TIP3    H111990   7.572   4.500   1.102
 4019TIP3    H211991   7.526   4.358   1.101
 4020TIP3   OH211992   7.606   4.407   1.508
 4020TIP3    H111993   7.633   4.391   1.601
 4020TIP3    H211994   7.563   4.322   1.487
 4021TIP3   OH211995   6.905   4.300   1.873
 4021TIP3    H111996   6.935   4.231   1.935
 4021TIP3    H211997   6.982   4.358   1.870
 4022TIP3   OH211998   7.855   4.703   1.191
 4022TIP3    H111999   7.827   4.643   1.261
 4022TIP3    H212000   7.878   4.783   1.241
 4023TIP3   OH212001   6.880   4.712   1.594
 4023TIP3    H112002   6.870   4.615   1.598
 4023TIP3    H212003   6.977   4.721   1.589
 4024TIP3   OH212004   6.583   3.910   1.379
 4024TIP3    H112005   6.537   3.994   1.400
 4024TIP3    H212006   6.511   3.863   1.334
 4025TIP3   OH212007   6.640   4.202   1.559
 4025TIP3    H112008   6.691   4.124   1.591
 4025TIP3    H212009   6.700   4.240   1.494
 4026TIP3   OH212010   7.503   5.178   1.211
 4026TIP3    H112011   7.543   5.105   1.160
 4026TIP3    H212012   7.485   5.135   1.296
 4027TIP3   OH212013   7.403   4.634   1.556
 4027TIP3    H112014   7.443   4.557   1.513
 4027TIP3    H212015   7.485   4.680   1.583
 4028TIP3   OH212016   7.811   4.158   1.583
 4028TIP3    H112017   7.822   4.065   1.612
 4028TIP3    H212018   7.763   4.142   1.499
 4029TIP3   OH212019   7.155   3.793   1.554
 4029TIP3    H112020   7.139   3.866   1.491
 4029TIP3    H212021   7.107   3.720   1.508
 4030TIP3   OH212022   7.842   3.888   1.190
 4030TIP3    H112023   7.909   3.828   1.226
 4030TIP3    H212024   7.894   3.937   1.125
 4031TIP3   OH212025   6.788   3.994   1.660
 4031TIP3    H112026   6.870   3.977   1.709
 4031TIP3    H212027   6.803   3.939   1.581
 4032TIP3   OH212028   7.229   4.192   1.455
 4032TIP3    H112029   7.323   4.167   1.468
 4032TIP3    H212030   7.191   4.108   1.423
 4033TIP3   OH212031   7.150   3.777   1.989
 4033TIP3    H112032   7.092   3.815   1.920
 4033TIP3    H212033   7.097   3.795   2.069
 4034TIP3   OH212034   7.492   4.626   0.995
 4034TIP3    H112035   7.455   4.615   0.905
 4034TIP3    H212036   7.448   4.708   1.024
 4035TIP3   OH212037   7.257   4.554   1.780
 4035TIP3    H112038   7.197   4.622   1.817
 4035TIP3    H212039   7.299   4.602   1.705
 4036TIP3   OH212040   7.022   3.892   1.772
 4036TIP3    H112041   7.084   3.965   1.796
 4036TIP3    H212042   7.071   3.853   1.696
 4037TIP3   OH212043   7.086   4.749   1.881
 4037TIP3    H112044   7.062   4.837   1.844
 4037TIP3    H212045   7.007   4.733   1.935
 4038TIP3   OH212046   6.476   4.439   1.118
 4038TIP3    H112047   6.438   4.462   1.031
 4038TIP3    H212048   6.504   4.527   1.152
 4039TIP3   OH212049   7.920   4.953   1.354
 4039TIP3    H112050   7.833   4.940   1.399
 4039TIP3    H212051   7.906   5.040   1.312
 4040TIP3   OH212052   7.495   3.488   1.706
 4040TIP3    H112053   7.473   3.394   1.721
 4040TIP3    H212054   7.418   3.531   1.750
 4041TIP3   OH212055   7.618   5.002   1.032
 4041TIP3    H112056   7.661   4.916   1.011
 4041TIP3    H212057   7.684   5.062   0.991
 4042TIP3   OH212058   7.750   4.783   0.944
 4042TIP3    H112059   7.710   4.703   0.907
 4042TIP3    H212060   7.799   4.747   1.021
 4043TIP3   OH212061   8.141   4.856   1.702
 4043TIP3    H112062   8.143   4.782   1.639
 4043TIP3    H212063   8.136   4.934   1.645
 4044TIP3   OH212064   7.435   4.256   0.959
 4044TIP3    H112065   7.353   4.309   0.947
 4044TIP3    H212066   7.475   4.265   0.871
 4045TIP3   OH212067   7.389   4.055   0.679
 4045TIP3    H112068   7.461   4.097   0.729
 4045TIP3    H212069   7.438   3.981   0.637
 4046TIP3   OH212070   7.779   4.338   0.932
 4046TIP3    H112071   7.722   4.370   1.006
 4046TIP3    H212072   7.850   4.293   0.982
 4047TIP3   OH212073   8.005   4.357   1.838
 4047TIP3    H112074   8.034   4.439   1.881
 4047TIP3    H212075   7.915   4.381   1.809
 4048TIP3   OH212076   7.017   4.337   1.347
 4048TIP3    H112077   6.976   4.279   1.279
 4048TIP3    H212078   7.093   4.283   1.377
 4049TIP3   OH212079   7.148   4.753   1.493
 4049TIP3    H112080   7.126   4.716   1.406
 4049TIP3    H212081   7.237   4.714   1.510
 4050TIP3   OH212082   7.154   4.309   1.701
 4050TIP3    H112083   7.186   4.286   1.612
 4050TIP3    H212084   7.197   4.396   1.718
 4051TIP3   OH212085   7.683   4.946   1.479
 4051TIP3    H112086   7.666   5.028   1.530
 4051TIP3    H212087   7.662   4.875   1.543
 4052TIP3   OH212088   7.291   4.866   2.026
 4052TIP3    H112089   7.229   4.928   2.071
 4052TIP3    H212090   7.227   4.814   1.973
 4053TIP3   OH212091   7.627   4.202   0.750
 4053TIP3    H112092   7.678   4.261   0.810
 4053TIP3    H212093   7.673   4.216   0.665
 4054TIP3   OH212094   7.047   4.419   2.130
 4054TIP3    H112095   7.052   4.508   2.171
 4054TIP3    H212096   6.952   4.400   2.143
 4055TIP3   OH212097   7.372   4.872   1.036
 4055TIP3    H112098   7.452   4.927   1.041
 4055TIP3    H212099   7.311   4.930   0.987
 4056TIP3   OH212100   7.085   5.033   2.114
 4056TIP3    H112101   7.051   5.036   2.022
 4056TIP3    H212102   7.004   5.010   2.165
 4057TIP3   OH212103   6.884   4.183   1.145
 4057TIP3    H112104   6.814   4.229   1.094
 4057TIP3    H212105   6.843   4.098   1.162
 4058TIP3   OH212106   6.664   4.567   2.059
 4058TIP3    H112107   6.596   4.550   1.990
 4058TIP3    H212108   6.700   4.478   2.076
 4059TIP3   OH212109   6.521   4.747   1.727
 4059TIP3    H112110   6.597   4.765   1.671
 4059TIP3    H212111   6.478   4.834   1.732
 4060TIP3   OH212112   7.487   4.994   1.884
 4060TIP3    H112113   7.484   5.087   1.915
 4060TIP3    H212114   7.414   4.954   1.937
 4061TIP3   OH212115   7.254   5.135   0.828
 4061TIP3    H112116   7.182   5.107   0.771
 4061TIP3    H212117   7.220   5.218   0.866
 4062TIP3   OH212118   6.688   4.971   1.215
 4062TIP3    H112119   6.728   4.962   1.304
 4062TIP3    H212120   6.633   4.891   1.211
 4063TIP3   OH212121   7.485   5.011   0.743
 4063TIP3    H112122   7.405   5.060   0.771
 4063TIP3    H212123   7.546   5.027   0.817
 4064TIP3   OH212124   6.869   4.748   2.047
 4064TIP3    H112125   6.917   4.729   2.130
 4064TIP3    H212126   6.793   4.686   2.052
 4065TIP3   OH212127   7.266   3.571   1.836
 4065TIP3    H112128   7.178   3.542   1.805
 4065TIP3    H212129   7.241   3.653   1.881
 4066TIP3   OH212130   7.767   3.706   2.011
 4066TIP3    H112131   7.830   3.663   2.072
 4066TIP3    H212132   7.681   3.686   2.054
 4067TIP3   OH212133   8.076   4.112   1.954
 4067TIP3    H112134   8.013   4.117   2.028
 4067TIP3    H212135   8.055   4.195   1.905
 4068TIP3   OH212136   7.422   3.615   0.805
 4068TIP3    H112137   7.384   3.613   0.895
 4068TIP3    H212138   7.377   3.537   0.767
 4069TIP3   OH212139   7.199   4.088   1.851
 4069TIP3    H112140   7.148   4.110   1.932
 4069TIP3    H212141   7.184   4.169   1.798
 4070TIP3   OH212142   7.083   3.975   1.365
 4070TIP3    H112143   6.990   3.948   1.384
 4070TIP3    H212144   7.095   3.933   1.277
 4071TIP3   OH212145   7.577   4.060   1.092
 4071TIP3    H112146   7.522   4.129   1.048
 4071TIP3    H212147   7.634   4.030   1.019
 4072TIP3   OH212148   7.746   4.335   2.177
 4072TIP3    H112149   7.725   4.263   2.241
 4072TIP3    H212150   7.840   4.348   2.195
 4073TIP3   OH212151   7.715   4.094   1.331
 4073TIP3    H112152   7.655   4.108   1.255
 4073TIP3    H212153   7.753   4.008   1.303
 4074TIP3   OH212154   7.020   4.116   2.059
 4074TIP3    H112155   7.044   4.182   2.126
 4074TIP3    H212156   7.009   4.035   2.112
 4075TIP3   OH212157   7.066   3.594   0.770
 4075TIP3    H112158   7.058   3.593   0.867
 4075TIP3    H212159   6.990   3.650   0.746
 4076TIP3   OH212160   6.612   3.632   1.643
 4076TIP3    H112161   6.685   3.669   1.696
 4076TIP3    H212162   6.655   3.611   1.558
 4077TIP3   OH212163   6.576   3.618   1.158
 4077TIP3    H112164   6.623   3.655   1.080
 4077TIP3    H212165   6.516   3.693   1.177
 4078TIP3   OH212166   7.717   4.344   1.756
 4078TIP3    H112167   7.761   4.279   1.696
 4078TIP3    H212168   7.695   4.285   1.831
 4079TIP3   OH212169   7.406   3.816   1.424
 4079TIP3    H112170   7.332   3.802   1.485
 4079TIP3    H212171   7.481   3.775   1.471
 4080TIP3   OH212172   6.844   3.853   1.432
 4080TIP3    H112173   6.750   3.861   1.403
 4080TIP3    H212174   6.867   3.762   1.408
 4081TIP3   OH212175   7.108   3.845   1.126
 4081TIP3    H112176   7.202   3.861   1.105
 4081TIP3    H212177   7.062   3.867   1.041
 4082TIP3   OH212178   7.824   3.891   1.621
 4082TIP3    H112179   7.812   3.899   1.717
 4082TIP3    H212180   7.900   3.829   1.616
 4083TIP3   OH212181   6.960   3.878   0.900
 4083TIP3    H112182   6.886   3.838   0.852
 4083TIP3    H212183   7.011   3.917   0.826
 4084TIP3   OH212184   8.065   5.568   1.848
 4084TIP3    H112185   8.062   5.575   1.749
 4084TIP3    H212186   8.137   5.627   1.869
 4085TIP3   OH212187   7.031   4.668   2.268
 4085TIP3    H112188   7.110   4.700   2.316
 4085TIP3    H212189   6.965   4.668   2.340
 4086TIP3   OH212190   7.495   4.128   1.528
 4086TIP3    H112191   7.558   4.080   1.472
 4086TIP3    H212192   7.497   4.077   1.610
 4087TIP3   OH212193   7.012   3.612   1.404
 4087TIP3    H112194   6.977   3.534   1.452
 4087TIP3    H212195   7.058   3.570   1.330
 4088TIP3   OH212196   7.468   4.022   1.817
 4088TIP3    H112197   7.378   4.060   1.827
 4088TIP3    H212198   7.524   4.087   1.864
 4089TIP3   OH212199   7.205   4.406   0.912
 4089TIP3    H112200   7.132   4.342   0.899
 4089TIP3    H212201   7.184   4.441   1.002
 4090TIP3   OH212202   8.108   4.646   1.519
 4090TIP3    H112203   8.111   4.663   1.424
 4090TIP3    H212204   8.020   4.603   1.526
 4091TIP3   OH212205   7.677   3.709   0.784
 4091TIP3    H112206   7.582   3.682   0.785
 4091TIP3    H212207   7.669   3.804   0.765
 4092TIP3   OH212208   7.603   4.732   1.903
 4092TIP3    H112209   7.633   4.713   1.992
 4092TIP3    H212210   7.565   4.821   1.911
 4093TIP3   OH212211   7.764   3.988   0.861
 4093TIP3    H112212   7.850   4.030   0.852
 4093TIP3    H212213   7.708   4.051   0.810
 4094TIP3   OH212214   6.901   4.434   1.582
 4094TIP3    H112215   6.938   4.405   1.496
 4094TIP3    H212216   6.943   4.374   1.644
 4095TIP3   OH212217   7.349   4.573   0.755
 4095TIP3    H112218   7.297   4.656   0.752
 4095TIP3    H212219   7.294   4.516   0.813
 4096TIP3   OH212220   6.784   4.350   2.195
 4096TIP3    H112221   6.798   4.339   2.292
 4096TIP3    H212222   6.710   4.288   2.179
 4097TIP3   OH212223   7.506   4.471   2.215
 4097TIP3    H112224   7.443   4.411   2.171
 4097TIP3    H212225   7.591   4.433   2.185
 4098TIP3   OH212226   7.764   4.993   1.800
 4098TIP3    H112227   7.668   4.989   1.815
 4098TIP3    H212228   7.793   5.043   1.879
 4099TIP3   OH212229   7.865   4.511   1.458
 4099TIP3    H112230   7.770   4.492   1.468
 4099TIP3    H212231   7.898   4.426   1.427
 4100TIP3   OH212232   6.999   4.739   1.205
 4100TIP3    H112233   6.992   4.821   1.153
 4100TIP3    H212234   6.907   4.722   1.227
 4101TIP3   OH212235   6.568   4.042   0.916
 4101TIP3    H112236   6.609   4.129   0.934
 4101TIP3    H212237   6.489   4.046   0.974
 4102TIP3   OH212238   7.131   4.502   1.151
 4102TIP3    H112239   7.097   4.592   1.170
 4102TIP3    H212240   7.097   4.452   1.227
 4103TIP3   OH212241   7.271   5.082   1.676
 4103TIP3    H112242   7.314   5.154   1.626
 4103TIP3    H212243   7.347   5.044   1.723
 4104TIP3   OH212244   6.916   4.975   1.058
 4104TIP3    H112245   6.831   4.983   1.105
 4104TIP3    H212246   6.948   5.068   1.062
 4105TIP3   OH212247   7.654   4.713   1.637
 4105TIP3    H112248   7.641   4.715   1.735
 4105TIP3    H212249   7.738   4.664   1.630
 4106TIP3   OH212250   7.908   5.244   1.683
 4106TIP3    H112251   7.829   5.187   1.681
 4106TIP3    H212252   7.886   5.309   1.612
 4107TIP3   OH212253   6.990   3.857   2.204
 4107TIP3    H112254   6.893   3.858   2.218
 4107TIP3    H212255   7.021   3.805   2.280
 4108TIP3   OH212256   7.764   4.543   0.745
 4108TIP3    H112257   7.772   4.473   0.811
 4108TIP3    H212258   7.854   4.576   0.737
 4109TIP3   OH212259   6.722   4.956   1.834
 4109TIP3    H112260   6.742   4.865   1.860
 4109TIP3    H212261   6.755   5.006   1.910
 4110TIP3   OH212262   7.029   4.572   0.538
 4110TIP3    H112263   7.009   4.481   0.509
 4110TIP3    H212264   7.003   4.570   0.632
 4111TIP3   OH212265   6.946   4.596   0.800
 4111TIP3    H112266   7.005   4.567   0.870
 4111TIP3    H212267   6.949   4.694   0.811
 4112TIP3   OH212268   6.675   4.289   0.997
 4112TIP3    H112269   6.607   4.333   1.053
 4112TIP3    H212270   6.683   4.356   0.926
 4113TIP3   OH212271   7.829   3.947   1.893
 4113TIP3    H112272   7.917   3.967   1.929
 4113TIP3    H212273   7.806   3.863   1.939
 4114TIP3   OH212274   7.687   3.684   1.067
 4114TIP3    H112275   7.687   3.694   0.970
 4114TIP3    H212276   7.733   3.765   1.097
 4115TIP3   OH212277   7.208   4.798   0.724
 4115TIP3    H112278   7.121   4.824   0.762
 4115TIP3    H212279   7.211   4.851   0.643
 4116TIP3   OH212280   7.390   3.859   1.154
 4116TIP3    H112281   7.458   3.928   1.140
 4116TIP3    H212282   7.397   3.846   1.251
 4117TIP3   OH212283   7.664   4.171   1.958
 4117TIP3    H112284   7.693   4.220   2.038
 4117TIP3    H212285   7.724   4.093   1.958
 4118TIP3   OH212286   7.530   3.566   1.254
 4118TIP3    H112287   7.556   3.621   1.331
 4118TIP3    H212288   7.587   3.608   1.184
 4119TIP3   OH212289   6.957   4.866   0.810
 4119TIP3    H112290   6.934   4.939   0.748
 4119TIP3    H212291   6.937   4.907   0.897
 4120TIP3   OH212292   7.053   3.581   1.046
 4120TIP3    H112293   7.050   3.672   1.083
 4120TIP3    H212294   7.149   3.564   1.053
 4121TIP3   OH212295   7.954   4.251   1.364
 4121TIP3    H112296   7.869   4.215   1.335
 4121TIP3    H212297   7.958   4.209   1.453
 4122TIP3   OH212298   6.667   4.492   0.804
 4122TIP3    H112299   6.729   4.567   0.814
 4122TIP3    H212300   6.716   4.438   0.739
 4123TIP3   OH212301   6.612   3.772   0.934
 4123TIP3    H112302   6.618   3.870   0.933
 4123TIP3    H212303   6.530   3.758   0.886
 4124TIP3   OH212304   7.935   5.227   1.278
 4124TIP3    H112305   7.889   5.275   1.205
 4124TIP3    H212306   8.027   5.240   1.254
 4125TIP3   OH212307   7.003   3.492   1.804
 4125TIP3    H112308   6.972   3.459   1.717
 4125TIP3    H212309   6.991   3.414   1.861
 4126TIP3   OH212310   6.527   4.715   1.191
 4126TIP3    H112311   6.462   4.745   1.255
 4126TIP3    H212312   6.491   4.755   1.108
 4127TIP3   OH212313   6.699   5.257   2.259
 4127TIP3    H112314   6.786   5.255   2.304
 4127TIP3    H212315   6.677   5.163   2.256
 4128TIP3   OH212316   7.177   5.212   2.305
 4128TIP3    H112317   7.272   5.194   2.306
 4128TIP3    H212318   7.149   5.152   2.233
 4129TIP3   OH212319   7.814   5.124   2.037
 4129TIP3    H112320   7.809   5.054   2.107
 4129TIP3    H212321   7.892   5.176   2.066
 4130TIP3   OH212322   6.828   4.660   2.459
 4130TIP3    H112323   6.842   4.564   2.466
 4130TIP3    H212324   6.741   4.664   2.413
 4131TIP3   OH212325   6.821   4.318   0.666
 4131TIP3    H112326   6.882   4.287   0.735
 4131TIP3    H212327   6.880   4.319   0.587
 4132TIP3   OH212328   7.434   4.747   2.233
 4132TIP3    H112329   7.392   4.768   2.146
 4132TIP3    H212330   7.463   4.654   2.220
 4133TIP3   OH212331   7.334   4.500   0.494
 4133TIP3    H112332   7.332   4.523   0.589
 4133TIP3    H212333   7.256   4.443   0.485
 4134TIP3   OH212334   7.930   4.753   1.841
 4134TIP3    H112335   8.009   4.794   1.800
 4134TIP3    H212336   7.864   4.822   1.824
 4135TIP3   OH212337   6.948   4.396   2.443
 4135TIP3    H112338   7.023   4.342   2.418
 4135TIP3    H212339   6.976   4.428   2.531
 4136TIP3   OH212340   7.011   4.215   0.873
 4136TIP3    H112341   6.980   4.179   0.958
 4136TIP3    H212342   7.048   4.136   0.829
 4137TIP3   OH212343   7.285   4.279   2.104
 4137TIP3    H112344   7.206   4.336   2.102
 4137TIP3    H212345   7.336   4.313   2.026
 4138TIP3   OH212346   7.115   4.009   0.719
 4138TIP3    H112347   7.090   4.019   0.625
 4138TIP3    H212348   7.213   4.009   0.712
 4139TIP3   OH212349   7.802   4.682   2.236
 4139TIP3    H112350   7.876   4.651   2.182
 4139TIP3    H212351   7.795   4.613   2.304
 4140TIP3   OH212352   7.409   4.068   2.224
 4140TIP3    H112353   7.407   3.990   2.165
 4140TIP3    H212354   7.365   4.136   2.169
 4141TIP3   OH212355   7.408   3.852   2.036
 4141TIP3    H112356   7.437   3.897   1.954
 4141TIP3    H212357   7.314   3.832   2.016
 4142TIP3   OH212358   7.434   4.388   1.909
 4142TIP3    H112359   7.520   4.402   1.867
 4142TIP3    H212360   7.377   4.453   1.862
 4143TIP3   OH212361   8.019   4.358   2.291
 4143TIP3    H112362   8.065   4.274   2.279
 4143TIP3    H212363   8.080   4.421   2.250
 4144TIP3   OH212364   8.065   4.605   2.028
 4144TIP3    H112365   8.014   4.662   1.966
 4144TIP3    H212366   8.147   4.592   1.976
 4145TIP3   OH212367   7.289   4.172   2.462
 4145TIP3    H112368   7.219   4.106   2.478
 4145TIP3    H212369   7.319   4.148   2.372
 4146TIP3   OH212370   7.529   3.614   2.109
 4146TIP3    H112371   7.478   3.695   2.087
 4146TIP3    H212372   7.462   3.544   2.097
 4147TIP3   OH212373   7.667   4.115   2.319
 4147TIP3    H112374   7.647   4.102   2.414
 4147TIP3    H212375   7.579   4.095   2.282
 4148TIP3   OH212376   7.909   4.075   2.173
 4148TIP3    H112377   7.829   4.076   2.229
 4148TIP3    H212378   7.973   4.030   2.232
 4149TIP3   OH212379   8.103   3.973   2.336
 4149TIP3    H112380   8.161   3.900   2.363
 4149TIP3    H212381   8.115   4.036   2.410
 4150TIP3   OH212382   7.122   3.956   2.513
 4150TIP3    H112383   7.126   3.863   2.482
 4150TIP3    H212384   7.158   3.946   2.604
 4151TIP3   OH212385   7.634   3.625   2.363
 4151TIP3    H112386   7.688   3.544   2.359
 4151TIP3    H212387   7.592   3.624   2.275
 4152TIP3   OH212388   7.704   3.843   2.521
 4152TIP3    H112389   7.681   3.772   2.456
 4152TIP3    H212390   7.626   3.902   2.516
 4153TIP3   OH212391   6.942   5.061   0.620
 4153TIP3    H112392   7.021   5.056   0.562
 4153TIP3    H212393   6.880   5.110   0.564
 4154TIP3   OH212394   6.401   4.448   0.847
 4154TIP3    H112395   6.493   4.473   0.823
 4154TIP3    H212396   6.392   4.364   0.796
 4155TIP3   OH212397   8.252   5.307   1.517
 4155TIP3    H112398   8.201   5.224   1.508
 4155TIP3    H212399   8.227   5.331   1.608
 4156TIP3   OH212400   8.223   5.031   2.094
 4156TIP3    H112401   8.156   5.030   2.165
 4156TIP3    H212402   8.264   5.119   2.105
 4157TIP3   OH212403   8.088   5.084   1.538
 4157TIP3    H112404   8.021   5.124   1.597
 4157TIP3    H212405   8.032   5.035   1.474
 4158TIP3   OH212406   7.989   4.215   1.063
 4158TIP3    H112407   8.079   4.174   1.072
 4158TIP3    H212408   7.984   4.260   1.148
 4159TIP3   OH212409   6.639   4.312   1.814
 4159TIP3    H112410   6.635   4.285   1.720
 4159TIP3    H212411   6.737   4.318   1.827
 4160TIP3   OH212412   6.857   4.009   2.478
 4160TIP3    H112413   6.955   4.004   2.484
 4160TIP3    H212414   6.835   3.921   2.515
 4161TIP3   OH212415   6.818   3.701   1.815
 4161TIP3    H112416   6.881   3.626   1.822
 4161TIP3    H212417   6.880   3.776   1.805
 4162TIP3   OH212418   6.619   3.972   1.886
 4162TIP3    H112419   6.669   3.971   1.802
 4162TIP3    H212420   6.640   4.061   1.919
 4163TIP3   OH212421   6.605   3.473   1.384
 4163TIP3    H112422   6.513   3.471   1.415
 4163TIP3    H212423   6.599   3.535   1.308
 4164TIP3   OH212424   7.762   5.181   0.880
 4164TIP3    H112425   7.780   5.180   0.784
 4164TIP3    H212426   7.825   5.245   0.913
 4165TIP3   OH212427   6.824   3.550   2.198
 4165TIP3    H112428   6.776   3.555   2.282
 4165TIP3    H212429   6.760   3.592   2.137
 4166TIP3   OH212430   6.864   4.988   2.278
 4166TIP3    H112431   6.772   4.963   2.260
 4166TIP3    H212432   6.873   4.967   2.372
 4167TIP3   OH212433   7.047   5.021   1.829
 4167TIP3    H112434   6.992   5.091   1.789
 4167TIP3    H212435   7.131   5.040   1.781
 4168TIP3   OH212436   7.485   5.262   1.963
 4168TIP3    H112437   7.527   5.262   2.052
 4168TIP3    H212438   7.550   5.314   1.912
 4169TIP3   OH212439   7.664   5.416   1.825
 4169TIP3    H112440   7.735   5.366   1.783
 4169TIP3    H212441   7.716   5.473   1.886
 4170TIP3   OH212442   6.726   5.288   1.850
 4170TIP3    H112443   6.635   5.310   1.820
 4170TIP3    H212444   6.719   5.316   1.942
 4171TIP3   OH212445   6.958   5.256   1.708
 4171TIP3    H112446   6.872   5.268   1.755
 4171TIP3    H212447   6.934   5.282   1.618
 4172TIP3   OH212448   7.381   5.282   1.506
 4172TIP3    H112449   7.306   5.298   1.445
 4172TIP3    H212450   7.391   5.369   1.548
 4173TIP3   OH212451   7.648   5.216   1.559
 4173TIP3    H112452   7.555   5.238   1.538
 4173TIP3    H212453   7.695   5.292   1.520
 4174TIP3   OH212454   7.837   5.403   1.469
 4174TIP3    H112455   7.834   5.491   1.426
 4174TIP3    H212456   7.869   5.346   1.396
 4175TIP3   OH212457   6.646   5.087   1.602
 4175TIP3    H112458   6.669   5.052   1.691
 4175TIP3    H212459   6.699   5.027   1.546
 4176TIP3   OH212460   6.822   4.936   1.451
 4176TIP3    H112461   6.838   4.855   1.505
 4176TIP3    H212462   6.911   4.975   1.450
 4177TIP3   OH212463   7.095   5.035   1.456
 4177TIP3    H112464   7.122   4.942   1.446
 4177TIP3    H212465   7.139   5.056   1.540
 4178TIP3   OH212466   7.619   3.656   1.504
 4178TIP3    H112467   7.605   3.602   1.582
 4178TIP3    H212468   7.717   3.650   1.492
 4179TIP3   OH212469   6.914   3.399   1.557
 4179TIP3    H112470   6.820   3.367   1.560
 4179TIP3    H212471   6.961   3.313   1.552
 4180TIP3   OH212472   6.704   3.270   1.208
 4180TIP3    H112473   6.732   3.327   1.134
 4180TIP3    H212474   6.675   3.336   1.274
 4181TIP3   OH212475   7.361   3.427   1.440
 4181TIP3    H112476   7.412   3.474   1.371
 4181TIP3    H212477   7.388   3.476   1.519
 4182TIP3   OH212478   7.872   3.560   1.420
 4182TIP3    H112479   7.893   3.540   1.328
 4182TIP3    H212480   7.869   3.471   1.460
 4183TIP3   OH212481   6.419   4.839   0.978
 4183TIP3    H112482   6.333   4.809   0.943
 4183TIP3    H212483   6.410   4.934   0.960
 4184TIP3   OH212484   6.821   3.426   0.969
 4184TIP3    H112485   6.869   3.364   0.910
 4184TIP3    H212486   6.894   3.480   1.004
 4185TIP3   OH212487   7.329   3.607   1.067
 4185TIP3    H112488   7.390   3.562   1.128
 4185TIP3    H212489   7.350   3.700   1.091
 4186TIP3   OH212490   7.124   3.680   2.443
 4186TIP3    H112491   7.085   3.610   2.499
 4186TIP3    H212492   7.217   3.679   2.475
 4187TIP3   OH212493   7.372   3.674   2.567
 4187TIP3    H112494   7.459   3.649   2.532
 4187TIP3    H212495   7.358   3.604   2.634
 4188TIP3   OH212496   6.467   4.834   0.643
 4188TIP3    H112497   6.460   4.892   0.720
 4188TIP3    H212498   6.562   4.818   0.636
 4189TIP3   OH212499   8.129   5.301   1.849
 4189TIP3    H112500   8.054   5.263   1.799
 4189TIP3    H212501   8.103   5.395   1.854
 4190TIP3   OH212502   0.060   5.198   2.814
 4190TIP3    H112503   0.022   5.287   2.815
 4190TIP3    H212504  -0.010   5.149   2.766
 4191TIP3   OH212505   0.082   5.178   3.183
 4191TIP3    H112506   0.099   5.156   3.276
 4191TIP3    H212507   0.026   5.105   3.154
 4192TIP3   OH212508   0.304   5.499   2.881
 4192TIP3    H112509   0.288   5.432   2.948
 4192TIP3    H212510   0.332   5.575   2.935
 4193TIP3   OH212511   0.004   5.986   2.883
 4193TIP3    H112512   0.051   5.904   2.863
 4193TIP3    H212513  -0.066   5.954   2.943
 4194TIP3   OH212514  -0.117   5.381   3.272
 4194TIP3    H112515  -0.090   5.318   3.204
 4194TIP3    H212516  -0.035   5.434   3.281
 4195TIP3   OH212517   0.872   4.740   3.245
 4195TIP3    H112518   0.902   4.824   3.285
 4195TIP3    H212519   0.893   4.755   3.152
 4196TIP3   OH212520   0.265   4.920   3.280
 4196TIP3    H112521   0.310   4.835   3.297
 4196TIP3    H212522   0.236   4.907   3.188
 4197TIP3   OH212523   0.303   4.678   2.864
 4197TIP3    H112524   0.374   4.662   2.930
 4197TIP3    H212525   0.356   4.710   2.789
 4198TIP3   OH212526   0.946   4.951   3.414
 4198TIP3    H112527   0.861   4.996   3.393
 4198TIP3    H212528   0.959   4.979   3.505
 4199TIP3   OH212529  -0.077   5.425   2.696
 4199TIP3    H112530  -0.095   5.382   2.612
 4199TIP3    H212531  -0.003   5.485   2.673
 4200TIP3   OH212532   0.508   4.679   3.040
 4200TIP3    H112533   0.498   4.629   3.122
 4200TIP3    H212534   0.561   4.756   3.069
 4201TIP3   OH212535   0.369   5.741   3.043
 4201TIP3    H112536   0.279   5.733   3.083
 4201TIP3    H212537   0.362   5.830   3.002
 4202TIP3   OH212538   0.664   4.641   3.411
 4202TIP3    H112539   0.576   4.665   3.376
 4202TIP3    H212540   0.724   4.673   3.341
 4203TIP3   OH212541  -0.036   4.272   3.380
 4203TIP3    H112542  -0.045   4.176   3.398
 4203TIP3    H212543  -0.084   4.310   3.454
 4204TIP3   OH212544   0.067   5.765   2.706
 4204TIP3    H112545   0.114   5.682   2.684
 4204TIP3    H212546   0.133   5.832   2.675
 4205TIP3   OH212547   0.192   5.537   2.631
 4205TIP3    H112548   0.226   5.471   2.567
 4205TIP3    H212549   0.245   5.518   2.711
 4206TIP3   OH212550   0.596   5.651   3.392
 4206TIP3    H112551   0.583   5.575   3.331
 4206TIP3    H212552   0.577   5.727   3.333
 4207TIP3   OH212553  -0.109   5.064   2.651
 4207TIP3    H112554  -0.191   5.012   2.672
 4207TIP3    H212555  -0.092   5.043   2.559
 4208TIP3   OH212556  -0.133   4.832   2.369
 4208TIP3    H112557  -0.060   4.888   2.404
 4208TIP3    H212558  -0.082   4.768   2.317
 4209TIP3   OH212559   0.792   5.294   3.238
 4209TIP3    H112560   0.707   5.344   3.241
 4209TIP3    H212561   0.822   5.317   3.147
 4210TIP3   OH212562   0.239   5.131   2.618
 4210TIP3    H112563   0.185   5.152   2.698
 4210TIP3    H212564   0.323   5.104   2.660
 4211TIP3   OH212565   0.471   5.168   3.536
 4211TIP3    H112566   0.468   5.251   3.587
 4211TIP3    H212567   0.386   5.173   3.488
 4212TIP3   OH212568   0.128   5.738   3.161
 4212TIP3    H112569   0.109   5.821   3.208
 4212TIP3    H212570   0.113   5.669   3.229
 4213TIP3   OH212571   0.078   4.986   2.447
 4213TIP3    H112572   0.132   5.048   2.501
 4213TIP3    H212573   0.106   5.012   2.356
 4214TIP3   OH212574   0.593   4.227   2.496
 4214TIP3    H112575   0.510   4.249   2.544
 4214TIP3    H212576   0.608   4.309   2.444
 4215TIP3   OH212577   0.392   5.590   2.049
 4215TIP3    H112578   0.400   5.681   2.039
 4215TIP3    H212579   0.486   5.558   2.033
 4216TIP3   OH212580   0.835   6.002   3.440
 4216TIP3    H112581   0.833   5.905   3.454
 4216TIP3    H212582   0.752   6.028   3.485
 4217TIP3   OH212583  -0.056   5.838   2.166
 4217TIP3    H112584  -0.011   5.759   2.131
 4217TIP3    H212585  -0.061   5.822   2.260
 4218TIP3   OH212586  -0.051   5.863   2.452
 4218TIP3    H112587  -0.116   5.866   2.524
 4218TIP3    H212588   0.030   5.845   2.504
 4219TIP3   OH212589   0.723   5.128   3.714
 4219TIP3    H112590   0.641   5.139   3.664
 4219TIP3    H212591   0.740   5.032   3.702
 4220TIP3   OH212592   0.264   4.475   3.714
 4220TIP3    H112593   0.334   4.448   3.778
 4220TIP3    H212594   0.182   4.457   3.763
 4221TIP3   OH212595   0.489   4.903   3.633
 4221TIP3    H112596   0.439   4.900   3.718
 4221TIP3    H212597   0.468   4.992   3.599
 4222TIP3   OH212598   0.157   5.043   2.200
 4222TIP3    H112599   0.118   5.012   2.116
 4222TIP3    H212600   0.242   5.079   2.169
 4223TIP3   OH212601  -0.147   4.416   2.467
 4223TIP3    H112602  -0.158   4.412   2.566
 4223TIP3    H212603  -0.176   4.324   2.446
 4224TIP3   OH212604   0.031   4.856   2.786
 4224TIP3    H112605  -0.022   4.927   2.745
 4224TIP3    H212606   0.079   4.819   2.710
 4225TIP3   OH212607   0.226   5.114   3.857
 4225TIP3    H112608   0.200   5.042   3.918
 4225TIP3    H212609   0.320   5.125   3.882
 4226TIP3   OH212610   0.179   4.874   3.022
 4226TIP3    H112611   0.119   4.902   2.950
 4226TIP3    H212612   0.217   4.796   2.977
 4227TIP3   OH212613   0.189   5.119   3.445
 4227TIP3    H112614   0.224   5.052   3.383
 4227TIP3    H212615   0.161   5.061   3.519
 4228TIP3   OH212616  -0.127   4.576   3.105
 4228TIP3    H112617  -0.217   4.607   3.125
 4228TIP3    H212618  -0.079   4.594   3.186
 4229TIP3   OH212619   0.355   4.659   3.323
 4229TIP3    H112620   0.319   4.673   3.413
 4229TIP3    H212621   0.289   4.596   3.288
 4230TIP3   OH212622   0.531   6.344   3.539
 4230TIP3    H112623   0.526   6.372   3.446
 4230TIP3    H212624   0.604   6.399   3.573
 4231TIP3   OH212625  -0.043   4.899   3.212
 4231TIP3    H112626   0.031   4.873   3.154
 4231TIP3    H212627  -0.020   4.858   3.297
 4232TIP3   OH212628  -0.049   4.793   3.502
 4232TIP3    H112629  -0.115   4.867   3.494
 4232TIP3    H212630   0.022   4.840   3.550
 4233TIP3   OH212631   0.557   5.436   3.224
 4233TIP3    H112632   0.581   5.488   3.144
 4233TIP3    H212633   0.474   5.392   3.196
 4234TIP3   OH212634   0.112   4.507   2.469
 4234TIP3    H112635   0.015   4.492   2.468
 4234TIP3    H212636   0.120   4.602   2.492
 4235TIP3   OH212637   0.048   5.522   3.590
 4235TIP3    H112638   0.083   5.520   3.680
 4235TIP3    H212639  -0.005   5.604   3.591
 4236TIP3   OH212640   0.184   4.759   2.568
 4236TIP3    H112641   0.280   4.764   2.582
 4236TIP3    H212642   0.167   4.839   2.514
 4237TIP3   OH212643  -0.205   5.349   2.440
 4237TIP3    H112644  -0.262   5.424   2.418
 4237TIP3    H212645  -0.267   5.290   2.483
 4238TIP3   OH212646   0.013   5.246   3.964
 4238TIP3    H112647  -0.047   5.184   3.922
 4238TIP3    H212648   0.098   5.220   3.922
 4239TIP3   OH212649   0.221   5.772   3.485
 4239TIP3    H112650   0.125   5.780   3.499
 4239TIP3    H212651   0.255   5.824   3.561
 4240TIP3   OH212652   0.625   4.854   2.400
 4240TIP3    H112653   0.563   4.810   2.337
 4240TIP3    H212654   0.623   4.943   2.360
 4241TIP3   OH212655   0.847   5.710   3.479
 4241TIP3    H112656   0.749   5.704   3.471
 4241TIP3    H212657   0.873   5.679   3.389
 4242TIP3   OH212658   0.337   5.664   2.312
 4242TIP3    H112659   0.298   5.594   2.368
 4242TIP3    H212660   0.342   5.622   2.226
 4243TIP3   OH212661   0.331   5.298   3.138
 4243TIP3    H112662   0.237   5.271   3.152
 4243TIP3    H212663   0.364   5.218   3.093
 4244TIP3   OH212664   0.123   5.501   3.327
 4244TIP3    H112665   0.109   5.511   3.424
 4244TIP3    H212666   0.209   5.457   3.324
 4245TIP3   OH212667   0.094   5.404   2.206
 4245TIP3    H112668   0.136   5.377   2.290
 4245TIP3    H212669   0.005   5.365   2.214
 4246TIP3   OH212670   0.360   6.030   3.371
 4246TIP3    H112671   0.278   5.977   3.366
 4246TIP3    H212672   0.342   6.099   3.303
 4247TIP3   OH212673   0.424   5.854   2.038
 4247TIP3    H112674   0.430   5.907   1.947
 4247TIP3    H212675   0.352   5.918   2.077
 4248TIP3   OH212676   0.250   5.341   2.440
 4248TIP3    H112677   0.238   5.264   2.500
 4248TIP3    H212678   0.345   5.329   2.416
 4249TIP3   OH212679   0.277   4.717   3.583
 4249TIP3    H112680   0.364   4.752   3.612
 4249TIP3    H212681   0.271   4.633   3.634
 4250TIP3   OH212682   0.169   4.455   2.748
 4250TIP3    H112683   0.145   4.475   2.656
 4250TIP3    H212684   0.202   4.542   2.780
 4251TIP3   OH212685  -0.154   4.655   2.842
 4251TIP3    H112686  -0.087   4.726   2.831
 4251TIP3    H212687  -0.151   4.639   2.938
 4252TIP3   OH212688   0.129   4.953   3.649
 4252TIP3    H112689   0.159   5.008   3.724
 4252TIP3    H212690   0.186   4.873   3.657
 4253TIP3   OH212691   0.002   4.364   2.961
 4253TIP3    H112692  -0.026   4.448   3.003
 4253TIP3    H212693   0.053   4.398   2.884
 4254TIP3   OH212694   0.756   4.862   3.632
 4254TIP3    H112695   0.658   4.860   3.639
 4254TIP3    H212696   0.768   4.815   3.548
 4255TIP3   OH212697   0.410   5.054   3.019
 4255TIP3    H112698   0.332   4.997   3.031
 4255TIP3    H212699   0.480   5.005   3.067
 4256TIP3   OH212700   0.381   6.009   2.969
 4256TIP3    H112701   0.339   6.058   2.895
 4256TIP3    H212702   0.475   6.028   2.948
 4257TIP3   OH212703   0.288   5.902   3.712
 4257TIP3    H112704   0.265   5.850   3.792
 4257TIP3    H212705   0.348   5.970   3.749
 4258TIP3   OH212706   0.078   5.619   2.030
 4258TIP3    H112707   0.098   5.549   2.096
 4258TIP3    H212708   0.143   5.601   1.962
 4259TIP3   OH212709  -0.194   5.283   2.165
 4259TIP3    H112710  -0.207   5.286   2.262
 4259TIP3    H212711  -0.204   5.186   2.149
 4260TIP3   OH212712   0.378   5.544   3.529
 4260TIP3    H112713   0.456   5.585   3.487
 4260TIP3    H212714   0.311   5.613   3.514
 4261TIP3   OH212715  -0.394   4.813   2.464
 4261TIP3    H112716  -0.421   4.805   2.370
 4261TIP3    H212717  -0.297   4.810   2.454
 4262TIP3   OH212718   0.247   5.471   3.935
 4262TIP3    H112719   0.317   5.439   3.877
 4262TIP3    H212720   0.247   5.404   4.005
 4263TIP3   OH212721   0.387   5.121   2.072
 4263TIP3    H112722   0.370   5.077   1.986
 4263TIP3    H212723   0.353   5.211   2.049
 4264TIP3   OH212724  -0.178   4.592   3.647
 4264TIP3    H112725  -0.125   4.653   3.594
 4264TIP3    H212726  -0.216   4.656   3.714
 4265TIP3   OH212727  -0.058   5.240   3.547
 4265TIP3    H112728   0.037   5.223   3.522
 4265TIP3    H212729  -0.072   5.323   3.493
 4266TIP3   OH212730   0.476   5.137   3.975
 4266TIP3    H112731   0.527   5.057   3.994
 4266TIP3    H212732   0.543   5.196   3.938
 4267TIP3   OH212733   0.509   5.397   3.716
 4267TIP3    H112734   0.452   5.452   3.657
 4267TIP3    H212735   0.598   5.419   3.678
 4268TIP3   OH212736   0.003   4.406   3.783
 4268TIP3    H112737  -0.059   4.474   3.752
 4268TIP3    H212738  -0.051   4.326   3.771
 4269TIP3   OH212739   0.127   4.912   4.017
 4269TIP3    H112740   0.159   4.908   4.109
 4269TIP3    H212741   0.042   4.867   4.025
 4270TIP3   OH212742   0.361   4.851   3.865
 4270TIP3    H112743   0.289   4.851   3.931
 4270TIP3    H212744   0.438   4.824   3.919
 4271TIP3   OH212745   0.589   4.799   4.014
 4271TIP3    H112746   0.601   4.703   4.030
 4271TIP3    H212747   0.583   4.835   4.105
 4272TIP3   OH212748   0.094   4.415   4.045
 4272TIP3    H112749   0.158   4.341   4.042
 4272TIP3    H212750   0.054   4.410   3.956
 4273TIP3   OH212751   0.171   4.625   4.200
 4273TIP3    H112752   0.151   4.548   4.143
 4273TIP3    H212753   0.083   4.669   4.202
 4274TIP3   OH212754   0.638   6.095   2.930
 4274TIP3    H112755   0.658   6.130   3.019
 4274TIP3    H212756   0.695   6.148   2.873
 4275TIP3   OH212757   0.663   6.122   3.210
 4275TIP3    H112758   0.615   6.037   3.206
 4275TIP3    H212759   0.735   6.097   3.270
 4276TIP3   OH212760   0.713   5.798   3.781
 4276TIP3    H112761   0.640   5.809   3.845
 4276TIP3    H212762   0.754   5.887   3.784
 4277TIP3   OH212763   0.523   5.312   2.402
 4277TIP3    H112764   0.588   5.376   2.370
 4277TIP3    H212765   0.570   5.274   2.480
 4278TIP3   OH212766   0.652   5.180   2.607
 4278TIP3    H112767   0.585   5.137   2.664
 4278TIP3    H212768   0.716   5.216   2.672
 4279TIP3   OH212769   0.710   5.574   3.039
 4279TIP3    H112770   0.760   5.505   2.990
 4279TIP3    H212771   0.705   5.646   2.973
 4280TIP3   OH212772   0.537   5.871   3.231
 4280TIP3    H112773   0.467   5.917   3.282
 4280TIP3    H212774   0.486   5.827   3.160
 4281TIP3   OH212775   0.591   5.088   2.251
 4281TIP3    H112776   0.519   5.087   2.184
 4281TIP3    H212777   0.560   5.164   2.306
 4282TIP3   OH212778   0.459   4.762   2.206
 4282TIP3    H112779   0.418   4.793   2.124
 4282TIP3    H212780   0.437   4.666   2.202
 4283TIP3   OH212781   0.465   5.038   2.750
 4283TIP3    H112782   0.471   4.941   2.740
 4283TIP3    H212783   0.450   5.048   2.847
 4284TIP3   OH212784   0.756   5.462   3.610
 4284TIP3    H112785   0.827   5.396   3.598
 4284TIP3    H212786   0.778   5.530   3.545
 4285TIP3   OH212787   0.938   5.262   3.617
 4285TIP3    H112788   0.864   5.214   3.659
 4285TIP3    H212789   1.012   5.199   3.635
 4286TIP3   OH212790   0.401   4.497   2.194
 4286TIP3    H112791   0.474   4.461   2.247
 4286TIP3    H212792   0.328   4.435   2.209
 4287TIP3   OH212793   0.464   4.754   2.643
 4287TIP3    H112794   0.503   4.665   2.659
 4287TIP3    H212795   0.521   4.785   2.571
 4288TIP3   OH212796   0.622   4.923   3.143
 4288TIP3    H112797   0.707   4.947   3.100
 4288TIP3    H212798   0.637   4.961   3.231
 4289TIP3   OH212799   0.695   5.071   3.371
 4289TIP3    H112800   0.617   5.105   3.420
 4289TIP3    H212801   0.727   5.152   3.327
 4290TIP3   OH212802   1.143   4.664   3.926
 4290TIP3    H112803   1.205   4.599   3.886
 4290TIP3    H212804   1.114   4.715   3.848
 4291TIP3   OH212805   0.570   4.504   2.684
 4291TIP3    H112806   0.617   4.487   2.767
 4291TIP3    H212807   0.509   4.428   2.681
 4292TIP3   OH212808   1.012   4.799   3.729
 4292TIP3    H112809   0.927   4.843   3.750
 4292TIP3    H212810   0.980   4.726   3.674
 4293TIP3   OH212811   0.650   4.433   2.319
 4293TIP3    H112812   0.686   4.364   2.260
 4293TIP3    H212813   0.717   4.504   2.312
 4294TIP3   OH212814   0.218   5.954   2.590
 4294TIP3    H112815   0.273   5.951   2.509
 4294TIP3    H212816   0.256   6.030   2.637
 4295TIP3   OH212817   0.112   6.193   3.523
 4295TIP3    H112818   0.177   6.134   3.484
 4295TIP3    H212819   0.170   6.252   3.576
 4296TIP3   OH212820   0.913   4.562   3.613
 4296TIP3    H112821   0.824   4.551   3.576
 4296TIP3    H212822   0.948   4.470   3.604
 4297TIP3   OH212823   0.096   6.011   3.255
 4297TIP3    H112824   0.009   6.038   3.288
 4297TIP3    H212825   0.122   6.091   3.207
 4298TIP3   OH212826   0.322   6.204   3.161
 4298TIP3    H112827   0.297   6.284   3.111
 4298TIP3    H212828   0.337   6.138   3.090
 4299TIP3   OH212829   0.136   4.481   3.251
 4299TIP3    H112830   0.080   4.406   3.278
 4299TIP3    H212831   0.194   4.440   3.184
 4300TIP3   OH212832   0.639   4.363   3.139
 4300TIP3    H112833   0.675   4.412   3.062
 4300TIP3    H212834   0.543   4.376   3.128
 4301TIP3   OH212835   0.734   4.457   2.901
 4301TIP3    H112836   0.808   4.406   2.862
 4301TIP3    H212837   0.767   4.548   2.886
 4302TIP3   OH212838  -0.169   4.209   3.134
 4302TIP3    H112839  -0.126   4.260   3.062
 4302TIP3    H212840  -0.126   4.249   3.212
 4303TIP3   OH212841   0.358   4.366   3.109
 4303TIP3    H112842   0.352   4.326   3.021
 4303TIP3    H212843   0.343   4.288   3.168
 4304TIP3   OH212844   0.388   4.292   2.675
 4304TIP3    H112845   0.303   4.338   2.693
 4304TIP3    H212846   0.371   4.206   2.719
 4305TIP3   OH212847  -0.170   4.400   2.734
 4305TIP3    H112848  -0.174   4.350   2.817
 4305TIP3    H212849  -0.181   4.492   2.766
 4306TIP3   OH212850   0.367   5.930   2.362
 4306TIP3    H112851   0.362   5.834   2.346
 4306TIP3    H212852   0.319   5.964   2.282
 4307TIP3   OH212853   0.651   4.528   4.044
 4307TIP3    H112854   0.669   4.497   4.136
 4307TIP3    H212855   0.741   4.523   4.005
 4308TIP3   OH212856   0.587   6.076   3.537
 4308TIP3    H112857   0.508   6.046   3.487
 4308TIP3    H212858   0.567   6.172   3.544
 4309TIP3   OH212859   1.855   5.453   2.302
 4309TIP3    H112860   1.823   5.543   2.280
 4309TIP3    H212861   1.781   5.401   2.266
 4310TIP3   OH212862   1.857   5.454   2.687
 4310TIP3    H112863   1.889   5.425   2.774
 4310TIP3    H212864   1.813   5.374   2.654
 4311TIP3   OH212865   1.152   5.344   3.049
 4311TIP3    H112866   1.181   5.275   3.110
 4311TIP3    H212867   1.230   5.401   3.046
 4312TIP3   OH212868   2.100   5.757   2.367
 4312TIP3    H112869   2.080   5.686   2.430
 4312TIP3    H212870   2.129   5.829   2.426
 4313TIP3   OH212871   1.126   5.758   2.772
 4313TIP3    H112872   1.117   5.661   2.773
 4313TIP3    H212873   1.223   5.767   2.767
 4314TIP3   OH212874   0.832   4.959   2.555
 4314TIP3    H112875   0.782   5.040   2.573
 4314TIP3    H212876   0.762   4.905   2.513
 4315TIP3   OH212877   0.889   5.246   2.736
 4315TIP3    H112878   0.938   5.168   2.769
 4315TIP3    H212879   0.945   5.277   2.664
 4316TIP3   OH212880   1.753   6.222   2.387
 4316TIP3    H112881   1.794   6.149   2.335
 4316TIP3    H212882   1.735   6.177   2.470
 4317TIP3   OH212883   1.651   5.680   2.734
 4317TIP3    H112884   1.690   5.603   2.688
 4317TIP3    H212885   1.734   5.725   2.759
 4318TIP3   OH212886   2.665   4.996   2.730
 4318TIP3    H112887   2.696   5.078   2.772
 4318TIP3    H212888   2.694   5.010   2.638
 4319TIP3   OH212889   2.066   5.177   2.763
 4319TIP3    H112890   2.102   5.088   2.784
 4319TIP3    H212891   2.032   5.162   2.672
 4320TIP3   OH212892   1.409   4.838   2.726
 4320TIP3    H112893   1.384   4.910   2.665
 4320TIP3    H212894   1.359   4.764   2.685
 4321TIP3   OH212895   2.105   4.934   2.353
 4321TIP3    H112896   2.177   4.914   2.417
 4321TIP3    H212897   2.156   4.967   2.277
 4322TIP3   OH212898   1.036   5.039   2.837
 4322TIP3    H112899   1.119   5.020   2.885
 4322TIP3    H212900   1.050   4.983   2.757
 4323TIP3   OH212901   1.475   5.237   2.633
 4323TIP3    H112902   1.569   5.213   2.645
 4323TIP3    H212903   1.436   5.154   2.600
 4324TIP3   OH212904   2.738   5.204   2.904
 4324TIP3    H112905   2.656   5.253   2.884
 4324TIP3    H212906   2.764   5.244   2.989
 4325TIP3   OH212907   1.400   4.822   3.165
 4325TIP3    H112908   1.340   4.859   3.097
 4325TIP3    H212909   1.347   4.838   3.246
 4326TIP3   OH212910   1.743   5.672   2.171
 4326TIP3    H112911   1.702   5.656   2.085
 4326TIP3    H212912   1.698   5.755   2.198
 4327TIP3   OH212913   1.507   5.599   2.957
 4327TIP3    H112914   1.446   5.666   2.994
 4327TIP3    H212915   1.548   5.647   2.882
 4328TIP3   OH212916   2.305   4.926   2.541
 4328TIP3    H112917   2.269   4.920   2.631
 4328TIP3    H212918   2.363   5.004   2.549
 4329TIP3   OH212919   1.273   4.936   2.946
 4329TIP3    H112920   1.335   5.008   2.971
 4329TIP3    H212921   1.322   4.896   2.871
 4330TIP3   OH212922   1.336   5.794   3.057
 4330TIP3    H112923   1.310   5.881   3.021
 4330TIP3    H212924   1.257   5.775   3.111
 4331TIP3   OH212925   0.724   5.482   2.292
 4331TIP3    H112926   0.685   5.510   2.208
 4331TIP3    H212927   0.757   5.567   2.328
 4332TIP3   OH212928   2.169   6.002   2.535
 4332TIP3    H112929   2.079   5.990   2.575
 4332TIP3    H212930   2.156   6.086   2.488
 4333TIP3   OH212931   2.456   4.893   2.888
 4333TIP3    H112932   2.373   4.931   2.858
 4333TIP3    H212933   2.521   4.928   2.823
 4334TIP3   OH212934   1.752   4.541   2.883
 4334TIP3    H112935   1.736   4.445   2.899
 4334TIP3    H212936   1.674   4.579   2.929
 4335TIP3   OH212937   1.866   6.045   2.206
 4335TIP3    H112938   1.915   5.961   2.189
 4335TIP3    H212939   1.930   6.108   2.165
 4336TIP3   OH212940   2.010   5.831   2.117
 4336TIP3    H112941   1.976   5.751   2.076
 4336TIP3    H212942   2.049   5.795   2.200
 4337TIP3   OH212943   2.393   5.910   2.876
 4337TIP3    H112944   2.379   5.832   2.818
 4337TIP3    H212945   2.375   5.984   2.814
 4338TIP3   OH212946   1.687   5.305   2.137
 4338TIP3    H112947   1.606   5.357   2.117
 4338TIP3    H212948   1.729   5.299   2.050
 4339TIP3   OH212949   1.643   5.089   1.849
 4339TIP3    H112950   1.711   5.144   1.893
 4339TIP3    H212951   1.701   5.026   1.801
 4340TIP3   OH212952   2.587   5.548   2.724
 4340TIP3    H112953   2.503   5.599   2.727
 4340TIP3    H212954   2.618   5.571   2.634
 4341TIP3   OH212955   2.033   5.389   2.103
 4341TIP3    H112956   1.978   5.411   2.182
 4341TIP3    H212957   2.118   5.365   2.146
 4342TIP3   OH212958   2.266   5.424   3.021
 4342TIP3    H112959   2.263   5.508   3.070
 4342TIP3    H212960   2.179   5.426   2.977
 4343TIP3   OH212961   1.264   5.383   2.524
 4343TIP3    H112962   1.222   5.326   2.457
 4343TIP3    H212963   1.340   5.329   2.553
 4344TIP3   OH212964   1.396   5.798   2.669
 4344TIP3    H112965   1.373   5.761   2.583
 4344TIP3    H212966   1.484   5.759   2.686
 4345TIP3   OH212967   1.404   5.353   2.880
 4345TIP3    H112968   1.433   5.329   2.789
 4345TIP3    H212969   1.445   5.440   2.894
 4346TIP3   OH212970   1.928   5.993   2.655
 4346TIP3    H112971   1.914   6.072   2.710
 4346TIP3    H212972   1.910   5.919   2.717
 4347TIP3   OH212973   1.540   5.910   3.202
 4347TIP3    H112974   1.478   5.971   3.248
 4347TIP3    H212975   1.476   5.857   3.151
 4348TIP3   OH212976   1.870   5.245   1.932
 4348TIP3    H112977   1.929   5.306   1.981
 4348TIP3    H212978   1.897   5.265   1.838
 4349TIP3   OH212979   1.295   5.465   3.307
 4349TIP3    H112980   1.299   5.554   3.348
 4349TIP3    H212981   1.200   5.444   3.320
 4350TIP3   OH212982   1.619   5.920   2.209
 4350TIP3    H112983   1.699   5.975   2.218
 4350TIP3    H212984   1.557   5.978   2.163
 4351TIP3   OH212985   1.334   6.075   3.290
 4351TIP3    H112986   1.297   6.080   3.200
 4351TIP3    H212987   1.254   6.054   3.344
 4352TIP3   OH212988   2.389   4.484   1.984
 4352TIP3    H112989   2.305   4.507   2.028
 4352TIP3    H212990   2.404   4.564   1.929
 4353TIP3   OH212991   1.130   5.227   2.329
 4353TIP3    H112992   1.062   5.271   2.274
 4353TIP3    H212993   1.094   5.138   2.338
 4354TIP3   OH212994   2.190   5.849   1.532
 4354TIP3    H112995   2.200   5.945   1.514
 4354TIP3    H212996   2.282   5.818   1.519
 4355TIP3   OH212997   0.912   5.611   3.236
 4355TIP3    H112998   0.843   5.591   3.168
 4355TIP3    H212999   0.949   5.522   3.255
 4356TIP3   OH213000   0.765   5.803   2.867
 4356TIP3    H113001   0.862   5.803   2.862
 4356TIP3    H213002   0.749   5.883   2.920
 4357TIP3   OH213003   2.624   6.258   2.917
 4357TIP3    H113004   2.628   6.162   2.933
 4357TIP3    H213005   2.543   6.281   2.969
 4358TIP3   OH213006   1.735   6.038   3.060
 4358TIP3    H113007   1.732   6.131   3.091
 4358TIP3    H213008   1.663   5.998   3.113
 4359TIP3   OH213009   1.503   6.171   2.008
 4359TIP3    H113010   1.450   6.149   1.929
 4359TIP3    H213011   1.463   6.254   2.038
 4360TIP3   OH213012   0.937   6.018   2.396
 4360TIP3    H113013   0.982   6.008   2.483
 4360TIP3    H213014   0.883   5.938   2.394
 4361TIP3   OH213015   1.701   6.075   1.648
 4361TIP3    H113016   1.758   6.002   1.613
 4361TIP3    H213017   1.733   6.081   1.740
 4362TIP3   OH213018   1.753   6.122   1.917
 4362TIP3    H113019   1.663   6.133   1.956
 4362TIP3    H213020   1.798   6.075   1.988
 4363TIP3   OH213021   2.515   5.384   3.201
 4363TIP3    H113022   2.435   5.393   3.148
 4363TIP3    H213023   2.533   5.288   3.193
 4364TIP3   OH213024   1.116   5.793   3.219
 4364TIP3    H113025   1.164   5.778   3.303
 4364TIP3    H213026   1.041   5.730   3.227
 4365TIP3   OH213027   1.515   4.618   3.009
 4365TIP3    H113028   1.428   4.586   2.979
 4365TIP3    H213029   1.487   4.696   3.060
 4366TIP3   OH213030   2.051   4.731   3.205
 4366TIP3    H113031   2.119   4.701   3.268
 4366TIP3    H213032   1.967   4.712   3.252
 4367TIP3   OH213033   2.286   5.160   3.120
 4367TIP3    H113034   2.236   5.158   3.205
 4367TIP3    H213035   2.263   5.247   3.084
 4368TIP3   OH213036   1.951   5.291   1.680
 4368TIP3    H113037   1.912   5.267   1.593
 4368TIP3    H213038   2.036   5.330   1.652
 4369TIP3   OH213039   1.661   4.663   1.980
 4369TIP3    H113040   1.623   4.658   2.070
 4369TIP3    H213041   1.621   4.582   1.942
 4370TIP3   OH213042   1.450   5.132   3.029
 4370TIP3    H113043   1.397   5.152   3.109
 4370TIP3    H213044   1.434   5.213   2.976
 4371TIP3   OH213045   1.331   5.019   2.541
 4371TIP3    H113046   1.238   4.993   2.559
 4371TIP3    H213047   1.343   4.979   2.451
 4372TIP3   OH213048   1.823   5.104   2.272
 4372TIP3    H113049   1.772   5.175   2.227
 4372TIP3    H213050   1.878   5.070   2.198
 4373TIP3   OH213051   1.996   5.380   3.355
 4373TIP3    H113052   1.973   5.308   3.417
 4373TIP3    H213053   2.090   5.391   3.375
 4374TIP3   OH213054   1.977   5.132   2.507
 4374TIP3    H113055   1.915   5.160   2.437
 4374TIP3    H213056   2.014   5.053   2.461
 4375TIP3   OH213057   1.268   5.160   3.234
 4375TIP3    H113058   1.290   5.224   3.303
 4375TIP3    H213059   1.256   5.078   3.286
 4376TIP3   OH213060   1.319   4.641   1.945
 4376TIP3    H113061   1.305   4.638   2.042
 4376TIP3    H213062   1.240   4.692   1.917
 4377TIP3   OH213063   0.858   4.681   2.819
 4377TIP3    H113064   0.936   4.713   2.870
 4377TIP3    H213065   0.895   4.650   2.735
 4378TIP3   OH213066   0.827   4.663   2.337
 4378TIP3    H113067   0.872   4.699   2.257
 4378TIP3    H213068   0.765   4.736   2.354
 4379TIP3   OH213069   1.992   5.375   2.928
 4379TIP3    H113070   2.025   5.304   2.869
 4379TIP3    H213071   1.960   5.321   3.004
 4380TIP3   OH213072   1.664   4.837   2.603
 4380TIP3    H113073   1.577   4.835   2.647
 4380TIP3    H213074   1.723   4.846   2.679
 4381TIP3   OH213075   1.093   4.897   2.608
 4381TIP3    H113076   0.999   4.906   2.580
 4381TIP3    H213077   1.113   4.805   2.586
 4382TIP3   OH213078   1.359   4.894   2.299
 4382TIP3    H113079   1.452   4.906   2.272
 4382TIP3    H213080   1.309   4.913   2.217
 4383TIP3   OH213081   2.142   4.911   2.795
 4383TIP3    H113082   2.120   4.924   2.890
 4383TIP3    H213083   2.072   4.847   2.770
 4384TIP3   OH213084   1.208   4.928   2.077
 4384TIP3    H113085   1.137   4.881   2.030
 4384TIP3    H213086   1.259   4.964   2.002
 4385TIP3   OH213087   2.321   6.603   3.029
 4385TIP3    H113088   2.317   6.631   2.936
 4385TIP3    H213089   2.398   6.654   3.063
 4386TIP3   OH213090   1.279   5.715   3.443
 4386TIP3    H113091   1.358   5.746   3.492
 4386TIP3    H213092   1.213   5.714   3.515
 4387TIP3   OH213093   1.739   5.169   2.700
 4387TIP3    H113094   1.815   5.131   2.653
 4387TIP3    H213095   1.745   5.126   2.788
 4388TIP3   OH213096   1.264   4.654   2.582
 4388TIP3    H113097   1.225   4.579   2.632
 4388TIP3    H213098   1.300   4.610   2.504
 4389TIP3   OH213099   1.718   5.071   2.982
 4389TIP3    H113100   1.627   5.102   3.000
 4389TIP3    H213101   1.773   5.132   3.036
 4390TIP3   OH213102   1.455   5.456   2.085
 4390TIP3    H113103   1.383   5.389   2.073
 4390TIP3    H213104   1.434   5.489   2.175
 4391TIP3   OH213105   2.353   5.693   2.711
 4391TIP3    H113106   2.376   5.743   2.630
 4391TIP3    H213107   2.269   5.649   2.685
 4392TIP3   OH213108   1.913   4.762   1.958
 4392TIP3    H113109   1.816   4.742   1.960
 4392TIP3    H213110   1.917   4.858   1.975
 4393TIP3   OH213111   1.859   5.780   3.080
 4393TIP3    H113112   1.876   5.756   3.171
 4393TIP3    H213113   1.814   5.866   3.087
 4394TIP3   OH213114   1.980   5.019   2.056
 4394TIP3    H113115   2.077   5.025   2.065
 4394TIP3    H213116   1.959   5.097   2.001
 4395TIP3   OH213117   1.151   5.483   2.759
 4395TIP3    H113118   1.187   5.451   2.673
 4395TIP3    H213119   1.187   5.419   2.821
 4396TIP3   OH213120   1.600   5.606   1.910
 4396TIP3    H113121   1.551   5.692   1.913
 4396TIP3    H213122   1.545   5.551   1.969
 4397TIP3   OH213123   1.032   5.395   3.372
 4397TIP3    H113124   1.045   5.382   3.468
 4397TIP3    H213125   0.959   5.333   3.353
 4398TIP3   OH213126   1.754   5.515   3.391
 4398TIP3    H113127   1.690   5.454   3.351
 4398TIP3    H213128   1.839   5.477   3.361
 4399TIP3   OH213129   2.013   6.041   2.974
 4399TIP3    H113130   1.918   6.033   2.990
 4399TIP3    H213131   2.041   6.089   3.055
 4400TIP3   OH213132   2.419   5.111   1.887
 4400TIP3    H113133   2.358   5.067   1.823
 4400TIP3    H213134   2.418   5.200   1.846
 4401TIP3   OH213135   2.643   5.972   2.962
 4401TIP3    H113136   2.546   5.962   2.956
 4401TIP3    H213137   2.670   5.938   2.874
 4402TIP3   OH213138   2.127   5.925   1.797
 4402TIP3    H113139   2.097   5.855   1.856
 4402TIP3    H213140   2.138   5.879   1.712
 4403TIP3   OH213141   2.121   5.556   2.629
 4403TIP3    H113142   2.027   5.531   2.642
 4403TIP3    H213143   2.153   5.475   2.583
 4404TIP3   OH213144   1.249   5.785   2.386
 4404TIP3    H113145   1.243   5.865   2.330
 4404TIP3    H213146   1.156   5.763   2.398
 4405TIP3   OH213147   0.815   5.086   2.092
 4405TIP3    H113148   0.858   5.171   2.113
 4405TIP3    H213149   0.737   5.089   2.152
 4406TIP3   OH213150   1.382   5.547   2.328
 4406TIP3    H113151   1.348   5.637   2.347
 4406TIP3    H213152   1.346   5.496   2.402
 4407TIP3   OH213153   1.519   6.126   2.853
 4407TIP3    H113154   1.562   6.199   2.803
 4407TIP3    H213155   1.594   6.088   2.900
 4408TIP3   OH213156   1.166   6.022   2.236
 4408TIP3    H113157   1.081   6.030   2.283
 4408TIP3    H213158   1.197   6.115   2.238
 4409TIP3   OH213159   1.904   5.760   2.812
 4409TIP3    H113160   1.894   5.760   2.910
 4409TIP3    H213161   1.981   5.703   2.801
 4410TIP3   OH213162   1.882   5.660   1.696
 4410TIP3    H113163   1.935   5.633   1.775
 4410TIP3    H213164   1.795   5.624   1.719
 4411TIP3   OH213165   2.154   6.291   2.864
 4411TIP3    H113166   2.075   6.232   2.862
 4411TIP3    H213167   2.133   6.353   2.791
 4412TIP3   OH213168   2.222   6.124   1.515
 4412TIP3    H113169   2.258   6.198   1.462
 4412TIP3    H213170   2.142   6.168   1.551
 4413TIP3   OH213171   1.237   4.904   3.378
 4413TIP3    H113172   1.140   4.906   3.390
 4413TIP3    H213173   1.264   4.847   3.452
 4414TIP3   OH213174   2.043   5.592   1.912
 4414TIP3    H113175   2.031   5.524   1.981
 4414TIP3    H213176   2.140   5.585   1.899
 4415TIP3   OH213177   0.958   5.986   3.009
 4415TIP3    H113178   1.012   5.915   3.048
 4415TIP3    H213179   0.977   6.059   3.069
 4416TIP3   OH213180   1.246   5.635   1.697
 4416TIP3    H113181   1.256   5.543   1.667
 4416TIP3    H213182   1.224   5.623   1.791
 4417TIP3   OH213183   1.189   5.640   1.968
 4417TIP3    H113184   1.263   5.611   2.024
 4417TIP3    H213185   1.194   5.737   1.977
 4418TIP3   OH213186   0.924   5.332   2.173
 4418TIP3    H113187   0.857   5.376   2.228
 4418TIP3    H213188   0.936   5.400   2.103
 4419TIP3   OH213189   2.085   4.962   3.058
 4419TIP3    H113190   2.160   5.005   3.102
 4419TIP3    H213191   2.068   4.884   3.115
 4420TIP3   OH213192   1.957   4.717   2.234
 4420TIP3    H113193   1.940   4.734   2.140
 4420TIP3    H213194   1.994   4.803   2.264
 4421TIP3   OH213195   1.460   5.837   1.918
 4421TIP3    H113196   1.372   5.860   1.954
 4421TIP3    H213197   1.468   5.904   1.849
 4422TIP3   OH213198   1.648   4.899   2.333
 4422TIP3    H113199   1.709   4.974   2.314
 4422TIP3    H213200   1.650   4.897   2.431
 4423TIP3   OH213201   1.915   5.217   3.136
 4423TIP3    H113202   1.936   5.270   3.215
 4423TIP3    H213203   1.967   5.136   3.152
 4424TIP3   OH213204   1.786   4.627   2.438
 4424TIP3    H113205   1.761   4.711   2.481
 4424TIP3    H213206   1.850   4.658   2.370
 4425TIP3   OH213207   1.206   5.912   1.986
 4425TIP3    H113208   1.174   5.982   1.925
 4425TIP3    H213209   1.187   5.953   2.074
 4426TIP3   OH213210   1.300   4.626   2.222
 4426TIP3    H113211   1.298   4.717   2.260
 4426TIP3    H213212   1.396   4.608   2.228
 4427TIP3   OH213213   2.555   5.120   3.126
 4427TIP3    H113214   2.456   5.114   3.127
 4427TIP3    H213215   2.574   5.090   3.037
 4428TIP3   OH213216   2.205   5.312   2.506
 4428TIP3    H113217   2.128   5.253   2.519
 4428TIP3    H213218   2.276   5.265   2.555
 4429TIP3   OH213219   0.920   5.536   1.976
 4429TIP3    H113220   0.991   5.603   1.984
 4429TIP3    H213221   0.963   5.478   1.908
 4430TIP3   OH213222   0.861   4.816   2.113
 4430TIP3    H113223   0.859   4.913   2.109
 4430TIP3    H213224   0.786   4.792   2.056
 4431TIP3   OH213225   2.174   6.273   2.454
 4431TIP3    H113226   2.131   6.320   2.379
 4431TIP3    H213227   2.268   6.291   2.432
 4432TIP3   OH213228   1.252   4.536   2.980
 4432TIP3    H113229   1.221   4.501   2.894
 4432TIP3    H213230   1.240   4.458   3.039
 4433TIP3   OH213231   0.788   5.750   2.362
 4433TIP3    H113232   0.728   5.781   2.431
 4433TIP3    H213233   0.753   5.797   2.283
 4434TIP3   OH213234   0.949   6.302   3.432
 4434TIP3    H113235   1.034   6.303   3.481
 4434TIP3    H213236   0.927   6.207   3.434
 4435TIP3   OH213237   1.426   6.258   3.480
 4435TIP3    H113238   1.521   6.240   3.484
 4435TIP3    H213239   1.398   6.196   3.409
 4436TIP3   OH213240   1.411   5.835   1.609
 4436TIP3    H113241   1.354   5.764   1.644
 4436TIP3    H213242   1.485   5.782   1.573
 4437TIP3   OH213243   2.069   6.168   3.211
 4437TIP3    H113244   2.060   6.099   3.281
 4437TIP3    H213245   2.144   6.221   3.245
 4438TIP3   OH213246   1.846   5.877   1.523
 4438TIP3    H113247   1.882   5.808   1.582
 4438TIP3    H213248   1.902   5.868   1.443
 4439TIP3   OH213249   1.077   5.704   3.635
 4439TIP3    H113250   1.092   5.608   3.641
 4439TIP3    H213251   0.990   5.707   3.589
 4440TIP3   OH213252   1.056   5.352   1.831
 4440TIP3    H113253   1.112   5.320   1.903
 4440TIP3    H213254   1.122   5.357   1.758
 4441TIP3   OH213255   1.685   5.792   3.408
 4441TIP3    H113256   1.640   5.812   3.323
 4441TIP3    H213257   1.712   5.698   3.397
 4442TIP3   OH213258   1.574   5.555   1.639
 4442TIP3    H113259   1.572   5.564   1.736
 4442TIP3    H213260   1.573   5.457   1.630
 4443TIP3   OH213261   2.178   5.801   3.018
 4443TIP3    H113262   2.251   5.846   2.973
 4443TIP3    H213263   2.105   5.863   3.002
 4444TIP3   OH213264   1.197   5.441   3.620
 4444TIP3    H113265   1.272   5.387   3.594
 4444TIP3    H213266   1.226   5.475   3.708
 4445TIP3   OH213267   1.263   5.259   2.051
 4445TIP3    H113268   1.233   5.216   2.132
 4445TIP3    H213269   1.300   5.184   1.999
 4446TIP3   OH213270   1.535   5.326   3.283
 4446TIP3    H113271   1.453   5.381   3.281
 4446TIP3    H213272   1.584   5.360   3.204
 4447TIP3   OH213273   1.364   5.055   1.890
 4447TIP3    H113274   1.339   5.062   1.796
 4447TIP3    H213275   1.462   5.054   1.883
 4448TIP3   OH213276   2.052   5.726   3.413
 4448TIP3    H113277   2.123   5.689   3.359
 4448TIP3    H213278   2.041   5.658   3.482
 4449TIP3   OH213279   2.183   5.382   1.558
 4449TIP3    H113280   2.164   5.337   1.473
 4449TIP3    H213281   2.148   5.471   1.536
 4450TIP3   OH213282   1.657   5.113   3.402
 4450TIP3    H113283   1.655   5.034   3.344
 4450TIP3    H213284   1.612   5.180   3.346
 4451TIP3   OH213285   1.658   4.900   3.213
 4451TIP3    H113286   1.685   4.939   3.128
 4451TIP3    H213287   1.564   4.876   3.195
 4452TIP3   OH213288   1.682   5.434   3.086
 4452TIP3    H113289   1.766   5.447   3.040
 4452TIP3    H213290   1.624   5.498   3.040
 4453TIP3   OH213291   2.271   5.398   3.467
 4453TIP3    H113292   2.315   5.312   3.474
 4453TIP3    H213293   2.338   5.450   3.422
 4454TIP3   OH213294   2.306   5.651   3.200
 4454TIP3    H113295   2.248   5.708   3.143
 4454TIP3    H213296   2.394   5.673   3.163
 4455TIP3   OH213297   1.535   5.218   3.638
 4455TIP3    H113298   1.467   5.149   3.654
 4455TIP3    H213299   1.567   5.193   3.549
 4456TIP3   OH213300   1.789   4.660   3.280
 4456TIP3    H113301   1.738   4.740   3.259
 4456TIP3    H213302   1.721   4.590   3.270
 4457TIP3   OH213303   1.914   5.162   3.497
 4457TIP3    H113304   1.897   5.146   3.591
 4457TIP3    H213305   1.826   5.140   3.461
 4458TIP3   OH213306   2.155   5.118   3.353
 4458TIP3    H113307   2.080   5.116   3.416
 4458TIP3    H213308   2.228   5.086   3.408
 4459TIP3   OH213309   2.383   5.057   3.502
 4459TIP3    H113310   2.397   4.961   3.516
 4459TIP3    H213311   2.382   5.091   3.594
 4460TIP3   OH213312   1.373   4.999   3.691
 4460TIP3    H113313   1.375   4.907   3.659
 4460TIP3    H213314   1.411   4.988   3.781
 4461TIP3   OH213315   1.884   4.672   3.538
 4461TIP3    H113316   1.949   4.599   3.534
 4461TIP3    H213317   1.844   4.666   3.450
 4462TIP3   OH213318   1.953   4.887   3.695
 4462TIP3    H113319   1.931   4.815   3.632
 4462TIP3    H213320   1.872   4.943   3.689
 4463TIP3   OH213321   1.175   6.120   1.803
 4463TIP3    H113322   1.268   6.110   1.775
 4463TIP3    H213323   1.137   6.161   1.725
 4464TIP3   OH213324   0.652   5.495   2.013
 4464TIP3    H113325   0.746   5.517   1.997
 4464TIP3    H213326   0.645   5.407   1.971
 4465TIP3   OH213327   0.567   6.111   2.427
 4465TIP3    H113328   0.501   6.048   2.390
 4465TIP3    H213329   0.612   6.051   2.491
 4466TIP3   OH213330   0.703   5.955   2.613
 4466TIP3    H113331   0.686   5.886   2.679
 4466TIP3    H213332   0.753   6.019   2.667
 4467TIP3   OH213333   2.430   6.363   2.416
 4467TIP3    H113334   2.463   6.382   2.506
 4467TIP3    H213335   2.500   6.395   2.358
 4468TIP3   OH213336   2.469   6.375   2.698
 4468TIP3    H113337   2.412   6.295   2.688
 4468TIP3    H213338   2.532   6.339   2.764
 4469TIP3   OH213339   2.505   6.056   3.270
 4469TIP3    H113340   2.430   6.066   3.332
 4469TIP3    H213341   2.547   6.144   3.274
 4470TIP3   OH213342   2.320   5.569   1.889
 4470TIP3    H113343   2.387   5.632   1.857
 4470TIP3    H213344   2.366   5.531   1.967
 4471TIP3   OH213345   2.449   5.437   2.093
 4471TIP3    H113346   2.382   5.395   2.152
 4471TIP3    H213347   2.515   5.471   2.157
 4472TIP3   OH213348   2.506   5.830   2.524
 4472TIP3    H113349   2.557   5.759   2.480
 4472TIP3    H213350   2.497   5.896   2.453
 4473TIP3   OH213351   2.333   6.134   2.716
 4473TIP3    H113352   2.260   6.170   2.770
 4473TIP3    H213353   2.283   6.085   2.646
 4474TIP3   OH213354   2.385   5.345   1.738
 4474TIP3    H113355   2.314   5.345   1.670
 4474TIP3    H213356   2.355   5.420   1.793
 4475TIP3   OH213357   2.255   5.019   1.693
 4475TIP3    H113358   2.214   5.050   1.611
 4475TIP3    H213359   2.232   4.923   1.689
 4476TIP3   OH213360   2.260   5.296   2.237
 4476TIP3    H113361   2.267   5.200   2.225
 4476TIP3    H213362   2.246   5.305   2.333
 4477TIP3   OH213363   0.886   5.364   2.988
 4477TIP3    H113364   0.883   5.331   2.895
 4477TIP3    H213365   0.983   5.366   3.003
 4478TIP3   OH213366   2.552   5.720   3.097
 4478TIP3    H113367   2.622   5.651   3.088
 4478TIP3    H213368   2.576   5.784   3.028
 4479TIP3   OH213369   2.732   5.519   3.110
 4479TIP3    H113370   2.658   5.468   3.149
 4479TIP3    H213371   2.806   5.456   3.126
 4480TIP3   OH213372   2.197   4.754   1.681
 4480TIP3    H113373   2.270   4.716   1.733
 4480TIP3    H213374   2.124   4.692   1.694
 4481TIP3   OH213375   2.262   5.013   2.131
 4481TIP3    H113376   2.301   4.924   2.144
 4481TIP3    H213377   2.317   5.045   2.057
 4482TIP3   OH213378   2.416   5.180   2.627
 4482TIP3    H113379   2.502   5.204   2.585
 4482TIP3    H213380   2.432   5.218   2.716
 4483TIP3   OH213381   2.490   5.327   2.858
 4483TIP3    H113382   2.412   5.362   2.905
 4483TIP3    H213383   2.523   5.407   2.812
 4484TIP3   OH213384   1.107   5.052   3.662
 4484TIP3    H113385   1.204   5.046   3.665
 4484TIP3    H213386   1.083   4.965   3.698
 4485TIP3   OH213387   2.939   4.920   3.415
 4485TIP3    H113388   3.001   4.854   3.374
 4485TIP3    H213389   2.911   4.971   3.336
 4486TIP3   OH213390   2.367   4.762   2.171
 4486TIP3    H113391   2.417   4.742   2.252
 4486TIP3    H213392   2.305   4.686   2.167
 4487TIP3   OH213393   1.067   4.745   2.991
 4487TIP3    H113394   1.128   4.669   2.999
 4487TIP3    H213395   1.131   4.818   2.982
 4488TIP3   OH213396   0.867   5.017   3.062
 4488TIP3    H113397   0.917   5.013   2.978
 4488TIP3    H213398   0.895   5.103   3.097
 4489TIP3   OH213399   2.809   5.055   3.217
 4489TIP3    H113400   2.721   5.097   3.230
 4489TIP3    H213401   2.782   4.980   3.160
 4490TIP3   OH213402   2.446   4.689   1.806
 4490TIP3    H113403   2.483   4.620   1.747
 4490TIP3    H213404   2.513   4.760   1.799
 4491TIP3   OH213405   0.854   4.527   2.569
 4491TIP3    H113406   0.760   4.516   2.592
 4491TIP3    H213407   0.848   4.583   2.488
 4492TIP3   OH213408   2.012   6.229   2.070
 4492TIP3    H113409   2.065   6.215   1.988
 4492TIP3    H213410   2.069   6.290   2.120
 4493TIP3   OH213411   1.075   4.603   3.379
 4493TIP3    H113412   1.022   4.597   3.460
 4493TIP3    H213413   1.008   4.640   3.317
 4494TIP3   OH213414   1.114   6.029   3.454
 4494TIP3    H113415   1.020   6.007   3.438
 4494TIP3    H213416   1.121   6.013   3.549
 4495TIP3   OH213417   1.293   6.065   3.003
 4495TIP3    H113418   1.243   6.139   2.964
 4495TIP3    H213419   1.378   6.080   2.957
 4496TIP3   OH213420   1.733   6.305   3.138
 4496TIP3    H113421   1.774   6.305   3.227
 4496TIP3    H213422   1.798   6.359   3.088
 4497TIP3   OH213423   1.912   6.461   3.001
 4497TIP3    H113424   1.982   6.408   2.962
 4497TIP3    H213425   1.964   6.517   3.063
 4498TIP3   OH213426   2.714   4.817   3.101
 4498TIP3    H113427   2.623   4.804   3.071
 4498TIP3    H213428   2.750   4.725   3.091
 4499TIP3   OH213429   0.968   6.322   3.027
 4499TIP3    H113430   0.877   6.351   3.005
 4499TIP3    H213431   0.979   6.365   3.113
 4500TIP3   OH213432   1.204   6.300   2.886
 4500TIP3    H113433   1.117   6.311   2.930
 4500TIP3    H213434   1.184   6.330   2.796
 4501TIP3   OH213435   1.629   6.325   2.683
 4501TIP3    H113436   1.557   6.342   2.620
 4501TIP3    H213437   1.639   6.413   2.725
 4502TIP3   OH213438   1.898   6.266   2.736
 4502TIP3    H113439   1.803   6.280   2.716
 4502TIP3    H213440   1.939   6.342   2.692
 4503TIP3   OH213441   2.112   6.458   2.649
 4503TIP3    H113442   2.094   6.540   2.598
 4503TIP3    H213443   2.133   6.395   2.576
 4504TIP3   OH213444   0.880   6.114   2.769
 4504TIP3    H113445   0.904   6.085   2.860
 4504TIP3    H213446   0.951   6.069   2.719
 4505TIP3   OH213447   1.074   5.985   2.630
 4505TIP3    H113448   1.088   5.901   2.681
 4505TIP3    H213449   1.166   6.019   2.625
 4506TIP3   OH213450   1.343   6.078   2.633
 4506TIP3    H113451   1.371   5.985   2.623
 4506TIP3    H213452   1.389   6.099   2.717
 4507TIP3   OH213453   1.929   4.725   2.730
 4507TIP3    H113454   1.876   4.669   2.788
 4507TIP3    H213455   1.951   4.663   2.659
 4508TIP3   OH213456   2.526   4.691   2.397
 4508TIP3    H113457   2.605   4.659   2.346
 4508TIP3    H213458   2.551   4.790   2.395
 4509TIP3   OH213459   1.162   4.443   2.734
 4509TIP3    H113460   1.069   4.412   2.737
 4509TIP3    H213461   1.209   4.357   2.729
 4510TIP3   OH213462   0.956   4.315   2.387
 4510TIP3    H113463   0.982   4.369   2.311
 4510TIP3    H213464   0.927   4.383   2.451
 4511TIP3   OH213465   1.612   4.473   2.615
 4511TIP3    H113466   1.669   4.523   2.555
 4511TIP3    H213467   1.631   4.516   2.700
 4512TIP3   OH213468   2.184   4.547   2.170
 4512TIP3    H113469   2.097   4.590   2.180
 4512TIP3    H213470   2.169   4.462   2.215
 4513TIP3   OH213471   0.672   5.896   2.165
 4513TIP3    H113472   0.587   5.866   2.135
 4513TIP3    H213473   0.672   5.988   2.128
 4514TIP3   OH213474   1.069   4.470   2.146
 4514TIP3    H113475   1.115   4.407   2.087
 4514TIP3    H213476   1.143   4.523   2.180
 4515TIP3   OH213477   1.576   4.651   2.244
 4515TIP3    H113478   1.633   4.597   2.301
 4515TIP3    H213479   1.604   4.741   2.270
 4516TIP3   OH213480   1.439   6.072   1.739
 4516TIP3    H113481   1.529   6.093   1.705
 4516TIP3    H213482   1.418   5.996   1.681
 4517TIP3   OH213483   2.162   6.191   1.841
 4517TIP3    H113484   2.155   6.093   1.832
 4517TIP3    H213485   2.118   6.219   1.758
 4518TIP3   OH213486   1.370   4.726   3.628
 4518TIP3    H113487   1.334   4.654   3.682
 4518TIP3    H213488   1.464   4.724   3.656
 4519TIP3   OH213489   1.622   4.722   3.746
 4519TIP3    H113490   1.706   4.692   3.707
 4519TIP3    H213491   1.607   4.653   3.814
 4520TIP3   OH213492   0.737   5.909   1.807
 4520TIP3    H113493   0.739   5.932   1.900
 4520TIP3    H213494   0.825   5.866   1.794
 4521TIP3   OH213495   2.448   4.787   3.531
 4521TIP3    H113496   2.464   4.754   3.623
 4521TIP3    H213497   2.537   4.780   3.492
 4522TIP3   OH213498   2.382   6.335   3.023
 4522TIP3    H113499   2.302   6.303   2.975
 4522TIP3    H213500   2.358   6.429   3.034
 4523TIP3   OH213501   3.650   5.697   1.798
 4523TIP3    H113502   3.626   5.791   1.792
 4523TIP3    H213503   3.572   5.658   1.756
 4524TIP3   OH213504   3.632   5.715   2.180
 4524TIP3    H113505   3.679   5.688   2.260
 4524TIP3    H213506   3.606   5.631   2.141
 4525TIP3   OH213507   2.946   5.604   2.542
 4525TIP3    H113508   2.976   5.534   2.604
 4525TIP3    H213509   3.031   5.644   2.517
 4526TIP3   OH213510   2.921   6.015   2.264
 4526TIP3    H113511   2.914   5.917   2.262
 4526TIP3    H213512   3.017   6.024   2.251
 4527TIP3   OH213513   2.624   5.210   2.044
 4527TIP3    H113514   2.579   5.294   2.061
 4527TIP3    H213515   2.554   5.161   1.997
 4528TIP3   OH213516   2.685   5.502   2.223
 4528TIP3    H113517   2.734   5.423   2.255
 4528TIP3    H213518   2.745   5.536   2.156
 4529TIP3   OH213519   3.571   6.444   1.863
 4529TIP3    H113520   3.629   6.376   1.820
 4529TIP3    H213521   3.561   6.401   1.948
 4530TIP3   OH213522   3.446   5.937   2.224
 4530TIP3    H113523   3.491   5.858   2.188
 4530TIP3    H213524   3.526   5.991   2.242
 4531TIP3   OH213525   4.465   5.254   2.213
 4531TIP3    H113526   4.492   5.341   2.248
 4531TIP3    H213527   4.492   5.263   2.119
 4532TIP3   OH213528   3.857   5.432   2.252
 4532TIP3    H113529   3.904   5.349   2.272
 4532TIP3    H213530   3.828   5.416   2.160
 4533TIP3   OH213531   3.200   5.095   2.217
 4533TIP3    H113532   3.183   5.167   2.153
 4533TIP3    H213533   3.153   5.021   2.172
 4534TIP3   OH213534   3.894   5.190   1.836
 4534TIP3    H113535   3.964   5.175   1.903
 4534TIP3    H213536   3.949   5.222   1.762
 4535TIP3   OH213537   2.832   5.295   2.324
 4535TIP3    H113538   2.915   5.277   2.372
 4535TIP3    H213539   2.847   5.240   2.243
 4536TIP3   OH213540   3.270   5.493   2.126
 4536TIP3    H113541   3.366   5.471   2.133
 4536TIP3    H213542   3.234   5.409   2.089
 4537TIP3   OH213543   4.543   5.466   2.385
 4537TIP3    H113544   4.457   5.511   2.365
 4537TIP3    H213545   4.560   5.497   2.476
 4538TIP3   OH213546   3.195   5.079   2.651
 4538TIP3    H113547   3.136   5.116   2.583
 4538TIP3    H213548   3.142   5.097   2.732
 4539TIP3   OH213549   3.520   5.907   1.668
 4539TIP3    H113550   3.528   5.925   1.573
 4539TIP3    H213551   3.536   5.996   1.705
 4540TIP3   OH213552   3.303   5.853   2.442
 4540TIP3    H113553   3.246   5.925   2.478
 4540TIP3    H213554   3.349   5.899   2.368
 4541TIP3   OH213555   4.098   5.194   2.014
 4541TIP3    H113556   4.098   5.141   2.094
 4541TIP3    H213557   4.152   5.271   2.039
 4542TIP3   OH213558   3.066   5.193   2.435
 4542TIP3    H113559   3.129   5.265   2.459
 4542TIP3    H213560   3.115   5.153   2.359
 4543TIP3   OH213561   3.131   6.051   2.547
 4543TIP3    H113562   3.106   6.137   2.507
 4543TIP3    H213563   3.051   6.034   2.601
 4544TIP3   OH213564   2.520   5.739   1.778
 4544TIP3    H113565   2.482   5.765   1.692
 4544TIP3    H213566   2.555   5.823   1.813
 4545TIP3   OH213567   3.957   6.257   2.046
 4545TIP3    H113568   3.879   6.202   2.031
 4545TIP3    H213569   3.959   6.307   1.963
 4546TIP3   OH213570   4.259   5.155   2.383
 4546TIP3    H113571   4.170   5.179   2.350
 4546TIP3    H213572   4.317   5.187   2.311
 4547TIP3   OH213573   3.547   4.793   2.365
 4547TIP3    H113574   3.533   4.698   2.385
 4547TIP3    H213575   3.471   4.832   2.413
 4548TIP3   OH213576   4.188   6.165   2.365
 4548TIP3    H113577   4.177   6.089   2.303
 4548TIP3    H213578   4.170   6.241   2.305
 4549TIP3   OH213579   3.479   5.558   1.622
 4549TIP3    H113580   3.404   5.617   1.599
 4549TIP3    H213581   3.529   5.555   1.539
 4550TIP3   OH213582   3.438   5.348   1.333
 4550TIP3    H113583   3.504   5.400   1.383
 4550TIP3    H213584   3.498   5.285   1.287
 4551TIP3   OH213585   4.384   5.804   2.211
 4551TIP3    H113586   4.301   5.856   2.213
 4551TIP3    H213587   4.417   5.828   2.122
 4552TIP3   OH213588   3.826   5.645   1.591
 4552TIP3    H113589   3.774   5.666   1.672
 4552TIP3    H213590   3.913   5.622   1.631
 4553TIP3   OH213591   4.062   5.679   2.507
 4553TIP3    H113592   4.059   5.764   2.555
 4553TIP3    H213593   3.979   5.685   2.456
 4554TIP3   OH213594   3.060   5.640   2.014
 4554TIP3    H113595   3.019   5.581   1.947
 4554TIP3    H213596   3.136   5.586   2.045
 4555TIP3   OH213597   3.187   6.049   2.161
 4555TIP3    H113598   3.173   6.017   2.071
 4555TIP3    H213599   3.278   6.016   2.179
 4556TIP3   OH213600   3.187   5.614   2.366
 4556TIP3    H113601   3.224   5.584   2.280
 4556TIP3    H213602   3.238   5.697   2.382
 4557TIP3   OH213603   3.653   6.260   2.158
 4557TIP3    H113604   3.718   6.324   2.193
 4557TIP3    H213605   3.681   6.177   2.199
 4558TIP3   OH213606   3.336   6.170   2.690
 4558TIP3    H113607   3.274   6.230   2.736
 4558TIP3    H213608   3.274   6.115   2.640
 4559TIP3   OH213609   3.664   5.507   1.418
 4559TIP3    H113610   3.726   5.564   1.469
 4559TIP3    H213611   3.692   5.527   1.326
 4560TIP3   OH213612   3.093   5.723   2.798
 4560TIP3    H113613   3.095   5.813   2.837
 4560TIP3    H213614   2.998   5.703   2.803
 4561TIP3   OH213615   3.401   6.200   1.678
 4561TIP3    H113616   3.490   6.214   1.717
 4561TIP3    H213617   3.367   6.289   1.667
 4562TIP3   OH213618   3.126   6.335   2.775
 4562TIP3    H113619   3.095   6.334   2.682
 4562TIP3    H213620   3.045   6.314   2.826
 4563TIP3   OH213621   4.185   4.741   1.468
 4563TIP3    H113622   4.103   4.765   1.517
 4563TIP3    H213623   4.201   4.823   1.416
 4564TIP3   OH213624   2.925   5.484   1.819
 4564TIP3    H113625   2.858   5.525   1.761
 4564TIP3    H213626   2.895   5.392   1.822
 4565TIP3   OH213627   3.985   6.106   1.020
 4565TIP3    H113628   3.995   6.202   1.000
 4565TIP3    H213629   4.077   6.075   1.005
 4566TIP3   OH213630   2.708   5.870   2.721
 4566TIP3    H113631   2.641   5.846   2.653
 4566TIP3    H213632   2.746   5.783   2.745
 4567TIP3   OH213633   2.562   6.062   2.346
 4567TIP3    H113634   2.657   6.044   2.340
 4567TIP3    H213635   2.557   6.133   2.411
 4568TIP3   OH213636   4.425   6.515   2.412
 4568TIP3    H113637   4.424   6.418   2.421
 4568TIP3    H213638   4.342   6.539   2.458
 4569TIP3   OH213639   3.532   6.298   2.547
 4569TIP3    H113640   3.527   6.390   2.578
 4569TIP3    H213641   3.462   6.256   2.601
 4570TIP3   OH213642   3.279   6.431   1.502
 4570TIP3    H113643   3.202   6.433   1.445
 4570TIP3    H213644   3.276   6.520   1.541
 4571TIP3   OH213645   2.732   6.273   1.886
 4571TIP3    H113646   2.780   6.263   1.971
 4571TIP3    H213647   2.688   6.186   1.879
 4572TIP3   OH213648   3.539   6.367   1.400
 4572TIP3    H113649   3.458   6.372   1.454
 4572TIP3    H213650   3.606   6.346   1.467
 4573TIP3   OH213651   4.314   5.634   2.688
 4573TIP3    H113652   4.234   5.646   2.635
 4573TIP3    H213653   4.333   5.538   2.675
 4574TIP3   OH213654   2.908   6.057   2.712
 4574TIP3    H113655   2.961   6.035   2.791
 4574TIP3    H213656   2.837   5.990   2.716
 4575TIP3   OH213657   3.311   4.871   2.497
 4575TIP3    H113658   3.223   4.842   2.467
 4575TIP3    H213659   3.286   4.953   2.544
 4576TIP3   OH213660   3.848   4.988   2.690
 4576TIP3    H113661   3.918   4.958   2.752
 4576TIP3    H213662   3.766   4.968   2.738
 4577TIP3   OH213663   4.085   5.417   2.608
 4577TIP3    H113664   4.033   5.416   2.692
 4577TIP3    H213665   4.063   5.504   2.570
 4578TIP3   OH213666   3.739   5.554   1.163
 4578TIP3    H113667   3.709   5.525   1.075
 4578TIP3    H213668   3.828   5.589   1.141
 4579TIP3   OH213669   3.453   4.923   1.467
 4579TIP3    H113670   3.420   4.917   1.559
 4579TIP3    H213671   3.417   4.839   1.431
 4580TIP3   OH213672   3.242   5.391   2.513
 4580TIP3    H113673   3.194   5.413   2.595
 4580TIP3    H213674   3.226   5.472   2.459
 4581TIP3   OH213675   3.127   5.276   2.028
 4581TIP3    H113676   3.035   5.248   2.046
 4581TIP3    H213677   3.140   5.235   1.940
 4582TIP3   OH213678   3.617   5.358   1.757
 4582TIP3    H113679   3.568   5.430   1.713
 4582TIP3    H213680   3.674   5.326   1.684
 4583TIP3   OH213681   3.793   5.637   2.842
 4583TIP3    H113682   3.772   5.563   2.904
 4583TIP3    H213683   3.888   5.650   2.861
 4584TIP3   OH213684   3.771   5.388   1.994
 4584TIP3    H113685   3.712   5.419   1.923
 4584TIP3    H213686   3.808   5.309   1.949
 4585TIP3   OH213687   3.061   5.418   2.724
 4585TIP3    H113688   3.104   5.478   2.786
 4585TIP3    H213689   3.054   5.336   2.775
 4586TIP3   OH213690   3.111   4.895   1.432
 4586TIP3    H113691   3.103   4.894   1.529
 4586TIP3    H213692   3.033   4.949   1.407
 4587TIP3   OH213693   2.648   4.921   2.321
 4587TIP3    H113694   2.725   4.961   2.365
 4587TIP3    H213695   2.681   4.901   2.231
 4588TIP3   OH213696   2.623   4.918   1.824
 4588TIP3    H113697   2.669   4.953   1.745
 4588TIP3    H213698   2.562   4.993   1.840
 4589TIP3   OH213699   3.777   5.630   2.415
 4589TIP3    H113700   3.813   5.561   2.356
 4589TIP3    H213701   3.750   5.575   2.491
 4590TIP3   OH213702   3.459   5.096   2.088
 4590TIP3    H113703   3.380   5.095   2.145
 4590TIP3    H213704   3.531   5.091   2.153
 4591TIP3   OH213705   2.888   5.153   2.096
 4591TIP3    H113706   2.794   5.158   2.066
 4591TIP3    H213707   2.914   5.062   2.073
 4592TIP3   OH213708   3.153   5.149   1.787
 4592TIP3    H113709   3.248   5.161   1.768
 4592TIP3    H213710   3.110   5.170   1.702
 4593TIP3   OH213711   3.950   5.174   2.298
 4593TIP3    H113712   3.911   5.187   2.387
 4593TIP3    H213713   3.886   5.113   2.257
 4594TIP3   OH213714   3.003   5.186   1.561
 4594TIP3    H113715   2.934   5.139   1.511
 4594TIP3    H213716   3.056   5.224   1.488
 4595TIP3   OH213717   4.120   6.863   2.511
 4595TIP3    H113718   4.117   6.884   2.416
 4595TIP3    H213719   4.202   6.909   2.539
 4596TIP3   OH213720   3.073   5.976   2.929
 4596TIP3    H113721   3.155   6.002   2.976
 4596TIP3    H213722   3.011   5.971   3.005
 4597TIP3   OH213723   3.536   5.422   2.182
 4597TIP3    H113724   3.612   5.390   2.129
 4597TIP3    H213725   3.549   5.378   2.267
 4598TIP3   OH213726   3.057   4.914   2.066
 4598TIP3    H113727   3.023   4.836   2.115
 4598TIP3    H213728   3.106   4.873   1.994
 4599TIP3   OH213729   3.513   5.321   2.481
 4599TIP3    H113730   3.425   5.360   2.490
 4599TIP3    H213731   3.571   5.385   2.527
 4600TIP3   OH213732   3.249   5.716   1.562
 4600TIP3    H113733   3.179   5.648   1.556
 4600TIP3    H213734   3.233   5.750   1.654
 4601TIP3   OH213735   4.151   5.948   2.200
 4601TIP3    H113736   4.171   5.999   2.118
 4601TIP3    H213737   4.067   5.903   2.178
 4602TIP3   OH213738   3.708   5.021   1.441
 4602TIP3    H113739   3.611   5.004   1.446
 4602TIP3    H213740   3.716   5.116   1.462
 4603TIP3   OH213741   3.641   6.026   2.571
 4603TIP3    H113742   3.687   6.018   2.656
 4603TIP3    H213743   3.615   6.119   2.569
 4604TIP3   OH213744   3.777   5.276   1.539
 4604TIP3    H113745   3.873   5.279   1.554
 4604TIP3    H213746   3.761   5.356   1.486
 4605TIP3   OH213747   2.942   5.738   2.244
 4605TIP3    H113748   2.979   5.710   2.157
 4605TIP3    H213749   2.994   5.682   2.304
 4606TIP3   OH213750   3.391   5.873   1.385
 4606TIP3    H113751   3.340   5.955   1.401
 4606TIP3    H213752   3.353   5.814   1.454
 4607TIP3   OH213753   2.823   5.660   2.862
 4607TIP3    H113754   2.845   5.643   2.956
 4607TIP3    H213755   2.758   5.590   2.844
 4608TIP3   OH213756   3.554   5.770   2.880
 4608TIP3    H113757   3.495   5.714   2.827
 4608TIP3    H213758   3.641   5.736   2.852
 4609TIP3   OH213759   3.809   6.287   2.470
 4609TIP3    H113760   3.712   6.292   2.473
 4609TIP3    H213761   3.833   6.345   2.546
 4610TIP3   OH213762   4.214   5.368   1.375
 4610TIP3    H113763   4.153   5.324   1.311
 4610TIP3    H213764   4.214   5.457   1.333
 4611TIP3   OH213765   4.439   6.225   2.451
 4611TIP3    H113766   4.341   6.217   2.442
 4611TIP3    H213767   4.467   6.193   2.362
 4612TIP3   OH213768   3.895   6.176   1.274
 4612TIP3    H113769   3.907   6.109   1.343
 4612TIP3    H213770   3.938   6.136   1.196
 4613TIP3   OH213771   3.922   5.801   2.141
 4613TIP3    H113772   3.826   5.795   2.129
 4613TIP3    H213773   3.953   5.729   2.083
 4614TIP3   OH213774   3.047   6.046   1.880
 4614TIP3    H113775   3.046   6.122   1.820
 4614TIP3    H213776   2.955   6.016   1.876
 4615TIP3   OH213777   2.610   5.342   1.577
 4615TIP3    H113778   2.655   5.426   1.599
 4615TIP3    H213779   2.533   5.345   1.638
 4616TIP3   OH213780   3.166   5.800   1.806
 4616TIP3    H113781   3.148   5.891   1.834
 4616TIP3    H213782   3.140   5.749   1.885
 4617TIP3   OH213783   3.316   6.383   2.339
 4617TIP3    H113784   3.362   6.452   2.286
 4617TIP3    H213785   3.394   6.340   2.379
 4618TIP3   OH213786   2.959   6.284   1.721
 4618TIP3    H113787   2.876   6.292   1.771
 4618TIP3    H213788   2.993   6.376   1.727
 4619TIP3   OH213789   3.704   6.016   2.298
 4619TIP3    H113790   3.693   6.008   2.395
 4619TIP3    H213791   3.783   5.962   2.283
 4620TIP3   OH213792   3.649   5.904   1.207
 4620TIP3    H113793   3.724   5.893   1.269
 4620TIP3    H213794   3.599   5.823   1.228
 4621TIP3   OH213795   3.952   6.552   2.352
 4621TIP3    H113796   3.870   6.499   2.343
 4621TIP3    H213797   3.937   6.618   2.281
 4622TIP3   OH213798   4.013   6.379   1.002
 4622TIP3    H113799   4.054   6.445   0.943
 4622TIP3    H213800   3.936   6.431   1.033
 4623TIP3   OH213801   3.035   5.162   2.867
 4623TIP3    H113802   2.938   5.157   2.877
 4623TIP3    H213803   3.065   5.103   2.937
 4624TIP3   OH213804   3.840   5.836   1.379
 4624TIP3    H113805   3.826   5.785   1.461
 4624TIP3    H213806   3.938   5.831   1.372
 4625TIP3   OH213807   2.759   6.253   2.506
 4625TIP3    H113808   2.810   6.171   2.498
 4625TIP3    H213809   2.789   6.281   2.593
 4626TIP3   OH213810   3.021   5.897   1.178
 4626TIP3    H113811   3.050   5.809   1.149
 4626TIP3    H213812   3.016   5.885   1.275
 4627TIP3   OH213813   2.985   5.892   1.456
 4627TIP3    H113814   3.060   5.861   1.508
 4627TIP3    H213815   2.990   5.990   1.468
 4628TIP3   OH213816   2.720   5.586   1.659
 4628TIP3    H113817   2.653   5.631   1.714
 4628TIP3    H213818   2.736   5.654   1.590
 4629TIP3   OH213819   3.870   5.230   2.557
 4629TIP3    H113820   3.956   5.264   2.587
 4629TIP3    H213821   3.861   5.147   2.609
 4630TIP3   OH213822   3.752   4.974   1.720
 4630TIP3    H113823   3.741   4.994   1.625
 4630TIP3    H213824   3.792   5.057   1.754
 4631TIP3   OH213825   3.256   6.111   1.367
 4631TIP3    H113826   3.184   6.098   1.431
 4631TIP3    H213827   3.250   6.208   1.358
 4632TIP3   OH213828   3.435   5.159   1.819
 4632TIP3    H113829   3.501   5.230   1.800
 4632TIP3    H213830   3.445   5.149   1.916
 4633TIP3   OH213831   3.709   5.469   2.625
 4633TIP3    H113832   3.739   5.520   2.703
 4633TIP3    H213833   3.765   5.389   2.629
 4634TIP3   OH213834   3.582   4.876   1.917
 4634TIP3    H113835   3.578   4.954   1.976
 4634TIP3    H213836   3.645   4.910   1.848
 4635TIP3   OH213837   3.001   6.163   1.478
 4635TIP3    H113838   2.983   6.234   1.413
 4635TIP3    H213839   2.984   6.209   1.563
 4636TIP3   OH213840   3.097   4.883   1.708
 4636TIP3    H113841   3.096   4.974   1.746
 4636TIP3    H213842   3.193   4.864   1.715
 4637TIP3   OH213843   4.353   5.368   2.603
 4637TIP3    H113844   4.255   5.366   2.610
 4637TIP3    H213845   4.364   5.337   2.512
 4638TIP3   OH213846   4.003   5.567   1.993
 4638TIP3    H113847   3.927   5.507   2.005
 4638TIP3    H213848   4.075   5.520   2.040
 4639TIP3   OH213849   2.718   5.793   1.460
 4639TIP3    H113850   2.794   5.855   1.470
 4639TIP3    H213851   2.758   5.733   1.394
 4640TIP3   OH213852   2.654   5.072   1.601
 4640TIP3    H113853   2.657   5.169   1.596
 4640TIP3    H213854   2.581   5.050   1.541
 4641TIP3   OH213855   3.972   6.549   1.947
 4641TIP3    H113856   3.928   6.592   1.870
 4641TIP3    H213857   4.066   6.560   1.921
 4642TIP3   OH213858   3.043   4.793   2.470
 4642TIP3    H113859   3.016   4.759   2.382
 4642TIP3    H213860   3.033   4.715   2.527
 4643TIP3   OH213861   2.588   6.019   1.849
 4643TIP3    H113862   2.517   6.042   1.910
 4643TIP3    H213863   2.554   6.058   1.764
 4644TIP3   OH213864   2.742   6.559   2.901
 4644TIP3    H113865   2.827   6.567   2.951
 4644TIP3    H213866   2.726   6.464   2.913
 4645TIP3   OH213867   3.216   6.515   2.968
 4645TIP3    H113868   3.311   6.503   2.976
 4645TIP3    H213869   3.196   6.453   2.894
 4646TIP3   OH213870   3.855   6.430   2.706
 4646TIP3    H113871   3.851   6.357   2.773
 4646TIP3    H213872   3.936   6.477   2.731
 4647TIP3   OH213873   3.653   6.138   1.020
 4647TIP3    H113874   3.740   6.131   1.061
 4647TIP3    H213875   3.679   6.148   0.926
 4648TIP3   OH213876   2.872   5.960   3.122
 4648TIP3    H113877   2.888   5.864   3.129
 4648TIP3    H213878   2.786   5.962   3.076
 4649TIP3   OH213879   2.851   5.606   1.318
 4649TIP3    H113880   2.909   5.575   1.391
 4649TIP3    H213881   2.918   5.614   1.247
 4650TIP3   OH213882   3.476   6.045   2.898
 4650TIP3    H113883   3.444   6.067   2.808
 4650TIP3    H213884   3.511   5.954   2.886
 4651TIP3   OH213885   3.371   5.807   1.122
 4651TIP3    H113886   3.359   5.812   1.219
 4651TIP3    H213887   3.374   5.709   1.111
 4652TIP3   OH213888   3.973   6.061   2.507
 4652TIP3    H113889   4.051   6.097   2.460
 4652TIP3    H213890   3.907   6.131   2.486
 4653TIP3   OH213891   2.993   5.697   3.105
 4653TIP3    H113892   3.072   5.652   3.073
 4653TIP3    H213893   3.023   5.729   3.193
 4654TIP3   OH213894   3.054   5.516   1.534
 4654TIP3    H113895   3.033   5.473   1.618
 4654TIP3    H213896   3.095   5.443   1.483
 4655TIP3   OH213897   3.323   5.574   2.762
 4655TIP3    H113898   3.249   5.639   2.764
 4655TIP3    H213899   3.379   5.610   2.689
 4656TIP3   OH213900   3.161   5.312   1.377
 4656TIP3    H113901   3.138   5.318   1.282
 4656TIP3    H213902   3.259   5.311   1.371
 4657TIP3   OH213903   3.846   5.981   2.899
 4657TIP3    H113904   3.921   5.950   2.846
 4657TIP3    H213905   3.842   5.915   2.970
 4658TIP3   OH213906   3.974   5.638   1.046
 4658TIP3    H113907   3.959   5.593   0.960
 4658TIP3    H213908   3.941   5.728   1.023
 4659TIP3   OH213909   3.450   5.369   2.891
 4659TIP3    H113910   3.453   5.290   2.834
 4659TIP3    H213911   3.407   5.435   2.832
 4660TIP3   OH213912   3.453   5.156   2.704
 4660TIP3    H113913   3.484   5.197   2.621
 4660TIP3    H213914   3.361   5.132   2.682
 4661TIP3   OH213915   3.478   5.688   2.576
 4661TIP3    H113916   3.565   5.699   2.535
 4661TIP3    H213917   3.424   5.754   2.527
 4662TIP3   OH213918   4.060   5.656   2.951
 4662TIP3    H113919   4.108   5.572   2.956
 4662TIP3    H213920   4.126   5.715   2.911
 4663TIP3   OH213921   4.101   5.912   2.692
 4663TIP3    H113922   4.045   5.967   2.632
 4663TIP3    H213923   4.189   5.932   2.653
 4664TIP3   OH213924   3.328   5.476   3.126
 4664TIP3    H113925   3.262   5.405   3.139
 4664TIP3    H213926   3.362   5.453   3.037
 4665TIP3   OH213927   3.586   4.917   2.770
 4665TIP3    H113928   3.536   4.997   2.747
 4665TIP3    H213929   3.519   4.847   2.757
 4666TIP3   OH213930   3.711   5.418   2.984
 4666TIP3    H113931   3.696   5.403   3.079
 4666TIP3    H213932   3.622   5.395   2.949
 4667TIP3   OH213933   3.953   5.376   2.842
 4667TIP3    H113934   3.877   5.373   2.903
 4667TIP3    H213935   4.027   5.343   2.896
 4668TIP3   OH213936   4.186   5.312   2.989
 4668TIP3    H113937   4.194   5.216   3.006
 4668TIP3    H213938   4.180   5.350   3.079
 4669TIP3   OH213939   3.167   5.256   3.180
 4669TIP3    H113940   3.171   5.165   3.145
 4669TIP3    H213941   3.207   5.243   3.269
 4670TIP3   OH213942   3.678   4.927   3.028
 4670TIP3    H113943   3.744   4.855   3.022
 4670TIP3    H213944   3.639   4.923   2.938
 4671TIP3   OH213945   3.746   5.142   3.185
 4671TIP3    H113946   3.726   5.070   3.121
 4671TIP3    H213947   3.667   5.199   3.177
 4672TIP3   OH213948   2.996   6.371   1.285
 4672TIP3    H113949   3.053   6.426   1.229
 4672TIP3    H213950   2.916   6.374   1.230
 4673TIP3   OH213951   2.448   5.753   1.499
 4673TIP3    H113952   2.543   5.774   1.482
 4673TIP3    H213953   2.441   5.664   1.459
 4674TIP3   OH213954   2.361   6.368   1.916
 4674TIP3    H113955   2.299   6.303   1.877
 4674TIP3    H213956   2.408   6.310   1.981
 4675TIP3   OH213957   2.493   6.218   2.105
 4675TIP3    H113958   2.484   6.141   2.163
 4675TIP3    H213959   2.549   6.275   2.160
 4676TIP3   OH213960   4.230   6.622   1.900
 4676TIP3    H113961   4.262   6.650   1.987
 4676TIP3    H213962   4.302   6.647   1.841
 4677TIP3   OH213963   4.256   6.640   2.186
 4677TIP3    H113964   4.208   6.555   2.179
 4677TIP3    H213965   4.334   6.611   2.235
 4678TIP3   OH213966   4.301   6.312   2.760
 4678TIP3    H113967   4.228   6.323   2.824
 4678TIP3    H213968   4.343   6.400   2.761
 4679TIP3   OH213969   4.117   5.827   1.373
 4679TIP3    H113970   4.185   5.891   1.342
 4679TIP3    H213971   4.161   5.790   1.453
 4680TIP3   OH213972   4.245   5.694   1.576
 4680TIP3    H113973   4.180   5.653   1.638
 4680TIP3    H213974   4.314   5.728   1.636
 4681TIP3   OH213975   4.303   6.086   2.012
 4681TIP3    H113976   4.353   6.018   1.964
 4681TIP3    H213977   4.298   6.158   1.947
 4682TIP3   OH213978   4.132   6.392   2.213
 4682TIP3    H113979   4.062   6.435   2.266
 4682TIP3    H213980   4.078   6.348   2.144
 4683TIP3   OH213981   4.181   5.601   1.225
 4683TIP3    H113982   4.109   5.603   1.158
 4683TIP3    H213983   4.154   5.677   1.280
 4684TIP3   OH213984   4.046   5.277   1.182
 4684TIP3    H113985   4.013   5.305   1.096
 4684TIP3    H213986   4.026   5.180   1.178
 4685TIP3   OH213987   4.055   5.553   1.723
 4685TIP3    H113988   4.066   5.457   1.715
 4685TIP3    H213989   4.042   5.565   1.820
 4686TIP3   OH213990   2.682   5.624   2.474
 4686TIP3    H113991   2.681   5.588   2.382
 4686TIP3    H213992   2.779   5.626   2.491
 4687TIP3   OH213993   4.347   5.975   2.584
 4687TIP3    H113994   4.419   5.909   2.573
 4687TIP3    H213995   4.369   6.041   2.516
 4688TIP3   OH213996   4.528   5.774   2.597
 4688TIP3    H113997   4.454   5.723   2.637
 4688TIP3    H213998   4.600   5.709   2.605
 4689TIP3   OH213999   3.995   5.011   1.167
 4689TIP3    H114000   4.072   4.977   1.216
 4689TIP3    H214001   3.926   4.945   1.184
 4690TIP3   OH214002   4.054   5.267   1.617
 4690TIP3    H114003   4.095   5.178   1.631
 4690TIP3    H214004   4.113   5.300   1.546
 4691TIP3   OH214005   4.216   5.436   2.116
 4691TIP3    H114006   4.301   5.461   2.074
 4691TIP3    H214007   4.231   5.476   2.204
 4692TIP3   OH214008   4.289   5.584   2.345
 4692TIP3    H114009   4.210   5.619   2.391
 4692TIP3    H214010   4.321   5.664   2.298
 4693TIP3   OH214011   2.900   5.307   3.145
 4693TIP3    H114012   2.998   5.302   3.149
 4693TIP3    H214013   2.878   5.221   3.185
 4694TIP3   OH214014   4.162   5.018   1.659
 4694TIP3    H114015   4.212   5.000   1.741
 4694TIP3    H214016   4.102   4.940   1.657
 4695TIP3   OH214017   2.860   5.003   2.484
 4695TIP3    H114018   2.921   4.927   2.489
 4695TIP3    H214019   2.923   5.076   2.471
 4696TIP3   OH214020   2.661   5.274   2.547
 4696TIP3    H114021   2.712   5.268   2.464
 4696TIP3    H214022   2.694   5.357   2.584
 4697TIP3   OH214023   4.241   4.947   1.290
 4697TIP3    H114024   4.281   4.877   1.234
 4697TIP3    H214025   4.309   5.017   1.287
 4698TIP3   OH214026   2.648   4.786   2.057
 4698TIP3    H114027   2.553   4.775   2.073
 4698TIP3    H214028   2.648   4.840   1.976
 4699TIP3   OH214029   3.774   6.523   1.539
 4699TIP3    H114030   3.830   6.481   1.471
 4699TIP3    H214031   3.828   6.508   1.618
 4700TIP3   OH214032   2.874   4.872   2.870
 4700TIP3    H114033   2.820   4.858   2.948
 4700TIP3    H214034   2.807   4.897   2.804
 4701TIP3   OH214035   2.902   6.300   2.938
 4701TIP3    H114036   2.814   6.260   2.928
 4701TIP3    H214037   2.927   6.271   3.027
 4702TIP3   OH214038   3.090   6.325   2.489
 4702TIP3    H114039   3.047   6.401   2.445
 4702TIP3    H214040   3.178   6.332   2.448
 4703TIP3   OH214041   3.526   6.567   2.629
 4703TIP3    H114042   3.572   6.564   2.716
 4703TIP3    H214043   3.592   6.616   2.576
 4704TIP3   OH214044   3.704   6.720   2.490
 4704TIP3    H114045   3.767   6.670   2.436
 4704TIP3    H214046   3.765   6.772   2.547
 4705TIP3   OH214047   4.514   5.057   2.604
 4705TIP3    H114048   4.424   5.078   2.571
 4705TIP3    H214049   4.517   4.961   2.588
 4706TIP3   OH214050   2.988   6.555   2.370
 4706TIP3    H114051   2.893   6.563   2.379
 4706TIP3    H214052   2.999   6.582   2.277
 4707TIP3   OH214053   3.421   6.581   2.173
 4707TIP3    H114054   3.359   6.606   2.102
 4707TIP3    H214055   3.443   6.668   2.213
 4708TIP3   OH214056   3.700   6.535   2.239
 4708TIP3    H114057   3.610   6.530   2.203
 4708TIP3    H214058   3.744   6.594   2.175
 4709TIP3   OH214059   3.902   6.720   2.141
 4709TIP3    H114060   3.886   6.801   2.088
 4709TIP3    H214061   3.929   6.657   2.070
 4710TIP3   OH214062   2.680   6.370   2.267
 4710TIP3    H114063   2.708   6.334   2.354
 4710TIP3    H214064   2.748   6.327   2.210
 4711TIP3   OH214065   2.870   6.243   2.121
 4711TIP3    H114066   2.886   6.156   2.165
 4711TIP3    H214067   2.962   6.276   2.114
 4712TIP3   OH214068   3.137   6.334   2.126
 4712TIP3    H114069   3.168   6.243   2.107
 4712TIP3    H214070   3.194   6.353   2.203
 4713TIP3   OH214071   3.709   4.991   2.205
 4713TIP3    H114072   3.669   4.918   2.255
 4713TIP3    H214073   3.785   4.948   2.161
 4714TIP3   OH214074   4.227   4.880   2.116
 4714TIP3    H114075   4.266   4.925   2.038
 4714TIP3    H214076   4.132   4.893   2.101
 4715TIP3   OH214077   4.325   4.968   1.877
 4715TIP3    H114078   4.398   4.916   1.837
 4715TIP3    H214079   4.361   5.059   1.862
 4716TIP3   OH214080   2.959   4.700   2.222
 4716TIP3    H114081   2.865   4.670   2.222
 4716TIP3    H214082   3.005   4.614   2.217
 4717TIP3   OH214083   2.751   4.571   1.873
 4717TIP3    H114084   2.781   4.624   1.797
 4717TIP3    H214085   2.724   4.640   1.936
 4718TIP3   OH214086   3.404   4.733   2.105
 4718TIP3    H114087   3.458   4.777   2.037
 4718TIP3    H214088   3.439   4.771   2.187
 4719TIP3   OH214089   3.943   4.879   2.085
 4719TIP3    H114090   3.951   4.838   1.997
 4719TIP3    H214091   3.933   4.800   2.143
 4720TIP3   OH214092   3.979   4.805   1.649
 4720TIP3    H114093   3.892   4.845   1.663
 4720TIP3    H214094   3.966   4.718   1.693
 4721TIP3   OH214095   2.463   6.143   1.646
 4721TIP3    H114096   2.378   6.107   1.614
 4721TIP3    H214097   2.453   6.235   1.615
 4722TIP3   OH214098   2.866   4.726   1.633
 4722TIP3    H114099   2.912   4.664   1.575
 4722TIP3    H214100   2.941   4.780   1.667
 4723TIP3   OH214101   3.373   4.907   1.732
 4723TIP3    H114102   3.435   4.859   1.789
 4723TIP3    H214103   3.396   4.999   1.757
 4724TIP3   OH214104   3.953   6.442   1.323
 4724TIP3    H114105   3.937   6.345   1.311
 4724TIP3    H214106   3.911   6.477   1.242
 4725TIP3   OH214107   3.166   4.982   3.114
 4725TIP3    H114108   3.131   4.909   3.169
 4725TIP3    H214109   3.260   4.980   3.141
 4726TIP3   OH214110   3.417   4.980   3.231
 4726TIP3    H114111   3.502   4.954   3.190
 4726TIP3    H214112   3.406   4.909   3.298
 4727TIP3   OH214113   2.545   6.166   1.285
 4727TIP3    H114114   2.546   6.177   1.381
 4727TIP3    H214115   2.630   6.120   1.269
 4728TIP3   OH214116   4.238   5.038   3.023
 4728TIP3    H114117   4.254   5.008   3.115
 4728TIP3    H214118   4.326   5.023   2.982
 4729TIP3   OH214119   4.176   6.592   2.515
 4729TIP3    H114120   4.099   6.562   2.461
 4729TIP3    H214121   4.158   6.688   2.518
 4730TIP3   OH214122   5.450   5.967   1.271
 4730TIP3    H114123   5.419   6.058   1.251
 4730TIP3    H214124   5.374   5.915   1.243
 4731TIP3   OH214125   5.485   5.945   1.645
 4731TIP3    H114126   5.477   5.942   1.741
 4731TIP3    H214127   5.404   5.902   1.616
 4732TIP3   OH214128   4.743   5.866   2.035
 4732TIP3    H114129   4.780   5.794   2.090
 4732TIP3    H214130   4.824   5.903   1.994
 4733TIP3   OH214131   5.694   6.272   1.339
 4733TIP3    H114132   5.671   6.201   1.401
 4733TIP3    H214133   5.720   6.344   1.399
 4734TIP3   OH214134   4.715   6.261   1.751
 4734TIP3    H114135   4.712   6.164   1.760
 4734TIP3    H214136   4.801   6.269   1.703
 4735TIP3   OH214137   4.422   5.466   1.530
 4735TIP3    H114138   4.380   5.551   1.548
 4735TIP3    H214139   4.350   5.419   1.484
 4736TIP3   OH214140   4.483   5.760   1.704
 4736TIP3    H114141   4.533   5.682   1.736
 4736TIP3    H214142   4.552   5.808   1.656
 4737TIP3   OH214143   5.343   6.731   1.359
 4737TIP3    H114144   5.392   6.663   1.309
 4737TIP3    H214145   5.332   6.687   1.445
 4738TIP3   OH214146   5.258   6.155   1.744
 4738TIP3    H114147   5.206   6.188   1.668
 4738TIP3    H214148   5.342   6.203   1.736
 4739TIP3   OH214149   6.261   5.509   1.708
 4739TIP3    H114150   6.291   5.595   1.742
 4739TIP3    H214151   6.287   5.515   1.614
 4740TIP3   OH214152   5.655   5.689   1.742
 4740TIP3    H114153   5.702   5.605   1.756
 4740TIP3    H214154   5.624   5.679   1.650
 4741TIP3   OH214155   4.997   5.350   1.704
 4741TIP3    H114156   4.981   5.423   1.641
 4741TIP3    H214157   4.950   5.277   1.658
 4742TIP3   OH214158   5.690   5.445   1.323
 4742TIP3    H114159   5.760   5.429   1.392
 4742TIP3    H214160   5.746   5.476   1.250
 4743TIP3   OH214161   4.626   5.551   1.813
 4743TIP3    H114162   4.712   5.536   1.858
 4743TIP3    H214163   4.642   5.498   1.731
 4744TIP3   OH214164   5.072   5.753   1.613
 4744TIP3    H114165   5.166   5.724   1.623
 4744TIP3    H214166   5.031   5.673   1.574
 4745TIP3   OH214167   6.337   5.724   1.873
 4745TIP3    H114168   6.252   5.766   1.851
 4745TIP3    H214169   6.344   5.748   1.967
 4746TIP3   OH214170   4.989   5.336   2.137
 4746TIP3    H114171   4.937   5.372   2.061
 4746TIP3    H214172   4.939   5.376   2.210
 4747TIP3   OH214173   5.343   6.187   1.136
 4747TIP3    H114174   5.299   6.169   1.052
 4747TIP3    H214175   5.300   6.272   1.160
 4748TIP3   OH214176   5.089   6.103   1.944
 4748TIP3    H114177   5.035   6.182   1.965
 4748TIP3    H214178   5.143   6.136   1.869
 4749TIP3   OH214179   5.895   5.446   1.499
 4749TIP3    H114180   5.915   5.379   1.566
 4749TIP3    H214181   5.949   5.522   1.529
 4750TIP3   OH214182   4.865   5.449   1.921
 4750TIP3    H114183   4.925   5.524   1.942
 4750TIP3    H214184   4.912   5.411   1.843
 4751TIP3   OH214185   4.929   6.310   2.038
 4751TIP3    H114186   4.901   6.385   1.983
 4751TIP3    H214187   4.847   6.295   2.090
 4752TIP3   OH214188   4.316   5.998   1.268
 4752TIP3    H114189   4.283   6.030   1.182
 4752TIP3    H214190   4.352   6.080   1.307
 4753TIP3   OH214191   5.758   6.512   1.502
 4753TIP3    H114192   5.669   6.501   1.544
 4753TIP3    H214193   5.747   6.600   1.461
 4754TIP3   OH214194   6.052   5.413   1.875
 4754TIP3    H114195   5.965   5.432   1.837
 4754TIP3    H214196   6.113   5.441   1.803
 4755TIP3   OH214197   5.345   5.047   1.854
 4755TIP3    H114198   5.329   4.952   1.872
 4755TIP3    H214199   5.268   5.087   1.899
 4756TIP3   OH214200   5.472   6.562   1.188
 4756TIP3    H114201   5.516   6.476   1.169
 4756TIP3    H214202   5.536   6.623   1.142
 4757TIP3   OH214203   5.608   6.343   1.087
 4757TIP3    H114204   5.551   6.268   1.062
 4757TIP3    H214205   5.646   6.310   1.171
 4758TIP3   OH214206   5.976   6.425   1.851
 4758TIP3    H114207   5.971   6.349   1.790
 4758TIP3    H214208   5.977   6.501   1.790
 4759TIP3   OH214209   5.277   5.816   1.108
 4759TIP3    H114210   5.199   5.867   1.082
 4759TIP3    H214211   5.326   5.809   1.024
 4760TIP3   OH214212   5.236   5.603   0.819
 4760TIP3    H114213   5.303   5.654   0.868
 4760TIP3    H214214   5.295   5.542   0.769
 4761TIP3   OH214215   6.182   6.065   1.699
 4761TIP3    H114216   6.097   6.114   1.704
 4761TIP3    H214217   6.209   6.088   1.608
 4762TIP3   OH214218   5.629   5.901   1.076
 4762TIP3    H114219   5.573   5.923   1.154
 4762TIP3    H214220   5.711   5.873   1.121
 4763TIP3   OH214221   5.860   5.937   1.996
 4763TIP3    H114222   5.855   6.023   2.040
 4763TIP3    H214223   5.772   5.935   1.952
 4764TIP3   OH214224   4.815   5.861   1.518
 4764TIP3    H114225   4.804   5.822   1.429
 4764TIP3    H214226   4.911   5.856   1.531
 4765TIP3   OH214227   4.979   5.869   1.851
 4765TIP3    H114228   5.017   5.844   1.764
 4765TIP3    H214229   5.025   5.954   1.869
 4766TIP3   OH214230   5.520   6.506   1.626
 4766TIP3    H114231   5.506   6.586   1.680
 4766TIP3    H214232   5.508   6.433   1.689
 4767TIP3   OH214233   5.134   6.426   2.179
 4767TIP3    H114234   5.069   6.487   2.221
 4767TIP3    H214235   5.072   6.372   2.125
 4768TIP3   OH214236   5.460   5.763   0.903
 4768TIP3    H114237   5.523   5.821   0.952
 4768TIP3    H214238   5.482   5.784   0.810
 4769TIP3   OH214239   4.891   5.971   2.295
 4769TIP3    H114240   4.893   6.064   2.326
 4769TIP3    H214241   4.795   5.958   2.284
 4770TIP3   OH214242   5.221   6.428   1.158
 4770TIP3    H114243   5.277   6.489   1.208
 4770TIP3    H214244   5.138   6.476   1.149
 4771TIP3   OH214245   4.925   6.593   2.263
 4771TIP3    H114246   4.893   6.594   2.170
 4771TIP3    H214247   4.843   6.570   2.312
 4772TIP3   OH214248   5.973   4.991   0.936
 4772TIP3    H114249   5.909   5.010   1.007
 4772TIP3    H214250   5.988   5.079   0.898
 4773TIP3   OH214251   4.732   5.732   1.273
 4773TIP3    H114252   4.656   5.775   1.229
 4773TIP3    H214253   4.691   5.652   1.308
 4774TIP3   OH214254   4.502   6.127   2.208
 4774TIP3    H114255   4.436   6.108   2.139
 4774TIP3    H214256   4.540   6.039   2.227
 4775TIP3   OH214257   4.361   6.316   1.842
 4775TIP3    H114258   4.455   6.303   1.823
 4775TIP3    H214259   4.362   6.395   1.898
 4776TIP3   OH214260   5.329   6.552   2.035
 4776TIP3    H114261   5.324   6.645   2.065
 4776TIP3    H214262   5.256   6.512   2.087
 4777TIP3   OH214263   5.086   6.690   0.979
 4777TIP3    H114264   5.033   6.665   0.902
 4777TIP3    H214265   5.047   6.775   1.007
 4778TIP3   OH214266   4.527   6.528   1.376
 4778TIP3    H114267   4.580   6.519   1.458
 4778TIP3    H214268   4.485   6.441   1.373
 4779TIP3   OH214269   5.305   6.545   0.670
 4779TIP3    H114270   5.371   6.476   0.677
 4779TIP3    H214271   5.314   6.585   0.760
 4780TIP3   OH214272   5.341   6.632   0.925
 4780TIP3    H114273   5.249   6.646   0.957
 4780TIP3    H214274   5.380   6.585   1.002
 4781TIP3   OH214275   6.111   5.897   2.174
 4781TIP3    H114276   6.031   5.911   2.122
 4781TIP3    H214277   6.127   5.802   2.159
 4782TIP3   OH214278   4.705   6.311   2.199
 4782TIP3    H114279   4.757   6.288   2.279
 4782TIP3    H214280   4.632   6.246   2.202
 4783TIP3   OH214281   5.107   5.127   1.982
 4783TIP3    H114282   5.020   5.098   1.949
 4783TIP3    H214283   5.082   5.213   2.023
 4784TIP3   OH214284   5.645   5.245   2.177
 4784TIP3    H114285   5.714   5.215   2.240
 4784TIP3    H214286   5.562   5.224   2.224
 4785TIP3   OH214287   5.881   5.674   2.096
 4785TIP3    H114288   5.827   5.673   2.179
 4785TIP3    H214289   5.858   5.761   2.057
 4786TIP3   OH214290   5.518   5.808   0.638
 4786TIP3    H114291   5.524   5.747   0.563
 4786TIP3    H214292   5.606   5.850   0.631
 4787TIP3   OH214293   5.250   5.178   0.955
 4787TIP3    H114294   5.216   5.173   1.046
 4787TIP3    H214295   5.211   5.096   0.918
 4788TIP3   OH214296   5.039   5.647   1.997
 4788TIP3    H114297   4.991   5.672   2.079
 4788TIP3    H214298   5.025   5.728   1.943
 4789TIP3   OH214299   4.928   5.531   1.515
 4789TIP3    H114300   4.834   5.511   1.533
 4789TIP3    H214301   4.939   5.489   1.427
 4790TIP3   OH214302   5.414   5.616   1.245
 4790TIP3    H114303   5.365   5.687   1.199
 4790TIP3    H214304   5.471   5.581   1.173
 4791TIP3   OH214305   5.590   5.894   2.329
 4791TIP3    H114306   5.569   5.820   2.390
 4791TIP3    H214307   5.685   5.905   2.347
 4792TIP3   OH214308   5.569   5.643   1.483
 4792TIP3    H114309   5.508   5.671   1.412
 4792TIP3    H214310   5.607   5.564   1.438
 4793TIP3   OH214311   4.863   5.680   2.207
 4793TIP3    H114312   4.893   5.747   2.270
 4793TIP3    H214313   4.851   5.601   2.263
 4794TIP3   OH214314   4.907   5.152   0.920
 4794TIP3    H114315   4.898   5.152   1.017
 4794TIP3    H214316   4.830   5.205   0.894
 4795TIP3   OH214317   4.452   5.191   1.797
 4795TIP3    H114318   4.528   5.228   1.845
 4795TIP3    H214319   4.489   5.168   1.710
 4796TIP3   OH214320   4.417   5.174   1.310
 4796TIP3    H114321   4.465   5.208   1.232
 4796TIP3    H214322   4.359   5.250   1.327
 4797TIP3   OH214323   5.591   5.889   1.912
 4797TIP3    H114324   5.616   5.822   1.845
 4797TIP3    H214325   5.552   5.831   1.981
 4798TIP3   OH214326   5.256   5.348   1.573
 4798TIP3    H114327   5.175   5.352   1.628
 4798TIP3    H214328   5.326   5.351   1.640
 4799TIP3   OH214329   4.685   5.410   1.585
 4799TIP3    H114330   4.591   5.416   1.555
 4799TIP3    H214331   4.711   5.320   1.558
 4800TIP3   OH214332   4.949   5.403   1.273
 4800TIP3    H114333   5.043   5.418   1.252
 4800TIP3    H214334   4.903   5.426   1.190
 4801TIP3   OH214335   5.746   5.431   1.788
 4801TIP3    H114336   5.703   5.444   1.875
 4801TIP3    H214337   5.683   5.371   1.745
 4802TIP3   OH214338   4.799   5.437   1.048
 4802TIP3    H114339   4.729   5.393   0.996
 4802TIP3    H214340   4.853   5.477   0.976
 4803TIP3   OH214341   5.901   7.152   2.006
 4803TIP3    H114342   5.909   7.118   1.916
 4803TIP3    H214343   5.994   7.155   2.035
 4804TIP3   OH214344   4.869   6.228   2.418
 4804TIP3    H114345   4.950   6.258   2.463
 4804TIP3    H214346   4.805   6.229   2.492
 4805TIP3   OH214347   5.331   5.669   1.672
 4805TIP3    H114348   5.413   5.653   1.622
 4805TIP3    H214349   5.351   5.629   1.758
 4806TIP3   OH214350   4.853   5.170   1.554
 4806TIP3    H114351   4.819   5.091   1.601
 4806TIP3    H214352   4.900   5.130   1.479
 4807TIP3   OH214353   5.310   5.575   1.972
 4807TIP3    H114354   5.221   5.617   1.975
 4807TIP3    H214355   5.368   5.641   2.014
 4808TIP3   OH214356   5.043   5.972   1.059
 4808TIP3    H114357   4.975   5.903   1.039
 4808TIP3    H214358   5.021   5.994   1.151
 4809TIP3   OH214359   5.947   6.205   1.685
 4809TIP3    H114360   5.967   6.257   1.605
 4809TIP3    H214361   5.862   6.161   1.660
 4810TIP3   OH214362   5.504   5.274   0.932
 4810TIP3    H114363   5.407   5.258   0.933
 4810TIP3    H214364   5.511   5.370   0.945
 4811TIP3   OH214365   5.449   6.290   2.051
 4811TIP3    H114366   5.475   6.272   2.142
 4811TIP3    H214367   5.407   6.377   2.056
 4812TIP3   OH214368   5.572   5.532   1.029
 4812TIP3    H114369   5.669   5.533   1.041
 4812TIP3    H214370   5.556   5.609   0.972
 4813TIP3   OH214371   4.723   5.982   1.744
 4813TIP3    H114372   4.749   5.964   1.651
 4813TIP3    H214373   4.794   5.934   1.789
 4814TIP3   OH214374   5.194   6.117   0.877
 4814TIP3    H114375   5.146   6.203   0.882
 4814TIP3    H214376   5.138   6.063   0.937
 4815TIP3   OH214377   4.617   5.914   2.349
 4815TIP3    H114378   4.636   5.896   2.443
 4815TIP3    H214379   4.549   5.847   2.328
 4816TIP3   OH214380   5.349   6.027   2.367
 4816TIP3    H114381   5.290   5.975   2.310
 4816TIP3    H214382   5.437   5.991   2.339
 4817TIP3   OH214383   5.606   6.554   1.951
 4817TIP3    H114384   5.510   6.547   1.965
 4817TIP3    H214385   5.632   6.608   2.028
 4818TIP3   OH214386   6.008   5.615   0.859
 4818TIP3    H114387   5.948   5.575   0.792
 4818TIP3    H214388   6.008   5.706   0.825
 4819TIP3   OH214389   6.244   6.447   1.954
 4819TIP3    H114390   6.164   6.502   1.956
 4819TIP3    H214391   6.259   6.442   1.857
 4820TIP3   OH214392   5.739   6.428   0.760
 4820TIP3    H114393   5.707   6.381   0.839
 4820TIP3    H214394   5.687   6.387   0.690
 4821TIP3   OH214395   5.722   6.069   1.597
 4821TIP3    H114396   5.630   6.038   1.615
 4821TIP3    H214397   5.755   5.989   1.553
 4822TIP3   OH214398   4.404   5.600   1.061
 4822TIP3    H114399   4.450   5.684   1.083
 4822TIP3    H214400   4.329   5.603   1.124
 4823TIP3   OH214401   5.111   6.639   1.831
 4823TIP3    H114402   5.153   6.708   1.776
 4823TIP3    H214403   5.188   6.594   1.868
 4824TIP3   OH214404   4.738   6.555   1.180
 4824TIP3    H114405   4.672   6.539   1.250
 4824TIP3    H214406   4.771   6.644   1.203
 4825TIP3   OH214407   5.511   6.275   1.783
 4825TIP3    H114408   5.494   6.273   1.880
 4825TIP3    H214409   5.585   6.214   1.775
 4826TIP3   OH214410   5.455   6.166   0.678
 4826TIP3    H114411   5.518   6.136   0.747
 4826TIP3    H214412   5.370   6.140   0.716
 4827TIP3   OH214413   5.724   6.821   1.847
 4827TIP3    H114414   5.657   6.752   1.829
 4827TIP3    H214415   5.721   6.875   1.765
 4828TIP3   OH214416   4.819   5.427   2.337
 4828TIP3    H114417   4.723   5.442   2.352
 4828TIP3    H214418   4.831   5.341   2.378
 4829TIP3   OH214419   5.634   6.096   0.880
 4829TIP3    H114420   5.623   6.034   0.955
 4829TIP3    H214421   5.731   6.096   0.871
 4830TIP3   OH214422   4.545   6.502   1.987
 4830TIP3    H114423   4.601   6.424   2.003
 4830TIP3    H214424   4.588   6.567   2.044
 4831TIP3   OH214425   4.827   6.154   0.669
 4831TIP3    H114426   4.860   6.067   0.641
 4831TIP3    H214427   4.813   6.139   0.765
 4832TIP3   OH214428   4.779   6.153   0.942
 4832TIP3    H114429   4.852   6.129   1.000
 4832TIP3    H214430   4.782   6.251   0.946
 4833TIP3   OH214431   4.512   5.843   1.145
 4833TIP3    H114432   4.449   5.890   1.203
 4833TIP3    H214433   4.527   5.913   1.077
 4834TIP3   OH214434   5.664   5.489   2.048
 4834TIP3    H114435   5.753   5.520   2.072
 4834TIP3    H214436   5.657   5.404   2.097
 4835TIP3   OH214437   5.547   5.230   1.208
 4835TIP3    H114438   5.535   5.249   1.113
 4835TIP3    H214439   5.587   5.313   1.241
 4836TIP3   OH214440   5.050   6.344   0.891
 4836TIP3    H114441   4.964   6.372   0.927
 4836TIP3    H214442   5.060   6.407   0.819
 4837TIP3   OH214443   5.233   5.415   1.305
 4837TIP3    H114444   5.298   5.486   1.288
 4837TIP3    H214445   5.241   5.405   1.403
 4838TIP3   OH214446   5.503   5.725   2.111
 4838TIP3    H114447   5.534   5.776   2.189
 4838TIP3    H214448   5.560   5.646   2.114
 4839TIP3   OH214449   5.378   5.133   1.405
 4839TIP3    H114450   5.368   5.212   1.462
 4839TIP3    H214451   5.440   5.168   1.336
 4840TIP3   OH214452   4.796   6.424   0.951
 4840TIP3    H114453   4.764   6.495   0.892
 4840TIP3    H214454   4.776   6.465   1.039
 4841TIP3   OH214455   4.893   5.139   1.197
 4841TIP3    H114456   4.893   5.230   1.232
 4841TIP3    H214457   4.989   5.120   1.203
 4842TIP3   OH214458   6.147   5.631   2.090
 4842TIP3    H114459   6.049   5.632   2.099
 4842TIP3    H214460   6.154   5.580   2.008
 4843TIP3   OH214461   5.800   5.824   1.477
 4843TIP3    H114462   5.720   5.769   1.493
 4843TIP3    H214463   5.869   5.775   1.527
 4844TIP3   OH214464   4.511   6.049   0.948
 4844TIP3    H114465   4.580   6.117   0.959
 4844TIP3    H214466   4.556   5.992   0.882
 4845TIP3   OH214467   4.451   5.330   1.089
 4845TIP3    H114468   4.456   5.427   1.083
 4845TIP3    H214469   4.378   5.309   1.029
 4846TIP3   OH214470   5.766   6.785   1.426
 4846TIP3    H114471   5.724   6.834   1.352
 4846TIP3    H214472   5.860   6.804   1.408
 4847TIP3   OH214473   4.840   5.050   1.958
 4847TIP3    H114474   4.812   5.016   1.869
 4847TIP3    H214475   4.830   4.969   2.013
 4848TIP3   OH214476   4.374   6.264   1.335
 4848TIP3    H114477   4.306   6.305   1.390
 4848TIP3    H214478   4.355   6.307   1.248
 4849TIP3   OH214479   4.540   6.814   2.411
 4849TIP3    H114480   4.628   6.813   2.454
 4849TIP3    H214481   4.520   6.719   2.406
 4850TIP3   OH214482   5.018   6.770   2.454
 4850TIP3    H114483   5.113   6.750   2.457
 4850TIP3    H214484   4.990   6.710   2.382
 4851TIP3   OH214485   5.015   6.337   0.588
 4851TIP3    H114486   4.935   6.285   0.611
 4851TIP3    H214487   5.079   6.264   0.586
 4852TIP3   OH214488   5.647   6.688   2.195
 4852TIP3    H114489   5.647   6.615   2.260
 4852TIP3    H214490   5.732   6.733   2.212
 4853TIP3   OH214491   4.667   6.216   2.610
 4853TIP3    H114492   4.682   6.120   2.614
 4853TIP3    H214493   4.581   6.221   2.562
 4854TIP3   OH214494   4.651   5.866   0.803
 4854TIP3    H114495   4.709   5.833   0.874
 4854TIP3    H214496   4.717   5.881   0.733
 4855TIP3   OH214497   5.272   6.302   2.385
 4855TIP3    H114498   5.234   6.326   2.297
 4855TIP3    H214499   5.304   6.211   2.371
 4856TIP3   OH214500   5.137   6.075   0.607
 4856TIP3    H114501   5.156   6.081   0.703
 4856TIP3    H214502   5.143   5.979   0.593
 4857TIP3   OH214503   5.769   6.314   1.995
 4857TIP3    H114504   5.846   6.357   1.949
 4857TIP3    H214505   5.699   6.378   1.972
 4858TIP3   OH214506   4.787   5.951   2.597
 4858TIP3    H114507   4.869   5.924   2.553
 4858TIP3    H214508   4.820   5.984   2.683
 4859TIP3   OH214509   4.855   5.775   1.022
 4859TIP3    H114510   4.822   5.739   1.107
 4859TIP3    H214511   4.891   5.696   0.978
 4860TIP3   OH214512   5.124   5.831   2.252
 4860TIP3    H114513   5.048   5.893   2.254
 4860TIP3    H214514   5.177   5.869   2.177
 4861TIP3   OH214515   4.957   5.567   0.868
 4861TIP3    H114516   4.932   5.572   0.773
 4861TIP3    H214517   5.055   5.566   0.860
 4862TIP3   OH214518   5.644   6.238   2.388
 4862TIP3    H114519   5.714   6.205   2.330
 4862TIP3    H214520   5.640   6.168   2.456
 4863TIP3   OH214521   5.775   5.858   0.538
 4863TIP3    H114522   5.803   5.791   0.472
 4863TIP3    H214523   5.774   5.941   0.485
 4864TIP3   OH214524   5.241   5.623   2.379
 4864TIP3    H114525   5.248   5.547   2.318
 4864TIP3    H214526   5.203   5.692   2.321
 4865TIP3   OH214527   5.248   5.411   2.191
 4865TIP3    H114528   5.281   5.455   2.110
 4865TIP3    H214529   5.156   5.390   2.165
 4866TIP3   OH214530   5.276   5.950   2.067
 4866TIP3    H114531   5.358   5.964   2.018
 4866TIP3    H214532   5.215   6.010   2.020
 4867TIP3   OH214533   5.859   5.913   2.440
 4867TIP3    H114534   5.906   5.828   2.440
 4867TIP3    H214535   5.923   5.971   2.398
 4868TIP3   OH214536   5.892   6.167   2.184
 4868TIP3    H114537   5.837   6.222   2.123
 4868TIP3    H214538   5.981   6.184   2.144
 4869TIP3   OH214539   5.126   5.729   2.615
 4869TIP3    H114540   5.048   5.672   2.623
 4869TIP3    H214541   5.159   5.706   2.526
 4870TIP3   OH214542   5.383   5.174   2.256
 4870TIP3    H114543   5.332   5.254   2.232
 4870TIP3    H214544   5.318   5.102   2.242
 4871TIP3   OH214545   5.506   5.674   2.470
 4871TIP3    H114546   5.492   5.659   2.565
 4871TIP3    H214547   5.417   5.651   2.436
 4872TIP3   OH214548   5.749   5.635   2.329
 4872TIP3    H114549   5.673   5.630   2.390
 4872TIP3    H214550   5.823   5.601   2.383
 4873TIP3   OH214551   5.978   5.570   2.477
 4873TIP3    H114552   5.990   5.474   2.490
 4873TIP3    H214553   5.974   5.605   2.568
 4874TIP3   OH214554   4.961   5.493   2.666
 4874TIP3    H114555   5.032   5.448   2.620
 4874TIP3    H214556   4.992   5.486   2.758
 4875TIP3   OH214557   5.477   5.184   2.513
 4875TIP3    H114558   5.541   5.111   2.507
 4875TIP3    H214559   5.438   5.180   2.423
 4876TIP3   OH214560   5.543   5.398   2.672
 4876TIP3    H114561   5.523   5.325   2.608
 4876TIP3    H214562   5.464   5.454   2.664
 4877TIP3   OH214563   4.763   6.636   0.772
 4877TIP3    H114564   4.857   6.626   0.748
 4877TIP3    H214565   4.729   6.677   0.690
 4878TIP3   OH214566   4.242   6.010   0.985
 4878TIP3    H114567   4.337   6.032   0.970
 4878TIP3    H214568   4.237   5.921   0.945
 4879TIP3   OH214569   4.154   6.623   1.403
 4879TIP3    H114570   4.091   6.558   1.365
 4879TIP3    H214571   4.201   6.566   1.469
 4880TIP3   OH214572   4.288   6.472   1.590
 4880TIP3    H114573   4.280   6.397   1.651
 4880TIP3    H214574   4.347   6.530   1.641
 4881TIP3   OH214575   6.022   6.875   1.388
 4881TIP3    H114576   6.042   6.890   1.483
 4881TIP3    H214577   6.095   6.920   1.344
 4882TIP3   OH214578   6.048   6.890   1.661
 4882TIP3    H114579   6.006   6.801   1.664
 4882TIP3    H214580   6.106   6.878   1.741
 4883TIP3   OH214581   6.097   6.562   2.250
 4883TIP3    H114582   6.025   6.579   2.314
 4883TIP3    H214583   6.136   6.650   2.239
 4884TIP3   OH214584   5.916   6.082   0.870
 4884TIP3    H114585   5.993   6.138   0.854
 4884TIP3    H214586   5.946   6.034   0.951
 4885TIP3   OH214587   6.038   5.951   1.072
 4885TIP3    H114588   5.972   5.905   1.129
 4885TIP3    H214589   6.104   5.983   1.138
 4886TIP3   OH214590   6.098   6.344   1.499
 4886TIP3    H114591   6.151   6.274   1.454
 4886TIP3    H214592   6.078   6.405   1.427
 4887TIP3   OH214593   5.923   6.647   1.687
 4887TIP3    H114594   5.862   6.677   1.756
 4887TIP3    H214595   5.865   6.598   1.625
 4888TIP3   OH214596   5.979   5.855   0.720
 4888TIP3    H114597   5.902   5.838   0.661
 4888TIP3    H214598   5.946   5.932   0.770
 4889TIP3   OH214599   5.852   5.540   0.649
 4889TIP3    H114600   5.823   5.554   0.558
 4889TIP3    H214601   5.817   5.449   0.664
 4890TIP3   OH214602   5.854   5.805   1.210
 4890TIP3    H114603   5.860   5.709   1.201
 4890TIP3    H214604   5.839   5.816   1.306
 4891TIP3   OH214605   4.479   5.872   1.962
 4891TIP3    H114606   4.479   5.844   1.868
 4891TIP3    H214607   4.576   5.881   1.978
 4892TIP3   OH214608   6.136   6.222   2.073
 4892TIP3    H114609   6.211   6.161   2.059
 4892TIP3    H214610   6.160   6.297   2.015
 4893TIP3   OH214611   6.329   6.031   2.080
 4893TIP3    H114612   6.253   5.983   2.121
 4893TIP3    H214613   6.401   5.967   2.098
 4894TIP3   OH214614   5.776   5.283   0.684
 4894TIP3    H114615   5.859   5.241   0.712
 4894TIP3    H214616   5.709   5.212   0.692
 4895TIP3   OH214617   5.855   5.519   1.106
 4895TIP3    H114618   5.896   5.432   1.126
 4895TIP3    H214619   5.911   5.547   1.031
 4896TIP3   OH214620   6.010   5.695   1.603
 4896TIP3    H114621   6.096   5.719   1.562
 4896TIP3    H214622   6.025   5.731   1.693
 4897TIP3   OH214623   6.085   5.842   1.833
 4897TIP3    H114624   6.006   5.875   1.880
 4897TIP3    H214625   6.117   5.923   1.788
 4898TIP3   OH214626   4.687   5.550   2.631
 4898TIP3    H114627   4.784   5.534   2.630
 4898TIP3    H214628   4.664   5.523   2.721
 4899TIP3   OH214629   6.534   5.435   2.387
 4899TIP3    H114630   6.594   5.370   2.345
 4899TIP3    H214631   6.501   5.485   2.310
 4900TIP3   OH214632   5.971   5.268   1.153
 4900TIP3    H114633   6.032   5.230   1.218
 4900TIP3    H214634   5.903   5.197   1.147
 4901TIP3   OH214635   4.659   5.260   1.977
 4901TIP3    H114636   4.720   5.184   1.973
 4901TIP3    H214637   4.721   5.333   1.958
 4902TIP3   OH214638   4.461   5.532   2.039
 4902TIP3    H114639   4.510   5.525   1.954
 4902TIP3    H214640   4.484   5.621   2.065
 4903TIP3   OH214641   6.400   5.568   2.191
 4903TIP3    H114642   6.314   5.612   2.204
 4903TIP3    H214643   6.370   5.494   2.134
 4904TIP3   OH214644   6.037   5.206   0.771
 4904TIP3    H114645   6.066   5.131   0.715
 4904TIP3    H214646   6.111   5.269   0.763
 4905TIP3   OH214647   4.446   5.039   1.541
 4905TIP3    H114648   4.352   5.030   1.564
 4905TIP3    H214649   4.442   5.096   1.461
 4906TIP3   OH214650   5.617   6.740   1.044
 4906TIP3    H114651   5.662   6.734   0.957
 4906TIP3    H214652   5.668   6.808   1.090
 4907TIP3   OH214653   4.656   5.147   2.374
 4907TIP3    H114654   4.572   5.104   2.399
 4907TIP3    H214655   4.625   5.185   2.289
 4908TIP3   OH214656   4.704   6.551   2.429
 4908TIP3    H114657   4.614   6.520   2.409
 4908TIP3    H214658   4.714   6.524   2.521
 4909TIP3   OH214659   4.883   6.588   1.981
 4909TIP3    H114660   4.840   6.663   1.936
 4909TIP3    H214661   4.969   6.592   1.935
 4910TIP3   OH214662   5.327   6.823   2.116
 4910TIP3    H114663   5.372   6.822   2.203
 4910TIP3    H214664   5.394   6.870   2.061
 4911TIP3   OH214665   5.508   6.971   1.971
 4911TIP3    H114666   5.581   6.919   1.932
 4911TIP3    H214667   5.560   7.028   2.033
 4912TIP3   OH214668   6.299   5.334   2.075
 4912TIP3    H114669   6.212   5.322   2.034
 4912TIP3    H214670   6.336   5.242   2.068
 4913TIP3   OH214671   4.558   6.838   1.996
 4913TIP3    H114672   4.468   6.871   1.976
 4913TIP3    H214673   4.568   6.869   2.087
 4914TIP3   OH214674   4.797   6.819   1.861
 4914TIP3    H114675   4.708   6.829   1.901
 4914TIP3    H214676   4.779   6.842   1.768
 4915TIP3   OH214677   5.220   6.841   1.656
 4915TIP3    H114678   5.147   6.855   1.593
 4915TIP3    H214679   5.229   6.929   1.698
 4916TIP3   OH214680   5.486   6.775   1.703
 4916TIP3    H114681   5.392   6.795   1.684
 4916TIP3    H214682   5.531   6.852   1.667
 4917TIP3   OH214683   5.699   6.973   1.619
 4917TIP3    H114684   5.686   7.055   1.567
 4917TIP3    H214685   5.725   6.909   1.549
 4918TIP3   OH214686   4.472   6.623   1.746
 4918TIP3    H114687   4.501   6.597   1.836
 4918TIP3    H214688   4.544   6.581   1.694
 4919TIP3   OH214689   4.670   6.498   1.608
 4919TIP3    H114690   4.688   6.409   1.646
 4919TIP3    H214691   4.762   6.528   1.593
 4920TIP3   OH214692   4.944   6.599   1.591
 4920TIP3    H114693   4.957   6.505   1.563
 4920TIP3    H214694   4.988   6.593   1.677
 4921TIP3   OH214695   5.507   5.248   1.696
 4921TIP3    H114696   5.465   5.174   1.744
 4921TIP3    H214697   5.582   5.204   1.650
 4922TIP3   OH214698   6.035   5.143   1.613
 4922TIP3    H114699   6.097   5.131   1.536
 4922TIP3    H214700   5.949   5.150   1.570
 4923TIP3   OH214701   4.754   4.956   1.711
 4923TIP3    H114702   4.661   4.925   1.712
 4923TIP3    H214703   4.801   4.870   1.704
 4924TIP3   OH214704   4.545   4.829   1.360
 4924TIP3    H114705   4.575   4.881   1.284
 4924TIP3    H214706   4.520   4.898   1.425
 4925TIP3   OH214707   5.201   4.988   1.591
 4925TIP3    H114708   5.254   5.035   1.525
 4925TIP3    H214709   5.234   5.028   1.674
 4926TIP3   OH214710   5.738   5.134   1.567
 4926TIP3    H114711   5.729   5.097   1.479
 4926TIP3    H214712   5.729   5.054   1.624
 4927TIP3   OH214713   5.781   5.063   1.139
 4927TIP3    H114714   5.692   5.101   1.146
 4927TIP3    H214715   5.767   4.975   1.181
 4928TIP3   OH214716   4.256   6.402   1.134
 4928TIP3    H114717   4.170   6.371   1.101
 4928TIP3    H214718   4.250   6.496   1.110
 4929TIP3   OH214719   4.662   4.984   1.120
 4929TIP3    H114720   4.707   4.921   1.061
 4929TIP3    H214721   4.737   5.037   1.153
 4930TIP3   OH214722   5.169   5.163   1.219
 4930TIP3    H114723   5.232   5.116   1.277
 4930TIP3    H214724   5.192   5.256   1.243
 4931TIP3   OH214725   5.028   6.583   0.710
 4931TIP3    H114726   5.122   6.595   0.688
 4931TIP3    H214727   5.009   6.506   0.653
 4932TIP3   OH214728   5.764   6.701   0.805
 4932TIP3    H114729   5.749   6.605   0.792
 4932TIP3    H214730   5.736   6.737   0.719
 4933TIP3   OH214731   5.198   5.253   2.720
 4933TIP3    H114732   5.275   5.217   2.672
 4933TIP3    H214733   5.184   5.183   2.787
 4934TIP3   OH214734   4.332   6.411   0.772
 4934TIP3    H114735   4.343   6.439   0.864
 4934TIP3    H214736   4.421   6.374   0.752
 4935TIP3   OH214737   6.040   5.299   2.505
 4935TIP3    H114738   6.058   5.267   2.595
 4935TIP3    H214739   6.129   5.293   2.463
 4936TIP3   OH214740   7.228   6.209   1.150
 4936TIP3    H114741   7.274   6.198   1.236
 4936TIP3    H214742   7.185   6.122   1.141
 4937TIP3   OH214743   6.541   6.115   1.506
 4937TIP3    H114744   6.566   6.043   1.566
 4937TIP3    H214745   6.615   6.176   1.518
 4938TIP3   OH214746   6.513   6.528   1.227
 4938TIP3    H114747   6.507   6.430   1.231
 4938TIP3    H214748   6.610   6.538   1.236
 4939TIP3   OH214749   6.226   5.745   1.006
 4939TIP3    H114750   6.163   5.816   1.027
 4939TIP3    H214751   6.166   5.670   0.997
 4940TIP3   OH214752   6.279   6.016   1.196
 4940TIP3    H114753   6.324   5.936   1.232
 4940TIP3    H214754   6.335   6.037   1.120
 4941TIP3   OH214755   7.040   6.448   1.191
 4941TIP3    H114756   7.081   6.369   1.152
 4941TIP3    H214757   7.122   6.497   1.216
 4942TIP3   OH214758   8.043   5.776   1.195
 4942TIP3    H114759   8.077   5.852   1.244
 4942TIP3    H214760   8.073   5.794   1.105
 4943TIP3   OH214761   7.457   5.950   1.235
 4943TIP3    H114762   7.496   5.863   1.254
 4943TIP3    H214763   7.425   5.937   1.144
 4944TIP3   OH214764   6.800   5.608   1.186
 4944TIP3    H114765   6.770   5.679   1.125
 4944TIP3    H214766   6.751   5.532   1.147
 4945TIP3   OH214767   7.459   5.701   0.845
 4945TIP3    H114768   7.543   5.683   0.893
 4945TIP3    H214769   7.493   5.716   0.755
 4946TIP3   OH214770   6.423   5.809   1.297
 4946TIP3    H114771   6.507   5.787   1.343
 4946TIP3    H214772   6.427   5.744   1.224
 4947TIP3   OH214773   6.863   6.006   1.090
 4947TIP3    H114774   6.956   5.979   1.106
 4947TIP3    H214775   6.823   5.922   1.059
 4948TIP3   OH214776   6.789   5.593   1.625
 4948TIP3    H114777   6.726   5.625   1.558
 4948TIP3    H214778   6.736   5.607   1.706
 4949TIP3   OH214779   6.897   6.369   1.417
 4949TIP3    H114780   6.835   6.435   1.454
 4949TIP3    H214781   6.936   6.418   1.342
 4950TIP3   OH214782   7.698   5.703   0.984
 4950TIP3    H114783   7.675   5.658   1.067
 4950TIP3    H214784   7.739   5.785   1.017
 4951TIP3   OH214785   6.660   5.705   1.406
 4951TIP3    H114786   6.722   5.776   1.432
 4951TIP3    H214787   6.711   5.664   1.332
 4952TIP3   OH214788   6.727   6.563   1.515
 4952TIP3    H114789   6.701   6.652   1.483
 4952TIP3    H214790   6.648   6.544   1.571
 4953TIP3   OH214791   6.113   6.251   0.748
 4953TIP3    H114792   6.020   6.272   0.732
 4953TIP3    H214793   6.146   6.336   0.783
 4954TIP3   OH214794   7.850   5.660   1.359
 4954TIP3    H114795   7.762   5.693   1.333
 4954TIP3    H214796   7.908   5.697   1.289
 4955TIP3   OH214797   7.142   5.309   1.344
 4955TIP3    H114798   7.125   5.214   1.361
 4955TIP3    H214799   7.064   5.349   1.390
 4956TIP3   OH214800   8.012   6.299   1.219
 4956TIP3    H114801   7.919   6.327   1.226
 4956TIP3    H214802   8.032   6.336   1.132
 4957TIP3   OH214803   7.653   6.191   1.484
 4957TIP3    H114804   7.649   6.273   1.537
 4957TIP3    H214805   7.567   6.194   1.438
 4958TIP3   OH214806   6.658   6.156   0.984
 4958TIP3    H114807   6.612   6.094   0.923
 4958TIP3    H214808   6.733   6.101   1.016
 4959TIP3   OH214809   6.788   6.571   1.140
 4959TIP3    H114810   6.759   6.537   1.054
 4959TIP3    H214811   6.876   6.529   1.151
 4960TIP3   OH214812   6.797   6.122   1.339
 4960TIP3    H114813   6.824   6.102   1.248
 4960TIP3    H214814   6.835   6.211   1.355
 4961TIP3   OH214815   7.291   6.746   1.095
 4961TIP3    H114816   7.301   6.827   1.147
 4961TIP3    H214817   7.292   6.675   1.162
 4962TIP3   OH214818   6.926   6.679   1.666
 4962TIP3    H114819   6.862   6.740   1.709
 4962TIP3    H214820   6.863   6.626   1.612
 4963TIP3   OH214821   6.682   6.236   1.763
 4963TIP3    H114822   6.686   6.324   1.805
 4963TIP3    H214823   6.588   6.214   1.780
 4964TIP3   OH214824   6.724   6.848   1.750
 4964TIP3    H114825   6.684   6.848   1.661
 4964TIP3    H214826   6.648   6.819   1.806
 4965TIP3   OH214827   6.515   5.991   0.818
 4965TIP3    H114828   6.450   6.026   0.754
 4965TIP3    H214829   6.479   5.903   0.837
 4966TIP3   OH214830   6.304   6.383   1.692
 4966TIP3    H114831   6.231   6.361   1.631
 4966TIP3    H214832   6.338   6.296   1.719
 4967TIP3   OH214833   6.156   6.585   1.309
 4967TIP3    H114834   6.250   6.568   1.324
 4967TIP3    H214835   6.136   6.645   1.382
 4968TIP3   OH214836   7.115   6.810   1.519
 4968TIP3    H114837   7.113   6.904   1.547
 4968TIP3    H214838   7.044   6.771   1.575
 4969TIP3   OH214839   6.296   6.774   0.873
 4969TIP3    H114840   6.371   6.774   0.935
 4969TIP3    H214841   6.222   6.761   0.938
 4970TIP3   OH214842   7.917   6.168   1.665
 4970TIP3    H114843   7.846   6.176   1.601
 4970TIP3    H214844   7.950   6.078   1.645
 4971TIP3   OH214845   6.508   6.563   1.674
 4971TIP3    H114846   6.548   6.557   1.763
 4971TIP3    H214847   6.430   6.503   1.684
 4972TIP3   OH214848   6.904   5.388   1.467
 4972TIP3    H114849   6.816   5.355   1.439
 4972TIP3    H214850   6.875   5.465   1.520
 4973TIP3   OH214851   7.439   5.501   1.665
 4973TIP3    H114852   7.508   5.472   1.728
 4973TIP3    H214853   7.356   5.482   1.712
 4974TIP3   OH214854   7.670   5.924   1.579
 4974TIP3    H114855   7.624   5.925   1.665
 4974TIP3    H214856   7.655   6.015   1.547
 4975TIP3   OH214857   6.839   5.901   1.490
 4975TIP3    H114858   6.784   5.920   1.570
 4975TIP3    H214859   6.823   5.983   1.437
 4976TIP3   OH214860   6.718   5.786   0.998
 4976TIP3    H114861   6.627   5.759   1.023
 4976TIP3    H214862   6.721   5.749   0.907
 4977TIP3   OH214863   7.386   6.151   1.816
 4977TIP3    H114864   7.363   6.078   1.878
 4977TIP3    H214865   7.481   6.162   1.835
 4978TIP3   OH214866   7.366   5.912   0.983
 4978TIP3    H114867   7.317   5.956   0.912
 4978TIP3    H214868   7.395   5.828   0.940
 4979TIP3   OH214869   6.657   5.929   1.694
 4979TIP3    H114870   6.670   5.994   1.764
 4979TIP3    H214871   6.643   5.847   1.745
 4980TIP3   OH214872   6.280   5.502   1.235
 4980TIP3    H114873   6.316   5.487   1.324
 4980TIP3    H214874   6.264   5.411   1.204
 4981TIP3   OH214875   6.223   5.438   0.807
 4981TIP3    H114876   6.269   5.470   0.727
 4981TIP3    H214877   6.155   5.507   0.820
 4982TIP3   OH214878   7.372   6.151   1.389
 4982TIP3    H114879   7.410   6.080   1.332
 4982TIP3    H214880   7.344   6.095   1.465
 4983TIP3   OH214881   7.049   5.609   1.059
 4983TIP3    H114882   6.966   5.609   1.110
 4983TIP3    H214883   7.115   5.605   1.130
 4984TIP3   OH214884   6.484   5.667   1.062
 4984TIP3    H114885   6.388   5.678   1.042
 4984TIP3    H214886   6.492   5.570   1.060
 4985TIP3   OH214887   6.749   5.675   0.743
 4985TIP3    H114888   6.846   5.675   0.759
 4985TIP3    H214889   6.743   5.715   0.655
 4986TIP3   OH214890   7.537   5.686   1.259
 4986TIP3    H114891   7.510   5.698   1.353
 4986TIP3    H214892   7.468   5.625   1.229
 4987TIP3   OH214893   6.670   6.483   1.904
 4987TIP3    H114894   6.746   6.517   1.956
 4987TIP3    H214895   6.600   6.485   1.973
 4988TIP3   OH214896   7.127   5.940   1.165
 4988TIP3    H114897   7.207   5.899   1.128
 4988TIP3    H214898   7.123   5.900   1.255
 4989TIP3   OH214899   6.662   5.419   1.045
 4989TIP3    H114900   6.612   5.352   1.097
 4989TIP3    H214901   6.699   5.364   0.975
 4990TIP3   OH214902   7.107   5.848   1.436
 4990TIP3    H114903   7.015   5.874   1.460
 4990TIP3    H214904   7.162   5.903   1.495
 4991TIP3   OH214905   7.752   6.368   1.159
 4991TIP3    H114906   7.730   6.460   1.133
 4991TIP3    H214907   7.662   6.330   1.162
 4992TIP3   OH214908   7.248   6.538   1.545
 4992TIP3    H114909   7.256   6.509   1.636
 4992TIP3    H214910   7.200   6.622   1.553
 4993TIP3   OH214911   6.540   6.254   1.220
 4993TIP3    H114912   6.578   6.217   1.138
 4993TIP3    H214913   6.568   6.191   1.287
 4994TIP3   OH214914   6.422   6.163   1.829
 4994TIP3    H114915   6.430   6.154   1.926
 4994TIP3    H214916   6.346   6.105   1.810
 4995TIP3   OH214917   7.143   6.286   1.851
 4995TIP3    H114918   7.078   6.224   1.814
 4995TIP3    H214919   7.227   6.245   1.822
 4996TIP3   OH214920   7.389   6.787   1.461
 4996TIP3    H114921   7.292   6.787   1.448
 4996TIP3    H214922   7.396   6.839   1.544
 4997TIP3   OH214923   7.488   6.307   1.118
 4997TIP3    H114924   7.392   6.292   1.110
 4997TIP3    H214925   7.522   6.235   1.060
 4998TIP3   OH214926   6.644   6.566   0.887
 4998TIP3    H114927   6.651   6.612   0.801
 4998TIP3    H214928   6.553   6.584   0.912
 4999TIP3   OH214929   6.195   5.858   0.558
 4999TIP3    H114930   6.241   5.931   0.605
 4999TIP3    H214931   6.116   5.848   0.616
 5000TIP3   OH214932   6.765   6.337   0.802
 5000TIP3    H114933   6.737   6.418   0.848
 5000TIP3    H214934   6.747   6.268   0.868
 5001TIP3   OH214935   6.905   6.887   1.318
 5001TIP3    H114936   6.948   6.953   1.259
 5001TIP3    H214937   6.984   6.849   1.361
 5002TIP3   OH214938   7.294   6.521   1.274
 5002TIP3    H114939   7.283   6.518   1.372
 5002TIP3    H214940   7.370   6.463   1.260
 5003TIP3   OH214941   6.624   5.674   1.838
 5003TIP3    H114942   6.526   5.677   1.847
 5003TIP3    H214943   6.648   5.613   1.909
 5004TIP3   OH214944   6.348   6.758   1.472
 5004TIP3    H114945   6.403   6.686   1.508
 5004TIP3    H214946   6.341   6.815   1.549
 5005TIP3   OH214947   6.316   6.091   0.654
 5005TIP3    H114948   6.244   6.134   0.705
 5005TIP3    H214949   6.339   6.163   0.594
 5006TIP3   OH214950   7.470   5.733   1.518
 5006TIP3    H114951   7.547   5.778   1.556
 5006TIP3    H214952   7.458   5.656   1.578
 5007TIP3   OH214953   7.020   5.662   0.793
 5007TIP3    H114954   7.095   5.721   0.776
 5007TIP3    H214955   7.027   5.651   0.891
 5008TIP3   OH214956   7.306   5.987   1.597
 5008TIP3    H114957   7.327   6.039   1.677
 5008TIP3    H214958   7.358   5.906   1.610
 5009TIP3   OH214959   7.191   5.404   0.906
 5009TIP3    H114960   7.174   5.468   0.977
 5009TIP3    H214961   7.263   5.448   0.859
 5010TIP3   OH214962   6.689   5.394   0.671
 5010TIP3    H114963   6.675   5.481   0.713
 5010TIP3    H214964   6.777   5.372   0.710
 5011TIP3   OH214965   7.943   5.911   1.564
 5011TIP3    H114966   7.846   5.903   1.574
 5011TIP3    H214967   7.959   5.844   1.497
 5012TIP3   OH214968   7.589   6.092   0.980
 5012TIP3    H114969   7.520   6.025   0.985
 5012TIP3    H214970   7.667   6.043   1.012
 5013TIP3   OH214971   6.260   5.587   0.568
 5013TIP3    H114972   6.232   5.680   0.569
 5013TIP3    H214973   6.180   5.543   0.536
 5014TIP3   OH214974   6.642   5.310   1.439
 5014TIP3    H114975   6.605   5.272   1.357
 5014TIP3    H214976   6.630   5.235   1.502
 5015TIP3   OH214977   6.161   6.509   0.826
 5015TIP3    H114978   6.117   6.541   0.906
 5015TIP3    H214979   6.241   6.565   0.826
 5016TIP3   OH214980   6.349   7.105   1.880
 5016TIP3    H114981   6.430   7.088   1.933
 5016TIP3    H214982   6.305   7.017   1.885
 5017TIP3   OH214983   6.815   7.025   1.942
 5017TIP3    H114984   6.910   7.006   1.941
 5017TIP3    H214985   6.784   6.966   1.870
 5018TIP3   OH214986   7.443   6.932   1.685
 5018TIP3    H114987   7.442   6.863   1.756
 5018TIP3    H214988   7.527   6.978   1.702
 5019TIP3   OH214989   6.470   6.474   2.099
 5019TIP3    H114990   6.484   6.378   2.103
 5019TIP3    H214991   6.384   6.478   2.052
 5020TIP3   OH214992   7.076   6.562   1.868
 5020TIP3    H114993   7.026   6.580   1.785
 5020TIP3    H214994   7.100   6.467   1.858
 5021TIP3   OH214995   7.562   6.567   1.475
 5021TIP3    H114996   7.611   6.636   1.430
 5021TIP3    H214997   7.474   6.608   1.477
 5022TIP3   OH214998   6.587   6.212   2.080
 5022TIP3    H114999   6.661   6.155   2.056
 5022TIP3    H215000   6.616   6.245   2.167
 5023TIP3   OH215001   6.925   6.099   1.746
 5023TIP3    H115002   6.842   6.151   1.742
 5023TIP3    H215003   6.972   6.131   1.666
 5024TIP3   OH215004   7.447   6.492   1.872
 5024TIP3    H115005   7.516   6.451   1.816
 5024TIP3    H215006   7.435   6.424   1.941
 5025TIP3   OH215007   7.046   5.883   1.862
 5025TIP3    H115008   7.043   5.804   1.805
 5025TIP3    H215009   7.000   5.950   1.807
 5026TIP3   OH215010   7.047   5.671   1.672
 5026TIP3    H115011   7.073   5.707   1.585
 5026TIP3    H215012   6.953   5.646   1.656
 5027TIP3   OH215013   7.072   6.203   1.547
 5027TIP3    H115014   7.156   6.215   1.501
 5027TIP3    H215015   7.013   6.266   1.500
 5028TIP3   OH215016   7.657   6.167   1.925
 5028TIP3    H115017   7.700   6.081   1.937
 5028TIP3    H215018   7.728   6.219   1.885
 5029TIP3   OH215019   7.667   6.426   1.682
 5029TIP3    H115020   7.616   6.477   1.615
 5029TIP3    H215021   7.755   6.431   1.640
 5030TIP3   OH215022   6.925   5.988   2.099
 5030TIP3    H115023   6.856   5.919   2.115
 5030TIP3    H215024   6.955   5.964   2.009
 5031TIP3   OH215025   7.177   5.430   1.742
 5031TIP3    H115026   7.126   5.510   1.719
 5031TIP3    H215027   7.109   5.360   1.731
 5032TIP3   OH215028   7.303   5.933   1.958
 5032TIP3    H115029   7.286   5.916   2.052
 5032TIP3    H215030   7.215   5.910   1.922
 5033TIP3   OH215031   7.543   5.887   1.814
 5033TIP3    H115032   7.468   5.886   1.878
 5033TIP3    H215033   7.617   5.855   1.869
 5034TIP3   OH215034   7.773   5.828   1.960
 5034TIP3    H115035   7.785   5.731   1.975
 5034TIP3    H215036   7.771   5.863   2.052
 5035TIP3   OH215037   6.763   5.770   2.152
 5035TIP3    H115038   6.762   5.678   2.119
 5035TIP3    H215039   6.799   5.756   2.242
 5036TIP3   OH215040   7.272   5.440   2.000
 5036TIP3    H115041   7.337   5.368   1.993
 5036TIP3    H215042   7.230   5.435   1.911
 5037TIP3   OH215043   7.339   5.655   2.158
 5037TIP3    H115044   7.318   5.584   2.094
 5037TIP3    H215045   7.260   5.712   2.152
 5038TIP3   OH215046   5.953   6.882   0.895
 5038TIP3    H115047   5.887   6.825   0.849
 5038TIP3    H215048   5.991   6.817   0.958
 5039TIP3   OH215049   6.107   6.721   1.067
 5039TIP3    H115050   6.088   6.651   1.133
 5039TIP3    H215051   6.146   6.786   1.128
 5040TIP3   OH215052   6.274   6.137   1.445
 5040TIP3    H115053   6.272   6.101   1.354
 5040TIP3    H215054   6.371   6.137   1.463
 5041TIP3   OH215055   7.894   6.465   1.539
 5041TIP3    H115056   7.981   6.429   1.561
 5041TIP3    H215057   7.917   6.525   1.465
 5042TIP3   OH215058   7.807   5.947   1.073
 5042TIP3    H115059   7.890   5.981   1.040
 5042TIP3    H215060   7.810   5.982   1.165
 5043TIP3   OH215061   7.850   6.080   1.304
 5043TIP3    H115062   7.783   6.119   1.363
 5043TIP3    H215063   7.918   6.150   1.300
 5044TIP3   OH215064   6.496   5.822   2.128
 5044TIP3    H115065   6.594   5.814   2.126
 5044TIP3    H215066   6.472   5.733   2.161
 5045TIP3   OH215067   6.451   5.514   1.470
 5045TIP3    H115068   6.507   5.434   1.466
 5045TIP3    H215069   6.515   5.583   1.447
 5046TIP3   OH215070   6.255   5.788   1.523
 5046TIP3    H115071   6.304   5.778   1.439
 5046TIP3    H215072   6.289   5.872   1.556
 5047TIP3   OH215073   6.245   5.286   1.030
 5047TIP3    H115074   6.151   5.276   1.053
 5047TIP3    H215075   6.241   5.349   0.955
 5048TIP3   OH215076   6.464   5.372   1.843
 5048TIP3    H115077   6.408   5.368   1.922
 5048TIP3    H215078   6.400   5.408   1.777
 5049TIP3   OH215079   6.519   6.785   1.918
 5049TIP3    H115080   6.423   6.787   1.897
 5049TIP3    H215081   6.514   6.778   2.014
 5050TIP3   OH215082   6.682   6.833   1.465
 5050TIP3    H115083   6.629   6.905   1.425
 5050TIP3    H215084   6.767   6.848   1.418
 5051TIP3   OH215085   7.139   7.086   1.597
 5051TIP3    H115086   7.169   7.083   1.690
 5051TIP3    H215087   7.212   7.135   1.555
 5052TIP3   OH215088   8.080   5.566   1.576
 5052TIP3    H115089   8.005   5.591   1.521
 5052TIP3    H215090   8.133   5.511   1.516
 5053TIP3   OH215091   6.354   7.101   1.481
 5053TIP3    H115092   6.263   7.135   1.468
 5053TIP3    H215093   6.362   7.107   1.577
 5054TIP3   OH215094   6.584   7.063   1.343
 5054TIP3    H115095   6.498   7.076   1.388
 5054TIP3    H215096   6.564   7.088   1.252
 5055TIP3   OH215097   7.006   7.073   1.155
 5055TIP3    H115098   6.947   7.107   1.085
 5055TIP3    H215099   7.028   7.151   1.207
 5056TIP3   OH215100   6.272   6.883   1.231
 5056TIP3    H115101   6.294   6.854   1.322
 5056TIP3    H215102   6.344   6.836   1.183
 5057TIP3   OH215103   6.465   6.752   1.085
 5057TIP3    H115104   6.476   6.671   1.141
 5057TIP3    H215105   6.556   6.788   1.090
 5058TIP3   OH215106   6.728   6.843   1.100
 5058TIP3    H115107   6.759   6.750   1.095
 5058TIP3    H215108   6.779   6.872   1.178
 5059TIP3   OH215109   7.297   5.497   1.173
 5059TIP3    H115110   7.258   5.430   1.232
 5059TIP3    H215111   7.376   5.451   1.139
 5060TIP3   OH215112   7.829   5.386   1.089
 5060TIP3    H115113   7.870   5.435   1.014
 5060TIP3    H215114   7.734   5.404   1.077
 5061TIP3   OH215115   6.308   3.843   9.038
 5061TIP3    H115116   6.355   3.797   8.967
 5061TIP3    H215117   6.307   3.934   9.007
 5062TIP3   OH215118   6.550   5.215   1.193
 5062TIP3    H115119   6.456   5.193   1.207
 5062TIP3    H215120   6.590   5.126   1.190
 5063TIP3   OH215121   6.348   5.081   0.846
 5063TIP3    H115122   6.379   5.142   0.776
 5063TIP3    H215123   6.313   5.144   0.912
 5064TIP3   OH215124   7.001   5.238   1.078
 5064TIP3    H115125   7.059   5.297   1.028
 5064TIP3    H215126   7.004   5.277   1.167
 5065TIP3   OH215127   7.544   5.391   1.055
 5065TIP3    H115128   7.550   5.342   0.972
 5065TIP3    H215129   7.532   5.317   1.119
 5066TIP3   OH215130   6.458   5.234   0.647
 5066TIP3    H115131   6.460   5.192   0.561
 5066TIP3    H215132   6.540   5.287   0.649
 5067TIP3   OH215133   6.938   5.396   0.773
 5067TIP3    H115134   7.012   5.346   0.811
 5067TIP3    H215135   6.973   5.487   0.782
 5068TIP3   OH215136   6.757   5.500   2.093
 5068TIP3    H115137   6.721   5.425   2.143
 5068TIP3    H215138   6.852   5.495   2.118
 5069TIP3   OH215139   7.011   5.493   2.207
 5069TIP3    H115140   7.094   5.465   2.165
 5069TIP3    H215141   6.997   5.421   2.273
 5070TIP3   OH215142   7.831   5.556   1.994
 5070TIP3    H115143   7.851   5.524   2.084
 5070TIP3    H215144   7.920   5.551   1.952
 5071TIP3   OH215145   0.510   6.555   2.883
 5071TIP3    H115146   0.537   6.639   2.925
 5071TIP3    H215147   0.529   6.575   2.789
 5072TIP3   OH215148  -0.061   6.460   2.500
 5072TIP3    H115149   0.006   6.475   2.569
 5072TIP3    H215150  -0.035   6.523   2.432
 5073TIP3   OH215151   0.576   6.766   3.055
 5073TIP3    H115152   0.491   6.813   3.041
 5073TIP3    H215153   0.601   6.801   3.142
 5074TIP3   OH215154   0.145   6.504   2.670
 5074TIP3    H115155   0.153   6.424   2.723
 5074TIP3    H215156   0.203   6.568   2.715
 5075TIP3   OH215157   0.307   6.465   3.051
 5075TIP3    H115158   0.225   6.503   3.015
 5075TIP3    H215159   0.373   6.489   2.982
 5076TIP3   OH215160   0.224   7.484   3.030
 5076TIP3    H115161   0.205   7.397   2.992
 5076TIP3    H215162   0.261   7.534   2.954
 5077TIP3   OH215163   0.432   7.106   2.873
 5077TIP3    H115164   0.348   7.157   2.882
 5077TIP3    H215165   0.459   7.132   2.783
 5078TIP3   OH215166   0.245   6.039   2.143
 5078TIP3    H115167   0.160   6.062   2.194
 5078TIP3    H215168   0.269   6.129   2.106
 5079TIP3   OH215169   0.378   6.945   3.353
 5079TIP3    H115170   0.295   6.968   3.310
 5079TIP3    H215171   0.378   6.847   3.343
 5080TIP3   OH215172   0.200   7.254   2.872
 5080TIP3    H115173   0.232   7.304   2.793
 5080TIP3    H215174   0.111   7.228   2.846
 5081TIP3   OH215175   0.477   7.508   3.126
 5081TIP3    H115176   0.380   7.516   3.109
 5081TIP3    H215177   0.508   7.491   3.034
 5082TIP3   OH215178   0.372   6.678   3.273
 5082TIP3    H115179   0.291   6.632   3.301
 5082TIP3    H215180   0.388   6.638   3.187
 5083TIP3   OH215181   0.046   6.848   2.649
 5083TIP3    H115182  -0.021   6.782   2.669
 5083TIP3    H215183   0.124   6.814   2.697
 5084TIP3   OH215184   0.304   6.597   3.692
 5084TIP3    H115185   0.299   6.499   3.690
 5084TIP3    H215186   0.207   6.617   3.695
 5085TIP3   OH215187   0.301   6.995   2.226
 5085TIP3    H115188   0.230   6.953   2.281
 5085TIP3    H215189   0.361   7.028   2.295
 5086TIP3   OH215190   0.332   7.382   2.675
 5086TIP3    H115191   0.395   7.324   2.628
 5086TIP3    H215192   0.334   7.464   2.623
 5087TIP3   OH215193   0.136   6.839   2.386
 5087TIP3    H115194   0.126   6.741   2.381
 5087TIP3    H215195   0.104   6.856   2.477
 5088TIP3   OH215196   0.386   7.269   3.248
 5088TIP3    H115197   0.460   7.206   3.239
 5088TIP3    H215198   0.411   7.341   3.188
 5089TIP3   OH215199   0.584   7.080   3.248
 5089TIP3    H115200   0.511   7.035   3.296
 5089TIP3    H215201   0.656   7.016   3.266
 5090TIP3   OH215202   0.135   6.569   2.307
 5090TIP3    H115203   0.152   6.484   2.352
 5090TIP3    H215204   0.148   6.538   2.215
 5091TIP3   OH215205   0.261   6.739   2.785
 5091TIP3    H115206   0.346   6.763   2.740
 5091TIP3    H215207   0.277   6.783   2.871
 5092TIP3   OH215208   0.320   6.889   3.009
 5092TIP3    H115209   0.237   6.918   3.052
 5092TIP3    H215210   0.355   6.972   2.971
 5093TIP3   OH215211   0.784   6.481   3.561
 5093TIP3    H115212   0.843   6.414   3.520
 5093TIP3    H215213   0.751   6.531   3.484
 5094TIP3   OH215214   0.217   6.302   2.320
 5094TIP3    H115215   0.259   6.290   2.407
 5094TIP3    H215216   0.144   6.236   2.325
 5095TIP3   OH215217   0.646   6.615   3.367
 5095TIP3    H115218   0.569   6.659   3.407
 5095TIP3    H215219   0.604   6.545   3.313
 5096TIP3   OH215220   0.326   6.246   1.980
 5096TIP3    H115221   0.314   6.189   1.907
 5096TIP3    H215222   0.338   6.333   1.938
 5097TIP3   OH215223   0.549   6.376   3.250
 5097TIP3    H115224   0.459   6.358   3.217
 5097TIP3    H215225   0.587   6.285   3.243
 5098TIP3   OH215226   0.299   6.171   2.772
 5098TIP3    H115227   0.334   6.222   2.696
 5098TIP3    H215228   0.203   6.191   2.765
 5099TIP3   OH215229   0.379   6.280   2.539
 5099TIP3    H115230   0.451   6.229   2.498
 5099TIP3    H215231   0.408   6.372   2.521
 5100TIP3   OH215232   0.038   6.215   2.738
 5100TIP3    H115233  -0.036   6.221   2.676
 5100TIP3    H215234   0.016   6.134   2.789
 5101TIP3   OH215235   0.027   6.096   2.307
 5101TIP3    H115236  -0.058   6.124   2.269
 5101TIP3    H215237   0.002   6.017   2.355
 5102TIP3   OH215238   0.291   6.324   3.680
 5102TIP3    H115239   0.304   6.300   3.775
 5102TIP3    H215240   0.382   6.319   3.645
 5103TIP3   OH215241   1.497   7.252   1.948
 5103TIP3    H115242   1.455   7.339   1.930
 5103TIP3    H215243   1.427   7.194   1.912
 5104TIP3   OH215244   1.500   7.264   2.321
 5104TIP3    H115245   1.529   7.241   2.412
 5104TIP3    H215246   1.451   7.183   2.296
 5105TIP3   OH215247   0.788   7.159   2.685
 5105TIP3    H115248   0.817   7.089   2.747
 5105TIP3    H215249   0.860   7.222   2.695
 5106TIP3   OH215250   1.714   7.565   2.009
 5106TIP3    H115251   1.705   7.500   2.080
 5106TIP3    H215252   1.762   7.637   2.053
 5107TIP3   OH215253   0.815   7.518   2.484
 5107TIP3    H115254   0.790   7.426   2.458
 5107TIP3    H215255   0.899   7.528   2.435
 5108TIP3   OH215256   0.459   6.754   2.187
 5108TIP3    H115257   0.417   6.841   2.178
 5108TIP3    H215258   0.409   6.719   2.265
 5109TIP3   OH215259   0.527   7.061   2.374
 5109TIP3    H115260   0.573   6.981   2.408
 5109TIP3    H215261   0.599   7.107   2.328
 5110TIP3   OH215262   1.307   7.484   2.365
 5110TIP3    H115263   1.354   7.408   2.327
 5110TIP3    H215264   1.384   7.537   2.393
 5111TIP3   OH215265   2.315   6.807   2.371
 5111TIP3    H115266   2.336   6.892   2.414
 5111TIP3    H215267   2.334   6.826   2.278
 5112TIP3   OH215268   1.708   6.994   2.399
 5112TIP3    H115269   1.745   6.906   2.421
 5112TIP3    H215270   1.670   6.977   2.311
 5113TIP3   OH215271   1.046   6.652   2.363
 5113TIP3    H115272   1.021   6.725   2.302
 5113TIP3    H215273   0.996   6.578   2.322
 5114TIP3   OH215274   1.726   6.737   1.992
 5114TIP3    H115275   1.800   6.724   2.057
 5114TIP3    H215276   1.772   6.779   1.920
 5115TIP3   OH215277   0.674   6.853   2.473
 5115TIP3    H115278   0.755   6.835   2.524
 5115TIP3    H215279   0.690   6.797   2.394
 5116TIP3   OH215280   1.113   7.053   2.267
 5116TIP3    H115281   1.207   7.028   2.282
 5116TIP3    H215282   1.073   6.968   2.238
 5117TIP3   OH215283   2.366   7.023   2.530
 5117TIP3    H115284   2.280   7.069   2.519
 5117TIP3    H215285   2.393   7.054   2.617
 5118TIP3   OH215286   1.037   6.636   2.802
 5118TIP3    H115287   0.976   6.673   2.735
 5118TIP3    H215288   0.984   6.651   2.883
 5119TIP3   OH215289   1.370   7.463   1.827
 5119TIP3    H115290   1.349   7.444   1.733
 5119TIP3    H215291   1.400   7.555   1.824
 5120TIP3   OH215292   1.140   7.418   2.595
 5120TIP3    H115293   1.076   7.483   2.629
 5120TIP3    H215294   1.172   7.463   2.514
 5121TIP3   OH215295   1.940   6.759   2.157
 5121TIP3    H115296   1.922   6.705   2.235
 5121TIP3    H215297   1.991   6.833   2.196
 5122TIP3   OH215298   0.910   6.751   2.584
 5122TIP3    H115299   0.971   6.824   2.609
 5122TIP3    H215300   0.960   6.711   2.510
 5123TIP3   OH215301   0.970   7.627   2.698
 5123TIP3    H115302   0.922   7.621   2.612
 5123TIP3    H215303   0.893   7.625   2.758
 5124TIP3   OH215304   2.098   6.713   2.534
 5124TIP3    H115305   2.010   6.738   2.501
 5124TIP3    H215306   2.158   6.743   2.463
 5125TIP3   OH215307   1.390   6.353   2.519
 5125TIP3    H115308   1.373   6.259   2.536
 5125TIP3    H215309   1.313   6.393   2.566
 5126TIP3   OH215310   1.741   7.576   1.729
 5126TIP3    H115311   1.703   7.497   1.686
 5126TIP3    H215312   1.749   7.548   1.823
 5127TIP3   OH215313   2.028   7.718   2.521
 5127TIP3    H115314   2.011   7.642   2.462
 5127TIP3    H215315   2.050   7.790   2.457
 5128TIP3   OH215316   1.339   7.109   1.776
 5128TIP3    H115317   1.260   7.168   1.774
 5128TIP3    H215318   1.370   7.118   1.685
 5129TIP3   OH215319   1.305   6.888   1.514
 5129TIP3    H115320   1.367   6.956   1.545
 5129TIP3    H215321   1.363   6.836   1.455
 5130TIP3   OH215322   2.227   7.362   2.360
 5130TIP3    H115323   2.143   7.413   2.365
 5130TIP3    H215324   2.258   7.389   2.271
 5131TIP3   OH215325   1.675   7.191   1.751
 5131TIP3    H115326   1.616   7.215   1.826
 5131TIP3    H215327   1.757   7.167   1.798
 5132TIP3   OH215328   1.902   7.240   2.658
 5132TIP3    H115329   1.899   7.324   2.708
 5132TIP3    H215330   1.814   7.242   2.615
 5133TIP3   OH215331   0.905   7.193   2.153
 5133TIP3    H115332   0.862   7.131   2.091
 5133TIP3    H215333   0.982   7.142   2.185
 5134TIP3   OH215334   1.042   7.560   2.355
 5134TIP3    H115335   1.011   7.552   2.263
 5134TIP3    H215336   1.139   7.566   2.343
 5135TIP3   OH215337   1.039   7.172   2.512
 5135TIP3    H115338   1.072   7.149   2.423
 5135TIP3    H215339   1.080   7.259   2.530
 5136TIP3   OH215340   1.222   7.627   2.835
 5136TIP3    H115341   1.186   7.715   2.855
 5136TIP3    H215342   1.147   7.590   2.784
 5137TIP3   OH215343   1.521   7.050   1.568
 5137TIP3    H115344   1.568   7.121   1.614
 5137TIP3    H215345   1.543   7.071   1.473
 5138TIP3   OH215346   0.931   7.280   2.937
 5138TIP3    H115347   0.938   7.367   2.981
 5138TIP3    H215348   0.839   7.257   2.960
 5139TIP3   OH215349   2.022   6.293   1.620
 5139TIP3    H115350   1.945   6.311   1.678
 5139TIP3    H215351   1.996   6.335   1.538
 5140TIP3   OH215352   0.756   7.034   1.963
 5140TIP3    H115353   0.698   7.086   1.906
 5140TIP3    H215354   0.717   6.946   1.954
 5141TIP3   OH215355   0.565   7.426   2.881
 5141TIP3    H115356   0.495   7.407   2.816
 5141TIP3    H215357   0.599   7.337   2.903
 5142TIP3   OH215358   2.157   7.197   2.835
 5142TIP3    H115359   2.071   7.209   2.793
 5142TIP3    H215360   2.170   7.101   2.827
 5143TIP3   OH215361   0.757   7.625   2.870
 5143TIP3    H115362   0.808   7.590   2.946
 5143TIP3    H215363   0.682   7.561   2.867
 5144TIP3   OH215364   1.153   6.432   2.646
 5144TIP3    H115365   1.065   6.400   2.617
 5144TIP3    H215366   1.125   6.511   2.697
 5145TIP3   OH215367   1.687   6.545   2.841
 5145TIP3    H115368   1.755   6.517   2.905
 5145TIP3    H215369   1.603   6.526   2.888
 5146TIP3   OH215370   1.929   6.980   2.764
 5146TIP3    H115371   1.874   6.974   2.846
 5146TIP3    H215372   1.900   7.065   2.725
 5147TIP3   OH215373   1.597   7.082   1.313
 5147TIP3    H115374   1.557   7.066   1.225
 5147TIP3    H215375   1.623   7.175   1.304
 5148TIP3   OH215376   1.297   6.482   1.614
 5148TIP3    H115377   1.264   6.478   1.706
 5148TIP3    H215378   1.259   6.398   1.581
 5149TIP3   OH215379   1.086   6.950   2.663
 5149TIP3    H115380   1.035   6.969   2.745
 5149TIP3    H215381   1.068   7.031   2.611
 5150TIP3   OH215382   0.967   6.835   2.179
 5150TIP3    H115383   0.874   6.810   2.196
 5150TIP3    H215384   0.979   6.797   2.090
 5151TIP3   OH215385   1.466   6.912   1.911
 5151TIP3    H115386   1.414   6.983   1.867
 5151TIP3    H215387   1.516   6.877   1.835
 5152TIP3   OH215388   1.637   7.190   2.987
 5152TIP3    H115389   1.612   7.121   3.052
 5152TIP3    H215390   1.729   7.207   3.013
 5153TIP3   OH215391   1.618   6.947   2.145
 5153TIP3    H115392   1.553   6.977   2.077
 5153TIP3    H215393   1.642   6.862   2.104
 5154TIP3   OH215394   0.906   6.973   2.871
 5154TIP3    H115395   0.924   7.039   2.940
 5154TIP3    H215396   0.893   6.892   2.924
 5155TIP3   OH215397   0.938   6.437   1.573
 5155TIP3    H115398   0.945   6.434   1.671
 5155TIP3    H215399   0.863   6.497   1.566
 5156TIP3   OH215400   0.494   6.510   2.451
 5156TIP3    H115401   0.575   6.528   2.501
 5156TIP3    H215402   0.524   6.469   2.368
 5157TIP3   OH215403   0.462   6.512   1.960
 5157TIP3    H115404   0.537   6.534   1.905
 5157TIP3    H215405   0.454   6.590   2.018
 5158TIP3   OH215406   1.631   7.191   2.566
 5158TIP3    H115407   1.663   7.120   2.506
 5158TIP3    H215408   1.597   7.137   2.640
 5159TIP3   OH215409   1.301   6.655   2.239
 5159TIP3    H115410   1.217   6.654   2.288
 5159TIP3    H215411   1.366   6.649   2.311
 5160TIP3   OH215412   0.728   6.712   2.242
 5160TIP3    H115413   0.635   6.715   2.209
 5160TIP3    H215414   0.752   6.618   2.228
 5161TIP3   OH215415   1.005   6.713   1.938
 5161TIP3    H115416   1.101   6.721   1.922
 5161TIP3    H215417   0.968   6.712   1.846
 5162TIP3   OH215418   1.785   6.729   2.436
 5162TIP3    H115419   1.760   6.743   2.530
 5162TIP3    H215420   1.715   6.668   2.408
 5163TIP3   OH215421   0.869   6.692   1.706
 5163TIP3    H115422   0.777   6.715   1.728
 5163TIP3    H215423   0.886   6.752   1.632
 5164TIP3   OH215424   0.921   7.529   3.078
 5164TIP3    H115425   0.998   7.557   3.131
 5164TIP3    H215426   0.855   7.514   3.149
 5165TIP3   OH215427   1.376   6.986   2.341
 5165TIP3    H115428   1.447   6.939   2.296
 5165TIP3    H215429   1.375   6.944   2.429
 5166TIP3   OH215430   0.898   6.469   2.220
 5166TIP3    H115431   0.858   6.395   2.271
 5166TIP3    H215432   0.939   6.422   2.147
 5167TIP3   OH215433   1.354   6.890   2.617
 5167TIP3    H115434   1.263   6.920   2.637
 5167TIP3    H215435   1.409   6.948   2.673
 5168TIP3   OH215436   1.123   7.268   1.757
 5168TIP3    H115437   1.057   7.196   1.759
 5168TIP3    H215438   1.096   7.321   1.835
 5169TIP3   OH215439   1.992   7.502   2.351
 5169TIP3    H115440   2.019   7.553   2.272
 5169TIP3    H215441   1.907   7.462   2.322
 5170TIP3   OH215442   1.544   6.588   1.582
 5170TIP3    H115443   1.449   6.561   1.591
 5170TIP3    H215444   1.543   6.680   1.613
 5171TIP3   OH215445   1.504   7.614   2.718
 5171TIP3    H115446   1.533   7.560   2.792
 5171TIP3    H215447   1.418   7.646   2.752
 5172TIP3   OH215448   1.625   6.832   1.691
 5172TIP3    H115449   1.720   6.851   1.689
 5172TIP3    H215450   1.588   6.911   1.644
 5173TIP3   OH215451   0.769   7.255   2.389
 5173TIP3    H115452   0.820   7.242   2.305
 5173TIP3    H215453   0.823   7.207   2.453
 5174TIP3   OH215454   1.298   7.381   1.570
 5174TIP3    H115455   1.242   7.442   1.517
 5174TIP3    H215456   1.228   7.336   1.621
 5175TIP3   OH215457   0.673   7.203   3.009
 5175TIP3    H115458   0.682   7.189   3.106
 5175TIP3    H215459   0.598   7.142   2.991
 5176TIP3   OH215460   1.396   7.318   3.033
 5176TIP3    H115461   1.330   7.264   2.988
 5176TIP3    H215462   1.480   7.281   2.998
 5177TIP3   OH215463   2.283   7.768   2.606
 5177TIP3    H115464   2.186   7.777   2.591
 5177TIP3    H215465   2.311   7.748   2.514
 5178TIP3   OH215466   1.756   7.376   2.255
 5178TIP3    H115467   1.664   7.350   2.277
 5178TIP3    H215468   1.789   7.292   2.219
 5179TIP3   OH215469   1.026   7.383   1.985
 5179TIP3    H115470   0.979   7.461   2.019
 5179TIP3    H215471   0.993   7.317   2.049
 5180TIP3   OH215472   1.548   7.572   2.448
 5180TIP3    H115473   1.534   7.586   2.544
 5180TIP3    H215474   1.632   7.525   2.447
 5181TIP3   OH215475   1.521   7.394   1.332
 5181TIP3    H115476   1.570   7.396   1.417
 5181TIP3    H215477   1.430   7.394   1.365
 5182TIP3   OH215478   0.875   6.716   3.015
 5182TIP3    H115479   0.779   6.719   3.031
 5182TIP3    H215480   0.905   6.663   3.091
 5183TIP3   OH215481   1.682   7.371   1.549
 5183TIP3    H115482   1.680   7.301   1.617
 5183TIP3    H215483   1.779   7.378   1.531
 5184TIP3   OH215484   1.723   6.777   2.698
 5184TIP3    H115485   1.795   6.818   2.748
 5184TIP3    H215486   1.703   6.698   2.752
 5185TIP3   OH215487   1.597   6.525   1.866
 5185TIP3    H115488   1.577   6.552   1.775
 5185TIP3    H215489   1.630   6.608   1.907
 5186TIP3   OH215490   1.285   6.713   1.971
 5186TIP3    H115491   1.347   6.788   1.956
 5186TIP3    H215492   1.288   6.706   2.069
 5187TIP3   OH215493   1.553   7.032   2.772
 5187TIP3    H115494   1.575   7.087   2.850
 5187TIP3    H215495   1.603   6.950   2.791
 5188TIP3   OH215496   1.423   6.437   2.072
 5188TIP3    H115497   1.412   6.517   2.126
 5188TIP3    H215498   1.486   6.468   2.003
 5189TIP3   OH215499   0.942   6.433   1.854
 5189TIP3    H115500   0.934   6.525   1.885
 5189TIP3    H215501   1.038   6.419   1.865
 5190TIP3   OH215502   2.193   6.925   2.756
 5190TIP3    H115503   2.096   6.928   2.769
 5190TIP3    H215504   2.197   6.890   2.666
 5191TIP3   OH215505   1.842   7.132   2.151
 5191TIP3    H115506   1.764   7.074   2.164
 5191TIP3    H215507   1.912   7.082   2.199
 5192TIP3   OH215508   0.891   6.350   2.617
 5192TIP3    H115509   0.858   6.315   2.531
 5192TIP3    H215510   0.879   6.273   2.676
 5193TIP3   OH215511   0.715   7.498   3.256
 5193TIP3    H115512   0.738   7.403   3.271
 5193TIP3    H215513   0.625   7.490   3.220
 5194TIP3   OH215514   1.341   7.582   3.078
 5194TIP3    H115515   1.307   7.596   2.987
 5194TIP3    H215516   1.374   7.490   3.070
 5195TIP3   OH215517   1.810   7.601   2.653
 5195TIP3    H115518   1.874   7.663   2.611
 5195TIP3    H215519   1.730   7.655   2.653
 5196TIP3   OH215520   0.845   7.251   3.256
 5196TIP3    H115521   0.915   7.187   3.241
 5196TIP3    H215522   0.868   7.284   3.346
 5197TIP3   OH215523   0.943   7.067   1.744
 5197TIP3    H115524   0.889   7.031   1.817
 5197TIP3    H215525   0.931   7.001   1.675
 5198TIP3   OH215526   1.171   7.139   2.917
 5198TIP3    H115527   1.091   7.195   2.917
 5198TIP3    H215528   1.220   7.175   2.839
 5199TIP3   OH215529   1.028   6.853   1.507
 5199TIP3    H115530   1.051   6.812   1.423
 5199TIP3    H215531   1.118   6.880   1.536
 5200TIP3   OH215532   1.689   7.525   3.049
 5200TIP3    H115533   1.767   7.495   3.001
 5200TIP3    H215534   1.685   7.463   3.124
 5201TIP3   OH215535   1.841   7.206   1.174
 5201TIP3    H115536   1.801   7.166   1.095
 5201TIP3    H215537   1.801   7.296   1.173
 5202TIP3   OH215538   1.296   6.928   3.037
 5202TIP3    H115539   1.292   6.849   2.980
 5202TIP3    H215540   1.249   6.995   2.983
 5203TIP3   OH215541   1.295   6.714   2.848
 5203TIP3    H115542   1.321   6.753   2.762
 5203TIP3    H215543   1.201   6.690   2.831
 5204TIP3   OH215544   1.316   7.251   2.720
 5204TIP3    H115545   1.399   7.264   2.673
 5204TIP3    H215546   1.258   7.316   2.678
 5205TIP3   OH215547   1.899   7.212   3.099
 5205TIP3    H115548   1.947   7.131   3.121
 5205TIP3    H215549   1.969   7.271   3.069
 5206TIP3   OH215550   1.945   7.466   2.842
 5206TIP3    H115551   1.886   7.518   2.782
 5206TIP3    H215552   2.032   7.489   2.804
 5207TIP3   OH215553   1.173   7.032   3.273
 5207TIP3    H115554   1.104   6.965   3.291
 5207TIP3    H215555   1.204   7.004   3.185
 5208TIP3   OH215556   1.426   6.474   2.918
 5208TIP3    H115557   1.375   6.554   2.896
 5208TIP3    H215558   1.357   6.404   2.908
 5209TIP3   OH215559   1.553   6.977   3.133
 5209TIP3    H115560   1.536   6.962   3.228
 5209TIP3    H215561   1.464   6.954   3.099
 5210TIP3   OH215562   1.789   6.923   2.987
 5210TIP3    H115563   1.714   6.928   3.050
 5210TIP3    H215564   1.863   6.895   3.045
 5211TIP3   OH215565   2.030   6.872   3.134
 5211TIP3    H115566   2.038   6.775   3.152
 5211TIP3    H215567   2.019   6.909   3.224
 5212TIP3   OH215568   1.010   6.814   3.327
 5212TIP3    H115569   1.012   6.721   3.298
 5212TIP3    H215570   1.046   6.805   3.418
 5213TIP3   OH215571   1.522   6.486   3.175
 5213TIP3    H115572   1.586   6.412   3.169
 5213TIP3    H215573   1.480   6.480   3.087
 5214TIP3   OH215574   1.589   6.701   3.333
 5214TIP3    H115575   1.566   6.630   3.270
 5214TIP3    H215576   1.509   6.758   3.329
 5215TIP3   OH215577   2.203   7.910   2.924
 5215TIP3    H115578   2.113   7.887   2.958
 5215TIP3    H215579   2.187   8.002   2.895
 5216TIP3   OH215580   1.952   7.374   1.532
 5216TIP3    H115581   2.021   7.434   1.498
 5216TIP3    H215582   2.000   7.336   1.610
 5217TIP3   OH215583   2.082   7.245   1.734
 5217TIP3    H115584   2.024   7.205   1.801
 5217TIP3    H215585   2.157   7.281   1.786
 5218TIP3   OH215586   2.129   7.641   2.161
 5218TIP3    H115587   2.189   7.585   2.108
 5218TIP3    H215588   2.125   7.723   2.110
 5219TIP3   OH215589   2.024   7.161   1.369
 5219TIP3    H115590   1.957   7.171   1.298
 5219TIP3    H215591   1.994   7.231   1.430
 5220TIP3   OH215592   1.869   6.829   1.313
 5220TIP3    H115593   1.873   6.918   1.273
 5220TIP3    H215594   1.832   6.778   1.239
 5221TIP3   OH215595   1.902   7.092   1.893
 5221TIP3    H115596   1.899   7.005   1.937
 5221TIP3    H215597   1.885   7.146   1.972
 5222TIP3   OH215598   0.523   7.188   2.623
 5222TIP3    H115599   0.520   7.151   2.532
 5222TIP3    H215600   0.621   7.186   2.639
 5223TIP3   OH215601   2.191   7.534   2.744
 5223TIP3    H115602   2.261   7.468   2.728
 5223TIP3    H215603   2.209   7.601   2.675
 5224TIP3   OH215604   2.373   7.333   2.744
 5224TIP3    H115605   2.298   7.283   2.783
 5224TIP3    H215606   2.447   7.271   2.764
 5225TIP3   OH215607   1.861   6.534   1.386
 5225TIP3    H115608   1.900   6.477   1.314
 5225TIP3    H215609   1.767   6.512   1.373
 5226TIP3   OH215610   1.918   6.812   1.719
 5226TIP3    H115611   1.955   6.737   1.764
 5226TIP3    H215612   1.961   6.890   1.771
 5227TIP3   OH215613   2.056   6.993   2.265
 5227TIP3    H115614   2.143   7.018   2.225
 5227TIP3    H215615   2.067   7.031   2.354
 5228TIP3   OH215616   2.120   7.143   2.493
 5228TIP3    H115617   2.044   7.178   2.544
 5228TIP3    H215618   2.154   7.224   2.450
 5229TIP3   OH215619   0.744   6.863   3.288
 5229TIP3    H115620   0.841   6.860   3.300
 5229TIP3    H215621   0.718   6.779   3.331
 5230TIP3   OH215622   2.573   6.733   3.055
 5230TIP3    H115623   2.637   6.669   3.019
 5230TIP3    H215624   2.542   6.783   2.977
 5231TIP3   OH215625   2.010   6.574   1.794
 5231TIP3    H115626   2.059   6.559   1.879
 5231TIP3    H215627   1.950   6.497   1.797
 5232TIP3   OH215628   0.706   6.557   2.624
 5232TIP3    H115629   0.767   6.482   2.635
 5232TIP3    H215630   0.768   6.632   2.619
 5233TIP3   OH215631   0.505   6.830   2.700
 5233TIP3    H115632   0.554   6.829   2.616
 5233TIP3    H215633   0.533   6.914   2.739
 5234TIP3   OH215634   2.451   6.861   2.851
 5234TIP3    H115635   2.381   6.915   2.895
 5234TIP3    H215636   2.393   6.805   2.796
 5235TIP3   OH215637   0.485   6.369   2.206
 5235TIP3    H115638   0.397   6.334   2.232
 5235TIP3    H215639   0.469   6.392   2.114
 5236TIP3   OH215640   0.711   6.413   3.013
 5236TIP3    H115641   0.660   6.411   3.096
 5236TIP3    H215642   0.645   6.454   2.953
 5237TIP3   OH215643   2.341   6.626   2.738
 5237TIP3    H115644   2.249   6.622   2.706
 5237TIP3    H215645   2.367   6.531   2.731
 5238TIP3   OH215646   1.555   6.549   2.362
 5238TIP3    H115647   1.508   6.480   2.413
 5238TIP3    H215648   1.623   6.498   2.315
 5239TIP3   OH215649   2.074   6.432   2.258
 5239TIP3    H115650   2.106   6.484   2.181
 5239TIP3    H215651   1.977   6.445   2.251
 5240TIP3   OH215652   2.165   6.533   2.018
 5240TIP3    H115653   2.240   6.477   1.987
 5240TIP3    H215654   2.205   6.623   2.007
 5241TIP3   OH215655   0.800   6.258   2.371
 5241TIP3    H115656   0.707   6.226   2.372
 5241TIP3    H215657   0.847   6.172   2.365
 5242TIP3   OH215658   0.623   6.129   2.023
 5242TIP3    H115659   0.644   6.188   1.948
 5242TIP3    H215660   0.545   6.175   2.061
 5243TIP3   OH215661   1.247   6.288   2.252
 5243TIP3    H115662   1.306   6.338   2.193
 5243TIP3    H215663   1.266   6.328   2.338
 5244TIP3   OH215664   1.793   6.436   2.230
 5244TIP3    H115665   1.789   6.389   2.146
 5244TIP3    H215666   1.781   6.362   2.294
 5245TIP3   OH215667   1.822   6.366   1.800
 5245TIP3    H115668   1.735   6.407   1.819
 5245TIP3    H215669   1.809   6.279   1.845
 5246TIP3   OH215670   0.701   6.286   1.796
 5246TIP3    H115671   0.736   6.229   1.726
 5246TIP3    H215672   0.783   6.334   1.822
 5247TIP3   OH215673   1.217   6.466   1.877
 5247TIP3    H115674   1.269   6.412   1.939
 5247TIP3    H215675   1.243   6.556   1.908
 5248TIP3   OH215676   1.008   6.540   3.262
 5248TIP3    H115677   0.969   6.470   3.318
 5248TIP3    H215678   1.101   6.538   3.293
 5249TIP3   OH215679   1.258   6.534   3.382
 5249TIP3    H115680   1.343   6.506   3.346
 5249TIP3    H215681   1.242   6.466   3.450
 5250TIP3   OH215682   2.082   6.598   3.170
 5250TIP3    H115683   2.098   6.568   3.262
 5250TIP3    H215684   2.172   6.591   3.132
 5251TIP3   OH215685   3.288   7.505   1.436
 5251TIP3    H115686   3.251   7.592   1.412
 5251TIP3    H215687   3.218   7.448   1.399
 5252TIP3   OH215688   3.292   7.523   1.809
 5252TIP3    H115689   3.324   7.498   1.897
 5252TIP3    H215690   3.252   7.440   1.778
 5253TIP3   OH215691   2.583   7.424   2.178
 5253TIP3    H115692   2.623   7.355   2.234
 5253TIP3    H215693   2.660   7.478   2.155
 5254TIP3   OH215694   3.506   7.827   1.500
 5254TIP3    H115695   3.505   7.758   1.567
 5254TIP3    H215696   3.562   7.895   1.540
 5255TIP3   OH215697   2.622   7.748   1.994
 5255TIP3    H115698   2.577   7.680   1.942
 5255TIP3    H215699   2.699   7.769   1.937
 5256TIP3   OH215700   2.270   7.028   1.681
 5256TIP3    H115701   2.253   7.123   1.680
 5256TIP3    H215702   2.181   6.994   1.688
 5257TIP3   OH215703   2.322   7.315   1.852
 5257TIP3    H115704   2.374   7.239   1.886
 5257TIP3    H215705   2.394   7.378   1.829
 5258TIP3   OH215706   3.103   7.734   1.859
 5258TIP3    H115707   3.154   7.661   1.821
 5258TIP3    H215708   3.178   7.792   1.883
 5259TIP3   OH215709   4.099   7.068   1.853
 5259TIP3    H115710   4.131   7.151   1.894
 5259TIP3    H215711   4.128   7.079   1.761
 5260TIP3   OH215712   3.492   7.248   1.889
 5260TIP3    H115713   3.541   7.166   1.910
 5260TIP3    H215714   3.465   7.230   1.796
 5261TIP3   OH215715   2.835   6.908   1.856
 5261TIP3    H115716   2.822   6.981   1.791
 5261TIP3    H215717   2.788   6.836   1.809
 5262TIP3   OH215718   3.531   7.002   1.472
 5262TIP3    H115719   3.600   6.988   1.541
 5262TIP3    H215720   3.587   7.034   1.399
 5263TIP3   OH215721   2.470   7.110   1.963
 5263TIP3    H115722   2.554   7.096   2.010
 5263TIP3    H215723   2.487   7.057   1.882
 5264TIP3   OH215724   2.908   7.307   1.762
 5264TIP3    H115725   3.004   7.286   1.769
 5264TIP3    H215726   2.872   7.224   1.725
 5265TIP3   OH215727   4.175   7.278   2.024
 5265TIP3    H115728   4.090   7.322   2.005
 5265TIP3    H215729   4.191   7.308   2.115
 5266TIP3   OH215730   2.823   6.892   2.290
 5266TIP3    H115731   2.776   6.930   2.213
 5266TIP3    H215732   2.764   6.917   2.362
 5267TIP3   OH215733   3.167   7.710   1.297
 5267TIP3    H115734   3.126   7.715   1.210
 5267TIP3    H215735   3.201   7.801   1.309
 5268TIP3   OH215736   2.937   7.674   2.082
 5268TIP3    H115737   2.873   7.742   2.106
 5268TIP3    H215738   2.974   7.712   1.999
 5269TIP3   OH215739   3.731   7.010   1.652
 5269TIP3    H115740   3.749   6.948   1.724
 5269TIP3    H215741   3.790   7.085   1.675
 5270TIP3   OH215742   2.705   7.007   2.073
 5270TIP3    H115743   2.766   7.081   2.094
 5270TIP3    H215744   2.752   6.968   1.995
 5271TIP3   OH215745   2.763   7.894   2.191
 5271TIP3    H115746   2.725   7.885   2.100
 5271TIP3    H215747   2.681   7.889   2.242
 5272TIP3   OH215748   2.162   7.517   1.429
 5272TIP3    H115749   2.128   7.546   1.341
 5272TIP3    H215750   2.182   7.604   1.465
 5273TIP3   OH215751   3.893   6.974   2.022
 5273TIP3    H115752   3.806   6.996   1.984
 5273TIP3    H215753   3.955   7.002   1.952
 5274TIP3   OH215754   3.183   6.605   1.995
 5274TIP3    H115755   3.176   6.511   2.020
 5274TIP3    H215756   3.107   6.642   2.045
 5275TIP3   OH215757   3.545   7.836   1.220
 5275TIP3    H115758   3.510   7.756   1.176
 5275TIP3    H215759   3.549   7.809   1.315
 5276TIP3   OH215760   3.818   7.978   2.003
 5276TIP3    H115761   3.806   7.900   1.945
 5276TIP3    H215762   3.849   8.046   1.940
 5277TIP3   OH215763   3.120   7.368   1.266
 5277TIP3    H115764   3.041   7.423   1.247
 5277TIP3    H215765   3.165   7.368   1.179
 5278TIP3   OH215766   3.077   7.159   0.974
 5278TIP3    H115767   3.142   7.213   1.022
 5278TIP3    H215768   3.137   7.097   0.926
 5279TIP3   OH215769   4.024   7.620   1.848
 5279TIP3    H115770   3.939   7.669   1.853
 5279TIP3    H215771   4.053   7.644   1.758
 5280TIP3   OH215772   3.467   7.449   1.236
 5280TIP3    H115773   3.413   7.469   1.315
 5280TIP3    H215774   3.553   7.425   1.278
 5281TIP3   OH215775   3.700   7.495   2.148
 5281TIP3    H115776   3.699   7.578   2.198
 5281TIP3    H215777   3.614   7.502   2.101
 5282TIP3   OH215778   2.703   7.454   1.641
 5282TIP3    H115779   2.663   7.394   1.575
 5282TIP3    H215780   2.779   7.402   1.673
 5283TIP3   OH215781   2.834   7.817   1.851
 5283TIP3    H115782   2.799   7.827   1.760
 5283TIP3    H215783   2.930   7.831   1.837
 5284TIP3   OH215784   2.824   7.433   2.000
 5284TIP3    H115785   2.862   7.405   1.914
 5284TIP3    H215786   2.872   7.517   2.017
 5285TIP3   OH215787   3.012   7.883   2.328
 5285TIP3    H115788   2.977   7.972   2.344
 5285TIP3    H215789   2.941   7.849   2.270
 5286TIP3   OH215790   3.299   7.316   1.061
 5286TIP3    H115791   3.361   7.375   1.109
 5286TIP3    H215792   3.329   7.329   0.967
 5287TIP3   OH215793   2.729   7.529   2.438
 5287TIP3    H115794   2.736   7.620   2.473
 5287TIP3    H215795   2.633   7.514   2.444
 5288TIP3   OH215796   3.821   6.555   1.104
 5288TIP3    H115797   3.741   6.579   1.154
 5288TIP3    H215798   3.837   6.637   1.052
 5289TIP3   OH215799   2.566   7.295   1.452
 5289TIP3    H115800   2.502   7.341   1.393
 5289TIP3    H215801   2.524   7.209   1.460
 5290TIP3   OH215802   2.361   7.680   2.362
 5290TIP3    H115803   2.291   7.668   2.295
 5290TIP3    H215804   2.394   7.590   2.377
 5291TIP3   OH215805   3.952   7.454   2.324
 5291TIP3    H115806   3.871   7.465   2.273
 5291TIP3    H215807   3.970   7.359   2.313
 5292TIP3   OH215808   2.543   7.890   2.373
 5292TIP3    H115809   2.604   7.846   2.435
 5292TIP3    H215810   2.477   7.819   2.356
 5293TIP3   OH215811   2.951   6.681   2.131
 5293TIP3    H115812   2.862   6.654   2.102
 5293TIP3    H215813   2.931   6.769   2.168
 5294TIP3   OH215814   3.489   6.801   2.326
 5294TIP3    H115815   3.561   6.771   2.386
 5294TIP3    H215816   3.409   6.779   2.377
 5295TIP3   OH215817   3.716   7.229   2.242
 5295TIP3    H115818   3.667   7.229   2.327
 5295TIP3    H215819   3.698   7.319   2.208
 5296TIP3   OH215820   3.381   7.340   0.808
 5296TIP3    H115821   3.340   7.332   0.720
 5296TIP3    H215822   3.451   7.406   0.791
 5297TIP3   OH215823   3.092   6.738   1.106
 5297TIP3    H115824   3.059   6.730   1.198
 5297TIP3    H215825   3.050   6.659   1.066
 5298TIP3   OH215826   2.877   7.207   2.146
 5298TIP3    H115827   2.835   7.230   2.231
 5298TIP3    H215828   2.863   7.289   2.094
 5299TIP3   OH215829   2.769   7.089   1.665
 5299TIP3    H115830   2.675   7.066   1.683
 5299TIP3    H215831   2.780   7.048   1.576
 5300TIP3   OH215832   3.256   7.168   1.394
 5300TIP3    H115833   3.206   7.239   1.348
 5300TIP3    H215834   3.314   7.136   1.322
 5301TIP3   OH215835   3.434   7.448   2.474
 5301TIP3    H115836   3.414   7.375   2.537
 5301TIP3    H215837   3.528   7.464   2.496
 5302TIP3   OH215838   3.408   7.201   1.631
 5302TIP3    H115839   3.349   7.228   1.558
 5302TIP3    H215840   3.447   7.121   1.587
 5303TIP3   OH215841   2.697   7.241   2.359
 5303TIP3    H115842   2.736   7.312   2.412
 5303TIP3    H215843   2.632   7.202   2.420
 5304TIP3   OH215844   2.749   6.709   1.069
 5304TIP3    H115845   2.739   6.712   1.166
 5304TIP3    H215846   2.674   6.765   1.042
 5305TIP3   OH215847   2.293   6.757   1.935
 5305TIP3    H115848   2.362   6.792   1.995
 5305TIP3    H215849   2.345   6.726   1.860
 5306TIP3   OH215850   3.416   7.446   2.053
 5306TIP3    H115851   3.451   7.375   1.994
 5306TIP3    H215852   3.389   7.391   2.130
 5307TIP3   OH215853   3.094   6.913   1.724
 5307TIP3    H115854   3.018   6.911   1.785
 5307TIP3    H215855   3.170   6.902   1.784
 5308TIP3   OH215856   2.530   6.967   1.736
 5308TIP3    H115857   2.438   6.975   1.701
 5308TIP3    H215858   2.558   6.878   1.709
 5309TIP3   OH215859   2.791   6.961   1.424
 5309TIP3    H115860   2.885   6.978   1.406
 5309TIP3    H215861   2.746   6.984   1.339
 5310TIP3   OH215862   3.586   6.992   1.935
 5310TIP3    H115863   3.548   7.001   2.025
 5310TIP3    H215864   3.527   6.928   1.894
 5311TIP3   OH215865   2.643   6.995   1.198
 5311TIP3    H115866   2.574   6.952   1.144
 5311TIP3    H215867   2.696   7.037   1.127
 5312TIP3   OH215868   2.713   7.781   2.569
 5312TIP3    H115869   2.795   7.809   2.615
 5312TIP3    H215870   2.652   7.777   2.645
 5313TIP3   OH215871   3.176   7.240   1.819
 5313TIP3    H115872   3.250   7.208   1.764
 5313TIP3    H215873   3.191   7.194   1.903
 5314TIP3   OH215874   2.691   6.729   1.704
 5314TIP3    H115875   2.660   6.648   1.750
 5314TIP3    H215876   2.744   6.691   1.632
 5315TIP3   OH215877   3.150   7.133   2.125
 5315TIP3    H115878   3.064   7.179   2.127
 5315TIP3    H215879   3.212   7.197   2.166
 5316TIP3   OH215880   2.889   7.510   1.213
 5316TIP3    H115881   2.810   7.455   1.199
 5316TIP3    H215882   2.865   7.556   1.298
 5317TIP3   OH215883   3.787   7.759   1.838
 5317TIP3    H115884   3.815   7.809   1.759
 5317TIP3    H215885   3.704   7.717   1.808
 5318TIP3   OH215886   3.347   6.835   1.075
 5318TIP3    H115887   3.250   6.820   1.082
 5318TIP3    H215888   3.357   6.930   1.098
 5319TIP3   OH215889   3.299   7.867   2.205
 5319TIP3    H115890   3.331   7.821   2.283
 5319TIP3    H215891   3.215   7.905   2.237
 5320TIP3   OH215892   3.415   7.087   1.176
 5320TIP3    H115893   3.512   7.092   1.191
 5320TIP3    H215894   3.397   7.167   1.124
 5321TIP3   OH215895   2.552   7.487   1.869
 5321TIP3    H115896   2.603   7.489   1.784
 5321TIP3    H215897   2.623   7.466   1.932
 5322TIP3   OH215898   2.997   7.701   1.050
 5322TIP3    H115899   2.955   7.770   1.106
 5322TIP3    H215900   2.964   7.621   1.097
 5323TIP3   OH215901   2.466   7.454   2.498
 5323TIP3    H115902   2.474   7.444   2.595
 5323TIP3    H215903   2.388   7.399   2.479
 5324TIP3   OH215904   3.196   7.572   2.522
 5324TIP3    H115905   3.136   7.528   2.460
 5324TIP3    H215906   3.283   7.539   2.491
 5325TIP3   OH215907   3.853   7.182   1.013
 5325TIP3    H115908   3.790   7.139   0.951
 5325TIP3    H215909   3.852   7.271   0.972
 5326TIP3   OH215910   4.075   8.017   2.093
 5326TIP3    H115911   3.979   8.031   2.083
 5326TIP3    H215912   4.100   8.003   1.999
 5327TIP3   OH215913   3.553   7.631   1.742
 5327TIP3    H115914   3.460   7.606   1.762
 5327TIP3    H215915   3.586   7.547   1.704
 5328TIP3   OH215916   2.249   7.154   1.213
 5328TIP3    H115917   2.294   7.239   1.233
 5328TIP3    H215918   2.173   7.158   1.275
 5329TIP3   OH215919   2.812   7.626   1.450
 5329TIP3    H115920   2.787   7.713   1.482
 5329TIP3    H215921   2.785   7.569   1.524
 5330TIP3   OH215922   3.344   7.828   1.935
 5330TIP3    H115923   3.334   7.839   2.032
 5330TIP3    H215924   3.431   7.786   1.929
 5331TIP3   OH215925   3.348   7.662   0.786
 5331TIP3    H115926   3.381   7.648   0.877
 5331TIP3    H215927   3.269   7.717   0.802
 5332TIP3   OH215928   3.470   7.633   1.036
 5332TIP3    H115929   3.468   7.563   1.104
 5332TIP3    H215930   3.566   7.638   1.017
 5333TIP3   OH215931   2.657   7.651   0.869
 5333TIP3    H115932   2.703   7.569   0.842
 5333TIP3    H215933   2.705   7.675   0.949
 5334TIP3   OH215934   2.365   7.397   1.291
 5334TIP3    H115935   2.299   7.435   1.352
 5334TIP3    H215936   2.372   7.469   1.225
 5335TIP3   OH215937   3.505   7.044   2.194
 5335TIP3    H115938   3.592   7.080   2.219
 5335TIP3    H215939   3.501   6.961   2.247
 5336TIP3   OH215940   3.389   6.788   1.357
 5336TIP3    H115941   3.383   6.808   1.262
 5336TIP3    H215942   3.432   6.869   1.392
 5337TIP3   OH215943   3.070   6.973   1.453
 5337TIP3    H115944   3.137   7.042   1.435
 5337TIP3    H215945   3.082   6.961   1.550
 5338TIP3   OH215946   3.347   7.284   2.261
 5338TIP3    H115947   3.378   7.335   2.339
 5338TIP3    H215948   3.403   7.204   2.265
 5339TIP3   OH215949   3.221   6.694   1.555
 5339TIP3    H115950   3.229   6.766   1.621
 5339TIP3    H215951   3.283   6.727   1.486
 5340TIP3   OH215952   2.735   6.698   1.347
 5340TIP3    H115953   2.732   6.789   1.382
 5340TIP3    H215954   2.832   6.681   1.355
 5341TIP3   OH215955   3.985   7.190   2.244
 5341TIP3    H115956   3.887   7.187   2.248
 5341TIP3    H215957   4.000   7.140   2.162
 5342TIP3   OH215958   3.637   7.384   1.633
 5342TIP3    H115959   3.563   7.322   1.644
 5342TIP3    H215960   3.711   7.338   1.680
 5343TIP3   OH215961   2.354   7.612   1.105
 5343TIP3    H115962   2.379   7.705   1.096
 5343TIP3    H215963   2.414   7.569   1.041
 5344TIP3   OH215964   2.271   6.879   1.257
 5344TIP3    H115965   2.288   6.974   1.253
 5344TIP3    H215966   2.220   6.865   1.176
 5345TIP3   OH215967   2.681   6.607   2.107
 5345TIP3    H115968   2.655   6.575   2.018
 5345TIP3    H215969   2.672   6.526   2.161
 5346TIP3   OH215970   2.509   7.761   2.758
 5346TIP3    H115971   2.532   7.666   2.757
 5346TIP3    H215972   2.423   7.761   2.710
 5347TIP3   OH215973   2.488   7.413   0.964
 5347TIP3    H115974   2.544   7.383   1.038
 5347TIP3    H215975   2.557   7.422   0.894
 5348TIP3   OH215976   3.131   7.834   2.567
 5348TIP3    H115977   3.098   7.850   2.476
 5348TIP3    H215978   3.169   7.745   2.557
 5349TIP3   OH215979   2.927   7.592   0.776
 5349TIP3    H115980   2.973   7.615   0.858
 5349TIP3    H215981   2.963   7.503   0.757
 5350TIP3   OH215982   3.607   7.863   2.138
 5350TIP3    H115983   3.678   7.915   2.096
 5350TIP3    H215984   3.533   7.925   2.129
 5351TIP3   OH215985   2.630   7.513   2.744
 5351TIP3    H115986   2.708   7.472   2.705
 5351TIP3    H215987   2.664   7.543   2.831
 5352TIP3   OH215988   2.682   7.327   1.167
 5352TIP3    H115989   2.663   7.284   1.252
 5352TIP3    H215990   2.727   7.256   1.118
 5353TIP3   OH215991   2.963   7.387   2.397
 5353TIP3    H115992   2.891   7.453   2.402
 5353TIP3    H215993   3.019   7.426   2.325
 5354TIP3   OH215994   2.800   7.124   1.017
 5354TIP3    H115995   2.775   7.128   0.922
 5354TIP3    H215996   2.897   7.126   1.010
 5355TIP3   OH215997   3.487   7.786   2.535
 5355TIP3    H115998   3.568   7.764   2.487
 5355TIP3    H215999   3.488   7.722   2.608
 5356TIP3   OH216000   3.608   7.470   0.714
 5356TIP3    H116001   3.595   7.410   0.638
 5356TIP3    H216002   3.598   7.556   0.669
 5357TIP3   OH216003   3.077   7.179   2.531
 5357TIP3    H116004   3.088   7.104   2.469
 5357TIP3    H216005   3.041   7.248   2.471
 5358TIP3   OH216006   3.086   6.967   2.340
 5358TIP3    H116007   3.119   7.012   2.259
 5358TIP3    H216008   2.993   6.948   2.316
 5359TIP3   OH216009   3.112   7.508   2.212
 5359TIP3    H116010   3.197   7.517   2.167
 5359TIP3    H216011   3.057   7.574   2.164
 5360TIP3   OH216012   3.698   7.471   2.589
 5360TIP3    H116013   3.748   7.388   2.595
 5360TIP3    H216014   3.765   7.532   2.555
 5361TIP3   OH216015   3.738   7.722   2.326
 5361TIP3    H116016   3.682   7.776   2.266
 5361TIP3    H216017   3.827   7.743   2.289
 5362TIP3   OH216018   2.963   7.293   2.763
 5362TIP3    H116019   2.890   7.230   2.775
 5362TIP3    H216020   2.999   7.266   2.676
 5363TIP3   OH216021   3.224   6.732   2.408
 5363TIP3    H116022   3.174   6.813   2.382
 5363TIP3    H216023   3.157   6.662   2.395
 5364TIP3   OH216024   3.348   7.234   2.621
 5364TIP3    H116025   3.346   7.220   2.718
 5364TIP3    H216026   3.257   7.208   2.597
 5365TIP3   OH216027   3.588   7.189   2.476
 5365TIP3    H116028   3.515   7.186   2.541
 5365TIP3    H216029   3.664   7.158   2.530
 5366TIP3   OH216030   3.812   7.126   2.625
 5366TIP3    H116031   3.828   7.030   2.639
 5366TIP3    H216032   3.812   7.162   2.716
 5367TIP3   OH216033   2.816   7.049   2.808
 5367TIP3    H116034   2.902   7.013   2.777
 5367TIP3    H216035   2.833   7.047   2.904
 5368TIP3   OH216036   3.312   6.741   2.666
 5368TIP3    H116037   3.382   6.672   2.662
 5368TIP3    H216038   3.279   6.736   2.574
 5369TIP3   OH216039   3.382   6.956   2.823
 5369TIP3    H116040   3.363   6.883   2.760
 5369TIP3    H216041   3.302   7.012   2.814
 5370TIP3   OH216042   2.084   7.523   1.118
 5370TIP3    H116043   2.170   7.568   1.106
 5370TIP3    H216044   2.096   7.439   1.071
 5371TIP3   OH216045   3.967   8.148   2.368
 5371TIP3    H116046   3.892   8.130   2.429
 5371TIP3    H216047   4.012   8.220   2.413
 5372TIP3   OH216048   3.744   7.632   1.022
 5372TIP3    H116049   3.816   7.691   0.990
 5372TIP3    H216050   3.788   7.593   1.101
 5373TIP3   OH216051   3.879   7.505   1.219
 5373TIP3    H116052   3.817   7.462   1.281
 5373TIP3    H216053   3.950   7.538   1.279
 5374TIP3   OH216054   3.923   7.896   1.647
 5374TIP3    H116055   3.985   7.838   1.599
 5374TIP3    H216056   3.922   7.977   1.594
 5375TIP3   OH216057   3.826   7.417   0.869
 5375TIP3    H116058   3.751   7.420   0.806
 5375TIP3    H216059   3.797   7.489   0.928
 5376TIP3   OH216060   3.685   7.095   0.821
 5376TIP3    H116061   3.669   7.123   0.729
 5376TIP3    H216062   3.660   7.000   0.816
 5377TIP3   OH216063   3.695   7.364   1.365
 5377TIP3    H116064   3.705   7.268   1.354
 5377TIP3    H216065   3.681   7.373   1.462
 5378TIP3   OH216066   2.320   7.435   2.111
 5378TIP3    H116067   2.320   7.407   2.017
 5378TIP3    H216068   2.418   7.440   2.128
 5379TIP3   OH216069   3.983   7.786   2.222
 5379TIP3    H116070   4.055   7.721   2.211
 5379TIP3    H216071   4.009   7.857   2.160
 5380TIP3   OH216072   4.168   7.590   2.231
 5380TIP3    H116073   4.094   7.541   2.272
 5380TIP3    H216074   4.241   7.527   2.249
 5381TIP3   OH216075   3.629   6.830   0.811
 5381TIP3    H116076   3.711   6.795   0.852
 5381TIP3    H216077   3.566   6.757   0.821
 5382TIP3   OH216078   3.693   7.081   1.254
 5382TIP3    H116079   3.732   6.992   1.270
 5382TIP3    H216080   3.751   7.112   1.183
 5383TIP3   OH216081   3.851   7.256   1.751
 5383TIP3    H116082   3.937   7.279   1.709
 5383TIP3    H216083   3.868   7.289   1.841
 5384TIP3   OH216084   3.925   7.399   1.982
 5384TIP3    H116085   3.847   7.434   2.030
 5384TIP3    H216086   3.958   7.479   1.937
 5385TIP3   OH216087   2.547   7.120   2.783
 5385TIP3    H116088   2.643   7.106   2.786
 5385TIP3    H216089   2.515   7.036   2.819
 5386TIP3   OH216090   4.372   6.991   2.537
 5386TIP3    H116091   4.434   6.926   2.497
 5386TIP3    H216092   4.343   7.042   2.459
 5387TIP3   OH216093   3.795   6.830   1.298
 5387TIP3    H116094   3.847   6.814   1.379
 5387TIP3    H216095   3.738   6.751   1.296
 5388TIP3   OH216096   2.497   6.817   2.114
 5388TIP3    H116097   2.558   6.741   2.118
 5388TIP3    H216098   2.560   6.890   2.101
 5389TIP3   OH216099   2.299   7.090   2.184
 5389TIP3    H116100   2.353   7.089   2.102
 5389TIP3    H216101   2.320   7.176   2.221
 5390TIP3   OH216102   4.241   7.126   2.340
 5390TIP3    H116103   4.154   7.169   2.355
 5390TIP3    H216104   4.212   7.051   2.283
 5391TIP3   OH216105   3.877   6.762   0.926
 5391TIP3    H116106   3.916   6.691   0.872
 5391TIP3    H216107   3.948   6.830   0.924
 5392TIP3   OH216108   2.297   6.595   1.677
 5392TIP3    H116109   2.211   6.577   1.717
 5392TIP3    H216110   2.277   6.658   1.607
 5393TIP3   OH216111   2.535   6.705   2.556
 5393TIP3    H116112   2.451   6.680   2.600
 5393TIP3    H216113   2.499   6.735   2.471
 5394TIP3   OH216114   4.141   6.888   2.225
 5394TIP3    H116115   4.052   6.872   2.189
 5394TIP3    H216116   4.180   6.798   2.215
 5395TIP3   OH216117   3.341   6.800   1.829
 5395TIP3    H116118   3.307   6.729   1.885
 5395TIP3    H216119   3.422   6.759   1.791
 5396TIP3   OH216120   3.862   6.706   1.753
 5396TIP3    H116121   3.902   6.735   1.667
 5396TIP3    H216122   3.768   6.703   1.731
 5397TIP3   OH216123   3.963   6.791   1.512
 5397TIP3    H116124   4.034   6.733   1.475
 5397TIP3    H216125   4.002   6.879   1.494
 5398TIP3   OH216126   2.595   6.512   1.861
 5398TIP3    H116127   2.503   6.478   1.864
 5398TIP3    H216128   2.645   6.427   1.856
 5399TIP3   OH216129   2.393   6.379   1.507
 5399TIP3    H116130   2.421   6.431   1.429
 5399TIP3    H216131   2.376   6.450   1.573
 5400TIP3   OH216132   3.040   6.550   1.744
 5400TIP3    H116133   3.092   6.597   1.676
 5400TIP3    H216134   3.082   6.583   1.826
 5401TIP3   OH216135   3.570   6.675   1.720
 5401TIP3    H116136   3.607   6.641   1.636
 5401TIP3    H216137   3.571   6.592   1.774
 5402TIP3   OH216138   3.610   6.614   1.277
 5402TIP3    H116139   3.529   6.659   1.307
 5402TIP3    H216140   3.601   6.528   1.324
 5403TIP3   OH216141   2.502   6.536   1.280
 5403TIP3    H116142   2.548   6.477   1.217
 5403TIP3    H216143   2.575   6.594   1.309
 5404TIP3   OH216144   3.013   6.719   1.372
 5404TIP3    H116145   3.078   6.682   1.435
 5404TIP3    H216146   3.029   6.815   1.390
 5405TIP3   OH216147   3.021   6.793   2.853
 5405TIP3    H116148   3.108   6.772   2.815
 5405TIP3    H216149   3.014   6.725   2.923
 5406TIP3   OH216150   3.882   6.857   2.655
 5406TIP3    H116151   3.900   6.824   2.746
 5406TIP3    H216152   3.971   6.852   2.614
 5407TIP3   OH216153   5.080   7.777   0.918
 5407TIP3    H116154   5.052   7.864   0.888
 5407TIP3    H216155   5.011   7.721   0.878
 5408TIP3   OH216156   5.087   7.779   1.299
 5408TIP3    H116157   5.121   7.752   1.386
 5408TIP3    H216158   5.045   7.697   1.269
 5409TIP3   OH216159   4.379   7.673   1.663
 5409TIP3    H116160   4.410   7.603   1.724
 5409TIP3    H216161   4.459   7.727   1.655
 5410TIP3   OH216162   5.303   8.079   0.984
 5410TIP3    H116163   5.308   7.998   1.038
 5410TIP3    H216164   5.356   8.140   1.036
 5411TIP3   OH216165   4.411   8.027   1.463
 5411TIP3    H116166   4.385   7.936   1.435
 5411TIP3    H216167   4.496   8.037   1.414
 5412TIP3   OH216168   4.062   7.283   1.165
 5412TIP3    H116169   4.015   7.366   1.183
 5412TIP3    H216170   3.990   7.232   1.124
 5413TIP3   OH216171   4.114   7.572   1.347
 5413TIP3    H116172   4.163   7.493   1.378
 5413TIP3    H216173   4.183   7.621   1.300
 5414TIP3   OH216174   4.900   7.996   1.336
 5414TIP3    H116175   4.948   7.917   1.306
 5414TIP3    H216176   4.976   8.051   1.362
 5415TIP3   OH216177   5.894   7.329   1.342
 5415TIP3    H116178   5.927   7.410   1.386
 5415TIP3    H216179   5.914   7.349   1.249
 5416TIP3   OH216180   5.297   7.508   1.374
 5416TIP3    H116181   5.337   7.421   1.396
 5416TIP3    H216182   5.263   7.490   1.284
 5417TIP3   OH216183   4.635   7.166   1.338
 5417TIP3    H116184   4.614   7.237   1.274
 5417TIP3    H216185   4.589   7.090   1.296
 5418TIP3   OH216186   5.323   7.259   0.958
 5418TIP3    H116187   5.394   7.242   1.025
 5418TIP3    H216188   5.378   7.286   0.882
 5419TIP3   OH216189   4.266   7.368   1.447
 5419TIP3    H116190   4.348   7.347   1.495
 5419TIP3    H216191   4.280   7.312   1.367
 5420TIP3   OH216192   4.704   7.565   1.246
 5420TIP3    H116193   4.799   7.540   1.257
 5420TIP3    H216194   4.666   7.481   1.213
 5421TIP3   OH216195   5.972   7.540   1.507
 5421TIP3    H116196   5.885   7.582   1.488
 5421TIP3    H216197   5.965   7.532   1.604
 5422TIP3   OH216198   4.630   7.151   1.775
 5422TIP3    H116199   4.568   7.185   1.707
 5422TIP3    H216200   4.577   7.166   1.856
 5423TIP3   OH216201   4.960   7.976   0.741
 5423TIP3    H116202   4.879   7.920   0.729
 5423TIP3    H216203   4.917   8.051   0.786
 5424TIP3   OH216204   4.733   7.932   1.567
 5424TIP3    H116205   4.667   7.995   1.600
 5424TIP3    H216206   4.764   7.977   1.486
 5425TIP3   OH216207   5.530   7.266   1.136
 5425TIP3    H116208   5.518   7.211   1.214
 5425TIP3    H216209   5.580   7.342   1.170
 5426TIP3   OH216210   4.501   7.264   1.557
 5426TIP3    H116211   4.564   7.335   1.582
 5426TIP3    H216212   4.550   7.223   1.483
 5427TIP3   OH216213   4.560   8.142   1.675
 5427TIP3    H116214   4.515   8.135   1.588
 5427TIP3    H216215   4.481   8.141   1.733
 5428TIP3   OH216216   3.958   7.774   0.921
 5428TIP3    H116217   3.921   7.814   0.840
 5428TIP3    H216218   3.978   7.856   0.968
 5429TIP3   OH216219   5.686   7.233   1.509
 5429TIP3    H116220   5.598   7.253   1.473
 5429TIP3    H216221   5.747   7.263   1.438
 5430TIP3   OH216222   4.979   6.863   1.489
 5430TIP3    H116223   4.969   6.768   1.511
 5430TIP3    H216224   4.902   6.901   1.537
 5431TIP3   OH216225   5.618   8.236   1.489
 5431TIP3    H116226   5.604   8.154   1.437
 5431TIP3    H216227   5.632   8.303   1.419
 5432TIP3   OH216228   4.921   7.633   0.739
 5432TIP3    H116229   4.835   7.680   0.737
 5432TIP3    H216230   4.940   7.632   0.645
 5433TIP3   OH216231   5.816   7.878   1.331
 5433TIP3    H116232   5.731   7.925   1.340
 5433TIP3    H216233   5.840   7.902   1.239
 5434TIP3   OH216234   5.266   7.718   0.726
 5434TIP3    H116235   5.210   7.740   0.803
 5434TIP3    H216236   5.350   7.690   0.771
 5435TIP3   OH216237   5.496   7.752   1.631
 5435TIP3    H116238   5.493   7.836   1.681
 5435TIP3    H216239   5.409   7.754   1.587
 5436TIP3   OH216240   4.498   7.708   1.128
 5436TIP3    H116241   4.458   7.649   1.061
 5436TIP3    H216242   4.574   7.655   1.159
 5437TIP3   OH216243   4.636   8.074   1.330
 5437TIP3    H116244   4.595   8.074   1.241
 5437TIP3    H216245   4.731   8.067   1.310
 5438TIP3   OH216246   4.624   7.687   1.487
 5438TIP3    H116247   4.659   7.658   1.400
 5438TIP3    H216248   4.671   7.771   1.502
 5439TIP3   OH216249   4.815   8.143   1.807
 5439TIP3    H116250   4.773   8.229   1.828
 5439TIP3    H216251   4.743   8.104   1.755
 5440TIP3   OH216252   4.525   7.794   1.915
 5440TIP3    H116253   4.530   7.882   1.958
 5440TIP3    H216254   4.431   7.772   1.930
 5441TIP3   OH216255   4.364   7.552   0.937
 5441TIP3    H116256   4.292   7.589   0.882
 5441TIP3    H216257   4.332   7.462   0.951
 5442TIP3   OH216258   4.159   7.939   1.846
 5442TIP3    H116259   4.089   7.919   1.781
 5442TIP3    H216260   4.191   7.850   1.870
 5443TIP3   OH216261   5.751   7.715   1.805
 5443TIP3    H116262   5.665   7.722   1.762
 5443TIP3    H216263   5.770   7.620   1.795
 5444TIP3   OH216264   4.344   8.143   1.852
 5444TIP3    H116265   4.400   8.102   1.921
 5444TIP3    H216266   4.274   8.075   1.841
 5445TIP3   OH216267   4.744   6.945   1.619
 5445TIP3    H116268   4.657   6.912   1.588
 5445TIP3    H216269   4.715   7.023   1.671
 5446TIP3   OH216270   5.282   7.061   1.815
 5446TIP3    H116271   5.352   7.028   1.874
 5446TIP3    H216272   5.200   7.037   1.864
 5447TIP3   OH216273   5.518   7.491   1.735
 5447TIP3    H116274   5.465   7.485   1.818
 5447TIP3    H216275   5.490   7.576   1.698
 5448TIP3   OH216276   4.908   7.002   0.593
 5448TIP3    H116277   4.864   6.985   0.678
 5448TIP3    H216278   4.875   6.926   0.541
 5449TIP3   OH216279   4.677   7.464   1.636
 5449TIP3    H116280   4.626   7.482   1.718
 5449TIP3    H216281   4.659   7.545   1.584
 5450TIP3   OH216282   4.559   7.348   1.151
 5450TIP3    H116283   4.468   7.319   1.171
 5450TIP3    H216284   4.572   7.307   1.063
 5451TIP3   OH216285   5.049   7.438   0.882
 5451TIP3    H116286   4.991   7.505   0.840
 5451TIP3    H216287   5.121   7.434   0.818
 5452TIP3   OH216288   5.230   7.706   1.964
 5452TIP3    H116289   5.206   7.633   2.026
 5452TIP3    H216290   5.324   7.717   1.987
 5453TIP3   OH216291   5.212   7.461   1.116
 5453TIP3    H116292   5.145   7.487   1.050
 5453TIP3    H216293   5.246   7.380   1.072
 5454TIP3   OH216294   4.497   7.487   1.845
 5454TIP3    H116295   4.527   7.549   1.913
 5454TIP3    H216296   4.486   7.405   1.896
 5455TIP3   OH216297   4.537   6.940   0.573
 5455TIP3    H116298   4.528   6.945   0.670
 5455TIP3    H216299   4.479   7.011   0.544
 5456TIP3   OH216300   4.090   7.013   1.427
 5456TIP3    H116301   4.167   7.041   1.480
 5456TIP3    H216302   4.129   6.978   1.346
 5457TIP3   OH216303   4.054   6.989   0.944
 5457TIP3    H116304   4.107   7.019   0.868
 5457TIP3    H216305   3.997   7.066   0.959
 5458TIP3   OH216306   5.221   7.705   1.540
 5458TIP3    H116307   5.254   7.633   1.480
 5458TIP3    H216308   5.190   7.650   1.615
 5459TIP3   OH216309   4.895   7.177   1.214
 5459TIP3    H116310   4.813   7.167   1.266
 5459TIP3    H216311   4.963   7.157   1.280
 5460TIP3   OH216312   4.323   7.224   1.219
 5460TIP3    H116313   4.229   7.230   1.191
 5460TIP3    H216314   4.347   7.132   1.198
 5461TIP3   OH216315   4.590   7.224   0.910
 5461TIP3    H116316   4.685   7.231   0.889
 5461TIP3    H216317   4.546   7.251   0.827
 5462TIP3   OH216318   5.379   7.246   1.417
 5462TIP3    H116319   5.347   7.257   1.509
 5462TIP3    H216320   5.314   7.182   1.383
 5463TIP3   OH216321   4.416   7.276   0.697
 5463TIP3    H116322   4.339   7.224   0.669
 5463TIP3    H216323   4.482   7.250   0.629
 5464TIP3   OH216324   4.512   8.042   2.053
 5464TIP3    H116325   4.591   8.069   2.106
 5464TIP3    H216326   4.447   8.029   2.126
 5465TIP3   OH216327   4.970   7.501   1.314
 5465TIP3    H116328   5.038   7.452   1.266
 5465TIP3    H216329   4.969   7.455   1.400
 5466TIP3   OH216330   4.491   6.982   1.193
 5466TIP3    H116331   4.454   6.906   1.243
 5466TIP3    H216332   4.539   6.936   1.123
 5467TIP3   OH216333   4.947   7.402   1.590
 5467TIP3    H116334   4.856   7.431   1.611
 5467TIP3    H216335   5.003   7.458   1.647
 5468TIP3   OH216336   4.700   7.785   0.708
 5468TIP3    H116337   4.629   7.720   0.689
 5468TIP3    H216338   4.666   7.826   0.791
 5469TIP3   OH216339   5.581   8.015   1.328
 5469TIP3    H116340   5.608   8.063   1.248
 5469TIP3    H216341   5.497   7.972   1.300
 5470TIP3   OH216342   5.095   8.128   1.691
 5470TIP3    H116343   5.127   8.070   1.761
 5470TIP3    H216344   5.009   8.155   1.728
 5471TIP3   OH216345   4.362   7.769   1.361
 5471TIP3    H116346   4.409   7.754   1.275
 5471TIP3    H216347   4.418   7.719   1.422
 5472TIP3   OH216348   4.263   7.718   1.985
 5472TIP3    H116349   4.275   7.701   2.081
 5472TIP3    H216350   4.191   7.656   1.964
 5473TIP3   OH216351   4.989   7.832   2.008
 5473TIP3    H116352   4.925   7.779   1.958
 5473TIP3    H216353   5.074   7.795   1.976
 5474TIP3   OH216354   5.874   8.279   1.577
 5474TIP3    H116355   5.777   8.286   1.565
 5474TIP3    H216356   5.901   8.261   1.484
 5475TIP3   OH216357   5.349   7.887   1.231
 5475TIP3    H116358   5.257   7.861   1.250
 5475TIP3    H216359   5.383   7.803   1.194
 5476TIP3   OH216360   4.050   7.405   0.710
 5476TIP3    H116361   4.095   7.490   0.729
 5476TIP3    H216362   3.970   7.412   0.766
 5477TIP3   OH216363   4.615   7.882   0.945
 5477TIP3    H116364   4.578   7.966   0.975
 5477TIP3    H216365   4.583   7.824   1.016
 5478TIP3   OH216366   5.140   8.090   1.421
 5478TIP3    H116367   5.128   8.100   1.517
 5478TIP3    H216368   5.220   8.035   1.415
 5479TIP3   OH216369   4.466   7.233   1.989
 5479TIP3    H116370   4.369   7.231   1.999
 5479TIP3    H216371   4.494   7.173   2.060
 5480TIP3   OH216372   4.160   7.650   0.782
 5480TIP3    H116373   4.094   7.688   0.844
 5480TIP3    H216374   4.175   7.726   0.722
 5481TIP3   OH216375   5.307   7.298   1.678
 5481TIP3    H116376   5.391   7.331   1.714
 5481TIP3    H216377   5.293   7.216   1.730
 5482TIP3   OH216378   5.180   7.048   0.843
 5482TIP3    H116379   5.124   7.084   0.772
 5482TIP3    H216380   5.226   7.126   0.878
 5483TIP3   OH216381   4.874   7.229   0.944
 5483TIP3    H116382   4.936   7.303   0.929
 5483TIP3    H216383   4.878   7.219   1.042
 5484TIP3   OH216384   5.145   7.544   1.745
 5484TIP3    H116385   5.172   7.592   1.826
 5484TIP3    H216386   5.197   7.461   1.752
 5485TIP3   OH216387   5.016   6.952   1.044
 5485TIP3    H116388   5.015   7.029   1.103
 5485TIP3    H216389   5.080   6.982   0.975
 5486TIP3   OH216390   4.527   6.957   0.847
 5486TIP3    H116391   4.533   7.047   0.885
 5486TIP3    H216392   4.622   6.933   0.848
 5487TIP3   OH216393   5.784   7.448   1.717
 5487TIP3    H116394   5.687   7.453   1.732
 5487TIP3    H216395   5.785   7.374   1.653
 5488TIP3   OH216396   5.436   7.644   1.123
 5488TIP3    H116397   5.360   7.583   1.130
 5488TIP3    H216398   5.507   7.593   1.169
 5489TIP3   OH216399   4.163   7.864   0.600
 5489TIP3    H116400   4.186   7.955   0.625
 5489TIP3    H216401   4.152   7.876   0.505
 5490TIP3   OH216402   4.103   7.140   0.715
 5490TIP3    H116403   4.093   7.237   0.722
 5490TIP3    H216404   4.020   7.113   0.674
 5491TIP3   OH216405   4.477   6.865   1.593
 5491TIP3    H116406   4.450   6.828   1.506
 5491TIP3    H216407   4.470   6.786   1.650
 5492TIP3   OH216408   4.307   8.010   2.232
 5492TIP3    H116409   4.329   7.915   2.240
 5492TIP3    H216410   4.218   8.006   2.191
 5493TIP3   OH216411   4.931   8.095   2.051
 5493TIP3    H116412   4.898   8.109   1.959
 5493TIP3    H216413   4.965   8.004   2.043
 5494TIP3   OH216414   5.405   8.116   1.626
 5494TIP3    H116415   5.469   8.177   1.585
 5494TIP3    H216416   5.324   8.169   1.622
 5495TIP3   OH216417   4.431   7.762   2.231
 5495TIP3    H116418   4.509   7.711   2.204
 5495TIP3    H216419   4.460   7.796   2.319
 5496TIP3   OH216420   4.514   7.580   0.679
 5496TIP3    H116421   4.464   7.550   0.757
 5496TIP3    H216422   4.530   7.497   0.633
 5497TIP3   OH216423   4.761   7.651   1.891
 5497TIP3    H116424   4.682   7.709   1.890
 5497TIP3    H216425   4.812   7.687   1.815
 5498TIP3   OH216426   5.285   8.042   2.023
 5498TIP3    H116427   5.364   8.014   1.975
 5498TIP3    H216428   5.280   7.977   2.095
 5499TIP3   OH216429   4.884   7.441   2.015
 5499TIP3    H116430   4.885   7.361   1.957
 5499TIP3    H216431   4.839   7.507   1.957
 5500TIP3   OH216432   4.886   7.231   1.824
 5500TIP3    H116433   4.916   7.264   1.738
 5500TIP3    H216434   4.794   7.204   1.805
 5501TIP3   OH216435   4.908   7.767   1.699
 5501TIP3    H116436   4.990   7.768   1.649
 5501TIP3    H216437   4.852   7.831   1.651
 5502TIP3   OH216438   5.494   7.725   2.077
 5502TIP3    H116439   5.539   7.639   2.084
 5502TIP3    H216440   5.565   7.781   2.043
 5503TIP3   OH216441   5.537   7.980   1.816
 5503TIP3    H116442   5.480   8.033   1.755
 5503TIP3    H216443   5.625   7.999   1.777
 5504TIP3   OH216444   4.762   7.547   2.249
 5504TIP3    H116445   4.696   7.476   2.264
 5504TIP3    H216446   4.796   7.523   2.160
 5505TIP3   OH216447   5.020   6.989   1.894
 5505TIP3    H116448   4.967   7.069   1.871
 5505TIP3    H216449   4.954   6.918   1.882
 5506TIP3   OH216450   5.143   7.491   2.108
 5506TIP3    H116451   5.128   7.474   2.203
 5506TIP3    H216452   5.054   7.467   2.073
 5507TIP3   OH216453   5.384   7.447   1.964
 5507TIP3    H116454   5.310   7.442   2.028
 5507TIP3    H216455   5.459   7.413   2.018
 5508TIP3   OH216456   5.611   7.387   2.111
 5508TIP3    H116457   5.625   7.290   2.122
 5508TIP3    H216458   5.612   7.418   2.203
 5509TIP3   OH216459   4.602   7.328   2.303
 5509TIP3    H116460   4.603   7.236   2.269
 5509TIP3    H216461   4.640   7.314   2.392
 5510TIP3   OH216462   5.111   6.998   2.153
 5510TIP3    H116463   5.179   6.927   2.146
 5510TIP3    H216464   5.073   6.993   2.063
 5511TIP3   OH216465   5.180   7.213   2.308
 5511TIP3    H116466   5.161   7.140   2.245
 5511TIP3    H216467   5.101   7.269   2.300
 5512TIP3   OH216468   3.887   7.798   0.578
 5512TIP3    H116469   3.979   7.808   0.605
 5512TIP3    H216470   3.873   7.701   0.582
 5513TIP3   OH216471   5.762   8.408   1.853
 5513TIP3    H116472   5.687   8.389   1.914
 5513TIP3    H216473   5.813   8.472   1.904
 5514TIP3   OH216474   5.721   8.146   1.136
 5514TIP3    H116475   5.782   8.089   1.086
 5514TIP3    H216476   5.718   8.228   1.085
 5515TIP3   OH216477   5.479   7.609   0.855
 5515TIP3    H116478   5.495   7.514   0.855
 5515TIP3    H216479   5.475   7.631   0.950
 5516TIP3   OH216480   4.115   7.698   1.597
 5516TIP3    H116481   4.112   7.662   1.507
 5516TIP3    H216482   4.212   7.698   1.614
 5517TIP3   OH216483   5.781   8.043   1.708
 5517TIP3    H116484   5.854   7.979   1.699
 5517TIP3    H216485   5.807   8.114   1.646
 5518TIP3   OH216486   5.971   7.849   1.721
 5518TIP3    H116487   5.893   7.801   1.757
 5518TIP3    H216488   6.040   7.781   1.739
 5519TIP3   OH216489   5.475   7.320   0.738
 5519TIP3    H116490   5.517   7.232   0.756
 5519TIP3    H216491   5.548   7.365   0.694
 5520TIP3   OH216492   5.647   7.506   1.239
 5520TIP3    H116493   5.733   7.532   1.199
 5520TIP3    H216494   5.661   7.541   1.329
 5521TIP3   OH216495   5.718   7.654   1.466
 5521TIP3    H116496   5.642   7.685   1.518
 5521TIP3    H216497   5.748   7.737   1.423
 5522TIP3   OH216498   4.335   7.380   2.274
 5522TIP3    H116499   4.433   7.373   2.275
 5522TIP3    H216500   4.312   7.292   2.310
 5523TIP3   OH216501   6.175   7.255   2.026
 5523TIP3    H116502   6.239   7.193   1.983
 5523TIP3    H216503   6.137   7.299   1.948
 5524TIP3   OH216504   5.580   7.082   0.789
 5524TIP3    H116505   5.637   7.064   0.866
 5524TIP3    H216506   5.527   6.999   0.786
 5525TIP3   OH216507   4.295   7.074   1.606
 5525TIP3    H116508   4.354   6.996   1.612
 5525TIP3    H216509   4.360   7.145   1.594
 5526TIP3   OH216510   4.095   7.347   1.671
 5526TIP3    H116511   4.146   7.340   1.588
 5526TIP3    H216512   4.130   7.429   1.707
 5527TIP3   OH216513   6.041   7.383   1.821
 5527TIP3    H116514   5.955   7.417   1.851
 5527TIP3    H216515   6.012   7.302   1.775
 5528TIP3   OH216516   4.084   6.857   1.178
 5528TIP3    H116517   3.991   6.845   1.202
 5528TIP3    H216518   4.078   6.912   1.097
 5529TIP3   OH216519   4.304   6.939   1.993
 5529TIP3    H116520   4.249   6.925   2.072
 5529TIP3    H216521   4.237   6.967   1.928
 5530TIP3   OH216522   5.945   7.140   1.707
 5530TIP3    H116523   5.852   7.119   1.684
 5530TIP3    H216524   5.984   7.050   1.701
 5531TIP3   OH216525   5.139   7.059   1.327
 5531TIP3    H116526   5.099   6.989   1.382
 5531TIP3    H216527   5.215   7.012   1.287
 5532TIP3   OH216528   5.664   6.948   1.234
 5532TIP3    H116529   5.696   7.000   1.157
 5532TIP3    H216530   5.567   6.959   1.226
 5533TIP3   OH216531   5.759   7.050   0.999
 5533TIP3    H116532   5.834   6.998   0.964
 5533TIP3    H216533   5.790   7.141   0.978
 5534TIP3   OH216534   4.392   6.770   1.346
 5534TIP3    H116535   4.299   6.737   1.349
 5534TIP3    H216536   4.440   6.684   1.342
 5535TIP3   OH216537   4.178   6.644   0.994
 5535TIP3    H116538   4.209   6.698   0.919
 5535TIP3    H216539   4.158   6.712   1.061
 5536TIP3   OH216540   4.833   6.818   1.231
 5536TIP3    H116541   4.896   6.856   1.168
 5536TIP3    H216542   4.873   6.841   1.316
 5537TIP3   OH216543   5.382   6.949   1.207
 5537TIP3    H116544   5.384   6.903   1.121
 5537TIP3    H216545   5.369   6.872   1.268
 5538TIP3   OH216546   5.408   6.874   0.805
 5538TIP3    H116547   5.317   6.908   0.810
 5538TIP3    H216548   5.400   6.785   0.846
 5539TIP3   OH216549   4.290   6.807   0.768
 5539TIP3    H116550   4.334   6.741   0.710
 5539TIP3    H216551   4.367   6.856   0.801
 5540TIP3   OH216552   4.806   6.978   0.853
 5540TIP3    H116553   4.858   6.924   0.914
 5540TIP3    H216554   4.833   7.068   0.882
 5541TIP3   OH216555   4.599   7.056   2.241
 5541TIP3    H116556   4.564   6.982   2.293
 5541TIP3    H216557   4.694   7.053   2.267
 5542TIP3   OH216558   4.852   7.051   2.356
 5542TIP3    H116559   4.935   7.024   2.313
 5542TIP3    H216560   4.840   6.979   2.422
 5543TIP3   OH216561   5.668   7.118   2.145
 5543TIP3    H116562   5.692   7.081   2.232
 5543TIP3    H216563   5.756   7.121   2.100
 5544TIP3   OH216564   6.172   7.924   1.140
 5544TIP3    H116565   6.224   7.880   1.208
 5544TIP3    H216566   6.241   7.954   1.076
 5545TIP3   OH216567   6.055   7.626   0.944
 5545TIP3    H116568   6.144   7.598   0.972
 5545TIP3    H216569   6.035   7.562   0.874
 5546TIP3   OH216570   6.413   7.402   1.270
 5546TIP3    H116571   6.353   7.438   1.203
 5546TIP3    H216572   6.359   7.413   1.351
 5547TIP3   OH216573   6.299   7.510   1.033
 5547TIP3    H116574   6.352   7.589   1.062
 5547TIP3    H216575   6.362   7.469   0.971
 5548TIP3   OH216576   6.777   7.125   0.993
 5548TIP3    H116577   6.760   7.029   1.001
 5548TIP3    H216578   6.692   7.161   1.026
 5549TIP3   OH216579   6.280   8.064   1.403
 5549TIP3    H116580   6.262   8.138   1.462
 5549TIP3    H216581   6.193   8.019   1.409
 5550TIP3   OH216582   5.945   8.188   1.335
 5550TIP3    H116583   5.873   8.176   1.272
 5550TIP3    H216584   5.974   8.098   1.357
 5551TIP3   OH216585   6.532   7.209   1.109
 5551TIP3    H116586   6.445   7.173   1.081
 5551TIP3    H216587   6.500   7.278   1.171
 5552TIP3   OH216588   7.047   7.279   1.332
 5552TIP3    H116589   7.078   7.315   1.418
 5552TIP3    H216590   6.952   7.271   1.349
 5553TIP3   OH216591   6.453   7.714   1.122
 5553TIP3    H116592   6.408   7.742   1.204
 5553TIP3    H216593   6.492   7.796   1.089
 5554TIP3   OH216594   6.311   7.750   1.352
 5554TIP3    H116595   6.284   7.812   1.422
 5554TIP3    H216596   6.291   7.664   1.393
 5555TIP3   OH216597   5.892   7.271   0.907
 5555TIP3    H116598   5.957   7.298   0.976
 5555TIP3    H216599   5.948   7.240   0.836
 5556TIP3   OH216600   6.039   7.960   1.477
 5556TIP3    H116601   6.039   7.938   1.573
 5556TIP3    H216602   5.963   7.908   1.447
 5557TIP3   OH216603   6.261   7.489   1.480
 5557TIP3    H116604   6.164   7.490   1.492
 5557TIP3    H216605   6.288   7.430   1.553
 5558TIP3   OH216606   6.274   7.124   1.087
 5558TIP3    H116607   6.240   7.088   1.001
 5558TIP3    H216608   6.266   7.046   1.145
 5559TIP3   OH216609   6.115   8.275   1.703
 5559TIP3    H116610   6.148   8.183   1.702
 5559TIP3    H216611   6.026   8.265   1.664
 5560TIP3   OH216612   6.242   8.029   1.708
 5560TIP3    H116613   6.290   7.946   1.705
 5560TIP3    H216614   6.254   8.054   1.802
 5561TIP3   OH216615   6.652   7.716   1.496
 5561TIP3    H116616   6.690   7.627   1.487
 5561TIP3    H216617   6.587   7.719   1.425
 5562TIP3   OH216618   6.661   7.507   1.281
 5562TIP3    H116619   6.633   7.536   1.193
 5562TIP3    H216620   6.577   7.465   1.309
 5563TIP3   OH216621   6.553   7.805   1.741
 5563TIP3    H116622   6.488   7.733   1.754
 5563TIP3    H216623   6.592   7.781   1.654
 5564TIP3   OH216624   6.781   7.249   1.385
 5564TIP3    H116625   6.722   7.320   1.356
 5564TIP3    H216626   6.723   7.170   1.375
 5565TIP3   OH216627   6.403   7.582   1.786
 5565TIP3    H116628   6.399   7.489   1.755
 5565TIP3    H216629   6.435   7.567   1.877
 5566TIP3   OH216630   6.911   7.250   1.629
 5566TIP3    H116631   6.979   7.180   1.620
 5566TIP3    H216632   6.858   7.237   1.549
 5567TIP3   OH216633   6.973   7.453   1.803
 5567TIP3    H116634   6.952   7.389   1.732
 5567TIP3    H216635   6.908   7.525   1.789
 5568TIP3   OH216636   5.912   7.952   1.075
 5568TIP3    H116637   5.922   7.897   0.996
 5568TIP3    H216638   6.007   7.954   1.104
 5569TIP3   OH216639   6.139   7.642   1.770
 5569TIP3    H116640   6.236   7.628   1.770
 5569TIP3    H216641   6.109   7.552   1.795
 5570TIP3   OH216642   6.089   7.330   1.086
 5570TIP3    H116643   6.146   7.252   1.100
 5570TIP3    H216644   6.156   7.400   1.079
 5571TIP3   OH216645   5.892   7.604   1.164
 5571TIP3    H116646   5.944   7.609   1.081
 5571TIP3    H216647   5.922   7.682   1.211
 5572TIP3   OH216648   6.100   7.195   1.475
 5572TIP3    H116649   6.051   7.176   1.557
 5572TIP3    H216650   6.027   7.225   1.417
 5573TIP3   OH216651   6.178   7.028   0.851
 5573TIP3    H116652   6.088   6.990   0.853
 5573TIP3    H216653   6.230   6.948   0.831
 5574TIP3   OH216654   6.396   7.319   1.721
 5574TIP3    H116655   6.358   7.244   1.772
 5574TIP3    H216656   6.489   7.311   1.752
 5575TIP3   OH216657   6.644   7.306   1.843
 5575TIP3    H116658   6.734   7.282   1.813
 5575TIP3    H216659   6.629   7.238   1.912
 5576TIP3   OH216660   1.837   0.502   5.755
 5576TIP3    H116661   1.824   0.442   5.830
 5576TIP3    H216662   1.873   0.581   5.799
 5577TIP3   OH216663   1.485   0.962   5.760
 5577TIP3    H116664   1.523   0.883   5.718
 5577TIP3    H216665   1.467   0.931   5.850
 5578TIP3   OH216666   2.395   0.005   6.274
 5578TIP3    H116667   2.375   0.027   6.367
 5578TIP3    H216668   2.485  -0.032   6.280
 5579TIP3   OH216669   1.491   0.446   5.527
 5579TIP3    H116670   1.416   0.385   5.521
 5579TIP3    H216671   1.464   0.505   5.598
 5580TIP3   OH216672   1.902   0.747   5.911
 5580TIP3    H116673   1.809   0.740   5.942
 5580TIP3    H216674   1.899   0.835   5.868
 5581TIP3   OH216675   1.592   0.777   5.573
 5581TIP3    H116676   1.647   0.697   5.556
 5581TIP3    H216677   1.656   0.846   5.543
 5582TIP3   OH216678   1.759   0.574   5.497
 5582TIP3    H116679   1.710   0.500   5.459
 5582TIP3    H216680   1.792   0.536   5.580
 5583TIP3   OH216681   2.104   0.637   6.238
 5583TIP3    H116682   2.192   0.598   6.222
 5583TIP3    H216683   2.119   0.726   6.202
 5584TIP3   OH216684   1.759   0.154   5.494
 5584TIP3    H116685   1.704   0.144   5.573
 5584TIP3    H216686   1.842   0.112   5.521
 5585TIP3   OH216687   1.651   0.758   6.009
 5585TIP3    H116688   1.640   0.842   6.058
 5585TIP3    H216689   1.637   0.690   6.077
 5586TIP3   OH216690   1.324   0.688   5.582
 5586TIP3    H116691   1.417   0.714   5.598
 5586TIP3    H216692   1.287   0.769   5.544
 5587TIP3   OH216693   1.927   0.593   4.906
 5587TIP3    H116694   1.939   0.690   4.895
 5587TIP3    H216695   2.020   0.561   4.898
 5588TIP3   OH216696   2.366   0.995   6.290
 5588TIP3    H116697   2.361   0.898   6.282
 5588TIP3    H216698   2.288   1.013   6.346
 5589TIP3   OH216699   1.503   0.816   6.400
 5589TIP3    H116700   1.490   0.899   6.452
 5589TIP3    H216701   1.426   0.763   6.432
 5590TIP3   OH216702   1.235   0.910   5.395
 5590TIP3    H116703   1.197   0.908   5.306
 5590TIP3    H216704   1.206   0.998   5.427
 5591TIP3   OH216705   1.440   0.811   5.028
 5591TIP3    H116706   1.502   0.744   4.992
 5591TIP3    H216707   1.477   0.825   5.118
 5592TIP3   OH216708   1.486   0.864   5.298
 5592TIP3    H116709   1.401   0.874   5.345
 5592TIP3    H216710   1.543   0.831   5.370
 5593TIP3   OH216711   2.255   0.107   6.541
 5593TIP3    H116712   2.181   0.171   6.545
 5593TIP3    H216713   2.215   0.028   6.579
 5594TIP3   OH216714   1.665   0.059   5.044
 5594TIP3    H116715   1.651   0.008   4.963
 5594TIP3    H216716   1.758   0.084   5.037
 5595TIP3   OH216717   2.062   1.349   6.403
 5595TIP3    H116718   2.053   1.375   6.309
 5595TIP3    H216719   2.139   1.402   6.431
 5596TIP3   OH216720   2.127   0.391   6.066
 5596TIP3    H116721   2.146   0.467   6.005
 5596TIP3    H216722   2.030   0.392   6.063
 5597TIP3   OH216723   1.385   0.412   5.217
 5597TIP3    H116724   1.336   0.476   5.269
 5597TIP3    H216725   1.389   0.340   5.283
 5598TIP3   OH216726   1.768   0.780   6.374
 5598TIP3    H116727   1.671   0.793   6.370
 5598TIP3    H216728   1.790   0.840   6.448
 5599TIP3   OH216729   2.173  -0.145   5.256
 5599TIP3    H116730   2.109  -0.201   5.206
 5599TIP3    H216731   2.149  -0.058   5.217
 5600TIP3   OH216732   1.854   0.671   5.172
 5600TIP3    H116733   1.838   0.602   5.238
 5600TIP3    H216734   1.877   0.620   5.092
 5601TIP3   OH216735   1.856   0.306   5.986
 5601TIP3    H116736   1.769   0.282   6.024
 5601TIP3    H216737   1.881   0.226   5.938
 5602TIP3   OH216738   1.278   0.880   6.240
 5602TIP3    H116739   1.296   0.958   6.185
 5602TIP3    H216740   1.358   0.875   6.295
 5603TIP3   OH216741   1.690   0.541   6.194
 5603TIP3    H116742   1.664   0.571   6.282
 5603TIP3    H216743   1.787   0.554   6.199
 5604TIP3   OH216744   1.619   0.409   5.072
 5604TIP3    H116745   1.677   0.373   5.143
 5604TIP3    H216746   1.534   0.409   5.121
 5605TIP3   OH216747   1.887   1.039   6.246
 5605TIP3    H116748   1.806   0.986   6.231
 5605TIP3    H216749   1.879   1.103   6.171
 5606TIP3   OH216750   1.958   0.872   4.891
 5606TIP3    H116751   1.997   0.951   4.850
 5606TIP3    H216752   1.876   0.912   4.927
 5607TIP3   OH216753   1.777   0.336   5.283
 5607TIP3    H116754   1.759   0.271   5.354
 5607TIP3    H216755   1.874   0.326   5.275
 5608TIP3   OH216756   1.133   0.621   5.327
 5608TIP3    H116757   1.090   0.695   5.281
 5608TIP3    H216758   1.225   0.640   5.303
 5609TIP3   OH216759   1.914   1.015   5.833
 5609TIP3    H116760   1.870   1.062   5.758
 5609TIP3    H216761   2.008   1.029   5.810
 5610TIP3   OH216762   1.151   0.549   5.008
 5610TIP3    H116763   1.155   0.486   5.082
 5610TIP3    H216764   1.228   0.520   4.953
 5611TIP3   OH216765   1.808   0.909   6.621
 5611TIP3    H116766   1.846   0.834   6.669
 5611TIP3    H216767   1.878   0.977   6.633
 5612TIP3   OH216768   1.585   0.619   4.895
 5612TIP3    H116769   1.621   0.554   4.960
 5612TIP3    H216770   1.650   0.614   4.823
 5613TIP3   OH216771   1.910   0.548   6.404
 5613TIP3    H116772   1.987   0.571   6.348
 5613TIP3    H216773   1.863   0.634   6.402
 5614TIP3   OH216774   1.920   0.124   4.930
 5614TIP3    H116775   1.901   0.085   4.843
 5614TIP3    H216776   1.884   0.215   4.915
 5615TIP3   OH216777   2.085   0.379   6.560
 5615TIP3    H116778   2.025   0.433   6.507
 5615TIP3    H216779   2.172   0.411   6.526
 5616TIP3   OH216780   0.920   0.873   5.157
 5616TIP3    H116781   1.016   0.863   5.145
 5616TIP3    H216782   0.899   0.925   5.077
 5617TIP3   OH216783   2.176   1.092   5.797
 5617TIP3    H116784   2.190   1.128   5.887
 5617TIP3    H216785   2.217   1.159   5.742
 5618TIP3   OH216786   2.201   1.124   6.075
 5618TIP3    H116787   2.150   1.040   6.069
 5618TIP3    H216788   2.263   1.098   6.146
 5619TIP3   OH216789   2.243   0.804   6.650
 5619TIP3    H116790   2.171   0.807   6.717
 5619TIP3    H216791   2.285   0.891   6.663
 5620TIP3   OH216792   2.051   0.310   5.264
 5620TIP3    H116793   2.108   0.384   5.236
 5620TIP3    H216794   2.102   0.274   5.339
 5621TIP3   OH216795   2.183   0.184   5.469
 5621TIP3    H116796   2.114   0.147   5.527
 5621TIP3    H216797   2.246   0.225   5.531
 5622TIP3   OH216798   2.224   0.566   5.889
 5622TIP3    H116799   2.298   0.516   5.850
 5622TIP3    H216800   2.222   0.645   5.833
 5623TIP3   OH216801   2.073   0.884   6.094
 5623TIP3    H116802   1.999   0.911   6.150
 5623TIP3    H216803   2.029   0.825   6.029
 5624TIP3   OH216804   2.110   0.078   5.120
 5624TIP3    H116805   2.049   0.092   5.045
 5624TIP3    H216806   2.095   0.161   5.169
 5625TIP3   OH216807   2.000  -0.254   5.063
 5625TIP3    H116808   1.959  -0.177   5.022
 5625TIP3    H216809   1.939  -0.325   5.039
 5626TIP3   OH216810   1.993   0.039   5.623
 5626TIP3    H116811   2.017  -0.051   5.597
 5626TIP3    H216812   2.007   0.038   5.719
 5627TIP3   OH216813   2.317   0.472   6.457
 5627TIP3    H116814   2.391   0.408   6.461
 5627TIP3    H216815   2.347   0.531   6.384
 5628TIP3   OH216816   2.480   0.262   6.507
 5628TIP3    H116817   2.401   0.205   6.521
 5628TIP3    H216818   2.552   0.197   6.524
 5629TIP3   OH216819   2.167  -0.016   6.001
 5629TIP3    H116820   2.237  -0.058   5.950
 5629TIP3    H216821   2.189  -0.041   6.092
 5630TIP3   OH216822   1.744   0.969   5.450
 5630TIP3    H116823   1.799   0.959   5.369
 5630TIP3    H216824   1.795   1.034   5.500
 5631TIP3   OH216825   1.476   1.061   6.525
 5631TIP3    H116826   1.512   1.057   6.616
 5631TIP3    H216827   1.542   1.118   6.479
 5632TIP3   OH216828   1.662   1.204   6.381
 5632TIP3    H116829   1.735   1.156   6.340
 5632TIP3    H216830   1.710   1.263   6.443
 5633TIP3   OH216831   1.374   1.076   6.055
 5633TIP3    H116832   1.294   1.090   6.000
 5633TIP3    H216833   1.383   1.164   6.097
 5634TIP3   OH216834   1.638   1.013   6.114
 5634TIP3    H116835   1.542   1.029   6.099
 5634TIP3    H216836   1.676   1.095   6.078
 5635TIP3   OH216837   1.852   1.202   6.029
 5635TIP3    H116838   1.831   1.285   5.980
 5635TIP3    H216839   1.870   1.139   5.956
 5636TIP3   OH216840   1.183   0.812   5.121
 5636TIP3    H116841   1.273   0.831   5.088
 5636TIP3    H216842   1.162   0.734   5.066
 5637TIP3   OH216843   1.894   0.936   5.218
 5637TIP3    H116844   1.885   0.839   5.208
 5637TIP3    H216845   1.848   0.967   5.137
 5638TIP3   OH216846   2.121   1.079   6.400
 5638TIP3    H116847   2.041   1.049   6.352
 5638TIP3    H216848   2.101   1.174   6.410
 5639TIP3   OH216849   3.387   0.453   5.169
 5639TIP3    H116850   3.358   0.544   5.148
 5639TIP3    H216851   3.312   0.403   5.131
 5640TIP3   OH216852   3.388   0.455   5.555
 5640TIP3    H116853   3.419   0.429   5.643
 5640TIP3    H216854   3.346   0.374   5.523
 5641TIP3   OH216855   2.684   0.351   5.928
 5641TIP3    H116856   2.717   0.273   5.977
 5641TIP3    H216857   2.767   0.386   5.893
 5642TIP3   OH216858   3.631   0.757   5.234
 5642TIP3    H116859   3.615   0.689   5.301
 5642TIP3    H216860   3.664   0.831   5.288
 5643TIP3   OH216861   2.678   0.762   5.656
 5643TIP3    H116862   2.660   0.665   5.652
 5643TIP3    H216863   2.767   0.763   5.615
 5644TIP3   OH216864   2.349  -0.037   5.443
 5644TIP3    H116865   2.300   0.047   5.442
 5644TIP3    H216866   2.293  -0.090   5.383
 5645TIP3   OH216867   2.413   0.260   5.602
 5645TIP3    H116868   2.449   0.174   5.635
 5645TIP3    H216869   2.471   0.277   5.527
 5646TIP3   OH216870   3.284   1.214   5.253
 5646TIP3    H116871   3.324   1.146   5.194
 5646TIP3    H216872   3.285   1.168   5.337
 5647TIP3   OH216873   3.183   0.682   5.601
 5647TIP3    H116874   3.220   0.604   5.557
 5647TIP3    H216875   3.267   0.726   5.625
 5648TIP3   OH216876   3.607   0.181   5.646
 5648TIP3    H116877   3.614   0.089   5.676
 5648TIP3    H216878   3.565   0.172   5.558
 5649TIP3   OH216879   2.953  -0.195   5.532
 5649TIP3    H116880   2.914  -0.113   5.500
 5649TIP3    H216881   2.880  -0.232   5.589
 5650TIP3   OH216882   3.602  -0.031   5.274
 5650TIP3    H116883   3.662  -0.086   5.328
 5650TIP3    H216884   3.641  -0.038   5.186
 5651TIP3   OH216885   2.522   0.038   5.704
 5651TIP3    H116886   2.616   0.051   5.743
 5651TIP3    H216887   2.542  -0.031   5.641
 5652TIP3   OH216888   3.002   0.245   5.510
 5652TIP3    H116889   3.095   0.219   5.520
 5652TIP3    H216890   2.962   0.163   5.473
 5653TIP3   OH216891   4.234   0.188   5.794
 5653TIP3    H116892   4.161   0.243   5.761
 5653TIP3    H216893   4.295   0.254   5.832
 5654TIP3   OH216894   3.280   0.677   5.036
 5654TIP3    H116895   3.232   0.656   4.954
 5654TIP3    H216896   3.232   0.756   5.067
 5655TIP3   OH216897   3.043   0.601   5.825
 5655TIP3    H116898   2.987   0.671   5.863
 5655TIP3    H216899   3.084   0.647   5.749
 5656TIP3   OH216900   2.790   0.053   5.774
 5656TIP3    H116901   2.863   0.082   5.757
 5656TIP3    H216902   2.800  -0.045   5.786
 5657TIP3   OH216903   2.864   0.803   5.915
 5657TIP3    H116904   2.810   0.806   5.834
 5657TIP3    H216905   2.793   0.788   5.982
 5658TIP3   OH216906   2.232   0.499   5.177
 5658TIP3    H116907   2.249   0.481   5.083
 5658TIP3    H216908   2.298   0.566   5.198
 5659TIP3   OH216909   3.699   1.002   5.401
 5659TIP3    H116910   3.608   0.994   5.438
 5659TIP3    H216911   3.692   1.088   5.354
 5660TIP3   OH216912   3.399   1.045   5.066
 5660TIP3    H116913   3.449   0.962   5.050
 5660TIP3    H216914   3.464   1.110   5.029
 5661TIP3   OH216915   3.544   0.828   4.982
 5661TIP3    H116916   3.492   0.751   4.954
 5661TIP3    H216917   3.583   0.795   5.066
 5662TIP3   OH216918   3.929   0.908   5.745
 5662TIP3    H116919   3.915   0.830   5.687
 5662TIP3    H216920   3.905   0.982   5.684
 5663TIP3   OH216921   3.219   0.311   5.000
 5663TIP3    H116922   3.135   0.359   4.986
 5663TIP3    H216923   3.253   0.306   4.909
 5664TIP3   OH216924   3.174   0.091   4.715
 5664TIP3    H116925   3.246   0.142   4.757
 5664TIP3    H216926   3.224   0.020   4.671
 5665TIP3   OH216927   4.122   0.554   5.590
 5665TIP3    H116928   4.037   0.603   5.592
 5665TIP3    H216929   4.152   0.575   5.499
 5666TIP3   OH216930   3.565   0.389   4.970
 5666TIP3    H116931   3.509   0.411   5.048
 5666TIP3    H216932   3.650   0.370   5.015
 5667TIP3   OH216933   3.797   0.428   5.890
 5667TIP3    H116934   3.791   0.510   5.943
 5667TIP3    H216935   3.711   0.429   5.845
 5668TIP3   OH216936   2.793   0.388   5.386
 5668TIP3    H116937   2.746   0.332   5.320
 5668TIP3    H216938   2.865   0.330   5.416
 5669TIP3   OH216939   2.925   0.789   5.537
 5669TIP3    H116940   2.909   0.761   5.445
 5669TIP3    H216941   3.015   0.753   5.553
 5670TIP3   OH216942   2.930   0.353   5.756
 5670TIP3    H116943   2.957   0.324   5.667
 5670TIP3    H216944   2.976   0.440   5.764
 5671TIP3   OH216945   3.456   0.996   5.521
 5671TIP3    H116946   3.448   1.074   5.579
 5671TIP3    H216947   3.442   0.922   5.583
 5672TIP3   OH216948   3.073   0.917   6.067
 5672TIP3    H116949   3.015   0.975   6.120
 5672TIP3    H216950   3.007   0.870   6.011
 5673TIP3   OH216951   3.408   0.241   4.797
 5673TIP3    H116952   3.461   0.307   4.847
 5673TIP3    H216953   3.435   0.262   4.704
 5674TIP3   OH216954   2.823   0.481   6.171
 5674TIP3    H116955   2.829   0.559   6.230
 5674TIP3    H216956   2.728   0.481   6.152
 5675TIP3   OH216957   3.150   0.924   5.080
 5675TIP3    H116958   3.233   0.976   5.082
 5675TIP3    H216959   3.092   0.982   5.028
 5676TIP3   OH216960   2.852   1.075   6.156
 5676TIP3    H116961   2.803   1.029   6.087
 5676TIP3    H216962   2.785   1.069   6.229
 5677TIP3   OH216963   2.632   0.248   5.190
 5677TIP3    H116964   2.581   0.277   5.112
 5677TIP3    H216965   2.613   0.153   5.189
 5678TIP3   OH216966   3.714   0.841   4.392
 5678TIP3    H116967   3.701   0.928   4.354
 5678TIP3    H216968   3.808   0.822   4.375
 5679TIP3   OH216969   2.295   0.804   5.733
 5679TIP3    H116970   2.392   0.804   5.735
 5679TIP3    H216971   2.272   0.883   5.785
 5680TIP3   OH216972   4.133   1.243   5.820
 5680TIP3    H116973   4.166   1.151   5.829
 5680TIP3    H216974   4.049   1.226   5.773
 5681TIP3   OH216975   3.272   1.042   5.929
 5681TIP3    H116976   3.264   1.136   5.958
 5681TIP3    H216977   3.199   1.001   5.980
 5682TIP3   OH216978   3.033   1.167   4.879
 5682TIP3    H116979   2.988   1.151   4.794
 5682TIP3    H216980   3.001   1.256   4.904
 5683TIP3   OH216981   2.472   1.021   5.263
 5683TIP3    H116982   2.512   1.006   5.351
 5683TIP3    H216983   2.424   0.935   5.251
 5684TIP3   OH216984   3.229   1.072   4.516
 5684TIP3    H116985   3.289   1.003   4.480
 5684TIP3    H216986   3.266   1.084   4.606
 5685TIP3   OH216987   3.284   1.120   4.786
 5685TIP3    H116988   3.195   1.129   4.827
 5685TIP3    H216989   3.335   1.084   4.860
 5686TIP3   OH216990   4.049   0.372   6.065
 5686TIP3    H116991   3.969   0.402   6.020
 5686TIP3    H216992   4.037   0.276   6.061
 5687TIP3   OH216993   2.656   0.804   6.093
 5687TIP3    H116994   2.713   0.787   6.171
 5687TIP3    H216995   2.578   0.751   6.121
 5688TIP3   OH216996   3.839   0.174   6.012
 5688TIP3    H116997   3.794   0.195   6.094
 5688TIP3    H216998   3.811   0.247   5.953
 5689TIP3   OH216999   3.489   0.276   4.542
 5689TIP3    H117000   3.446   0.263   4.455
 5689TIP3    H217001   3.562   0.336   4.517
 5690TIP3   OH217002   3.012   0.148   5.919
 5690TIP3    H117003   2.936   0.153   5.982
 5690TIP3    H217004   2.991   0.226   5.863
 5691TIP3   OH217005   2.857   0.035   5.410
 5691TIP3    H117006   2.763   0.008   5.426
 5691TIP3    H217007   2.871   0.002   5.319
 5692TIP3   OH217008   3.349   0.115   5.141
 5692TIP3    H117009   3.301   0.185   5.092
 5692TIP3    H217010   3.413   0.085   5.073
 5693TIP3   OH217011   3.541   0.418   6.203
 5693TIP3    H117012   3.513   0.341   6.258
 5693TIP3    H217013   3.636   0.423   6.227
 5694TIP3   OH217014   3.490   0.181   5.397
 5694TIP3    H117015   3.431   0.221   5.330
 5694TIP3    H217016   3.519   0.102   5.346
 5695TIP3   OH217017   2.800   0.165   6.106
 5695TIP3    H117018   2.822   0.226   6.177
 5695TIP3    H217019   2.797   0.079   6.153
 5696TIP3   OH217020   2.437  -0.221   5.234
 5696TIP3    H117021   2.443  -0.252   5.143
 5696TIP3    H217022   2.343  -0.195   5.239
 5697TIP3   OH217023   3.519   0.383   5.797
 5697TIP3    H117024   3.559   0.313   5.740
 5697TIP3    H217025   3.496   0.329   5.875
 5698TIP3   OH217026   2.614  -0.098   5.464
 5698TIP3    H117027   2.520  -0.073   5.448
 5698TIP3    H217028   2.617  -0.180   5.414
 5699TIP3   OH217029   2.908  -0.081   5.165
 5699TIP3    H117030   2.993  -0.095   5.121
 5699TIP3    H217031   2.845  -0.091   5.091
 5700TIP3   OH217032   2.741  -0.113   4.938
 5700TIP3    H117033   2.662  -0.111   4.881
 5700TIP3    H217034   2.800  -0.058   4.883
 5701TIP3   OH217035   2.819   0.731   6.309
 5701TIP3    H117036   2.895   0.752   6.366
 5701TIP3    H217037   2.750   0.713   6.377
 5702TIP3   OH217038   3.258   0.174   5.567
 5702TIP3    H117039   3.343   0.143   5.529
 5702TIP3    H217040   3.264   0.142   5.659
 5703TIP3   OH217041   3.275   0.107   5.827
 5703TIP3    H117042   3.186   0.098   5.864
 5703TIP3    H217043   3.325   0.147   5.901
 5704TIP3   OH217044   2.992   0.466   4.955
 5704TIP3    H117045   2.933   0.387   4.951
 5704TIP3    H217046   2.970   0.500   5.045
 5705TIP3   OH217047   3.886   0.694   5.577
 5705TIP3    H117048   3.909   0.746   5.497
 5705TIP3    H217049   3.802   0.651   5.551
 5706TIP3   OH217050   3.429  -0.159   4.768
 5706TIP3    H117051   3.365  -0.213   4.817
 5706TIP3    H217052   3.458  -0.096   4.837
 5707TIP3   OH217053   3.392   0.780   5.944
 5707TIP3    H117054   3.415   0.751   6.034
 5707TIP3    H217055   3.350   0.866   5.959
 5708TIP3   OH217056   3.524   0.035   4.938
 5708TIP3    H117057   3.621   0.048   4.942
 5708TIP3    H217058   3.494   0.112   4.885
 5709TIP3   OH217059   2.689   0.488   5.624
 5709TIP3    H117060   2.717   0.458   5.535
 5709TIP3    H217061   2.723   0.416   5.679
 5710TIP3   OH217062   3.136   0.609   4.775
 5710TIP3    H117063   3.086   0.695   4.777
 5710TIP3    H217064   3.080   0.555   4.835
 5711TIP3   OH217065   3.289   0.519   6.263
 5711TIP3    H117066   3.227   0.465   6.211
 5711TIP3    H217067   3.376   0.489   6.229
 5712TIP3   OH217068   3.547   1.042   5.843
 5712TIP3    H117069   3.450   1.035   5.856
 5712TIP3    H217070   3.572   1.094   5.921
 5713TIP3   OH217071   3.955   0.101   4.743
 5713TIP3    H117072   3.902   0.050   4.679
 5713TIP3    H217073   3.949   0.190   4.702
 5714TIP3   OH217074   4.180   0.969   5.827
 5714TIP3    H117075   4.083   0.958   5.819
 5714TIP3    H217076   4.207   0.936   5.739
 5715TIP3   OH217077   3.658   0.916   4.663
 5715TIP3    H117078   3.626   0.857   4.733
 5715TIP3    H217079   3.662   0.859   4.585
 5716TIP3   OH217080   3.652   0.559   5.495
 5716TIP3    H117081   3.559   0.532   5.509
 5716TIP3    H217082   3.687   0.480   5.450
 5717TIP3   OH217083   2.781   0.791   5.262
 5717TIP3    H117084   2.776   0.867   5.201
 5717TIP3    H217085   2.692   0.756   5.256
 5718TIP3   OH217086   2.920   0.554   5.200
 5718TIP3    H117087   2.883   0.642   5.222
 5718TIP3    H217088   2.879   0.497   5.268
 5719TIP3   OH217089   3.024   1.161   5.718
 5719TIP3    H117090   3.086   1.217   5.665
 5719TIP3    H217091   3.086   1.111   5.772
 5720TIP3   OH217092   2.701   1.024   5.104
 5720TIP3    H117093   2.615   1.034   5.150
 5720TIP3    H217094   2.733   1.116   5.105
 5721TIP3   OH217095   3.437   0.761   5.677
 5721TIP3    H117096   3.428   0.761   5.775
 5721TIP3    H217097   3.514   0.703   5.665
 5722TIP3   OH217098   3.414   0.654   4.561
 5722TIP3    H117099   3.465   0.629   4.641
 5722TIP3    H217100   3.324   0.629   4.587
 5723TIP3   OH217101   3.681   1.304   5.734
 5723TIP3    H117102   3.604   1.245   5.724
 5723TIP3    H217103   3.669   1.365   5.659
 5724TIP3   OH217104   3.578   0.584   4.772
 5724TIP3    H117105   3.565   0.523   4.848
 5724TIP3    H217106   3.675   0.582   4.764
 5725TIP3   OH217107   2.511   0.994   5.880
 5725TIP3    H117108   2.544   0.910   5.916
 5725TIP3    H217109   2.490   1.042   5.961
 5726TIP3   OH217110   2.773   0.626   4.555
 5726TIP3    H117111   2.797   0.533   4.533
 5726TIP3    H217112   2.751   0.617   4.650
 5727TIP3   OH217113   2.717   0.643   4.825
 5727TIP3    H117114   2.785   0.602   4.881
 5727TIP3    H217115   2.729   0.738   4.845
 5728TIP3   OH217116   2.994   0.839   4.784
 5728TIP3    H117117   2.906   0.862   4.820
 5728TIP3    H217118   3.006   0.912   4.721
 5729TIP3   OH217119   3.213  -0.121   5.160
 5729TIP3    H117120   3.254  -0.031   5.165
 5729TIP3    H217121   3.178  -0.133   5.249
 5730TIP3   OH217122   3.465   0.222   6.009
 5730TIP3    H117123   3.464   0.285   6.084
 5730TIP3    H217124   3.508   0.146   6.050
 5731TIP3   OH217125   2.739   0.915   4.852
 5731TIP3    H117126   2.710   0.987   4.792
 5731TIP3    H217127   2.722   0.956   4.940
 5732TIP3   OH217128   3.740   0.318   5.375
 5732TIP3    H117129   3.660   0.268   5.397
 5732TIP3    H217130   3.810   0.269   5.424
 5733TIP3   OH217131   2.443   0.566   4.821
 5733TIP3    H117132   2.534   0.599   4.820
 5733TIP3    H217133   2.460   0.471   4.845
 5734TIP3   OH217134   2.386  -0.174   4.946
 5734TIP3    H117135   2.388  -0.084   4.980
 5734TIP3    H217136   2.297  -0.203   4.967
 5735TIP3   OH217137   3.709   1.270   5.321
 5735TIP3    H117138   3.665   1.318   5.246
 5735TIP3    H217139   3.803   1.292   5.302
 5736TIP3   OH217140   2.337   0.776   5.228
 5736TIP3    H117141   2.261   0.777   5.288
 5736TIP3    H217142   2.294   0.806   5.144
 5737TIP3   OH217143   2.481   1.300   6.301
 5737TIP3    H117144   2.568   1.298   6.348
 5737TIP3    H217145   2.459   1.205   6.301
 5738TIP3   OH217146   2.959   1.262   6.341
 5738TIP3    H117147   3.053   1.239   6.354
 5738TIP3    H217148   2.935   1.201   6.269
 5739TIP3   OH217149   2.939   0.833   4.475
 5739TIP3    H117150   2.885   0.758   4.509
 5739TIP3    H217151   3.016   0.785   4.440
 5740TIP3   OH217152   3.604   1.162   6.089
 5740TIP3    H117153   3.575   1.091   6.151
 5740TIP3    H217154   3.698   1.166   6.110
 5741TIP3   OH217155   3.375   0.876   4.386
 5741TIP3    H117156   3.417   0.808   4.442
 5741TIP3    H217157   3.424   0.871   4.302
 5742TIP3   OH217158   2.613   0.705   6.494
 5742TIP3    H117159   2.646   0.614   6.509
 5742TIP3    H217160   2.545   0.687   6.426
 5743TIP3   OH217161   3.218   0.791   6.276
 5743TIP3    H117162   3.177   0.807   6.189
 5743TIP3    H217163   3.247   0.698   6.270
 5744TIP3   OH217164   3.105   0.558   4.506
 5744TIP3    H117165   3.105   0.567   4.603
 5744TIP3    H217166   3.102   0.460   4.497
 5745TIP3   OH217167   3.710   0.803   5.885
 5745TIP3    H117168   3.784   0.846   5.838
 5745TIP3    H217169   3.637   0.866   5.866
 5746TIP3   OH217170   2.749   0.467   6.487
 5746TIP3    H117171   2.754   0.370   6.480
 5746TIP3    H217172   2.778   0.482   6.578
 5747TIP3   OH217173   2.837   0.247   4.947
 5747TIP3    H117174   2.743   0.242   4.970
 5747TIP3    H217175   2.844   0.180   4.877
 5748TIP3   OH217176   3.065   0.348   6.162
 5748TIP3    H117177   2.981   0.398   6.152
 5748TIP3    H217178   3.110   0.367   6.076
 5749TIP3   OH217179   2.890   0.044   4.761
 5749TIP3    H117180   2.862   0.057   4.668
 5749TIP3    H217181   2.987   0.053   4.753
 5750TIP3   OH217182   3.589   0.728   6.281
 5750TIP3    H117183   3.656   0.687   6.225
 5750TIP3    H217184   3.574   0.659   6.348
 5751TIP3   OH217185   3.723   0.379   4.421
 5751TIP3    H117186   3.699   0.338   4.335
 5751TIP3    H217187   3.686   0.469   4.404
 5752TIP3   OH217188   3.125   0.132   6.321
 5752TIP3    H117189   3.077   0.072   6.259
 5752TIP3    H217190   3.111   0.217   6.272
 5753TIP3   OH217191   3.223   0.441   5.958
 5753TIP3    H117192   3.302   0.440   5.903
 5753TIP3    H217193   3.166   0.503   5.909
 5754TIP3   OH217194   3.791   0.402   6.305
 5754TIP3    H117195   3.822   0.347   6.383
 5754TIP3    H217196   3.870   0.452   6.285
 5755TIP3   OH217197   3.841   0.657   6.069
 5755TIP3    H117198   3.782   0.711   6.011
 5755TIP3    H217199   3.928   0.680   6.029
 5756TIP3   OH217200   3.437   0.196   6.309
 5756TIP3    H117201   3.489   0.143   6.374
 5756TIP3    H217202   3.349   0.159   6.317
 5757TIP3   OH217203   2.704   1.113   4.662
 5757TIP3    H117204   2.800   1.105   4.645
 5757TIP3    H217205   2.679   1.167   4.585
 5758TIP3   OH217206   2.181   0.501   4.865
 5758TIP3    H117207   2.274   0.532   4.856
 5758TIP3    H217208   2.191   0.407   4.837
 5759TIP3   OH217209   2.100   1.109   5.293
 5759TIP3    H117210   2.034   1.047   5.255
 5759TIP3    H217211   2.145   1.050   5.357
 5760TIP3   OH217212   2.231   0.962   5.486
 5760TIP3    H117213   2.218   0.884   5.542
 5760TIP3    H217214   2.278   1.021   5.547
 5761TIP3   OH217215   3.963   1.360   5.285
 5761TIP3    H117216   3.995   1.430   5.344
 5761TIP3    H217217   4.029   1.366   5.213
 5762TIP3   OH217218   3.992   1.382   5.584
 5762TIP3    H117219   3.942   1.301   5.566
 5762TIP3    H217220   4.082   1.353   5.562
 5763TIP3   OH217221   4.033   1.064   6.142
 5763TIP3    H117222   3.958   1.076   6.205
 5763TIP3    H217223   4.065   1.155   6.130
 5764TIP3   OH217224   3.858   0.565   4.752
 5764TIP3    H117225   3.922   0.635   4.727
 5764TIP3    H217226   3.902   0.528   4.833
 5765TIP3   OH217227   3.985   0.429   4.954
 5765TIP3    H117228   3.916   0.397   5.017
 5765TIP3    H217229   4.049   0.474   5.014
 5766TIP3   OH217230   4.039   0.832   5.392
 5766TIP3    H117231   4.089   0.764   5.344
 5766TIP3    H217232   4.040   0.907   5.329
 5767TIP3   OH217233   3.864   1.130   5.592
 5767TIP3    H117234   3.790   1.176   5.636
 5767TIP3    H217235   3.819   1.087   5.516
 5768TIP3   OH217236   3.914   0.335   4.605
 5768TIP3    H117237   3.847   0.351   4.535
 5768TIP3    H217238   3.892   0.411   4.663
 5769TIP3   OH217239   3.775  -0.004   4.534
 5769TIP3    H117240   3.787   0.089   4.511
 5769TIP3    H217241   3.696  -0.025   4.479
 5770TIP3   OH217242   3.792   0.309   5.105
 5770TIP3    H117243   3.793   0.213   5.085
 5770TIP3    H217244   3.779   0.312   5.202
 5771TIP3   OH217245   2.420   0.359   5.860
 5771TIP3    H117246   2.412   0.326   5.768
 5771TIP3    H217247   2.519   0.363   5.868
 5772TIP3   OH217248   4.087   0.722   5.962
 5772TIP3    H117249   4.156   0.653   5.954
 5772TIP3    H217250   4.110   0.782   5.889
 5773TIP3   OH217251   4.264   0.519   5.979
 5773TIP3    H117252   4.190   0.463   6.012
 5773TIP3    H217253   4.339   0.459   5.996
 5774TIP3   OH217254   3.797   0.049   4.973
 5774TIP3    H117255   3.828  -0.031   5.020
 5774TIP3    H217256   3.861   0.057   4.899
 5775TIP3   OH217257   3.948   0.188   5.500
 5775TIP3    H117258   4.034   0.212   5.459
 5775TIP3    H217259   3.963   0.223   5.590
 5776TIP3   OH217260   4.016   0.338   5.726
 5776TIP3    H117261   3.939   0.372   5.774
 5776TIP3    H217262   4.049   0.418   5.680
 5777TIP3   OH217263   2.655   0.050   6.529
 5777TIP3    H117264   2.719   0.014   6.464
 5777TIP3    H217265   2.612  -0.033   6.557
 5778TIP3   OH217266   3.550   1.228   4.935
 5778TIP3    H117267   3.598   1.216   4.851
 5778TIP3    H217268   3.604   1.295   4.979
 5779TIP3   OH217269   2.644   1.038   6.327
 5779TIP3    H117270   2.555   1.003   6.307
 5779TIP3    H217271   2.657   1.004   6.417
 5780TIP3   OH217272   3.261   1.310   6.007
 5780TIP3    H117273   3.305   1.308   6.094
 5780TIP3    H217274   3.327   1.360   5.954
 5781TIP3   OH217275   3.441   1.463   5.865
 5781TIP3    H117276   3.509   1.414   5.816
 5781TIP3    H217277   3.496   1.512   5.929
 5782TIP3   OH217278   2.530   1.332   5.880
 5782TIP3    H117279   2.437   1.354   5.856
 5782TIP3    H217280   2.529   1.364   5.972
 5783TIP3   OH217281   3.164   1.328   5.549
 5783TIP3    H117282   3.103   1.348   5.476
 5783TIP3    H217283   3.175   1.416   5.591
 5784TIP3   OH217284   3.433   1.267   5.605
 5784TIP3    H117285   3.341   1.286   5.579
 5784TIP3    H217286   3.482   1.334   5.554
 5785TIP3   OH217287   3.631   1.455   5.512
 5785TIP3    H117288   3.623   1.542   5.466
 5785TIP3    H217289   3.663   1.397   5.439
 5786TIP3   OH217290   2.425   1.121   5.644
 5786TIP3    H117291   2.444   1.080   5.731
 5786TIP3    H217292   2.483   1.066   5.586
 5787TIP3   OH217293   2.606   0.982   5.503
 5787TIP3    H117294   2.623   0.897   5.550
 5787TIP3    H217295   2.697   1.015   5.490
 5788TIP3   OH217296   2.868   1.078   5.507
 5788TIP3    H117297   2.901   0.991   5.478
 5788TIP3    H217298   2.930   1.095   5.582
 5789TIP3   OH217299   2.200   0.890   5.025
 5789TIP3    H117300   2.116   0.852   4.994
 5789TIP3    H217301   2.185   0.984   5.003
 5790TIP3   OH217302   2.971   1.070   4.612
 5790TIP3    H117303   3.059   1.095   4.575
 5790TIP3    H217304   2.950   0.996   4.551
 5791TIP3   OH217305   3.688   1.182   4.698
 5791TIP3    H117306   3.675   1.086   4.688
 5791TIP3    H217307   3.640   1.217   4.620
 5792TIP3   OH217308   2.272   0.904   4.665
 5792TIP3    H117309   2.272   0.924   4.760
 5792TIP3    H217310   2.358   0.859   4.653
 5793TIP3   OH217311   5.182   0.706   4.657
 5793TIP3    H117312   5.156   0.798   4.639
 5793TIP3    H217313   5.106   0.659   4.619
 5794TIP3   OH217314   5.184   0.711   5.040
 5794TIP3    H117315   5.216   0.689   5.130
 5794TIP3    H217316   5.141   0.628   5.013
 5795TIP3   OH217317   4.478   0.605   5.406
 5795TIP3    H117318   4.510   0.534   5.465
 5795TIP3    H217319   4.560   0.653   5.389
 5796TIP3   OH217320   5.428   1.014   4.722
 5796TIP3    H117321   5.413   0.948   4.791
 5796TIP3    H217322   5.458   1.091   4.774
 5797TIP3   OH217323   4.464   1.003   5.142
 5797TIP3    H117324   4.454   0.906   5.137
 5797TIP3    H217325   4.559   1.013   5.122
 5798TIP3   OH217326   4.151   0.201   4.908
 5798TIP3    H117327   4.108   0.285   4.934
 5798TIP3    H217328   4.082   0.164   4.850
 5799TIP3   OH217329   4.213   0.515   5.081
 5799TIP3    H117330   4.256   0.433   5.115
 5799TIP3    H217331   4.286   0.558   5.035
 5800TIP3   OH217332   5.080   1.476   4.737
 5800TIP3    H117333   5.121   1.402   4.688
 5800TIP3    H217334   5.067   1.437   4.825
 5801TIP3   OH217335   4.980   0.935   5.088
 5801TIP3    H117336   5.023   0.860   5.044
 5801TIP3    H217337   5.062   0.984   5.114
 5802TIP3   OH217338   5.399   0.436   5.134
 5802TIP3    H117339   5.420   0.346   5.161
 5802TIP3    H217340   5.362   0.424   5.044
 5803TIP3   OH217341   4.716   0.054   5.059
 5803TIP3    H117342   4.692   0.143   5.026
 5803TIP3    H217343   4.650  -0.002   5.015
 5804TIP3   OH217344   5.386   0.208   4.755
 5804TIP3    H117345   5.447   0.164   4.818
 5804TIP3    H217346   5.444   0.214   4.677
 5805TIP3   OH217347   4.342   0.298   5.180
 5805TIP3    H117348   4.432   0.304   5.220
 5805TIP3    H217349   4.366   0.242   5.104
 5806TIP3   OH217350   4.802   0.498   4.990
 5806TIP3    H117351   4.897   0.474   5.003
 5806TIP3    H217352   4.765   0.412   4.963
 5807TIP3   OH217353   6.028   0.445   5.287
 5807TIP3    H117354   5.957   0.501   5.251
 5807TIP3    H217355   6.093   0.511   5.318
 5808TIP3   OH217356   5.071   0.929   4.524
 5808TIP3    H117357   5.033   0.919   4.436
 5808TIP3    H217358   5.028   1.012   4.554
 5809TIP3   OH217359   4.834   0.856   5.310
 5809TIP3    H117360   4.776   0.925   5.347
 5809TIP3    H217361   4.877   0.903   5.236
 5810TIP3   OH217362   4.597   0.266   5.250
 5810TIP3    H117363   4.668   0.311   5.301
 5810TIP3    H217364   4.626   0.174   5.258
 5811TIP3   OH217365   4.664   1.053   5.414
 5811TIP3    H117366   4.638   1.137   5.371
 5811TIP3    H217367   4.583   1.037   5.467
 5812TIP3   OH217368   4.054   0.748   4.642
 5812TIP3    H117369   4.007   0.770   4.560
 5812TIP3    H217370   4.075   0.836   4.677
 5813TIP3   OH217371   5.495   1.256   4.882
 5813TIP3    H117372   5.406   1.248   4.924
 5813TIP3    H217373   5.487   1.344   4.840
 5814TIP3   OH217374   5.195   1.299   4.557
 5814TIP3    H117375   5.246   1.217   4.538
 5814TIP3    H217376   5.258   1.365   4.518
 5815TIP3   OH217377   5.341   1.084   4.470
 5815TIP3    H117378   5.303   1.004   4.433
 5815TIP3    H217379   5.379   1.051   4.555
 5816TIP3   OH217380   5.721   1.165   5.232
 5816TIP3    H117381   5.709   1.090   5.170
 5816TIP3    H217382   5.702   1.242   5.173
 5817TIP3   OH217383   5.013   0.567   4.486
 5817TIP3    H117384   4.933   0.619   4.466
 5817TIP3    H217385   5.056   0.562   4.399
 5818TIP3   OH217386   4.970   0.343   4.206
 5818TIP3    H117387   5.040   0.397   4.247
 5818TIP3    H217388   5.023   0.280   4.154
 5819TIP3   OH217389   5.918   0.810   5.077
 5819TIP3    H117390   5.834   0.860   5.079
 5819TIP3    H217391   5.949   0.832   4.986
 5820TIP3   OH217392   5.360   0.644   4.457
 5820TIP3    H117393   5.306   0.667   4.536
 5820TIP3    H217394   5.446   0.625   4.499
 5821TIP3   OH217395   5.595   0.683   5.379
 5821TIP3    H117396   5.590   0.766   5.431
 5821TIP3    H217397   5.508   0.687   5.333
 5822TIP3   OH217398   4.595   0.641   4.877
 5822TIP3    H117399   4.556   0.581   4.809
 5822TIP3    H217400   4.672   0.589   4.909
 5823TIP3   OH217401   4.720   1.043   5.028
 5823TIP3    H117402   4.707   1.018   4.935
 5823TIP3    H217403   4.811   1.012   5.045
 5824TIP3   OH217404   4.726   0.612   5.237
 5824TIP3    H117405   4.759   0.583   5.149
 5824TIP3    H217406   4.773   0.697   5.251
 5825TIP3   OH217407   5.256   1.250   5.007
 5825TIP3    H117408   5.243   1.333   5.057
 5825TIP3    H217409   5.238   1.181   5.074
 5826TIP3   OH217410   4.871   1.169   5.557
 5826TIP3    H117411   4.808   1.231   5.601
 5826TIP3    H217412   4.808   1.115   5.505
 5827TIP3   OH217413   5.199   0.501   4.284
 5827TIP3    H117414   5.257   0.564   4.334
 5827TIP3    H217415   5.227   0.520   4.191
 5828TIP3   OH217416   4.616   0.734   5.655
 5828TIP3    H117417   4.620   0.818   5.703
 5828TIP3    H217418   4.522   0.709   5.670
 5829TIP3   OH217419   4.947   1.179   4.560
 5829TIP3    H117420   5.030   1.230   4.570
 5829TIP3    H217421   4.887   1.244   4.521
 5830TIP3   OH217422   4.661   1.335   5.640
 5830TIP3    H117423   4.633   1.341   5.547
 5830TIP3    H217424   4.578   1.316   5.686
 5831TIP3   OH217425   4.461   0.483   4.680
 5831TIP3    H117426   4.394   0.529   4.625
 5831TIP3    H217427   4.420   0.396   4.690
 5832TIP3   OH217428   5.517   1.108   3.883
 5832TIP3    H117429   5.526   1.205   3.868
 5832TIP3    H217430   5.610   1.079   3.871
 5833TIP3   OH217431   4.243   0.868   5.586
 5833TIP3    H117432   4.176   0.849   5.517
 5833TIP3    H217433   4.279   0.780   5.605
 5834TIP3   OH217434   4.098   1.060   5.227
 5834TIP3    H117435   4.191   1.059   5.201
 5834TIP3    H217436   4.091   1.144   5.274
 5835TIP3   OH217437   5.964   1.514   5.282
 5835TIP3    H117438   5.961   1.417   5.295
 5835TIP3    H217439   5.879   1.539   5.326
 5836TIP3   OH217440   5.066   1.299   5.412
 5836TIP3    H117441   5.064   1.392   5.444
 5836TIP3    H217442   4.995   1.259   5.468
 5837TIP3   OH217443   4.832   1.425   4.364
 5837TIP3    H117444   4.782   1.413   4.281
 5837TIP3    H217445   4.792   1.507   4.400
 5838TIP3   OH217446   5.027   1.329   4.002
 5838TIP3    H117447   5.086   1.259   3.966
 5838TIP3    H217448   5.062   1.340   4.093
 5839TIP3   OH217449   5.081   1.376   4.270
 5839TIP3    H117450   4.992   1.388   4.311
 5839TIP3    H217451   5.132   1.342   4.346
 5840TIP3   OH217452   5.846   0.629   5.556
 5840TIP3    H117453   5.769   0.660   5.507
 5840TIP3    H217454   5.840   0.533   5.543
 5841TIP3   OH217455   4.443   1.056   5.583
 5841TIP3    H117456   4.498   1.027   5.659
 5841TIP3    H217457   4.372   0.988   5.582
 5842TIP3   OH217458   5.614   0.424   5.497
 5842TIP3    H117459   5.594   0.460   5.584
 5842TIP3    H217460   5.601   0.501   5.438
 5843TIP3   OH217461   5.282   0.540   4.032
 5843TIP3    H117462   5.241   0.521   3.945
 5843TIP3    H217463   5.361   0.591   4.005
 5844TIP3   OH217464   4.795   0.398   5.397
 5844TIP3    H117465   4.735   0.417   5.471
 5844TIP3    H217466   4.782   0.477   5.341
 5845TIP3   OH217467   4.666   0.276   4.903
 5845TIP3    H117468   4.570   0.262   4.913
 5845TIP3    H217469   4.681   0.246   4.810
 5846TIP3   OH217470   5.143   0.365   4.621
 5846TIP3    H117471   5.098   0.439   4.575
 5846TIP3    H217472   5.211   0.338   4.555
 5847TIP3   OH217473   5.335   0.669   5.694
 5847TIP3    H117474   5.311   0.588   5.744
 5847TIP3    H217475   5.429   0.676   5.717
 5848TIP3   OH217476   5.287   0.429   4.881
 5848TIP3    H117477   5.234   0.478   4.816
 5848TIP3    H217478   5.308   0.349   4.828
 5849TIP3   OH217479   4.595   0.424   5.589
 5849TIP3    H117480   4.623   0.485   5.659
 5849TIP3    H217481   4.580   0.341   5.637
 5850TIP3   OH217482   5.310   0.640   5.283
 5850TIP3    H117483   5.349   0.570   5.226
 5850TIP3    H217484   5.287   0.586   5.361
 5851TIP3   OH217485   4.413   0.166   4.946
 5851TIP3    H117486   4.319   0.188   4.925
 5851TIP3    H217487   4.414   0.071   4.927
 5852TIP3   OH217488   4.699   0.171   4.654
 5852TIP3    H117489   4.792   0.159   4.627
 5852TIP3    H217490   4.649   0.160   4.571
 5853TIP3   OH217491   4.535   0.155   4.425
 5853TIP3    H117492   4.466   0.134   4.358
 5853TIP3    H217493   4.596   0.206   4.368
 5854TIP3   OH217494   5.678   1.853   5.363
 5854TIP3    H117495   5.614   1.892   5.302
 5854TIP3    H217496   5.653   1.902   5.444
 5855TIP3   OH217497   4.606   0.977   5.798
 5855TIP3    H117498   4.689   1.002   5.844
 5855TIP3    H217499   4.546   0.969   5.875
 5856TIP3   OH217500   5.057   0.426   5.052
 5856TIP3    H117501   5.144   0.403   5.015
 5856TIP3    H217502   5.064   0.392   5.144
 5857TIP3   OH217503   5.068   0.357   5.314
 5857TIP3    H117504   4.979   0.353   5.354
 5857TIP3    H217505   5.120   0.400   5.384
 5858TIP3   OH217506   4.781   0.714   4.435
 5858TIP3    H117507   4.708   0.649   4.424
 5858TIP3    H217508   4.762   0.748   4.526
 5859TIP3   OH217509   5.683   0.950   5.063
 5859TIP3    H117510   5.707   1.002   4.984
 5859TIP3    H217511   5.598   0.908   5.036
 5860TIP3   OH217512   5.218   0.095   4.258
 5860TIP3    H117513   5.161   0.046   4.320
 5860TIP3    H217514   5.256   0.162   4.318
 5861TIP3   OH217515   5.174   1.030   5.436
 5861TIP3    H117516   5.217   1.019   5.522
 5861TIP3    H217517   5.146   1.123   5.437
 5862TIP3   OH217518   5.319   0.290   4.419
 5862TIP3    H117519   5.416   0.302   4.428
 5862TIP3    H217520   5.293   0.369   4.367
 5863TIP3   OH217521   4.473   0.723   5.110
 5863TIP3    H117522   4.515   0.702   5.024
 5863TIP3    H217523   4.529   0.673   5.171
 5864TIP3   OH217524   4.930   0.864   4.261
 5864TIP3    H117525   4.879   0.949   4.263
 5864TIP3    H217526   4.876   0.810   4.322
 5865TIP3   OH217527   4.357   0.658   5.730
 5865TIP3    H117528   4.376   0.640   5.824
 5865TIP3    H217529   4.288   0.592   5.710
 5866TIP3   OH217530   5.085   0.775   5.749
 5866TIP3    H117531   5.025   0.720   5.696
 5866TIP3    H217532   5.172   0.745   5.716
 5867TIP3   OH217533   5.341   1.282   5.338
 5867TIP3    H117534   5.245   1.292   5.347
 5867TIP3    H217535   5.372   1.341   5.410
 5868TIP3   OH217536   5.750   0.365   4.227
 5868TIP3    H117537   5.691   0.315   4.166
 5868TIP3    H217538   5.737   0.456   4.191
 5869TIP3   OH217539   5.972   1.222   5.320
 5869TIP3    H117540   5.874   1.218   5.311
 5869TIP3    H217541   5.998   1.193   5.229
 5870TIP3   OH217542   5.456   1.185   4.149
 5870TIP3    H117543   5.426   1.117   4.210
 5870TIP3    H217544   5.467   1.136   4.065
 5871TIP3   OH217545   5.449   0.816   4.981
 5871TIP3    H117546   5.355   0.791   4.995
 5871TIP3    H217547   5.483   0.736   4.935
 5872TIP3   OH217548   4.581   1.045   4.736
 5872TIP3    H117549   4.578   1.128   4.685
 5872TIP3    H217550   4.490   1.042   4.769
 5873TIP3   OH217551   4.145   0.340   4.449
 5873TIP3    H117552   4.190   0.425   4.466
 5873TIP3    H217553   4.068   0.346   4.509
 5874TIP3   OH217554   4.708   0.804   4.677
 5874TIP3    H117555   4.675   0.894   4.696
 5874TIP3    H217556   4.676   0.755   4.756
 5875TIP3   OH217557   4.849   1.382   5.210
 5875TIP3    H117558   4.888   1.455   5.157
 5875TIP3    H217559   4.928   1.348   5.255
 5876TIP3   OH217560   4.476   1.287   4.601
 5876TIP3    H117561   4.408   1.333   4.657
 5876TIP3    H217562   4.534   1.365   4.588
 5877TIP3   OH217563   5.230   1.016   5.168
 5877TIP3    H117564   5.220   1.014   5.266
 5877TIP3    H217565   5.314   0.969   5.157
 5878TIP3   OH217566   5.212   0.913   4.050
 5878TIP3    H117567   5.265   0.887   4.129
 5878TIP3    H217568   5.123   0.886   4.078
 5879TIP3   OH217569   5.484   1.546   5.211
 5879TIP3    H117570   5.398   1.499   5.204
 5879TIP3    H217571   5.471   1.616   5.143
 5880TIP3   OH217572   5.548   1.384   3.867
 5880TIP3    H117573   5.584   1.459   3.816
 5880TIP3    H217574   5.468   1.427   3.903
 5881TIP3   OH217575   5.373   0.843   4.263
 5881TIP3    H117576   5.362   0.778   4.335
 5881TIP3    H217577   5.470   0.840   4.252
 5882TIP3   OH217578   4.281   1.249   5.386
 5882TIP3    H117579   4.336   1.173   5.406
 5882TIP3    H217580   4.339   1.323   5.410
 5883TIP3   OH217581   4.575   0.892   4.052
 5883TIP3    H117582   4.588   0.799   4.024
 5883TIP3    H217583   4.553   0.881   4.146
 5884TIP3   OH217584   4.515   0.900   4.327
 5884TIP3    H117585   4.595   0.875   4.375
 5884TIP3    H217586   4.519   0.998   4.333
 5885TIP3   OH217587   4.253   0.589   4.526
 5885TIP3    H117588   4.188   0.639   4.580
 5885TIP3    H217589   4.274   0.656   4.458
 5886TIP3   OH217590   4.781   1.090   4.269
 5886TIP3    H117591   4.697   1.120   4.308
 5886TIP3    H217592   4.801   1.167   4.212
 5887TIP3   OH217593   4.983   0.148   4.645
 5887TIP3    H117594   5.035   0.232   4.637
 5887TIP3    H217595   5.003   0.123   4.736
 5888TIP3   OH217596   5.257   0.477   5.494
 5888TIP3    H117597   5.253   0.537   5.570
 5888TIP3    H217598   5.311   0.406   5.530
 5889TIP3   OH217599   4.527   1.173   4.347
 5889TIP3    H117600   4.502   1.242   4.281
 5889TIP3    H217601   4.506   1.218   4.431
 5890TIP3   OH217602   5.536   0.573   4.861
 5890TIP3    H117603   5.457   0.521   4.885
 5890TIP3    H217604   5.607   0.526   4.910
 5891TIP3   OH217605   4.253   0.801   4.328
 5891TIP3    H117606   4.332   0.857   4.338
 5891TIP3    H217607   4.289   0.740   4.259
 5892TIP3   OH217608   4.188   0.062   4.455
 5892TIP3    H117609   4.201   0.158   4.447
 5892TIP3    H217610   4.093   0.055   4.448
 5893TIP3   OH217611   5.505   1.526   4.806
 5893TIP3    H117612   5.462   1.573   4.731
 5893TIP3    H217613   5.599   1.545   4.786
 5894TIP3   OH217614   4.088   1.041   4.690
 5894TIP3    H117615   4.041   1.064   4.772
 5894TIP3    H217616   4.173   1.085   4.708
 5895TIP3   OH217617   4.285   1.531   5.812
 5895TIP3    H117618   4.371   1.556   5.855
 5895TIP3    H217619   4.313   1.446   5.772
 5896TIP3   OH217620   4.746   1.514   5.837
 5896TIP3    H117621   4.842   1.514   5.842
 5896TIP3    H217622   4.730   1.453   5.762
 5897TIP3   OH217623   4.737   1.094   3.957
 5897TIP3    H117624   4.683   1.021   3.996
 5897TIP3    H217625   4.813   1.043   3.922
 5898TIP3   OH217626   5.394   1.427   5.567
 5898TIP3    H117627   5.388   1.359   5.639
 5898TIP3    H217628   5.470   1.482   5.596
 5899TIP3   OH217629   5.173   1.133   3.873
 5899TIP3    H117630   5.216   1.069   3.933
 5899TIP3    H217631   5.230   1.129   3.793
 5900TIP3   OH217632   4.405   0.962   5.990
 5900TIP3    H117633   4.424   0.867   5.998
 5900TIP3    H217634   4.320   0.961   5.941
 5901TIP3   OH217635   4.381   0.609   4.187
 5901TIP3    H117636   4.441   0.580   4.259
 5901TIP3    H217637   4.446   0.615   4.113
 5902TIP3   OH217638   5.009   1.047   5.765
 5902TIP3    H117639   4.974   1.070   5.676
 5902TIP3    H217640   5.041   0.956   5.753
 5903TIP3   OH217641   4.898   0.812   3.992
 5903TIP3    H117642   4.900   0.824   4.090
 5903TIP3    H217643   4.901   0.714   3.986
 5904TIP3   OH217644   5.504   1.060   5.369
 5904TIP3    H117645   5.582   1.100   5.326
 5904TIP3    H217646   5.438   1.130   5.354
 5905TIP3   OH217647   4.531   0.700   5.971
 5905TIP3    H117648   4.611   0.652   5.946
 5905TIP3    H217649   4.555   0.730   6.061
 5906TIP3   OH217650   4.583   0.518   4.401
 5906TIP3    H117651   4.567   0.478   4.488
 5906TIP3    H217652   4.625   0.445   4.352
 5907TIP3   OH217653   4.858   0.610   5.629
 5907TIP3    H117654   4.776   0.663   5.622
 5907TIP3    H217655   4.908   0.637   5.549
 5908TIP3   OH217656   4.691   0.310   4.253
 5908TIP3    H117657   4.666   0.317   4.158
 5908TIP3    H217658   4.789   0.311   4.245
 5909TIP3   OH217659   5.382   0.985   5.768
 5909TIP3    H117660   5.452   0.950   5.711
 5909TIP3    H217661   5.370   0.913   5.832
 5910TIP3   OH217662   5.513   0.637   3.909
 5910TIP3    H117663   5.492   0.597   3.823
 5910TIP3    H217664   5.480   0.729   3.891
 5911TIP3   OH217665   4.947   0.389   5.752
 5911TIP3    H117666   4.898   0.329   5.692
 5911TIP3    H217667   4.921   0.476   5.713
 5912TIP3   OH217668   5.021   0.697   5.434
 5912TIP3    H117669   5.105   0.707   5.388
 5912TIP3    H217670   4.964   0.761   5.387
 5913TIP3   OH217671   5.586   0.661   5.797
 5913TIP3    H117672   5.620   0.605   5.872
 5913TIP3    H217673   5.665   0.709   5.771
 5914TIP3   OH217674   5.635   0.913   5.554
 5914TIP3    H117675   5.576   0.968   5.496
 5914TIP3    H217676   5.722   0.937   5.515
 5915TIP3   OH217677   4.824   0.515   5.980
 5915TIP3    H117678   4.790   0.437   6.026
 5915TIP3    H217679   4.886   0.476   5.916
 5916TIP3   OH217680   5.226   0.443   5.788
 5916TIP3    H117681   5.254   0.407   5.875
 5916TIP3    H217682   5.130   0.430   5.792
 5917TIP3   OH217683   4.501   1.366   4.148
 5917TIP3    H117684   4.597   1.360   4.131
 5917TIP3    H217685   4.474   1.421   4.073
 5918TIP3   OH217686   3.980   0.767   4.355
 5918TIP3    H117687   4.076   0.783   4.344
 5918TIP3    H217688   3.972   0.675   4.319
 5919TIP3   OH217689   3.869   1.360   4.798
 5919TIP3    H117690   3.811   1.293   4.757
 5919TIP3    H217691   3.937   1.307   4.841
 5920TIP3   OH217692   4.034   1.191   4.948
 5920TIP3    H117693   4.022   1.148   5.035
 5920TIP3    H217694   4.090   1.266   4.975
 5921TIP3   OH217695   5.761   1.611   4.769
 5921TIP3    H117696   5.780   1.643   4.859
 5921TIP3    H217697   5.821   1.666   4.716
 5922TIP3   OH217698   5.785   1.635   5.047
 5922TIP3    H117699   5.745   1.546   5.048
 5922TIP3    H217700   5.858   1.622   5.110
 5923TIP3   OH217701   5.836   1.311   5.625
 5923TIP3    H117702   5.762   1.323   5.688
 5923TIP3    H217703   5.876   1.401   5.625
 5924TIP3   OH217704   5.650   0.825   4.239
 5924TIP3    H117705   5.715   0.892   4.210
 5924TIP3    H217706   5.695   0.790   4.319
 5925TIP3   OH217707   5.776   0.698   4.444
 5925TIP3    H117708   5.709   0.660   4.505
 5925TIP3    H217709   5.842   0.737   4.505
 5926TIP3   OH217710   5.834   1.088   4.878
 5926TIP3    H117711   5.886   1.020   4.830
 5926TIP3    H217712   5.830   1.161   4.813
 5927TIP3   OH217713   5.661   1.384   5.073
 5927TIP3    H117714   5.591   1.431   5.123
 5927TIP3    H217715   5.611   1.342   5.001
 5928TIP3   OH217716   5.709   0.600   4.092
 5928TIP3    H117717   5.640   0.610   4.022
 5928TIP3    H217718   5.684   0.676   4.148
 5929TIP3   OH217719   5.577   0.259   4.032
 5929TIP3    H117720   5.561   0.342   3.985
 5929TIP3    H217721   5.525   0.197   3.978
 5930TIP3   OH217722   5.588   0.566   4.589
 5930TIP3    H117723   5.593   0.472   4.565
 5930TIP3    H217724   5.576   0.565   4.687
 5931TIP3   OH217725   4.215   0.623   5.340
 5931TIP3    H117726   4.213   0.596   5.246
 5931TIP3    H217727   4.312   0.626   5.356
 5932TIP3   OH217728   5.880   0.977   5.449
 5932TIP3    H117729   5.952   0.911   5.437
 5932TIP3    H217730   5.905   1.046   5.385
 5933TIP3   OH217731   6.060   0.776   5.463
 5933TIP3    H117732   5.987   0.721   5.500
 5933TIP3    H217733   6.136   0.715   5.479
 5934TIP3   OH217734   5.590   0.314   4.459
 5934TIP3    H117735   5.620   0.236   4.510
 5934TIP3    H217736   5.653   0.315   4.383
 5935TIP3   OH217737   5.744   0.445   4.989
 5935TIP3    H117738   5.829   0.467   4.946
 5935TIP3    H217739   5.760   0.481   5.078
 5936TIP3   OH217740   5.812   0.596   5.213
 5936TIP3    H117741   5.734   0.631   5.260
 5936TIP3    H217742   5.846   0.675   5.167
 5937TIP3   OH217743   4.430   0.306   6.015
 5937TIP3    H117744   4.522   0.282   5.999
 5937TIP3    H217745   4.395   0.223   6.052
 5938TIP3   OH217746   4.193   0.276   5.414
 5938TIP3    H117747   4.240   0.282   5.329
 5938TIP3    H217748   4.224   0.356   5.459
 5939TIP3   OH217749   5.341   1.483   4.422
 5939TIP3    H117750   5.395   1.476   4.341
 5939TIP3    H217751   5.389   1.549   4.474
 5940TIP3   OH217752   4.433   1.299   5.807
 5940TIP3    H117753   4.365   1.233   5.792
 5940TIP3    H217754   4.471   1.272   5.892
 5941TIP3   OH217755   4.620   1.326   5.357
 5941TIP3    H117756   4.577   1.403   5.314
 5941TIP3    H217757   4.708   1.335   5.313
 5942TIP3   OH217758   5.067   1.570   5.490
 5942TIP3    H117759   5.106   1.569   5.580
 5942TIP3    H217760   5.134   1.624   5.443
 5943TIP3   OH217761   5.252   1.734   5.364
 5943TIP3    H117762   5.331   1.688   5.334
 5943TIP3    H217763   5.290   1.822   5.386
 5944TIP3   OH217764   4.297   1.575   5.388
 5944TIP3    H117765   4.207   1.600   5.357
 5944TIP3    H217766   4.311   1.643   5.456
 5945TIP3   OH217767   4.533   1.556   5.239
 5945TIP3    H117768   4.445   1.568   5.280
 5945TIP3    H217769   4.516   1.582   5.146
 5946TIP3   OH217770   4.959   1.580   5.039
 5946TIP3    H117771   4.886   1.597   4.975
 5946TIP3    H217772   4.971   1.669   5.078
 5947TIP3   OH217773   5.228   1.517   5.088
 5947TIP3    H117774   5.135   1.540   5.070
 5947TIP3    H217775   5.275   1.594   5.050
 5948TIP3   OH217776   5.429   1.711   5.001
 5948TIP3    H117777   5.417   1.797   4.956
 5948TIP3    H217778   5.459   1.654   4.927
 5949TIP3   OH217779   4.185   1.355   5.129
 5949TIP3    H117780   4.235   1.339   5.211
 5949TIP3    H217781   4.256   1.337   5.063
 5950TIP3   OH217782   4.397   1.238   5.009
 5950TIP3    H117783   4.431   1.160   5.056
 5950TIP3    H217784   4.477   1.281   4.975
 5951TIP3   OH217785   4.675   1.336   4.985
 5951TIP3    H117786   4.704   1.244   4.975
 5951TIP3    H217787   4.720   1.360   5.068
 5952TIP3   OH217788   4.768   1.327   4.098
 5952TIP3    H117789   4.856   1.351   4.062
 5952TIP3    H217790   4.747   1.252   4.037
 5953TIP3   OH217791   5.490   1.452   4.191
 5953TIP3    H117792   5.482   1.354   4.182
 5953TIP3    H217793   5.442   1.482   4.112
 5954TIP3   OH217794   5.715   1.584   5.377
 5954TIP3    H117795   5.634   1.561   5.328
 5954TIP3    H217796   5.711   1.682   5.373
 5955TIP3   OH217797   6.980   0.966   4.141
 5955TIP3    H117798   6.951   1.058   4.121
 5955TIP3    H217799   6.904   0.916   4.107
 5956TIP3   OH217800   6.983   0.967   4.527
 5956TIP3    H117801   7.014   0.945   4.617
 5956TIP3    H217802   6.938   0.885   4.501
 5957TIP3   OH217803   6.275   0.860   4.889
 5957TIP3    H117804   6.306   0.789   4.948
 5957TIP3    H217805   6.355   0.915   4.884
 5958TIP3   OH217806   7.228   1.270   4.208
 5958TIP3    H117807   7.205   1.202   4.273
 5958TIP3    H217808   7.253   1.345   4.264
 5959TIP3   OH217809   6.250   1.271   4.609
 5959TIP3    H117810   6.242   1.173   4.612
 5959TIP3    H217811   6.347   1.281   4.610
 5960TIP3   OH217812   5.946   0.484   4.413
 5960TIP3    H117813   5.891   0.564   4.424
 5960TIP3    H217814   5.888   0.430   4.356
 5961TIP3   OH217815   6.008   0.771   4.572
 5961TIP3    H117816   6.049   0.687   4.602
 5961TIP3    H217817   6.075   0.805   4.511
 5962TIP3   OH217818   6.875   1.733   4.224
 5962TIP3    H117819   6.919   1.659   4.177
 5962TIP3    H217820   6.861   1.694   4.312
 5963TIP3   OH217821   6.777   1.194   4.573
 5963TIP3    H117822   6.816   1.116   4.530
 5963TIP3    H217823   6.859   1.240   4.599
 5964TIP3   OH217824   7.199   0.694   4.619
 5964TIP3    H117825   7.210   0.603   4.650
 5964TIP3    H217826   7.159   0.683   4.531
 5965TIP3   OH217827   6.520   0.308   4.528
 5965TIP3    H117828   6.495   0.400   4.508
 5965TIP3    H217829   6.433   0.265   4.527
 5966TIP3   OH217830   7.185   0.470   4.245
 5966TIP3    H117831   7.243   0.421   4.306
 5966TIP3    H217832   7.238   0.466   4.164
 5967TIP3   OH217833   6.138   0.553   4.667
 5967TIP3    H117834   6.231   0.559   4.700
 5967TIP3    H217835   6.152   0.490   4.594
 5968TIP3   OH217836   6.598   0.756   4.475
 5968TIP3    H117837   6.691   0.730   4.489
 5968TIP3    H217838   6.558   0.670   4.449
 5969TIP3   OH217839   7.825   0.703   4.756
 5969TIP3    H117840   7.749   0.762   4.738
 5969TIP3    H217841   7.887   0.761   4.803
 5970TIP3   OH217842   6.876   1.191   4.007
 5970TIP3    H117843   6.827   1.171   3.926
 5970TIP3    H217844   6.828   1.271   4.037
 5971TIP3   OH217845   6.633   1.112   4.797
 5971TIP3    H117846   6.571   1.179   4.835
 5971TIP3    H217847   6.673   1.162   4.722
 5972TIP3   OH217848   6.397   0.519   4.732
 5972TIP3    H117849   6.465   0.570   4.781
 5972TIP3    H217850   6.417   0.429   4.763
 5973TIP3   OH217851   6.461   1.308   4.896
 5973TIP3    H117852   6.436   1.397   4.862
 5973TIP3    H217853   6.382   1.289   4.950
 5974TIP3   OH217854   5.851   0.997   4.132
 5974TIP3    H117855   5.810   1.027   4.048
 5974TIP3    H217856   5.883   1.082   4.169
 5975TIP3   OH217857   7.294   1.514   4.371
 5975TIP3    H117858   7.206   1.503   4.414
 5975TIP3    H217859   7.281   1.601   4.327
 5976TIP3   OH217860   6.995   1.556   4.046
 5976TIP3    H117861   7.045   1.474   4.027
 5976TIP3    H217862   7.057   1.621   4.005
 5977TIP3   OH217863   7.140   1.340   3.956
 5977TIP3    H117864   7.084   1.266   3.930
 5977TIP3    H217865   7.179   1.307   4.040
 5978TIP3   OH217866   7.521   1.425   4.716
 5978TIP3    H117867   7.503   1.346   4.660
 5978TIP3    H217868   7.499   1.499   4.655
 5979TIP3   OH217869   6.811   0.824   3.973
 5979TIP3    H117870   6.728   0.874   3.955
 5979TIP3    H217871   6.849   0.817   3.884
 5980TIP3   OH217872   6.766   0.602   3.692
 5980TIP3    H117873   6.838   0.653   3.732
 5980TIP3    H217874   6.816   0.532   3.646
 5981TIP3   OH217875   7.705   1.056   4.554
 5981TIP3    H117876   7.624   1.111   4.563
 5981TIP3    H217877   7.738   1.088   4.468
 5982TIP3   OH217878   7.158   0.903   3.943
 5982TIP3    H117879   7.102   0.925   4.021
 5982TIP3    H217880   7.242   0.881   3.988
 5983TIP3   OH217881   7.389   0.941   4.865
 5983TIP3    H117882   7.384   1.022   4.920
 5983TIP3    H217883   7.301   0.945   4.821
 5984TIP3   OH217884   6.391   0.898   4.362
 5984TIP3    H117885   6.350   0.838   4.296
 5984TIP3    H217886   6.467   0.845   4.394
 5985TIP3   OH217887   6.523   1.313   4.509
 5985TIP3    H117888   6.500   1.273   4.424
 5985TIP3    H217889   6.611   1.275   4.528
 5986TIP3   OH217890   6.530   0.865   4.725
 5986TIP3    H117891   6.557   0.839   4.634
 5986TIP3    H217892   6.572   0.953   4.736
 5987TIP3   OH217893   7.057   1.505   4.495
 5987TIP3    H117894   7.040   1.587   4.546
 5987TIP3    H217895   7.036   1.434   4.559
 5988TIP3   OH217896   6.666   1.425   5.041
 5988TIP3    H117897   6.604   1.486   5.088
 5988TIP3    H217898   6.601   1.372   4.990
 5989TIP3   OH217899   6.998   0.756   3.771
 5989TIP3    H117900   7.054   0.820   3.820
 5989TIP3    H217901   7.025   0.776   3.678
 5990TIP3   OH217902   6.412   0.991   5.139
 5990TIP3    H117903   6.417   1.076   5.187
 5990TIP3    H217904   6.319   0.966   5.157
 5991TIP3   OH217905   6.745   1.433   4.047
 5991TIP3    H117906   6.824   1.489   4.059
 5991TIP3    H217907   6.682   1.494   4.007
 5992TIP3   OH217908   6.459   1.590   5.130
 5992TIP3    H117909   6.422   1.595   5.040
 5992TIP3    H217910   6.380   1.567   5.184
 5993TIP3   OH217911   6.257   0.740   4.164
 5993TIP3    H117912   6.187   0.785   4.112
 5993TIP3    H217913   6.218   0.653   4.179
 5994TIP3   OH217914   7.305   1.368   3.369
 5994TIP3    H117915   7.317   1.464   3.355
 5994TIP3    H217916   7.397   1.335   3.358
 5995TIP3   OH217917   6.036   1.125   5.076
 5995TIP3    H117918   5.969   1.106   5.008
 5995TIP3    H217919   6.075   1.037   5.095
 5996TIP3   OH217920   5.891   1.318   4.707
 5996TIP3    H117921   5.988   1.317   4.703
 5996TIP3    H217922   5.876   1.397   4.761
 5997TIP3   OH217923   7.762   1.774   4.765
 5997TIP3    H117924   7.760   1.678   4.782
 5997TIP3    H217925   7.678   1.799   4.810
 5998TIP3   OH217926   6.860   1.554   4.899
 5998TIP3    H117927   6.858   1.646   4.931
 5998TIP3    H217928   6.789   1.513   4.953
 5999TIP3   OH217929   6.628   1.685   3.849
 5999TIP3    H117930   6.575   1.666   3.769
 5999TIP3    H217931   6.590   1.770   3.880
 6000TIP3   OH217932   6.062   1.532   4.237
 6000TIP3    H117933   6.109   1.524   4.323
 6000TIP3    H217934   6.008   1.451   4.238
 6001TIP3   OH217935   6.825   1.588   3.488
 6001TIP3    H117936   6.883   1.516   3.453
 6001TIP3    H217937   6.857   1.596   3.580
 6002TIP3   OH217938   6.877   1.633   3.757
 6002TIP3    H117939   6.787   1.644   3.797
 6002TIP3    H217940   6.925   1.593   3.832
 6003TIP3   OH217941   7.642   0.884   5.039
 6003TIP3    H117942   7.561   0.915   4.998
 6003TIP3    H217943   7.628   0.788   5.037
 6004TIP3   OH217944   6.242   1.307   5.058
 6004TIP3    H117945   6.289   1.294   5.142
 6004TIP3    H217946   6.167   1.244   5.067
 6005TIP3   OH217947   7.426   0.686   4.987
 6005TIP3    H117948   7.385   0.711   5.071
 6005TIP3    H217949   7.399   0.759   4.928
 6006TIP3   OH217950   7.080   0.797   3.518
 6006TIP3    H117951   7.038   0.778   3.432
 6006TIP3    H217952   7.157   0.849   3.490
 6007TIP3   OH217953   6.591   0.652   4.884
 6007TIP3    H117954   6.531   0.672   4.958
 6007TIP3    H217955   6.579   0.732   4.829
 6008TIP3   OH217956   6.455   0.538   4.387
 6008TIP3    H117957   6.361   0.513   4.401
 6008TIP3    H217958   6.471   0.505   4.297
 6009TIP3   OH217959   6.941   0.626   4.112
 6009TIP3    H117960   6.894   0.697   4.063
 6009TIP3    H217961   7.007   0.596   4.046
 6010TIP3   OH217962   7.131   0.925   5.180
 6010TIP3    H117963   7.107   0.844   5.231
 6010TIP3    H217964   7.226   0.932   5.203
 6011TIP3   OH217965   7.084   0.690   4.369
 6011TIP3    H117966   7.025   0.733   4.304
 6011TIP3    H217967   7.108   0.609   4.317
 6012TIP3   OH217968   6.392   0.680   5.076
 6012TIP3    H117969   6.413   0.743   5.147
 6012TIP3    H217970   6.376   0.598   5.125
 6013TIP3   OH217971   6.026   0.292   4.214
 6013TIP3    H117972   6.042   0.292   4.117
 6013TIP3    H217973   5.931   0.312   4.214
 6014TIP3   OH217974   7.110   0.897   4.769
 6014TIP3    H117975   7.150   0.827   4.713
 6014TIP3    H217976   7.087   0.843   4.848
 6015TIP3   OH217977   6.204   0.408   4.430
 6015TIP3    H117978   6.113   0.443   4.418
 6015TIP3    H217979   6.196   0.330   4.374
 6016TIP3   OH217980   6.498   0.432   4.139
 6016TIP3    H117981   6.588   0.415   4.105
 6016TIP3    H217982   6.442   0.419   4.060
 6017TIP3   OH217983   6.333   0.410   3.913
 6017TIP3    H117984   6.259   0.396   3.852
 6017TIP3    H217985   6.393   0.460   3.853
 6018TIP3   OH217986   7.449   2.118   4.868
 6018TIP3    H117987   7.446   2.143   4.773
 6018TIP3    H217988   7.524   2.172   4.900
 6019TIP3   OH217989   6.404   1.231   5.285
 6019TIP3    H117990   6.484   1.260   5.333
 6019TIP3    H217991   6.339   1.232   5.358
 6020TIP3   OH217992   6.852   0.687   4.540
 6020TIP3    H117993   6.938   0.658   4.504
 6020TIP3    H217994   6.857   0.654   4.633
 6021TIP3   OH217995   6.866   0.617   4.800
 6021TIP3    H117996   6.776   0.608   4.839
 6021TIP3    H217997   6.915   0.659   4.872
 6022TIP3   OH217998   6.579   0.970   3.923
 6022TIP3    H117999   6.507   0.905   3.912
 6022TIP3    H218000   6.559   1.004   4.014
 6023TIP3   OH218001   7.476   1.207   4.552
 6023TIP3    H118002   7.497   1.258   4.472
 6023TIP3    H218003   7.392   1.163   4.528
 6024TIP3   OH218004   7.014   0.356   3.744
 6024TIP3    H118005   6.955   0.302   3.799
 6024TIP3    H218006   7.050   0.418   3.810
 6025TIP3   OH218007   6.983   1.293   4.919
 6025TIP3    H118008   7.006   1.268   5.009
 6025TIP3    H218009   6.940   1.380   4.931
 6026TIP3   OH218010   7.116   0.548   3.911
 6026TIP3    H118011   7.213   0.559   3.917
 6026TIP3    H218012   7.089   0.624   3.856
 6027TIP3   OH218013   6.275   0.993   4.598
 6027TIP3    H118014   6.314   0.963   4.513
 6027TIP3    H218015   6.316   0.933   4.661
 6028TIP3   OH218016   6.725   1.120   3.748
 6028TIP3    H118017   6.676   1.206   3.751
 6028TIP3    H218018   6.670   1.065   3.808
 6029TIP3   OH218019   6.156   0.912   5.214
 6029TIP3    H118020   6.175   0.898   5.309
 6029TIP3    H218021   6.084   0.849   5.198
 6030TIP3   OH218022   6.881   1.033   5.235
 6030TIP3    H118023   6.819   0.976   5.186
 6030TIP3    H218024   6.968   1.002   5.202
 6031TIP3   OH218025   7.138   1.552   4.815
 6031TIP3    H118026   7.042   1.547   4.831
 6031TIP3    H218027   7.167   1.601   4.894
 6032TIP3   OH218028   7.549   0.618   3.711
 6032TIP3    H118029   7.488   0.571   3.651
 6032TIP3    H218030   7.535   0.710   3.678
 6033TIP3   OH218031   7.772   1.485   4.801
 6033TIP3    H118032   7.674   1.476   4.793
 6033TIP3    H218033   7.800   1.455   4.713
 6034TIP3   OH218034   7.256   1.440   3.639
 6034TIP3    H118035   7.219   1.375   3.701
 6034TIP3    H218036   7.259   1.391   3.555
 6035TIP3   OH218037   7.246   1.072   4.466
 6035TIP3    H118038   7.153   1.047   4.482
 6035TIP3    H218039   7.279   0.992   4.422
 6036TIP3   OH218040   6.374   1.298   4.221
 6036TIP3    H118041   6.368   1.379   4.168
 6036TIP3    H218042   6.282   1.280   4.241
 6037TIP3   OH218043   5.936   0.601   3.933
 6037TIP3    H118044   5.982   0.685   3.953
 6037TIP3    H218045   5.860   0.606   3.995
 6038TIP3   OH218046   6.508   1.061   4.166
 6038TIP3    H118047   6.472   1.150   4.185
 6038TIP3    H218048   6.474   1.010   4.241
 6039TIP3   OH218049   6.644   1.641   4.693
 6039TIP3    H118050   6.688   1.714   4.644
 6039TIP3    H218051   6.720   1.603   4.741
 6040TIP3   OH218052   6.291   1.537   4.075
 6040TIP3    H118053   6.206   1.545   4.123
 6040TIP3    H218054   6.324   1.629   4.079
 6041TIP3   OH218055   7.028   1.273   4.653
 6041TIP3    H118056   7.016   1.275   4.751
 6041TIP3    H218057   7.109   1.219   4.646
 6042TIP3   OH218058   7.007   1.172   3.534
 6042TIP3    H118059   7.059   1.144   3.613
 6042TIP3    H218060   6.918   1.141   3.560
 6043TIP3   OH218061   7.281   1.803   4.701
 6043TIP3    H118062   7.200   1.747   4.698
 6043TIP3    H218063   7.261   1.868   4.630
 6044TIP3   OH218064   7.345   1.644   3.354
 6044TIP3    H118065   7.373   1.720   3.301
 6044TIP3    H218066   7.264   1.682   3.392
 6045TIP3   OH218067   7.168   1.098   3.744
 6045TIP3    H118068   7.156   1.036   3.819
 6045TIP3    H218069   7.266   1.096   3.736
 6046TIP3   OH218070   6.083   1.500   4.849
 6046TIP3    H118071   6.139   1.432   4.892
 6046TIP3    H218072   6.100   1.576   4.907
 6047TIP3   OH218073   6.371   1.148   3.536
 6047TIP3    H118074   6.383   1.055   3.509
 6047TIP3    H218075   6.350   1.139   3.631
 6048TIP3   OH218076   6.315   1.155   3.807
 6048TIP3    H118077   6.386   1.127   3.866
 6048TIP3    H218078   6.319   1.252   3.815
 6049TIP3   OH218079   6.048   0.846   4.013
 6049TIP3    H118080   5.982   0.891   4.069
 6049TIP3    H218081   6.062   0.914   3.944
 6050TIP3   OH218082   6.584   1.350   3.755
 6050TIP3    H118083   6.497   1.372   3.793
 6050TIP3    H218084   6.596   1.426   3.696
 6051TIP3   OH218085   6.789   0.401   4.130
 6051TIP3    H118086   6.839   0.486   4.129
 6051TIP3    H218087   6.786   0.382   4.225
 6052TIP3   OH218088   7.057   0.735   4.981
 6052TIP3    H118089   7.051   0.799   5.054
 6052TIP3    H218090   7.099   0.660   5.027
 6053TIP3   OH218091   6.330   1.427   3.825
 6053TIP3    H118092   6.298   1.496   3.763
 6053TIP3    H218093   6.312   1.469   3.912
 6054TIP3   OH218094   7.332   0.829   4.346
 6054TIP3    H118095   7.251   0.780   4.369
 6054TIP3    H218096   7.401   0.780   4.397
 6055TIP3   OH218097   6.045   1.050   3.816
 6055TIP3    H118098   6.114   1.118   3.825
 6055TIP3    H218099   6.089   0.993   3.749
 6056TIP3   OH218100   5.989   0.330   3.940
 6056TIP3    H118101   5.982   0.427   3.932
 6056TIP3    H218102   5.900   0.301   3.916
 6057TIP3   OH218103   7.297   1.782   4.292
 6057TIP3    H118104   7.253   1.829   4.218
 6057TIP3    H218105   7.391   1.799   4.269
 6058TIP3   OH218106   5.910   1.265   4.199
 6058TIP3    H118107   5.850   1.297   4.267
 6058TIP3    H218108   5.875   1.310   4.118
 6059TIP3   OH218109   6.074   1.811   5.269
 6059TIP3    H118110   6.159   1.815   5.317
 6059TIP3    H218111   6.053   1.716   5.273
 6060TIP3   OH218112   6.552   1.772   5.321
 6060TIP3    H118113   6.647   1.754   5.325
 6060TIP3    H218114   6.524   1.711   5.249
 6061TIP3   OH218115   6.534   1.349   3.445
 6061TIP3    H118116   6.477   1.279   3.484
 6061TIP3    H218117   6.609   1.296   3.415
 6062TIP3   OH218118   7.196   1.680   5.050
 6062TIP3    H118119   7.185   1.613   5.121
 6062TIP3    H218120   7.270   1.734   5.084
 6063TIP3   OH218121   6.970   1.390   3.361
 6063TIP3    H118122   7.007   1.322   3.421
 6063TIP3    H218123   7.028   1.384   3.283
 6064TIP3   OH218124   6.202   1.218   5.476
 6064TIP3    H118125   6.217   1.122   5.481
 6064TIP3    H218126   6.115   1.222   5.429
 6065TIP3   OH218127   6.181   0.866   3.671
 6065TIP3    H118128   6.238   0.835   3.744
 6065TIP3    H218129   6.248   0.871   3.599
 6066TIP3   OH218130   6.809   1.307   5.250
 6066TIP3    H118131   6.767   1.325   5.163
 6066TIP3    H218132   6.838   1.213   5.240
 6067TIP3   OH218133   6.699   1.071   3.479
 6067TIP3    H118134   6.697   1.081   3.576
 6067TIP3    H218135   6.700   0.973   3.471
 6068TIP3   OH218136   7.302   1.315   4.855
 6068TIP3    H118137   7.376   1.362   4.814
 6068TIP3    H218138   7.229   1.379   4.841
 6069TIP3   OH218139   6.328   0.951   5.458
 6069TIP3    H118140   6.411   0.907   5.436
 6069TIP3    H218141   6.350   0.987   5.547
 6070TIP3   OH218142   6.385   0.775   3.891
 6070TIP3    H118143   6.361   0.737   3.976
 6070TIP3    H218144   6.423   0.699   3.843
 6071TIP3   OH218145   6.656   0.868   5.118
 6071TIP3    H118146   6.572   0.919   5.112
 6071TIP3    H218147   6.704   0.895   5.037
 6072TIP3   OH218148   6.486   0.567   3.738
 6072TIP3    H118149   6.461   0.574   3.644
 6072TIP3    H218150   6.584   0.568   3.730
 6073TIP3   OH218151   7.178   1.242   5.254
 6073TIP3    H118152   7.249   1.203   5.202
 6073TIP3    H218153   7.163   1.175   5.322
 6074TIP3   OH218154   7.311   0.895   3.394
 6074TIP3    H118155   7.289   0.853   3.309
 6074TIP3    H218156   7.276   0.985   3.376
 6075TIP3   OH218157   6.744   0.646   5.239
 6075TIP3    H118158   6.693   0.587   5.180
 6075TIP3    H218159   6.717   0.733   5.201
 6076TIP3   OH218160   6.818   0.954   4.921
 6076TIP3    H118161   6.900   0.962   4.870
 6076TIP3    H218162   6.759   1.016   4.875
 6077TIP3   OH218163   7.384   0.912   5.279
 6077TIP3    H118164   7.414   0.857   5.356
 6077TIP3    H218165   7.461   0.968   5.265
 6078TIP3   OH218166   7.434   1.169   5.039
 6078TIP3    H118167   7.374   1.222   4.982
 6078TIP3    H218168   7.521   1.193   4.999
 6079TIP3   OH218169   6.619   0.772   5.466
 6079TIP3    H118170   6.587   0.696   5.517
 6079TIP3    H218171   6.680   0.730   5.403
 6080TIP3   OH218172   7.022   0.698   5.273
 6080TIP3    H118173   7.049   0.665   5.361
 6080TIP3    H218174   6.926   0.686   5.277
 6081TIP3   OH218175   6.297   1.631   3.634
 6081TIP3    H118176   6.392   1.623   3.614
 6081TIP3    H218177   6.270   1.683   3.556
 6082TIP3   OH218178   5.775   1.011   3.850
 6082TIP3    H118179   5.871   1.031   3.837
 6082TIP3    H218180   5.769   0.922   3.810
 6083TIP3   OH218181   5.695   1.622   4.268
 6083TIP3    H118182   5.628   1.562   4.229
 6083TIP3    H218183   5.738   1.563   4.333
 6084TIP3   OH218184   5.829   1.468   4.454
 6084TIP3    H118185   5.814   1.400   4.522
 6084TIP3    H218186   5.879   1.532   4.507
 6085TIP3   OH218187   7.557   1.856   4.251
 6085TIP3    H118188   7.577   1.883   4.343
 6085TIP3    H218189   7.621   1.906   4.199
 6086TIP3   OH218190   7.592   1.889   4.524
 6086TIP3    H118191   7.541   1.805   4.528
 6086TIP3    H218192   7.653   1.873   4.597
 6087TIP3   OH218193   7.629   1.569   5.110
 6087TIP3    H118194   7.557   1.578   5.175
 6087TIP3    H218195   7.669   1.658   5.113
 6088TIP3   OH218196   7.448   1.084   3.725
 6088TIP3    H118197   7.514   1.150   3.698
 6088TIP3    H218198   7.488   1.049   3.807
 6089TIP3   OH218199   7.566   0.966   3.939
 6089TIP3    H118200   7.495   0.916   3.986
 6089TIP3    H218201   7.612   1.007   4.014
 6090TIP3   OH218202   7.629   1.345   4.366
 6090TIP3    H118203   7.678   1.279   4.313
 6090TIP3    H218204   7.617   1.417   4.303
 6091TIP3   OH218205   7.458   1.647   4.555
 6091TIP3    H118206   7.388   1.688   4.610
 6091TIP3    H218207   7.405   1.600   4.487
 6092TIP3   OH218208   7.504   0.857   3.579
 6092TIP3    H118209   7.436   0.864   3.509
 6092TIP3    H218210   7.478   0.934   3.634
 6093TIP3   OH218211   7.375   0.518   3.521
 6093TIP3    H118212   7.353   0.595   3.467
 6093TIP3    H218213   7.325   0.448   3.475
 6094TIP3   OH218214   7.386   0.821   4.075
 6094TIP3    H118215   7.387   0.726   4.050
 6094TIP3    H218216   7.372   0.818   4.172
 6095TIP3   OH218217   6.011   0.880   4.827
 6095TIP3    H118218   6.008   0.850   4.734
 6095TIP3    H218219   6.108   0.881   4.843
 6096TIP3   OH218220   7.680   1.235   4.933
 6096TIP3    H118221   7.751   1.167   4.925
 6096TIP3    H218222   7.708   1.302   4.868
 6097TIP3   OH218223   7.855   1.029   4.951
 6097TIP3    H118224   7.781   0.976   4.988
 6097TIP3    H218225   7.930   0.968   4.968
 6098TIP3   OH218226   7.389   0.572   3.945
 6098TIP3    H118227   7.414   0.493   3.998
 6098TIP3    H218228   7.453   0.568   3.870
 6099TIP3   OH218229   7.542   0.704   4.472
 6099TIP3    H118230   7.624   0.731   4.427
 6099TIP3    H218231   7.559   0.737   4.563
 6100TIP3   OH218232   7.604   0.850   4.702
 6100TIP3    H118233   7.526   0.884   4.752
 6100TIP3    H218234   7.635   0.930   4.655
 6101TIP3   OH218235   6.225   0.561   5.500
 6101TIP3    H118236   6.319   0.542   5.491
 6101TIP3    H218237   6.192   0.478   5.539
 6102TIP3   OH218238   5.989   0.532   4.902
 6102TIP3    H118239   6.035   0.536   4.816
 6102TIP3    H218240   6.018   0.614   4.944
 6103TIP3   OH218241   7.138   1.740   3.908
 6103TIP3    H118242   7.193   1.733   3.827
 6103TIP3    H218243   7.186   1.808   3.959
 6104TIP3   OH218244   6.241   1.540   5.293
 6104TIP3    H118245   6.146   1.521   5.278
 6104TIP3    H218246   6.248   1.529   5.389
 6105TIP3   OH218247   6.419   1.578   4.842
 6105TIP3    H118248   6.369   1.654   4.804
 6105TIP3    H218249   6.504   1.594   4.797
 6106TIP3   OH218250   6.859   1.820   4.978
 6106TIP3    H118251   6.900   1.820   5.068
 6106TIP3    H218252   6.924   1.873   4.928
 6107TIP3   OH218253   7.039   1.975   4.842
 6107TIP3    H118254   7.111   1.924   4.802
 6107TIP3    H218255   7.089   2.033   4.903
 6108TIP3   OH218256   6.093   1.833   4.869
 6108TIP3    H118257   6.003   1.865   4.845
 6108TIP3    H218258   6.106   1.879   4.953
 6109TIP3   OH218259   6.329   1.813   4.726
 6109TIP3    H118260   6.242   1.825   4.771
 6109TIP3    H218261   6.308   1.845   4.636
 6110TIP3   OH218262   6.755   1.840   4.522
 6110TIP3    H118263   6.682   1.858   4.460
 6110TIP3    H218264   6.766   1.927   4.565
 6111TIP3   OH218265   7.024   1.777   4.573
 6111TIP3    H118266   6.929   1.796   4.555
 6111TIP3    H218267   7.067   1.855   4.535
 6112TIP3   OH218268   7.229   1.968   4.488
 6112TIP3    H118269   7.218   2.054   4.443
 6112TIP3    H218270   7.253   1.909   4.414
 6113TIP3   OH218271   6.006   1.628   4.608
 6113TIP3    H118272   6.029   1.600   4.699
 6113TIP3    H218273   6.078   1.582   4.559
 6114TIP3   OH218274   6.201   1.499   4.469
 6114TIP3    H118275   6.214   1.415   4.520
 6114TIP3    H218276   6.292   1.534   4.466
 6115TIP3   OH218277   6.468   1.591   4.475
 6115TIP3    H118278   6.497   1.498   4.467
 6115TIP3    H218279   6.514   1.615   4.557
 6116TIP3   OH218280   5.792   1.403   3.998
 6116TIP3    H118281   5.706   1.370   3.967
 6116TIP3    H218282   5.783   1.497   3.976
 6117TIP3   OH218283   6.565   1.583   3.584
 6117TIP3    H118284   6.653   1.605   3.547
 6117TIP3    H218285   6.541   1.510   3.523
 6118TIP3   OH218286   7.288   1.708   3.677
 6118TIP3    H118287   7.281   1.610   3.669
 6118TIP3    H218288   7.238   1.737   3.599
 6119TIP3   OH218289   5.868   1.425   3.639
 6119TIP3    H118290   5.868   1.443   3.734
 6119TIP3    H218291   5.956   1.382   3.625
 6120TIP3   OH218292   7.513   1.851   4.856
 6120TIP3    H118293   7.431   1.819   4.813
 6120TIP3    H218294   7.490   1.945   4.869
 6121TIP3   OH218295   8.020   1.517   4.137
 6121TIP3    H118296   7.989   1.439   4.091
 6121TIP3    H218297   8.115   1.518   4.110
 6122TIP3   OH218298   7.758   0.769   3.918
 6122TIP3    H118299   7.679   0.824   3.905
 6122TIP3    H218300   7.737   0.691   3.863
 6123TIP3   OH218301   7.837   1.012   4.061
 6123TIP3    H118302   7.826   0.916   4.041
 6123TIP3    H218303   7.860   1.045   3.974
 6124TIP3   OH218304   7.652   1.251   3.618
 6124TIP3    H118305   7.600   1.281   3.542
 6124TIP3    H218306   7.677   1.337   3.658
 6125TIP3   OH218307   8.209   1.878   4.584
 6125TIP3    H118308   8.170   1.855   4.500
 6125TIP3    H218309   8.134   1.876   4.646
 6126TIP3   OH218310   7.841   1.389   4.555
 6126TIP3    H118311   7.765   1.360   4.501
 6126TIP3    H218312   7.873   1.304   4.595
 6127TIP3   OH218313   7.692   1.576   4.190
 6127TIP3    H118314   7.788   1.581   4.196
 6127TIP3    H218315   7.663   1.650   4.246
 6128TIP3   OH218316   7.829   1.782   3.718
 6128TIP3    H118317   7.910   1.794   3.769
 6128TIP3    H218318   7.788   1.708   3.765
 6129TIP3   OH218319   8.045   1.569   4.528
 6129TIP3    H118320   8.095   1.541   4.608
 6129TIP3    H218321   7.968   1.509   4.536
 6130TIP3   OH218322   7.819   0.551   3.691
 6130TIP3    H118323   7.831   0.553   3.595
 6130TIP3    H218324   7.722   0.564   3.698
 6131TIP3   OH218325   8.182   1.471   4.744
 6131TIP3    H118326   8.255   1.530   4.771
 6131TIP3    H218327   8.137   1.457   4.829
 6132TIP3   OH218328   7.931   1.180   4.703
 6132TIP3    H118329   7.980   1.175   4.787
 6132TIP3    H218330   7.876   1.101   4.706
 6133TIP3   OH218331   7.728   0.848   3.419
 6133TIP3    H118332   7.776   0.931   3.440
 6133TIP3    H218333   7.652   0.855   3.482
 6134TIP3   OH218334   7.890   1.765   4.346
 6134TIP3    H118335   7.942   1.684   4.360
 6134TIP3    H218336   7.898   1.806   4.433
 6135TIP3   OH218337   7.830   1.093   3.485
 6135TIP3    H118338   7.768   1.135   3.548
 6135TIP3    H218339   7.832   1.161   3.414
 6136TIP3   OH218340   7.831   1.291   3.293
 6136TIP3    H118341   7.899   1.355   3.324
 6136TIP3    H218342   7.861   1.273   3.203
 6137TIP3   OH218343   7.791   0.582   3.409
 6137TIP3    H118344   7.776   0.679   3.413
 6137TIP3    H218345   7.702   0.547   3.402
 6138TIP3   OH218346   7.690   1.508   3.688
 6138TIP3    H118347   7.631   1.550   3.752
 6138TIP3    H218348   7.675   1.564   3.608
 6139TIP3   OH218349   7.867   2.066   4.757
 6139TIP3    H118350   7.952   2.066   4.804
 6139TIP3    H218351   7.839   1.974   4.767
 6140TIP3   OH218352   7.995   1.474   4.966
 6140TIP3    H118353   8.012   1.378   4.971
 6140TIP3    H218354   7.911   1.476   4.916
 6141TIP3   OH218355   8.110   1.215   4.943
 6141TIP3    H118356   8.173   1.144   4.930
 6141TIP3    H218357   8.137   1.247   5.031
 6142TIP3   OH218358   7.559   1.263   3.333
 6142TIP3    H118359   7.654   1.280   3.321
 6142TIP3    H218360   7.551   1.172   3.298
 6143TIP3   OH218361   7.492   1.878   3.755
 6143TIP3    H118362   7.424   1.819   3.716
 6143TIP3    H218363   7.537   1.817   3.817
 6144TIP3   OH218364   7.627   1.721   3.940
 6144TIP3    H118365   7.612   1.652   4.007
 6144TIP3    H218366   7.674   1.786   3.994
 6145TIP3   OH218367   7.817   1.140   4.307
 6145TIP3    H118368   7.817   1.092   4.221
 6145TIP3    H218369   7.910   1.162   4.317
 6146TIP3   OH218370   8.024   0.818   4.986
 6146TIP3    H118371   8.118   0.804   5.002
 6146TIP3    H218372   7.987   0.736   5.023
 6147TIP3   OH218373   7.783   0.794   4.369
 6147TIP3    H118374   7.866   0.770   4.325
 6147TIP3    H218375   7.809   0.867   4.426
 6148TIP3   OH218376   8.039   1.796   4.787
 6148TIP3    H118377   7.947   1.770   4.767
 6148TIP3    H218378   8.044   1.775   4.881
 6149TIP3   OH218379   8.115   2.077   4.245
 6149TIP3    H118380   8.039   2.027   4.215
 6149TIP3    H218381   8.151   2.112   4.162
 6150TIP3   OH218382   7.806   1.890   4.115
 6150TIP3    H118383   7.832   1.848   4.200
 6150TIP3    H218384   7.871   1.845   4.055
 6151TIP3   OH218385   7.979   1.752   3.961
 6151TIP3    H118386   7.988   1.660   3.991
 6151TIP3    H218387   8.069   1.767   3.923
 6152TIP3   OH218388   7.597   1.653   3.474
 6152TIP3    H118389   7.506   1.629   3.447
 6152TIP3    H218390   7.590   1.750   3.470
 6153TIP3   OH218391   7.685   1.699   3.148
 6153TIP3    H118392   7.629   1.737   3.217
 6153TIP3    H218393   7.721   1.621   3.192
 6154TIP3   OH218394   1.230   2.010   5.317
 6154TIP3    H118395   1.199   2.101   5.299
 6154TIP3    H218396   1.153   1.959   5.287
 6155TIP3   OH218397   1.224   2.011   5.708
 6155TIP3    H118398   1.263   1.989   5.795
 6155TIP3    H218399   1.185   1.926   5.682
 6156TIP3   OH218400   0.528   1.908   6.067
 6156TIP3    H118401   0.559   1.842   6.132
 6156TIP3    H218402   0.609   1.960   6.057
 6157TIP3   OH218403   1.472   2.315   5.387
 6157TIP3    H118404   1.458   2.247   5.453
 6157TIP3    H218405   1.504   2.390   5.440
 6158TIP3   OH218406   0.491   2.308   5.774
 6158TIP3    H118407   0.494   2.209   5.784
 6158TIP3    H218408   0.586   2.325   5.790
 6159TIP3   OH218409   0.268   1.825   5.760
 6159TIP3    H118410   0.322   1.756   5.804
 6159TIP3    H218411   0.308   1.826   5.672
 6160TIP3   OH218412   1.121   2.773   5.402
 6160TIP3    H118413   1.162   2.702   5.349
 6160TIP3    H218414   1.122   2.733   5.490
 6161TIP3   OH218415   1.026   2.241   5.749
 6161TIP3    H118416   1.066   2.160   5.711
 6161TIP3    H218417   1.109   2.287   5.773
 6162TIP3   OH218418   2.049   1.554   5.750
 6162TIP3    H118419   2.074   1.639   5.791
 6162TIP3    H218420   2.062   1.574   5.656
 6163TIP3   OH218421   1.443   1.739   5.778
 6163TIP3    H118422   1.481   1.652   5.801
 6163TIP3    H218423   1.407   1.719   5.689
 6164TIP3   OH218424   0.796   1.418   5.734
 6164TIP3    H118425   0.772   1.486   5.668
 6164TIP3    H218426   0.765   1.338   5.687
 6165TIP3   OH218427   1.474   1.488   5.365
 6165TIP3    H118428   1.544   1.473   5.433
 6165TIP3    H218429   1.529   1.524   5.293
 6166TIP3   OH218430   0.420   1.624   5.864
 6166TIP3    H118431   0.496   1.583   5.908
 6166TIP3    H218432   0.389   1.553   5.806
 6167TIP3   OH218433   0.852   1.802   5.650
 6167TIP3    H118434   0.946   1.777   5.663
 6167TIP3    H218435   0.815   1.719   5.613
 6168TIP3   OH218436   2.117   1.767   5.917
 6168TIP3    H118437   2.032   1.812   5.896
 6168TIP3    H218438   2.129   1.798   6.009
 6169TIP3   OH218439   0.796   1.375   6.171
 6169TIP3    H118440   0.738   1.417   6.104
 6169TIP3    H218441   0.735   1.367   6.246
 6170TIP3   OH218442   1.110   2.229   5.191
 6170TIP3    H118443   1.078   2.220   5.100
 6170TIP3    H218444   1.068   2.313   5.218
 6171TIP3   OH218445   0.880   2.159   5.972
 6171TIP3    H118446   0.820   2.226   6.011
 6171TIP3    H218447   0.924   2.210   5.900
 6172TIP3   OH218448   1.678   1.493   5.545
 6172TIP3    H118449   1.654   1.454   5.630
 6172TIP3    H218450   1.728   1.572   5.573
 6173TIP3   OH218451   0.662   1.496   5.959
 6173TIP3    H118452   0.712   1.575   5.991
 6173TIP3    H218453   0.720   1.470   5.883
 6174TIP3   OH218454   0.704   2.354   6.071
 6174TIP3    H118455   0.681   2.445   6.043
 6174TIP3    H218456   0.627   2.335   6.128
 6175TIP3   OH218457   0.114   2.058   5.301
 6175TIP3    H118458   0.079   2.050   5.210
 6175TIP3    H218459   0.047   2.113   5.342
 6176TIP3   OH218460   1.538   2.558   5.548
 6176TIP3    H118461   1.448   2.550   5.587
 6176TIP3    H218462   1.531   2.645   5.504
 6177TIP3   OH218463   1.834   1.456   5.914
 6177TIP3    H118464   1.746   1.482   5.882
 6177TIP3    H218465   1.893   1.490   5.843
 6178TIP3   OH218466   1.145   1.131   5.894
 6178TIP3    H118467   1.115   1.037   5.891
 6178TIP3    H218468   1.062   1.172   5.929
 6179TIP3   OH218469   1.235   2.600   5.216
 6179TIP3    H118470   1.286   2.518   5.199
 6179TIP3    H218471   1.299   2.666   5.180
 6180TIP3   OH218472   1.381   2.386   5.136
 6180TIP3    H118473   1.359   2.303   5.091
 6180TIP3    H218474   1.420   2.352   5.220
 6181TIP3   OH218475   1.766   2.467   5.894
 6181TIP3    H118476   1.754   2.390   5.834
 6181TIP3    H218477   1.748   2.542   5.834
 6182TIP3   OH218478   1.057   1.863   5.152
 6182TIP3    H118479   0.979   1.917   5.128
 6182TIP3    H218480   1.106   1.859   5.067
 6183TIP3   OH218481   1.017   1.651   4.863
 6183TIP3    H118482   1.083   1.702   4.912
 6183TIP3    H218483   1.075   1.587   4.816
 6184TIP3   OH218484   1.962   2.107   5.740
 6184TIP3    H118485   1.878   2.158   5.744
 6184TIP3    H218486   1.993   2.133   5.650
 6185TIP3   OH218487   1.408   1.945   5.120
 6185TIP3    H118488   1.354   1.968   5.199
 6185TIP3    H218489   1.493   1.921   5.164
 6186TIP3   OH218490   1.640   1.983   6.038
 6186TIP3    H118491   1.637   2.066   6.089
 6186TIP3    H218492   1.553   1.986   5.993
 6187TIP3   OH218493   0.641   1.944   5.540
 6187TIP3    H118494   0.599   1.883   5.476
 6187TIP3    H218495   0.716   1.890   5.574
 6188TIP3   OH218496   0.772   2.358   5.688
 6188TIP3    H118497   0.752   2.309   5.608
 6188TIP3    H218498   0.861   2.324   5.710
 6189TIP3   OH218499   0.773   1.917   5.893
 6189TIP3    H118500   0.809   1.890   5.806
 6189TIP3    H218501   0.820   2.001   5.911
 6190TIP3   OH218502   1.297   2.552   5.670
 6190TIP3    H118503   1.288   2.632   5.725
 6190TIP3    H218504   1.283   2.480   5.734
 6191TIP3   OH218505   0.914   2.471   6.215
 6191TIP3    H118506   0.853   2.531   6.264
 6191TIP3    H218507   0.850   2.415   6.168
 6192TIP3   OH218508   1.243   1.806   4.949
 6192TIP3    H118509   1.304   1.865   4.999
 6192TIP3    H218510   1.271   1.825   4.856
 6193TIP3   OH218511   0.687   2.042   6.304
 6193TIP3    H118512   0.682   2.125   6.355
 6193TIP3    H218513   0.599   2.004   6.320
 6194TIP3   OH218514   0.984   2.488   5.228
 6194TIP3    H118515   1.073   2.528   5.234
 6194TIP3    H218516   0.935   2.555   5.178
 6195TIP3   OH218517   0.704   2.635   6.307
 6195TIP3    H118518   0.668   2.641   6.217
 6195TIP3    H218519   0.624   2.620   6.361
 6196TIP3   OH218520   1.762   1.042   4.998
 6196TIP3    H118521   1.681   1.065   5.048
 6196TIP3    H218522   1.778   1.125   4.948
 6197TIP3   OH218523   0.504   1.788   5.348
 6197TIP3    H118524   0.434   1.819   5.288
 6197TIP3    H218525   0.484   1.695   5.360
 6198TIP3   OH218526   1.563   2.410   4.548
 6198TIP3    H118527   1.572   2.506   4.531
 6198TIP3    H218528   1.656   2.380   4.535
 6199TIP3   OH218529   0.309   2.156   6.237
 6199TIP3    H118530   0.248   2.117   6.173
 6199TIP3    H218531   0.337   2.077   6.286
 6200TIP3   OH218532   0.159   2.379   5.857
 6200TIP3    H118533   0.231   2.320   5.885
 6200TIP3    H218534   0.156   2.438   5.933
 6201TIP3   OH218535   2.005   2.816   5.944
 6201TIP3    H118536   2.003   2.720   5.959
 6201TIP3    H218537   1.922   2.843   5.989
 6202TIP3   OH218538   1.107   2.601   6.072
 6202TIP3    H118539   1.105   2.693   6.107
 6202TIP3    H218540   1.038   2.559   6.128
 6203TIP3   OH218541   0.867   2.721   5.032
 6203TIP3    H118542   0.830   2.708   4.943
 6203TIP3    H218543   0.841   2.812   5.053
 6204TIP3   OH218544   1.071   2.628   4.666
 6204TIP3    H118545   1.130   2.559   4.629
 6204TIP3    H218546   1.108   2.640   4.756
 6205TIP3   OH218547   1.121   2.679   4.937
 6205TIP3    H118548   1.035   2.684   4.983
 6205TIP3    H218549   1.179   2.646   5.008
 6206TIP3   OH218550   1.893   1.943   6.216
 6206TIP3    H118551   1.808   1.955   6.171
 6206TIP3    H218552   1.907   1.847   6.206
 6207TIP3   OH218553   0.486   2.362   6.243
 6207TIP3    H118554   0.543   2.337   6.318
 6207TIP3    H218555   0.419   2.289   6.244
 6208TIP3   OH218556   0.891   1.210   5.968
 6208TIP3    H118557   0.815   1.148   5.969
 6208TIP3    H218558   0.869   1.266   6.045
 6209TIP3   OH218559   1.464   1.295   6.206
 6209TIP3    H118560   1.526   1.263   6.276
 6209TIP3    H218561   1.377   1.282   6.248
 6210TIP3   OH218562   1.663   1.722   6.145
 6210TIP3    H118563   1.611   1.719   6.229
 6210TIP3    H218564   1.636   1.807   6.107
 6211TIP3   OH218565   1.322   1.846   4.694
 6211TIP3    H118566   1.287   1.824   4.605
 6211TIP3    H218567   1.406   1.889   4.670
 6212TIP3   OH218568   1.036   1.222   4.994
 6212TIP3    H118569   1.006   1.215   5.087
 6212TIP3    H218570   0.990   1.145   4.955
 6213TIP3   OH218571   0.827   1.698   6.042
 6213TIP3    H118572   0.787   1.726   6.127
 6213TIP3    H218573   0.809   1.778   5.988
 6214TIP3   OH218574   0.715   1.589   5.541
 6214TIP3    H118575   0.625   1.551   5.555
 6214TIP3    H218576   0.736   1.544   5.456
 6215TIP3   OH218577   1.198   1.664   5.286
 6215TIP3    H118578   1.146   1.735   5.242
 6215TIP3    H218579   1.252   1.629   5.213
 6216TIP3   OH218580   1.373   1.949   6.368
 6216TIP3    H118581   1.343   1.877   6.429
 6216TIP3    H218582   1.466   1.955   6.394
 6217TIP3   OH218583   1.354   1.689   5.523
 6217TIP3    H118584   1.290   1.717   5.454
 6217TIP3    H218585   1.388   1.609   5.478
 6218TIP3   OH218586   0.646   1.734   6.248
 6218TIP3    H118587   0.701   1.779   6.315
 6218TIP3    H218588   0.628   1.649   6.290
 6219TIP3   OH218589   0.699   1.190   4.967
 6219TIP3    H118590   0.680   1.184   5.063
 6219TIP3    H218591   0.624   1.246   4.937
 6220TIP3   OH218592   1.363   1.936   5.943
 6220TIP3    H118593   1.397   1.864   5.884
 6220TIP3    H218594   1.334   1.882   6.020
 6221TIP3   OH218595   1.050   1.400   5.613
 6221TIP3    H118596   0.970   1.403   5.669
 6221TIP3    H218597   1.120   1.388   5.680
 6222TIP3   OH218598   0.491   1.440   5.575
 6222TIP3    H118599   0.399   1.440   5.605
 6222TIP3    H218600   0.526   1.358   5.614
 6223TIP3   OH218601   0.740   1.457   5.307
 6223TIP3    H118602   0.834   1.469   5.283
 6223TIP3    H218603   0.691   1.477   5.225
 6224TIP3   OH218604   1.525   1.474   5.818
 6224TIP3    H118605   1.496   1.489   5.911
 6224TIP3    H218606   1.454   1.416   5.786
 6225TIP3   OH218607   0.573   1.500   5.095
 6225TIP3    H118608   0.504   1.445   5.053
 6225TIP3    H218609   0.626   1.523   5.016
 6226TIP3   OH218610   1.698   3.164   6.042
 6226TIP3    H118611   1.696   3.189   5.948
 6226TIP3    H218612   1.779   3.211   6.072
 6227TIP3   OH218613   0.652   2.282   6.457
 6227TIP3    H118614   0.734   2.304   6.506
 6227TIP3    H218615   0.590   2.274   6.531
 6228TIP3   OH218616   1.113   1.732   5.718
 6228TIP3    H118617   1.184   1.684   5.675
 6228TIP3    H218618   1.111   1.690   5.807
 6229TIP3   OH218619   0.724   1.223   5.556
 6229TIP3    H118620   0.668   1.153   5.592
 6229TIP3    H218621   0.807   1.175   5.540
 6230TIP3   OH218622   1.094   1.641   5.988
 6230TIP3    H118623   1.003   1.667   6.013
 6230TIP3    H218624   1.149   1.695   6.047
 6231TIP3   OH218625   0.823   2.017   5.095
 6231TIP3    H118626   0.753   1.948   5.086
 6231TIP3    H218627   0.806   2.048   5.187
 6232TIP3   OH218628   1.728   2.251   5.727
 6232TIP3    H118629   1.752   2.303   5.647
 6232TIP3    H218630   1.643   2.209   5.700
 6233TIP3   OH218631   1.287   1.325   4.966
 6233TIP3    H118632   1.190   1.306   4.974
 6233TIP3    H218633   1.293   1.420   4.991
 6234TIP3   OH218634   1.225   2.333   6.097
 6234TIP3    H118635   1.258   2.310   6.185
 6234TIP3    H218636   1.190   2.422   6.110
 6235TIP3   OH218637   1.354   1.576   5.068
 6235TIP3    H118638   1.451   1.582   5.085
 6235TIP3    H218639   1.337   1.657   5.017
 6236TIP3   OH218640   0.523   2.042   5.773
 6236TIP3    H118641   0.564   2.005   5.692
 6236TIP3    H218642   0.555   1.981   5.841
 6237TIP3   OH218643   0.975   2.164   4.922
 6237TIP3    H118644   0.925   2.249   4.926
 6237TIP3    H218645   0.921   2.109   4.983
 6238TIP3   OH218646   0.443   1.940   6.393
 6238TIP3    H118647   0.482   1.948   6.483
 6238TIP3    H218648   0.348   1.932   6.415
 6239TIP3   OH218649   1.129   2.077   6.405
 6239TIP3    H118650   1.069   2.008   6.373
 6239TIP3    H218651   1.216   2.041   6.377
 6240TIP3   OH218652   1.385   2.594   5.993
 6240TIP3    H118653   1.289   2.593   6.008
 6240TIP3    H218654   1.415   2.646   6.072
 6241TIP3   OH218655   1.794   1.669   4.903
 6241TIP3    H118656   1.733   1.626   4.840
 6241TIP3    H218657   1.792   1.759   4.864
 6242TIP3   OH218658   2.017   2.525   5.983
 6242TIP3    H118659   1.919   2.519   5.975
 6242TIP3    H218660   2.043   2.495   5.893
 6243TIP3   OH218661   1.493   2.485   4.810
 6243TIP3    H118662   1.474   2.412   4.870
 6243TIP3    H218663   1.512   2.440   4.726
 6244TIP3   OH218664   1.493   2.115   5.642
 6244TIP3    H118665   1.400   2.091   5.658
 6244TIP3    H218666   1.527   2.034   5.600
 6245TIP3   OH218667   0.624   2.343   5.404
 6245TIP3    H118668   0.664   2.425   5.372
 6245TIP3    H218669   0.561   2.325   5.333
 6246TIP3   OH218670   0.164   1.650   5.127
 6246TIP3    H118671   0.230   1.722   5.124
 6246TIP3    H218672   0.115   1.677   5.206
 6247TIP3   OH218673   0.754   2.103   5.341
 6247TIP3    H118674   0.728   2.191   5.373
 6247TIP3    H218675   0.726   2.046   5.415
 6248TIP3   OH218676   0.891   2.684   5.868
 6248TIP3    H118677   0.936   2.757   5.819
 6248TIP3    H218678   0.967   2.647   5.917
 6249TIP3   OH218679   0.539   2.590   5.252
 6249TIP3    H118680   0.460   2.631   5.288
 6249TIP3    H218681   0.598   2.668   5.253
 6250TIP3   OH218682   1.277   2.320   5.830
 6250TIP3    H118683   1.265   2.318   5.927
 6250TIP3    H218684   1.357   2.267   5.820
 6251TIP3   OH218685   1.257   2.213   4.715
 6251TIP3    H118686   1.312   2.189   4.793
 6251TIP3    H218687   1.170   2.185   4.745
 6252TIP3   OH218688   1.527   2.850   5.878
 6252TIP3    H118689   1.447   2.795   5.873
 6252TIP3    H218690   1.511   2.915   5.806
 6253TIP3   OH218691   1.594   2.685   4.531
 6253TIP3    H118692   1.635   2.759   4.483
 6253TIP3    H218693   1.513   2.731   4.563
 6254TIP3   OH218694   1.418   2.149   4.931
 6254TIP3    H118695   1.408   2.080   5.000
 6254TIP3    H218696   1.515   2.143   4.916
 6255TIP3   OH218697   0.329   2.541   6.033
 6255TIP3    H118698   0.387   2.479   6.081
 6255TIP3    H218699   0.349   2.624   6.078
 6256TIP3   OH218700   0.616   2.193   4.715
 6256TIP3    H118701   0.634   2.102   4.686
 6256TIP3    H218702   0.596   2.180   4.809
 6257TIP3   OH218703   0.563   2.198   4.991
 6257TIP3    H118704   0.647   2.168   5.030
 6257TIP3    H218705   0.571   2.295   4.995
 6258TIP3   OH218706   0.301   1.887   5.183
 6258TIP3    H118707   0.244   1.940   5.242
 6258TIP3    H218708   0.321   1.953   5.114
 6259TIP3   OH218709   1.457   1.533   6.076
 6259TIP3    H118710   1.535   1.575   6.117
 6259TIP3    H218711   1.452   1.449   6.127
 6260TIP3   OH218712   1.338   1.273   5.247
 6260TIP3    H118713   1.322   1.298   5.154
 6260TIP3    H218714   1.375   1.357   5.284
 6261TIP3   OH218715   0.829   2.391   4.933
 6261TIP3    H118716   0.743   2.422   4.967
 6261TIP3    H218717   0.851   2.464   4.873
 6262TIP3   OH218718   1.020   1.462   5.347
 6262TIP3    H118719   1.083   1.536   5.333
 6262TIP3    H218720   1.027   1.451   5.444
 6263TIP3   OH218721   1.291   1.778   6.152
 6263TIP3    H118722   1.311   1.828   6.234
 6263TIP3    H218723   1.339   1.694   6.168
 6264TIP3   OH218724   1.174   1.179   5.451
 6264TIP3    H118725   1.166   1.257   5.510
 6264TIP3    H218726   1.233   1.215   5.381
 6265TIP3   OH218727   0.575   2.471   5.003
 6265TIP3    H118728   0.548   2.539   4.937
 6265TIP3    H218729   0.560   2.518   5.087
 6266TIP3   OH218730   0.698   1.193   5.242
 6266TIP3    H118731   0.699   1.282   5.283
 6266TIP3    H218732   0.793   1.172   5.246
 6267TIP3   OH218733   1.929   1.675   6.136
 6267TIP3    H118734   1.831   1.675   6.149
 6267TIP3    H218735   1.934   1.630   6.051
 6268TIP3   OH218736   1.580   1.870   5.524
 6268TIP3    H118737   1.503   1.812   5.537
 6268TIP3    H218738   1.651   1.823   5.573
 6269TIP3   OH218739   0.298   2.100   4.983
 6269TIP3    H118740   0.374   2.160   4.996
 6269TIP3    H218741   0.340   2.037   4.920
 6270TIP3   OH218742   0.284   1.409   5.032
 6270TIP3    H118743   0.268   1.485   5.090
 6270TIP3    H218744   0.244   1.337   5.084
 6271TIP3   OH218745   1.549   2.828   5.470
 6271TIP3    H118746   1.507   2.876   5.395
 6271TIP3    H218747   1.643   2.848   5.451
 6272TIP3   OH218748   0.347   2.876   6.425
 6272TIP3    H118749   0.424   2.887   6.485
 6272TIP3    H218750   0.322   2.785   6.447
 6273TIP3   OH218751   0.799   2.818   6.496
 6273TIP3    H118752   0.894   2.801   6.506
 6273TIP3    H218753   0.776   2.757   6.424
 6274TIP3   OH218754   0.782   2.395   4.623
 6274TIP3    H118755   0.729   2.321   4.660
 6274TIP3    H218756   0.859   2.347   4.587
 6275TIP3   OH218757   1.441   2.726   6.229
 6275TIP3    H118758   1.432   2.658   6.299
 6275TIP3    H218759   1.517   2.778   6.260
 6276TIP3   OH218760   1.216   2.433   4.536
 6276TIP3    H118761   1.263   2.373   4.597
 6276TIP3    H218762   1.273   2.432   4.456
 6277TIP3   OH218763   0.448   2.252   6.647
 6277TIP3    H118764   0.482   2.160   6.651
 6277TIP3    H218765   0.353   2.237   6.647
 6278TIP3   OH218766   0.429   1.907   4.850
 6278TIP3    H118767   0.487   1.875   4.921
 6278TIP3    H218768   0.495   1.913   4.777
 6279TIP3   OH218769   1.057   2.350   6.426
 6279TIP3    H118770   1.019   2.367   6.338
 6279TIP3    H218771   1.089   2.257   6.418
 6280TIP3   OH218772   0.938   2.111   4.654
 6280TIP3    H118773   0.945   2.122   4.751
 6280TIP3    H218774   0.942   2.013   4.647
 6281TIP3   OH218775   1.550   2.361   6.033
 6281TIP3    H118776   1.627   2.402   5.990
 6281TIP3    H218777   1.481   2.428   6.017
 6282TIP3   OH218778   0.566   1.998   6.637
 6282TIP3    H118779   0.638   1.935   6.622
 6282TIP3    H218780   0.580   2.016   6.732
 6283TIP3   OH218781   0.630   1.817   5.064
 6283TIP3    H118782   0.610   1.775   5.148
 6283TIP3    H218783   0.671   1.743   5.014
 6284TIP3   OH218784   0.905   1.872   6.283
 6284TIP3    H118785   0.837   1.942   6.291
 6284TIP3    H218786   0.964   1.911   6.213
 6285TIP3   OH218787   0.739   1.616   4.907
 6285TIP3    H118788   0.714   1.619   4.812
 6285TIP3    H218789   0.837   1.615   4.900
 6286TIP3   OH218790   1.424   2.286   6.429
 6286TIP3    H118791   1.500   2.249   6.382
 6286TIP3    H218792   1.412   2.221   6.500
 6287TIP3   OH218793   1.555   1.939   4.576
 6287TIP3    H118794   1.537   1.897   4.489
 6287TIP3    H218795   1.522   2.030   4.555
 6288TIP3   OH218796   1.030   1.661   6.418
 6288TIP3    H118797   1.040   1.589   6.353
 6288TIP3    H218798   0.985   1.730   6.365
 6289TIP3   OH218799   1.049   1.467   6.220
 6289TIP3    H118800   1.068   1.502   6.131
 6289TIP3    H218801   0.959   1.429   6.208
 6290TIP3   OH218802   1.057   1.989   6.096
 6290TIP3    H118803   1.144   2.004   6.058
 6290TIP3    H218804   1.002   2.056   6.052
 6291TIP3   OH218805   1.638   1.958   6.481
 6291TIP3    H118806   1.682   1.872   6.486
 6291TIP3    H218807   1.708   2.015   6.447
 6292TIP3   OH218808   1.680   2.212   6.218
 6292TIP3    H118809   1.622   2.267   6.161
 6292TIP3    H218810   1.768   2.234   6.179
 6293TIP3   OH218811   0.878   1.812   6.592
 6293TIP3    H118812   0.850   1.777   6.678
 6293TIP3    H218813   0.937   1.743   6.557
 6294TIP3   OH218814   1.206   1.245   6.264
 6294TIP3    H118815   1.152   1.326   6.250
 6294TIP3    H218816   1.133   1.180   6.281
 6295TIP3   OH218817   1.282   1.736   6.503
 6295TIP3    H118818   1.314   1.679   6.577
 6295TIP3    H218819   1.191   1.704   6.491
 6296TIP3   OH218820   1.528   1.674   6.375
 6296TIP3    H118821   1.449   1.674   6.431
 6296TIP3    H218822   1.591   1.631   6.435
 6297TIP3   OH218823   1.783   1.619   6.529
 6297TIP3    H118824   1.773   1.522   6.539
 6297TIP3    H218825   1.747   1.651   6.614
 6298TIP3   OH218826   1.214   1.160   6.533
 6298TIP3    H118827   1.304   1.125   6.546
 6298TIP3    H218828   1.226   1.212   6.451
 6299TIP3   OH218829   0.547   2.673   4.816
 6299TIP3    H118830   0.642   2.664   4.798
 6299TIP3    H218831   0.520   2.724   4.737
 6300TIP3   OH218832   0.040   2.033   5.041
 6300TIP3    H118833   0.130   2.065   5.016
 6300TIP3    H218834   0.031   1.952   4.987
 6301TIP3   OH218835  -0.062   2.658   5.455
 6301TIP3    H118836  -0.113   2.607   5.391
 6301TIP3    H218837  -0.021   2.589   5.509
 6302TIP3   OH218838   0.099   2.505   5.627
 6302TIP3    H118839   0.076   2.457   5.711
 6302TIP3    H218840   0.137   2.586   5.668
 6303TIP3   OH218841   1.803   2.918   5.432
 6303TIP3    H118842   1.830   2.952   5.519
 6303TIP3    H218843   1.868   2.957   5.372
 6304TIP3   OH218844   1.829   2.938   5.715
 6304TIP3    H118845   1.787   2.850   5.711
 6304TIP3    H218846   1.907   2.917   5.768
 6305TIP3   OH218847   1.878   2.614   6.288
 6305TIP3    H118848   1.806   2.625   6.353
 6305TIP3    H218849   1.921   2.702   6.291
 6306TIP3   OH218850   1.694   2.127   4.905
 6306TIP3    H118851   1.760   2.192   4.873
 6306TIP3    H218852   1.741   2.091   4.983
 6307TIP3   OH218853   1.823   1.994   5.109
 6307TIP3    H118854   1.756   1.954   5.169
 6307TIP3    H218855   1.888   2.031   5.172
 6308TIP3   OH218856   1.879   2.389   5.540
 6308TIP3    H118857   1.930   2.321   5.493
 6308TIP3    H218858   1.877   2.463   5.476
 6309TIP3   OH218859   1.706   2.687   5.735
 6309TIP3    H118860   1.634   2.730   5.786
 6309TIP3    H218861   1.656   2.642   5.664
 6310TIP3   OH218862   1.759   1.903   4.755
 6310TIP3    H118863   1.688   1.905   4.687
 6310TIP3    H218864   1.731   1.979   4.810
 6311TIP3   OH218865   1.630   1.575   4.709
 6311TIP3    H118866   1.587   1.612   4.631
 6311TIP3    H218867   1.607   1.480   4.699
 6312TIP3   OH218868   1.634   1.854   5.255
 6312TIP3    H118869   1.642   1.758   5.247
 6312TIP3    H218870   1.619   1.866   5.351
 6313TIP3   OH218871   0.260   1.935   6.021
 6313TIP3    H118872   0.254   1.910   5.927
 6313TIP3    H218873   0.357   1.933   6.035
 6314TIP3   OH218874   1.926   2.278   6.113
 6314TIP3    H118875   1.997   2.211   6.101
 6314TIP3    H218876   1.952   2.347   6.049
 6315TIP3   OH218877   2.108   2.077   6.120
 6315TIP3    H118878   2.033   2.029   6.162
 6315TIP3    H218879   2.181   2.014   6.138
 6316TIP3   OH218880   1.575   1.308   4.689
 6316TIP3    H118881   1.647   1.278   4.748
 6316TIP3    H218882   1.500   1.251   4.713
 6317TIP3   OH218883   1.633   1.569   5.146
 6317TIP3    H118884   1.673   1.480   5.161
 6317TIP3    H218885   1.691   1.602   5.076
 6318TIP3   OH218886   1.793   1.737   5.645
 6318TIP3    H118887   1.878   1.763   5.604
 6318TIP3    H218888   1.806   1.777   5.734
 6319TIP3   OH218889   1.864   1.885   5.873
 6319TIP3    H118890   1.787   1.918   5.924
 6319TIP3    H218891   1.896   1.967   5.830
 6320TIP3   OH218892   2.319   1.480   6.432
 6320TIP3    H118893   2.377   1.414   6.387
 6320TIP3    H218894   2.284   1.530   6.355
 6321TIP3   OH218895   1.742   1.319   5.186
 6321TIP3    H118896   1.789   1.304   5.270
 6321TIP3    H218897   1.680   1.243   5.185
 6322TIP3   OH218898   2.182   1.612   6.238
 6322TIP3    H118899   2.099   1.658   6.259
 6322TIP3    H218900   2.147   1.542   6.179
 6323TIP3   OH218901   1.819   1.250   4.821
 6323TIP3    H118902   1.862   1.181   4.766
 6323TIP3    H218903   1.885   1.322   4.820
 6324TIP3   OH218904   1.381   2.787   5.086
 6324TIP3    H118905   1.435   2.777   5.004
 6324TIP3    H218906   1.435   2.850   5.136
 6325TIP3   OH218907   0.480   2.592   6.477
 6325TIP3    H118908   0.432   2.509   6.459
 6325TIP3    H218909   0.503   2.583   6.570
 6326TIP3   OH218910   0.665   2.623   6.015
 6326TIP3    H118911   0.622   2.703   5.979
 6326TIP3    H218912   0.753   2.634   5.973
 6327TIP3   OH218913   1.106   2.867   6.156
 6327TIP3    H118914   1.149   2.865   6.245
 6327TIP3    H218915   1.173   2.918   6.106
 6328TIP3   OH218916   1.288   3.020   6.018
 6328TIP3    H118917   1.359   2.969   5.976
 6328TIP3    H218918   1.340   3.077   6.079
 6329TIP3   OH218919   2.085   1.378   6.114
 6329TIP3    H118920   1.994   1.370   6.079
 6329TIP3    H218921   2.117   1.286   6.105
 6330TIP3   OH218922   0.335   2.874   6.044
 6330TIP3    H118923   0.244   2.907   6.029
 6330TIP3    H218924   0.357   2.920   6.127
 6331TIP3   OH218925   0.574   2.856   5.903
 6331TIP3    H118926   0.487   2.869   5.946
 6331TIP3    H218927   0.558   2.892   5.814
 6332TIP3   OH218928   1.002   2.885   5.701
 6332TIP3    H118929   0.937   2.908   5.633
 6332TIP3    H218930   1.016   2.971   5.745
 6333TIP3   OH218931   1.273   2.822   5.752
 6333TIP3    H118932   1.180   2.843   5.732
 6333TIP3    H218933   1.320   2.896   5.710
 6334TIP3   OH218934   1.472   3.012   5.664
 6334TIP3    H118935   1.463   3.098   5.616
 6334TIP3    H218936   1.504   2.953   5.591
 6335TIP3   OH218937   0.258   2.670   5.777
 6335TIP3    H118938   0.266   2.655   5.873
 6335TIP3    H218939   0.340   2.627   5.746
 6336TIP3   OH218940   0.444   2.524   5.629
 6336TIP3    H118941   0.480   2.456   5.692
 6336TIP3    H218942   0.528   2.573   5.611
 6337TIP3   OH218943   0.703   2.629   5.652
 6337TIP3    H118944   0.739   2.538   5.649
 6337TIP3    H218945   0.750   2.661   5.731
 6338TIP3   OH218946   1.292   1.301   5.733
 6338TIP3    H118947   1.246   1.238   5.793
 6338TIP3    H218948   1.365   1.246   5.698
 6339TIP3   OH218949   1.811   1.172   5.638
 6339TIP3    H118950   1.844   1.226   5.562
 6339TIP3    H218951   1.715   1.192   5.635
 6340TIP3   OH218952   1.905   1.273   5.402
 6340TIP3    H118953   1.978   1.221   5.363
 6340TIP3    H218954   1.939   1.364   5.388
 6341TIP3   OH218955   0.949   1.064   5.597
 6341TIP3    H118956   1.034   1.105   5.577
 6341TIP3    H218957   0.961   1.034   5.688
 6342TIP3   OH218958   1.530   1.183   5.616
 6342TIP3    H118959   1.526   1.143   5.528
 6342TIP3    H218960   1.516   1.104   5.674
 6343TIP3   OH218961   1.557   1.107   5.178
 6343TIP3    H118962   1.473   1.153   5.197
 6343TIP3    H218963   1.542   1.022   5.224
 6344TIP3   OH218964   0.035   2.457   5.211
 6344TIP3    H118965  -0.013   2.389   5.163
 6344TIP3    H218966   0.022   2.535   5.152
 6345TIP3   OH218967   0.973   1.208   5.262
 6345TIP3    H118968   1.028   1.167   5.330
 6345TIP3    H218969   0.987   1.303   5.285
 6346TIP3   OH218970   0.813   2.630   4.763
 6346TIP3    H118971   0.902   2.652   4.727
 6346TIP3    H218972   0.791   2.556   4.702
 6347TIP3   OH218973   1.529   2.751   4.856
 6347TIP3    H118974   1.520   2.653   4.844
 6347TIP3    H218975   1.487   2.783   4.773
 6348TIP3   OH218976   0.119   2.469   4.815
 6348TIP3    H118977   0.125   2.499   4.906
 6348TIP3    H218978   0.206   2.424   4.801
 6349TIP3   OH218979   1.826   1.340   6.549
 6349TIP3    H118980   1.846   1.317   6.642
 6349TIP3    H218981   1.914   1.339   6.508
 6350TIP3   OH218982   1.756   2.895   6.041
 6350TIP3    H118983   1.678   2.865   5.990
 6350TIP3    H218984   1.738   2.990   6.047
 6351TIP3   OH218985   3.023   2.266   4.807
 6351TIP3    H118986   2.994   2.357   4.786
 6351TIP3    H218987   2.949   2.216   4.769
 6352TIP3   OH218988   3.026   2.270   5.190
 6352TIP3    H118989   3.058   2.243   5.278
 6352TIP3    H218990   2.984   2.189   5.157
 6353TIP3   OH218991   2.321   2.161   5.554
 6353TIP3    H118992   2.352   2.092   5.616
 6353TIP3    H218993   2.400   2.217   5.547
 6354TIP3   OH218994   3.270   2.571   4.872
 6354TIP3    H118995   3.253   2.505   4.940
 6354TIP3    H218996   3.300   2.647   4.924
 6355TIP3   OH218997   2.296   2.572   5.276
 6355TIP3    H118998   2.288   2.474   5.277
 6355TIP3    H218999   2.392   2.582   5.267
 6356TIP3   OH219000   2.002   1.771   5.059
 6356TIP3    H119001   1.956   1.855   5.078
 6356TIP3    H219002   1.930   1.722   5.016
 6357TIP3   OH219003   2.058   2.061   5.238
 6357TIP3    H119004   2.109   1.984   5.271
 6357TIP3    H219005   2.120   2.101   5.176
 6358TIP3   OH219006   2.920   3.031   4.889
 6358TIP3    H119007   2.961   2.959   4.837
 6358TIP3    H219008   2.910   2.989   4.976
 6359TIP3   OH219009   2.821   2.494   5.239
 6359TIP3    H119010   2.863   2.419   5.192
 6359TIP3    H219011   2.903   2.542   5.265
 6360TIP3   OH219012   3.838   1.810   5.236
 6360TIP3    H119013   3.867   1.895   5.275
 6360TIP3    H219014   3.861   1.824   5.143
 6361TIP3   OH219015   3.230   1.990   5.268
 6361TIP3    H119016   3.279   1.907   5.286
 6361TIP3    H219017   3.202   1.975   5.176
 6362TIP3   OH219018   2.577   1.652   5.234
 6362TIP3    H119019   2.558   1.726   5.172
 6362TIP3    H219020   2.528   1.580   5.188
 6363TIP3   OH219021   3.268   1.748   4.853
 6363TIP3    H119022   3.340   1.734   4.919
 6363TIP3    H219023   3.321   1.781   4.778
 6364TIP3   OH219024   2.207   1.855   5.341
 6364TIP3    H119025   2.290   1.838   5.389
 6364TIP3    H219026   2.222   1.800   5.261
 6365TIP3   OH219027   2.646   2.052   5.138
 6365TIP3    H119028   2.741   2.028   5.147
 6365TIP3    H219029   2.608   1.968   5.103
 6366TIP3   OH219030   3.911   2.021   5.408
 6366TIP3    H119031   3.828   2.068   5.387
 6366TIP3    H219032   3.935   2.063   5.492
 6367TIP3   OH219033   2.570   1.633   5.673
 6367TIP3    H119034   2.516   1.674   5.602
 6367TIP3    H219035   2.516   1.659   5.751
 6368TIP3   OH219036   2.909   2.485   4.677
 6368TIP3    H119037   2.874   2.476   4.587
 6368TIP3    H219038   2.867   2.569   4.705
 6369TIP3   OH219039   2.676   2.413   5.460
 6369TIP3    H119040   2.617   2.483   5.496
 6369TIP3    H219041   2.719   2.460   5.386
 6370TIP3   OH219042   3.471   1.754   5.031
 6370TIP3    H119043   3.470   1.704   5.113
 6370TIP3    H219044   3.527   1.831   5.055
 6371TIP3   OH219045   2.443   1.750   5.454
 6371TIP3    H119046   2.503   1.825   5.477
 6371TIP3    H219047   2.492   1.713   5.376
 6372TIP3   OH219048   2.506   2.610   5.560
 6372TIP3    H119049   2.481   2.697   5.523
 6372TIP3    H219050   2.426   2.594   5.615
 6373TIP3   OH219051   1.894   2.298   4.796
 6373TIP3    H119052   1.857   2.327   4.711
 6373TIP3    H219053   1.927   2.383   4.833
 6374TIP3   OH219054   3.337   2.815   5.035
 6374TIP3    H119055   3.247   2.806   5.075
 6374TIP3    H219056   3.329   2.901   4.990
 6375TIP3   OH219057   3.628   1.710   5.400
 6375TIP3    H119058   3.542   1.737   5.364
 6375TIP3    H219059   3.691   1.743   5.334
 6376TIP3   OH219060   2.923   1.355   5.382
 6376TIP3    H119061   2.909   1.260   5.392
 6376TIP3    H219062   2.849   1.391   5.435
 6377TIP3   OH219063   3.036   2.857   4.708
 6377TIP3    H119064   3.085   2.774   4.689
 6377TIP3    H219065   3.099   2.922   4.669
 6378TIP3   OH219066   3.179   2.642   4.621
 6378TIP3    H119067   3.152   2.561   4.576
 6378TIP3    H219068   3.218   2.607   4.705
 6379TIP3   OH219069   3.562   2.723   5.381
 6379TIP3    H119070   3.550   2.647   5.321
 6379TIP3    H219071   3.543   2.799   5.322
 6380TIP3   OH219072   2.856   2.119   4.640
 6380TIP3    H119073   2.777   2.174   4.619
 6380TIP3    H219074   2.901   2.116   4.554
 6381TIP3   OH219075   2.814   1.904   4.352
 6381TIP3    H119076   2.880   1.959   4.399
 6381TIP3    H219077   2.874   1.843   4.304
 6382TIP3   OH219078   3.757   2.364   5.228
 6382TIP3    H119079   3.674   2.415   5.230
 6382TIP3    H219080   3.789   2.388   5.138
 6383TIP3   OH219081   3.203   2.202   4.608
 6383TIP3    H119082   3.149   2.226   4.687
 6383TIP3    H219083   3.288   2.179   4.650
 6384TIP3   OH219084   3.436   2.238   5.527
 6384TIP3    H119085   3.435   2.322   5.576
 6384TIP3    H219086   3.351   2.244   5.480
 6385TIP3   OH219087   2.434   2.198   5.030
 6385TIP3    H119088   2.394   2.141   4.960
 6385TIP3    H219089   2.511   2.145   5.058
 6386TIP3   OH219090   2.562   2.607   5.176
 6386TIP3    H119091   2.545   2.578   5.085
 6386TIP3    H219092   2.652   2.571   5.192
 6387TIP3   OH219093   2.570   2.170   5.382
 6387TIP3    H119094   2.603   2.146   5.293
 6387TIP3    H219095   2.614   2.257   5.398
 6388TIP3   OH219096   3.097   2.809   5.158
 6388TIP3    H119097   3.083   2.890   5.210
 6388TIP3    H219098   3.079   2.738   5.223
 6389TIP3   OH219099   2.711   2.726   5.707
 6389TIP3    H119100   2.649   2.788   5.752
 6389TIP3    H219101   2.647   2.673   5.655
 6390TIP3   OH219102   3.039   2.062   4.436
 6390TIP3    H119103   3.099   2.122   4.485
 6390TIP3    H219104   3.066   2.081   4.342
 6391TIP3   OH219105   2.466   2.277   5.813
 6391TIP3    H119106   2.471   2.368   5.851
 6391TIP3    H219107   2.370   2.260   5.824
 6392TIP3   OH219108   2.787   2.737   4.713
 6392TIP3    H119109   2.870   2.788   4.720
 6392TIP3    H219110   2.728   2.800   4.669
 6393TIP3   OH219111   2.504   2.891   5.793
 6393TIP3    H119112   2.468   2.897   5.702
 6393TIP3    H219113   2.423   2.870   5.845
 6394TIP3   OH219114   3.559   1.298   4.490
 6394TIP3    H119115   3.477   1.327   4.534
 6394TIP3    H219116   3.579   1.375   4.432
 6395TIP3   OH219117   2.301   2.042   4.831
 6395TIP3    H119118   2.235   2.088   4.776
 6395TIP3    H219119   2.261   1.955   4.841
 6396TIP3   OH219120   3.359   2.667   4.034
 6396TIP3    H119121   3.368   2.763   4.018
 6396TIP3    H219122   3.451   2.637   4.021
 6397TIP3   OH219123   2.081   2.426   5.740
 6397TIP3    H119124   2.014   2.406   5.671
 6397TIP3    H219125   2.119   2.338   5.759
 6398TIP3   OH219126   1.937   2.619   5.372
 6398TIP3    H119127   2.033   2.614   5.361
 6398TIP3    H219128   1.929   2.698   5.427
 6399TIP3   OH219129   3.801   3.074   5.431
 6399TIP3    H119130   3.798   2.977   5.444
 6399TIP3    H219131   3.717   3.099   5.475
 6400TIP3   OH219132   2.907   2.854   5.564
 6400TIP3    H119133   2.903   2.947   5.595
 6400TIP3    H219134   2.835   2.814   5.618
 6401TIP3   OH219135   2.670   2.982   4.515
 6401TIP3    H119136   2.624   2.968   4.430
 6401TIP3    H219137   2.638   3.070   4.542
 6402TIP3   OH219138   2.106   2.830   4.901
 6402TIP3    H119139   2.155   2.824   4.985
 6402TIP3    H219140   2.052   2.750   4.905
 6403TIP3   OH219141   2.868   2.886   4.152
 6403TIP3    H119142   2.927   2.817   4.116
 6403TIP3    H219143   2.903   2.898   4.242
 6404TIP3   OH219144   2.920   2.935   4.421
 6404TIP3    H119145   2.832   2.945   4.463
 6404TIP3    H219146   2.973   2.900   4.494
 6405TIP3   OH219147   3.688   2.198   5.706
 6405TIP3    H119148   3.608   2.211   5.654
 6405TIP3    H219149   3.704   2.102   5.693
 6406TIP3   OH219150   2.286   2.608   5.723
 6406TIP3    H119151   2.335   2.593   5.807
 6406TIP3    H219152   2.211   2.546   5.732
 6407TIP3   OH219153   2.691   1.416   5.542
 6407TIP3    H119154   2.605   1.394   5.498
 6407TIP3    H219155   2.670   1.508   5.569
 6408TIP3   OH219156   3.221   1.545   5.712
 6408TIP3    H119157   3.300   1.516   5.762
 6408TIP3    H219158   3.167   1.585   5.781
 6409TIP3   OH219159   3.452   1.973   5.623
 6409TIP3    H119160   3.403   1.974   5.707
 6409TIP3    H219161   3.435   2.063   5.588
 6410TIP3   OH219162   3.119   2.106   4.183
 6410TIP3    H119163   3.083   2.083   4.095
 6410TIP3    H219164   3.204   2.146   4.157
 6411TIP3   OH219165   2.826   1.480   4.483
 6411TIP3    H119166   2.792   1.475   4.575
 6411TIP3    H219167   2.789   1.397   4.447
 6412TIP3   OH219168   2.617   1.948   5.530
 6412TIP3    H119169   2.567   1.971   5.611
 6412TIP3    H219170   2.603   2.030   5.477
 6413TIP3   OH219171   2.504   1.832   5.046
 6413TIP3    H119172   2.410   1.809   5.063
 6413TIP3    H219173   2.515   1.793   4.956
 6414TIP3   OH219174   2.992   1.917   4.773
 6414TIP3    H119175   2.942   1.990   4.729
 6414TIP3    H219176   3.048   1.885   4.700
 6415TIP3   OH219177   3.167   2.193   5.854
 6415TIP3    H119178   3.146   2.123   5.919
 6415TIP3    H219179   3.260   2.213   5.878
 6416TIP3   OH219180   3.145   1.946   5.010
 6416TIP3    H119181   3.085   1.975   4.939
 6416TIP3    H219182   3.182   1.867   4.965
 6417TIP3   OH219183   2.438   1.977   5.738
 6417TIP3    H119184   2.462   2.045   5.803
 6417TIP3    H219185   2.425   1.898   5.794
 6418TIP3   OH219186   2.484   1.452   4.450
 6418TIP3    H119187   2.474   1.455   4.547
 6418TIP3    H219188   2.410   1.509   4.422
 6419TIP3   OH219189   2.031   1.495   5.321
 6419TIP3    H119190   2.105   1.530   5.374
 6419TIP3    H219191   2.073   1.469   5.238
 6420TIP3   OH219192   1.995   1.478   4.839
 6420TIP3    H119193   2.041   1.514   4.760
 6420TIP3    H219194   1.935   1.552   4.858
 6421TIP3   OH219195   3.157   2.190   5.432
 6421TIP3    H119196   3.190   2.119   5.373
 6421TIP3    H219197   3.125   2.137   5.507
 6422TIP3   OH219198   2.834   1.649   5.104
 6422TIP3    H119199   2.751   1.653   5.156
 6422TIP3    H219200   2.902   1.658   5.172
 6423TIP3   OH219201   2.263   1.713   5.113
 6423TIP3    H119202   2.169   1.722   5.084
 6423TIP3    H219203   2.285   1.621   5.088
 6424TIP3   OH219204   2.528   1.707   4.803
 6424TIP3    H119205   2.622   1.723   4.781
 6424TIP3    H219206   2.482   1.729   4.719
 6425TIP3   OH219207   3.324   1.731   5.310
 6425TIP3    H119208   3.287   1.746   5.400
 6425TIP3    H219209   3.256   1.673   5.273
 6426TIP3   OH219210   2.380   1.740   4.578
 6426TIP3    H119211   2.310   1.697   4.527
 6426TIP3    H219212   2.432   1.781   4.506
 6427TIP3   OH219213   3.495   3.420   5.528
 6427TIP3    H119214   3.491   3.445   5.434
 6427TIP3    H219215   3.574   3.469   5.558
 6428TIP3   OH219216   2.450   2.529   5.947
 6428TIP3    H119217   2.529   2.560   5.995
 6428TIP3    H219218   2.384   2.530   6.019
 6429TIP3   OH219219   2.912   1.981   5.198
 6429TIP3    H119220   2.989   1.953   5.146
 6429TIP3    H219221   2.928   1.940   5.284
 6430TIP3   OH219222   2.433   1.471   5.085
 6430TIP3    H119223   2.396   1.393   5.132
 6430TIP3    H219224   2.473   1.430   5.007
 6431TIP3   OH219225   2.886   1.873   5.510
 6431TIP3    H119226   2.798   1.914   5.513
 6431TIP3    H219227   2.944   1.941   5.549
 6432TIP3   OH219228   2.624   2.271   4.587
 6432TIP3    H119229   2.551   2.207   4.575
 6432TIP3    H219230   2.604   2.305   4.678
 6433TIP3   OH219231   3.524   2.508   5.214
 6433TIP3    H119232   3.548   2.559   5.134
 6433TIP3    H219233   3.439   2.465   5.186
 6434TIP3   OH219234   3.083   1.576   4.464
 6434TIP3    H119235   2.985   1.563   4.462
 6434TIP3    H219236   3.092   1.673   4.477
 6435TIP3   OH219237   3.019   2.588   5.587
 6435TIP3    H119238   3.056   2.578   5.676
 6435TIP3    H219239   2.985   2.679   5.588
 6436TIP3   OH219240   3.151   1.834   4.557
 6436TIP3    H119241   3.248   1.839   4.569
 6436TIP3    H219242   3.132   1.913   4.502
 6437TIP3   OH219243   2.316   2.292   5.262
 6437TIP3    H119244   2.354   2.266   5.176
 6437TIP3    H219245   2.364   2.236   5.324
 6438TIP3   OH219246   2.770   2.421   4.411
 6438TIP3    H119247   2.721   2.507   4.413
 6438TIP3    H219248   2.717   2.367   4.472
 6439TIP3   OH219249   2.201   2.211   5.876
 6439TIP3    H119250   2.216   2.198   5.972
 6439TIP3    H219251   2.129   2.148   5.859
 6440TIP3   OH219252   2.927   2.330   5.896
 6440TIP3    H119253   2.865   2.272   5.849
 6440TIP3    H219254   3.013   2.294   5.865
 6441TIP3   OH219255   3.183   2.844   5.486
 6441TIP3    H119256   3.086   2.849   5.497
 6441TIP3    H219257   3.212   2.900   5.561
 6442TIP3   OH219258   3.591   1.926   4.391
 6442TIP3    H119259   3.528   1.884   4.327
 6442TIP3    H219260   3.590   2.016   4.351
 6443TIP3   OH219261   3.813   2.782   5.469
 6443TIP3    H119262   3.715   2.776   5.460
 6443TIP3    H219263   3.840   2.751   5.379
 6444TIP3   OH219264   3.296   2.741   4.299
 6444TIP3    H119265   3.267   2.670   4.358
 6444TIP3    H219266   3.308   2.695   4.214
 6445TIP3   OH219267   3.290   2.371   5.133
 6445TIP3    H119268   3.196   2.348   5.145
 6445TIP3    H219269   3.323   2.291   5.087
 6446TIP3   OH219270   2.422   2.601   4.890
 6446TIP3    H119271   2.420   2.681   4.834
 6446TIP3    H219272   2.328   2.583   4.900
 6447TIP3   OH219273   1.985   1.901   4.595
 6447TIP3    H119274   2.029   1.987   4.615
 6447TIP3    H219275   1.908   1.906   4.655
 6448TIP3   OH219276   2.549   2.361   4.830
 6448TIP3    H119277   2.519   2.452   4.849
 6448TIP3    H219278   2.515   2.313   4.907
 6449TIP3   OH219279   2.689   2.942   5.356
 6449TIP3    H119280   2.730   3.015   5.305
 6449TIP3    H219281   2.766   2.906   5.402
 6450TIP3   OH219282   2.338   2.837   4.740
 6450TIP3    H119283   2.252   2.848   4.786
 6450TIP3    H219284   2.373   2.929   4.742
 6451TIP3   OH219285   3.072   2.575   5.318
 6451TIP3    H119286   3.062   2.572   5.416
 6451TIP3    H219287   3.154   2.526   5.305
 6452TIP3   OH219288   3.054   2.472   4.201
 6452TIP3    H119289   3.107   2.446   4.279
 6452TIP3    H219290   2.966   2.443   4.228
 6453TIP3   OH219291   3.323   3.107   5.364
 6453TIP3    H119292   3.241   3.055   5.355
 6453TIP3    H219293   3.310   3.173   5.292
 6454TIP3   OH219294   3.390   2.943   4.018
 6454TIP3    H119295   3.429   3.018   3.969
 6454TIP3    H219296   3.309   2.986   4.052
 6455TIP3   OH219297   2.405   1.717   5.882
 6455TIP3    H119298   2.308   1.726   5.894
 6455TIP3    H219299   2.430   1.664   5.959
 6456TIP3   OH219300   3.213   2.405   4.418
 6456TIP3    H119301   3.203   2.337   4.486
 6456TIP3    H219302   3.310   2.400   4.403
 6457TIP3   OH219303   2.125   2.802   5.515
 6457TIP3    H119304   2.182   2.734   5.554
 6457TIP3    H219305   2.152   2.880   5.566
 6458TIP3   OH219306   2.415   2.450   4.200
 6458TIP3    H119307   2.429   2.357   4.174
 6458TIP3    H219308   2.394   2.440   4.295
 6459TIP3   OH219309   2.359   2.454   4.473
 6459TIP3    H119310   2.437   2.430   4.525
 6459TIP3    H219311   2.361   2.553   4.479
 6460TIP3   OH219312   2.094   2.146   4.676
 6460TIP3    H119313   2.027   2.193   4.732
 6460TIP3    H219314   2.108   2.214   4.607
 6461TIP3   OH219315   3.247   1.785   5.568
 6461TIP3    H119316   3.329   1.827   5.599
 6461TIP3    H219317   3.243   1.703   5.621
 6462TIP3   OH219318   3.127   1.531   4.739
 6462TIP3    H119319   3.113   1.550   4.644
 6462TIP3    H219320   3.166   1.615   4.770
 6463TIP3   OH219321   2.627   2.649   4.419
 6463TIP3    H119322   2.540   2.675   4.456
 6463TIP3    H219323   2.644   2.725   4.361
 6464TIP3   OH219324   2.812   1.716   4.834
 6464TIP3    H119325   2.876   1.788   4.814
 6464TIP3    H219326   2.821   1.709   4.931
 6465TIP3   OH219327   3.084   2.031   5.640
 6465TIP3    H119328   3.110   2.086   5.717
 6465TIP3    H219329   3.140   1.952   5.650
 6466TIP3   OH219330   2.955   1.436   4.934
 6466TIP3    H119331   2.943   1.515   4.989
 6466TIP3    H219332   3.019   1.470   4.867
 6467TIP3   OH219333   2.372   2.726   4.489
 6467TIP3    H119334   2.343   2.796   4.426
 6467TIP3    H219335   2.357   2.770   4.576
 6468TIP3   OH219336   2.470   1.443   4.727
 6468TIP3    H119337   2.469   1.534   4.762
 6468TIP3    H219338   2.567   1.425   4.734
 6469TIP3   OH219339   3.722   1.934   5.627
 6469TIP3    H119340   3.624   1.928   5.626
 6469TIP3    H219341   3.743   1.899   5.539
 6470TIP3   OH219342   3.375   2.127   5.011
 6470TIP3    H119343   3.300   2.066   5.021
 6470TIP3    H219344   3.447   2.080   5.058
 6471TIP3   OH219345   2.089   2.352   4.479
 6471TIP3    H119346   2.159   2.420   4.489
 6471TIP3    H219347   2.133   2.295   4.412
 6472TIP3   OH219348   2.029   1.631   4.616
 6472TIP3    H119349   2.035   1.728   4.614
 6472TIP3    H219350   1.950   1.616   4.562
 6473TIP3   OH219351   3.345   3.084   4.958
 6473TIP3    H119352   3.302   3.129   4.882
 6473TIP3    H219353   3.439   3.104   4.937
 6474TIP3   OH219354   2.431   1.350   5.483
 6474TIP3    H119355   2.397   1.323   5.395
 6474TIP3    H219356   2.408   1.271   5.537
 6475TIP3   OH219357   1.954   2.563   4.863
 6475TIP3    H119358   1.892   2.598   4.928
 6475TIP3    H219359   1.925   2.609   4.781
 6476TIP3   OH219360   2.119   3.118   5.940
 6476TIP3    H119361   2.205   3.119   5.987
 6476TIP3    H219362   2.101   3.023   5.938
 6477TIP3   OH219363   2.594   3.072   5.986
 6477TIP3    H119364   2.689   3.060   5.989
 6477TIP3    H219365   2.570   3.011   5.913
 6478TIP3   OH219366   2.578   2.652   4.108
 6478TIP3    H119367   2.524   2.579   4.146
 6478TIP3    H219368   2.655   2.602   4.074
 6479TIP3   OH219369   3.236   2.984   5.718
 6479TIP3    H119370   3.229   2.915   5.788
 6479TIP3    H219371   3.313   3.036   5.748
 6480TIP3   OH219372   3.014   2.690   4.023
 6480TIP3    H119373   3.056   2.626   4.083
 6480TIP3    H219374   3.071   2.686   3.944
 6481TIP3   OH219375   2.247   2.520   6.138
 6481TIP3    H119376   2.261   2.423   6.145
 6481TIP3    H219377   2.160   2.524   6.093
 6482TIP3   OH219378   2.225   2.166   4.335
 6482TIP3    H119379   2.284   2.139   4.408
 6482TIP3    H219380   2.290   2.172   4.262
 6483TIP3   OH219381   2.853   2.607   5.913
 6483TIP3    H119382   2.813   2.629   5.827
 6483TIP3    H219383   2.884   2.515   5.900
 6484TIP3   OH219384   2.739   2.368   4.142
 6484TIP3    H119385   2.741   2.380   4.239
 6484TIP3    H219386   2.740   2.270   4.135
 6485TIP3   OH219387   3.346   2.617   5.521
 6485TIP3    H119388   3.423   2.658   5.476
 6485TIP3    H219389   3.279   2.687   5.505
 6486TIP3   OH219390   2.366   2.255   6.124
 6486TIP3    H119391   2.446   2.209   6.095
 6486TIP3    H219392   2.395   2.289   6.212
 6487TIP3   OH219393   2.428   2.075   4.551
 6487TIP3    H119394   2.405   2.033   4.635
 6487TIP3    H219395   2.469   2.001   4.501
 6488TIP3   OH219396   2.704   2.137   5.783
 6488TIP3    H119397   2.625   2.195   5.783
 6488TIP3    H219398   2.754   2.172   5.706
 6489TIP3   OH219399   2.535   1.869   4.395
 6489TIP3    H119400   2.511   1.878   4.300
 6489TIP3    H219401   2.633   1.870   4.388
 6490TIP3   OH219402   3.217   2.539   5.916
 6490TIP3    H119403   3.296   2.513   5.868
 6490TIP3    H219404   3.215   2.475   5.989
 6491TIP3   OH219405   3.352   2.196   4.063
 6491TIP3    H119406   3.334   2.152   3.977
 6491TIP3    H219407   3.318   2.286   4.041
 6492TIP3   OH219408   2.829   1.927   5.905
 6492TIP3    H119409   2.827   1.848   5.847
 6492TIP3    H219410   2.784   1.995   5.849
 6493TIP3   OH219411   2.834   1.700   5.725
 6493TIP3    H119412   2.865   1.744   5.644
 6493TIP3    H219413   2.740   1.682   5.704
 6494TIP3   OH219414   2.851   2.248   5.589
 6494TIP3    H119415   2.937   2.266   5.549
 6494TIP3    H219416   2.794   2.313   5.544
 6495TIP3   OH219417   3.434   2.216   5.966
 6495TIP3    H119418   3.491   2.138   5.977
 6495TIP3    H219419   3.497   2.281   5.930
 6496TIP3   OH219420   3.476   2.468   5.704
 6496TIP3    H119421   3.418   2.523   5.647
 6496TIP3    H219422   3.563   2.491   5.666
 6497TIP3   OH219423   2.706   2.032   6.142
 6497TIP3    H119424   2.637   1.965   6.156
 6497TIP3    H219425   2.736   2.011   6.052
 6498TIP3   OH219426   3.088   1.976   6.001
 6498TIP3    H119427   3.070   1.965   6.096
 6498TIP3    H219428   2.998   1.955   5.965
 6499TIP3   OH219429   3.322   1.923   5.855
 6499TIP3    H119430   3.249   1.933   5.919
 6499TIP3    H219431   3.398   1.901   5.913
 6500TIP3   OH219432   3.553   1.869   6.008
 6500TIP3    H119433   3.550   1.775   6.034
 6500TIP3    H219434   3.548   1.915   6.095
 6501TIP3   OH219435   2.541   1.814   6.194
 6501TIP3    H119436   2.547   1.722   6.162
 6501TIP3    H219437   2.578   1.804   6.285
 6502TIP3   OH219438   3.052   1.490   6.035
 6502TIP3    H119439   3.119   1.418   6.039
 6502TIP3    H219440   3.012   1.475   5.950
 6503TIP3   OH219441   3.118   1.700   6.203
 6503TIP3    H119442   3.095   1.632   6.137
 6503TIP3    H219443   3.041   1.761   6.198
 6504TIP3   OH219444   2.341   2.926   4.299
 6504TIP3    H119445   2.437   2.920   4.282
 6504TIP3    H219446   2.315   2.981   4.223
 6505TIP3   OH219447   1.821   2.312   4.516
 6505TIP3    H119448   1.915   2.334   4.500
 6505TIP3    H219449   1.815   2.223   4.475
 6506TIP3   OH219450   1.735   2.921   4.934
 6506TIP3    H119451   1.671   2.859   4.893
 6506TIP3    H219452   1.781   2.861   4.997
 6507TIP3   OH219453   1.873   2.766   5.117
 6507TIP3    H119454   1.862   2.699   5.186
 6507TIP3    H219455   1.926   2.832   5.166
 6508TIP3   OH219456   3.600   3.172   4.919
 6508TIP3    H119457   3.628   3.208   5.005
 6508TIP3    H219458   3.663   3.214   4.858
 6509TIP3   OH219459   3.626   3.195   5.202
 6509TIP3    H119460   3.582   3.107   5.196
 6509TIP3    H219461   3.703   3.171   5.255
 6510TIP3   OH219462   3.675   2.870   5.775
 6510TIP3    H119463   3.602   2.881   5.840
 6510TIP3    H219464   3.717   2.958   5.777
 6511TIP3   OH219465   3.490   2.384   4.392
 6511TIP3    H119466   3.556   2.449   4.360
 6511TIP3    H219467   3.537   2.347   4.470
 6512TIP3   OH219468   3.619   2.252   4.596
 6512TIP3    H119469   3.552   2.211   4.655
 6512TIP3    H219470   3.684   2.288   4.660
 6513TIP3   OH219471   3.676   2.646   5.029
 6513TIP3    H119472   3.726   2.577   4.980
 6513TIP3    H219473   3.673   2.719   4.965
 6514TIP3   OH219474   3.502   2.944   5.223
 6514TIP3    H119475   3.429   2.988   5.272
 6514TIP3    H219476   3.454   2.899   5.150
 6515TIP3   OH219477   3.556   2.161   4.242
 6515TIP3    H119478   3.485   2.160   4.174
 6515TIP3    H219479   3.526   2.236   4.296
 6516TIP3   OH219480   3.423   1.840   4.198
 6516TIP3    H119481   3.389   1.866   4.111
 6516TIP3    H219482   3.399   1.744   4.199
 6517TIP3   OH219483   3.430   2.111   4.741
 6517TIP3    H119484   3.439   2.015   4.731
 6517TIP3    H219485   3.417   2.121   4.838
 6518TIP3   OH219486   2.056   2.180   5.491
 6518TIP3    H119487   2.054   2.148   5.398
 6518TIP3    H219488   2.154   2.182   5.506
 6519TIP3   OH219489   3.721   2.534   5.600
 6519TIP3    H119490   3.793   2.468   5.588
 6519TIP3    H219491   3.745   2.603   5.535
 6520TIP3   OH219492   3.903   2.334   5.610
 6520TIP3    H119493   3.829   2.285   5.652
 6520TIP3    H219494   3.976   2.271   5.626
 6521TIP3   OH219495   3.362   1.577   4.206
 6521TIP3    H119496   3.442   1.534   4.241
 6521TIP3    H219497   3.297   1.505   4.198
 6522TIP3   OH219498   3.430   1.828   4.635
 6522TIP3    H119499   3.470   1.739   4.649
 6522TIP3    H219500   3.486   1.859   4.562
 6523TIP3   OH219501   3.589   1.997   5.133
 6523TIP3    H119502   3.674   2.021   5.090
 6523TIP3    H219503   3.605   2.035   5.221
 6524TIP3   OH219504   3.662   2.143   5.363
 6524TIP3    H119505   3.583   2.179   5.409
 6524TIP3    H219506   3.695   2.224   5.317
 6525TIP3   OH219507   2.274   1.865   6.163
 6525TIP3    H119508   2.372   1.861   6.168
 6525TIP3    H219509   2.251   1.779   6.203
 6526TIP3   OH219510   4.087   1.701   5.908
 6526TIP3    H119511   4.170   1.687   5.856
 6526TIP3    H219512   4.041   1.766   5.852
 6527TIP3   OH219513   3.536   1.578   4.675
 6527TIP3    H119514   3.585   1.563   4.758
 6527TIP3    H219515   3.477   1.500   4.673
 6528TIP3   OH219516   2.240   1.559   5.492
 6528TIP3    H119517   2.304   1.486   5.500
 6528TIP3    H219518   2.299   1.635   5.485
 6529TIP3   OH219519   2.039   1.832   5.567
 6529TIP3    H119520   2.088   1.832   5.482
 6529TIP3    H219521   2.062   1.918   5.603
 6530TIP3   OH219522   3.976   1.870   5.730
 6530TIP3    H119523   3.891   1.916   5.744
 6530TIP3    H219524   3.944   1.797   5.672
 6531TIP3   OH219525   3.619   1.498   4.310
 6531TIP3    H119526   3.653   1.438   4.241
 6531TIP3    H219527   3.680   1.575   4.302
 6532TIP3   OH219528   2.025   1.335   5.066
 6532TIP3    H119529   1.932   1.331   5.097
 6532TIP3    H219530   2.018   1.396   4.989
 6533TIP3   OH219531   3.180   3.041   4.574
 6533TIP3    H119532   3.234   3.034   4.492
 6533TIP3    H219533   3.228   3.108   4.624
 6534TIP3   OH219534   2.254   1.407   5.876
 6534TIP3    H119535   2.205   1.407   5.960
 6534TIP3    H219536   2.189   1.453   5.819
 6535TIP3   OH219537   2.283   2.846   5.957
 6535TIP3    H119538   2.190   2.822   5.942
 6535TIP3    H219539   2.293   2.830   6.051
 6536TIP3   OH219540   2.463   2.881   5.505
 6536TIP3    H119541   2.416   2.958   5.466
 6536TIP3    H219542   2.549   2.895   5.460
 6537TIP3   OH219543   2.902   3.121   5.643
 6537TIP3    H119544   2.944   3.122   5.731
 6537TIP3    H219545   2.968   3.173   5.591
 6538TIP3   OH219546   3.083   3.275   5.507
 6538TIP3    H119547   3.153   3.228   5.461
 6538TIP3    H219548   3.136   3.332   5.567
 6539TIP3   OH219549   3.887   1.643   5.596
 6539TIP3    H119550   3.793   1.635   5.575
 6539TIP3    H219551   3.915   1.549   5.602
 6540TIP3   OH219552   2.135   3.131   5.535
 6540TIP3    H119553   2.046   3.163   5.510
 6540TIP3    H219554   2.152   3.185   5.613
 6541TIP3   OH219555   2.372   3.114   5.389
 6541TIP3    H119556   2.285   3.126   5.432
 6541TIP3    H219557   2.355   3.146   5.299
 6542TIP3   OH219558   2.799   3.139   5.188
 6542TIP3    H119559   2.729   3.156   5.122
 6542TIP3    H219560   2.810   3.228   5.228
 6543TIP3   OH219561   3.069   3.078   5.240
 6543TIP3    H119562   2.975   3.098   5.221
 6543TIP3    H219563   3.114   3.151   5.194
 6544TIP3   OH219564   3.274   3.271   5.151
 6544TIP3    H119565   3.258   3.356   5.105
 6544TIP3    H219566   3.301   3.212   5.077
 6545TIP3   OH219567   2.046   2.925   5.274
 6545TIP3    H119568   2.074   2.900   5.364
 6545TIP3    H219569   2.119   2.885   5.222
 6546TIP3   OH219570   2.243   2.801   5.134
 6546TIP3    H119571   2.260   2.717   5.184
 6546TIP3    H219572   2.334   2.838   5.129
 6547TIP3   OH219573   2.508   2.891   5.140
 6547TIP3    H119574   2.542   2.801   5.128
 6547TIP3    H219575   2.557   2.917   5.221
 6548TIP3   OH219576   3.091   1.554   5.229
 6548TIP3    H119577   3.046   1.479   5.270
 6548TIP3    H219578   3.163   1.510   5.179
 6549TIP3   OH219579   3.602   1.432   5.131
 6549TIP3    H119580   3.641   1.484   5.057
 6549TIP3    H219581   3.508   1.451   5.121
 6550TIP3   OH219582   3.692   1.538   4.899
 6550TIP3    H119583   3.764   1.481   4.861
 6550TIP3    H219584   3.731   1.627   4.879
 6551TIP3   OH219585   2.331   1.259   5.240
 6551TIP3    H119586   2.238   1.228   5.242
 6551TIP3    H219587   2.378   1.173   5.234
 6552TIP3   OH219588   2.116   1.130   4.885
 6552TIP3    H119589   2.149   1.187   4.813
 6552TIP3    H219590   2.092   1.197   4.953
 6553TIP3   OH219591   2.781   1.289   5.118
 6553TIP3    H119592   2.833   1.333   5.049
 6553TIP3    H219593   2.805   1.341   5.197
 6554TIP3   OH219594   3.316   1.438   5.102
 6554TIP3    H119595   3.323   1.401   5.013
 6554TIP3    H219596   3.306   1.357   5.157
 6555TIP3   OH219597   3.352   1.365   4.668
 6555TIP3    H119598   3.266   1.408   4.681
 6555TIP3    H219599   3.336   1.278   4.711
 6556TIP3   OH219600   1.836   2.705   4.667
 6556TIP3    H119601   1.750   2.674   4.632
 6556TIP3    H219602   1.829   2.799   4.642
 6557TIP3   OH219603   2.239   1.287   4.649
 6557TIP3    H119604   2.288   1.226   4.591
 6557TIP3    H219605   2.312   1.342   4.684
 6558TIP3   OH219606   2.747   1.465   4.749
 6558TIP3    H119607   2.811   1.420   4.807
 6558TIP3    H219608   2.769   1.558   4.772
 6559TIP3   OH219609   2.610   2.885   4.249
 6559TIP3    H119610   2.697   2.909   4.213
 6559TIP3    H219611   2.587   2.811   4.188
 6560TIP3   OH219612   3.328   3.008   4.342
 6560TIP3    H119613   3.320   2.910   4.331
 6560TIP3    H219614   3.282   3.039   4.261
 6561TIP3   OH219615   2.542   1.537   6.128
 6561TIP3    H119616   2.502   1.469   6.185
 6561TIP3    H219617   2.635   1.537   6.162
 6562TIP3   OH219618   2.790   1.535   6.249
 6562TIP3    H119619   2.880   1.511   6.219
 6562TIP3    H219620   2.774   1.467   6.318
 6563TIP3   OH219621   1.911   2.721   4.301
 6563TIP3    H119622   1.919   2.748   4.394
 6563TIP3    H219623   1.999   2.679   4.285
 6564TIP3   OH219624   3.608   1.594   6.047
 6564TIP3    H119625   3.632   1.557   6.135
 6564TIP3    H219626   3.695   1.617   6.012
 6565TIP3   OH219627   3.551   3.150   5.528
 6565TIP3    H119628   3.474   3.121   5.476
 6565TIP3    H219629   3.533   3.246   5.533
 6566TIP3   OH219630   4.822   2.526   4.290
 6566TIP3    H119631   4.791   2.616   4.270
 6566TIP3    H219632   4.745   2.474   4.259
 6567TIP3   OH219633   4.821   2.524   4.679
 6567TIP3    H119634   4.857   2.501   4.767
 6567TIP3    H219635   4.780   2.441   4.651
 6568TIP3   OH219636   4.117   2.418   5.043
 6568TIP3    H119637   4.148   2.349   5.104
 6568TIP3    H219638   4.198   2.469   5.030
 6569TIP3   OH219639   5.065   2.829   4.359
 6569TIP3    H119640   5.049   2.761   4.425
 6569TIP3    H219641   5.096   2.904   4.413
 6570TIP3   OH219642   4.093   2.830   4.764
 6570TIP3    H119643   4.085   2.732   4.764
 6570TIP3    H219644   4.189   2.839   4.755
 6571TIP3   OH219645   3.798   2.030   4.546
 6571TIP3    H119646   3.750   2.112   4.563
 6571TIP3    H219647   3.728   1.977   4.503
 6572TIP3   OH219648   3.854   2.318   4.727
 6572TIP3    H119649   3.904   2.239   4.758
 6572TIP3    H219650   3.913   2.353   4.659
 6573TIP3   OH219651   4.716   3.291   4.372
 6573TIP3    H119652   4.759   3.218   4.323
 6573TIP3    H219653   4.701   3.251   4.458
 6574TIP3   OH219654   4.618   2.751   4.724
 6574TIP3    H119655   4.659   2.674   4.681
 6574TIP3    H219656   4.700   2.798   4.750
 6575TIP3   OH219657   5.633   2.072   4.722
 6575TIP3    H119658   5.664   2.153   4.767
 6575TIP3    H219659   5.652   2.094   4.629
 6576TIP3   OH219660   5.031   2.252   4.753
 6576TIP3    H119661   5.073   2.167   4.776
 6576TIP3    H219662   4.999   2.232   4.663
 6577TIP3   OH219663   4.371   1.907   4.719
 6577TIP3    H119664   4.350   1.978   4.654
 6577TIP3    H219665   4.322   1.832   4.678
 6578TIP3   OH219666   5.067   2.003   4.340
 6578TIP3    H119667   5.137   1.987   4.408
 6578TIP3    H219668   5.121   2.038   4.267
 6579TIP3   OH219669   4.002   2.110   4.827
 6579TIP3    H119670   4.085   2.091   4.874
 6579TIP3    H219671   4.016   2.055   4.747
 6580TIP3   OH219672   4.441   2.308   4.625
 6580TIP3    H119673   4.536   2.285   4.635
 6580TIP3    H219674   4.404   2.224   4.591
 6581TIP3   OH219675   5.709   2.282   4.887
 6581TIP3    H119676   5.623   2.326   4.869
 6581TIP3    H219677   5.712   2.293   4.983
 6582TIP3   OH219678   4.360   1.888   5.153
 6582TIP3    H119679   4.307   1.934   5.085
 6582TIP3    H219680   4.310   1.912   5.234
 6583TIP3   OH219681   4.713   2.748   4.158
 6583TIP3    H119682   4.666   2.731   4.076
 6583TIP3    H219683   4.667   2.829   4.189
 6584TIP3   OH219684   4.472   2.670   4.946
 6584TIP3    H119685   4.413   2.739   4.983
 6584TIP3    H219686   4.515   2.718   4.872
 6585TIP3   OH219687   5.271   2.007   4.520
 6585TIP3    H119688   5.249   1.967   4.605
 6585TIP3    H219689   5.322   2.086   4.546
 6586TIP3   OH219690   4.238   2.007   4.937
 6586TIP3    H119691   4.299   2.081   4.960
 6586TIP3    H219692   4.287   1.969   4.860
 6587TIP3   OH219693   4.302   2.867   5.048
 6587TIP3    H119694   4.277   2.954   5.010
 6587TIP3    H219695   4.222   2.850   5.102
 6588TIP3   OH219696   3.691   2.554   4.282
 6588TIP3    H119697   3.651   2.583   4.198
 6588TIP3    H219698   3.723   2.640   4.319
 6589TIP3   OH219699   5.133   3.072   4.521
 6589TIP3    H119700   5.044   3.063   4.562
 6589TIP3    H219701   5.124   3.159   4.477
 6590TIP3   OH219702   5.426   1.965   4.886
 6590TIP3    H119703   5.340   1.999   4.856
 6590TIP3    H219704   5.487   2.001   4.819
 6591TIP3   OH219705   4.729   1.613   4.881
 6591TIP3    H119706   4.706   1.519   4.879
 6591TIP3    H219707   4.647   1.650   4.920
 6592TIP3   OH219708   4.834   3.113   4.195
 6592TIP3    H119709   4.885   3.031   4.176
 6592TIP3    H219710   4.897   3.179   4.156
 6593TIP3   OH219711   4.980   2.898   4.106
 6593TIP3    H119712   4.928   2.821   4.079
 6593TIP3    H219713   5.019   2.866   4.190
 6594TIP3   OH219714   5.359   2.981   4.868
 6594TIP3    H119715   5.346   2.903   4.808
 6594TIP3    H219716   5.341   3.055   4.807
 6595TIP3   OH219717   4.651   2.375   4.127
 6595TIP3    H119718   4.571   2.428   4.107
 6595TIP3    H219719   4.695   2.374   4.040
 6596TIP3   OH219720   4.609   2.164   3.836
 6596TIP3    H119721   4.674   2.215   3.886
 6596TIP3    H219722   4.668   2.100   3.790
 6597TIP3   OH219723   5.554   2.622   4.713
 6597TIP3    H119724   5.470   2.672   4.718
 6597TIP3    H219725   5.584   2.647   4.623
 6598TIP3   OH219726   5.000   2.460   4.094
 6598TIP3    H119727   4.945   2.483   4.173
 6598TIP3    H219728   5.084   2.436   4.138
 6599TIP3   OH219729   5.234   2.496   5.014
 6599TIP3    H119730   5.231   2.579   5.066
 6599TIP3    H219731   5.148   2.501   4.968
 6600TIP3   OH219732   4.231   2.455   4.514
 6600TIP3    H119733   4.190   2.397   4.446
 6600TIP3    H219734   4.307   2.401   4.544
 6601TIP3   OH219735   4.360   2.865   4.662
 6601TIP3    H119736   4.341   2.832   4.573
 6601TIP3    H219737   4.450   2.828   4.679
 6602TIP3   OH219738   4.365   2.427   4.869
 6602TIP3    H119739   4.398   2.402   4.781
 6602TIP3    H219740   4.410   2.513   4.885
 6603TIP3   OH219741   4.894   3.065   4.646
 6603TIP3    H119742   4.880   3.145   4.699
 6603TIP3    H219743   4.876   2.993   4.709
 6604TIP3   OH219744   4.507   2.984   5.193
 6604TIP3    H119745   4.444   3.045   5.238
 6604TIP3    H219746   4.443   2.931   5.140
 6605TIP3   OH219747   4.838   2.317   3.923
 6605TIP3    H119748   4.896   2.378   3.973
 6605TIP3    H219749   4.865   2.338   3.830
 6606TIP3   OH219750   4.263   2.536   5.300
 6606TIP3    H119751   4.266   2.626   5.339
 6606TIP3    H219752   4.167   2.518   5.309
 6607TIP3   OH219753   4.585   2.993   4.197
 6607TIP3    H119754   4.666   3.046   4.207
 6607TIP3    H219755   4.523   3.056   4.159
 6608TIP3   OH219756   4.299   3.149   5.280
 6608TIP3    H119757   4.265   3.154   5.188
 6608TIP3    H219758   4.219   3.128   5.331
 6609TIP3   OH219759   5.354   1.555   3.972
 6609TIP3    H119760   5.272   1.577   4.022
 6609TIP3    H219761   5.369   1.638   3.923
 6610TIP3   OH219762   4.098   2.299   4.316
 6610TIP3    H119763   4.029   2.343   4.263
 6610TIP3    H219764   4.060   2.211   4.328
 6611TIP3   OH219765   5.154   2.923   3.516
 6611TIP3    H119766   5.164   3.020   3.507
 6611TIP3    H219767   5.247   2.894   3.505
 6612TIP3   OH219768   3.877   2.684   5.226
 6612TIP3    H119769   3.811   2.664   5.157
 6612TIP3    H219770   3.915   2.596   5.245
 6613TIP3   OH219771   3.732   2.874   4.861
 6613TIP3    H119772   3.828   2.872   4.849
 6613TIP3    H219773   3.722   2.955   4.913
 6614TIP3   OH219774   5.597   3.329   4.917
 6614TIP3    H119775   5.595   3.233   4.932
 6614TIP3    H219776   5.513   3.355   4.962
 6615TIP3   OH219777   4.703   3.112   5.051
 6615TIP3    H119778   4.698   3.204   5.082
 6615TIP3    H219779   4.631   3.071   5.103
 6616TIP3   OH219780   4.468   3.246   4.001
 6616TIP3    H119781   4.415   3.231   3.921
 6616TIP3    H219782   4.432   3.331   4.033
 6617TIP3   OH219783   3.905   3.083   4.386
 6617TIP3    H119784   3.951   3.079   4.472
 6617TIP3    H219785   3.849   3.004   4.390
 6618TIP3   OH219786   4.663   3.140   3.642
 6618TIP3    H119787   4.727   3.072   3.610
 6618TIP3    H219788   4.696   3.156   3.733
 6619TIP3   OH219789   4.717   3.192   3.906
 6619TIP3    H119790   4.628   3.204   3.948
 6619TIP3    H219791   4.767   3.155   3.981
 6620TIP3   OH219792   5.485   2.459   5.191
 6620TIP3    H119793   5.402   2.466   5.141
 6620TIP3    H219794   5.505   2.364   5.180
 6621TIP3   OH219795   4.082   2.866   5.211
 6621TIP3    H119796   4.131   2.849   5.294
 6621TIP3    H219797   4.007   2.803   5.218
 6622TIP3   OH219798   4.480   1.672   4.994
 6622TIP3    H119799   4.418   1.634   4.927
 6622TIP3    H219800   4.429   1.745   5.033
 6623TIP3   OH219801   5.019   1.802   5.194
 6623TIP3    H119802   5.088   1.781   5.259
 6623TIP3    H219803   4.936   1.784   5.242
 6624TIP3   OH219804   5.248   2.229   5.108
 6624TIP3    H119805   5.210   2.225   5.198
 6624TIP3    H219806   5.230   2.320   5.080
 6625TIP3   OH219807   4.916   2.360   3.668
 6625TIP3    H119808   4.881   2.337   3.580
 6625TIP3    H219809   4.999   2.405   3.644
 6626TIP3   OH219810   4.627   1.736   3.972
 6626TIP3    H119811   4.593   1.731   4.064
 6626TIP3    H219812   4.587   1.654   3.936
 6627TIP3   OH219813   4.413   2.204   5.017
 6627TIP3    H119814   4.364   2.227   5.099
 6627TIP3    H219815   4.398   2.286   4.964
 6628TIP3   OH219816   4.297   2.089   4.532
 6628TIP3    H119817   4.205   2.063   4.550
 6628TIP3    H219818   4.309   2.049   4.443
 6629TIP3   OH219819   4.789   2.176   4.261
 6629TIP3    H119820   4.738   2.247   4.217
 6629TIP3    H219821   4.843   2.142   4.188
 6630TIP3   OH219822   4.965   2.452   5.344
 6630TIP3    H119823   4.943   2.377   5.404
 6630TIP3    H219824   5.059   2.464   5.365
 6631TIP3   OH219825   4.943   2.202   4.497
 6631TIP3    H119826   4.881   2.230   4.427
 6631TIP3    H219827   4.980   2.122   4.453
 6632TIP3   OH219828   4.233   2.234   5.226
 6632TIP3    H119829   4.267   2.298   5.290
 6632TIP3    H219830   4.224   2.153   5.280
 6633TIP3   OH219831   4.283   1.710   3.934
 6633TIP3    H119832   4.272   1.712   4.031
 6633TIP3    H219833   4.207   1.765   3.906
 6634TIP3   OH219834   3.825   1.752   4.805
 6634TIP3    H119835   3.902   1.784   4.856
 6634TIP3    H219836   3.865   1.713   4.725
 6635TIP3   OH219837   3.790   1.735   4.322
 6635TIP3    H119838   3.833   1.772   4.243
 6635TIP3    H219839   3.729   1.807   4.343
 6636TIP3   OH219840   4.952   2.448   4.919
 6636TIP3    H119841   4.988   2.377   4.860
 6636TIP3    H219842   4.924   2.393   4.995
 6637TIP3   OH219843   4.629   1.912   4.591
 6637TIP3    H119844   4.547   1.910   4.645
 6637TIP3    H219845   4.698   1.904   4.659
 6638TIP3   OH219846   4.060   1.966   4.601
 6638TIP3    H119847   3.966   1.973   4.571
 6638TIP3    H219848   4.082   1.873   4.580
 6639TIP3   OH219849   4.325   1.964   4.291
 6639TIP3    H119850   4.418   1.978   4.267
 6639TIP3    H219851   4.277   1.984   4.207
 6640TIP3   OH219852   5.114   1.990   4.792
 6640TIP3    H119853   5.087   2.002   4.886
 6640TIP3    H219854   5.045   1.928   4.762
 6641TIP3   OH219855   4.176   1.999   4.067
 6641TIP3    H119856   4.103   1.955   4.021
 6641TIP3    H219857   4.226   2.036   3.992
 6642TIP3   OH219858   5.291   3.679   5.015
 6642TIP3    H119859   5.290   3.702   4.920
 6642TIP3    H219860   5.371   3.724   5.046
 6643TIP3   OH219861   4.245   2.787   5.434
 6643TIP3    H119862   4.325   2.817   5.482
 6643TIP3    H219863   4.180   2.787   5.508
 6644TIP3   OH219864   4.707   2.242   4.690
 6644TIP3    H119865   4.781   2.204   4.641
 6644TIP3    H219866   4.713   2.197   4.776
 6645TIP3   OH219867   4.226   1.725   4.572
 6645TIP3    H119868   4.230   1.651   4.638
 6645TIP3    H219869   4.272   1.683   4.499
 6646TIP3   OH219870   4.685   2.141   4.979
 6646TIP3    H119871   4.595   2.177   4.994
 6646TIP3    H219872   4.742   2.202   5.030
 6647TIP3   OH219873   4.422   2.528   4.074
 6647TIP3    H119874   4.350   2.462   4.062
 6647TIP3    H219875   4.401   2.562   4.165
 6648TIP3   OH219876   5.320   2.765   4.701
 6648TIP3    H119877   5.343   2.816   4.621
 6648TIP3    H219878   5.235   2.722   4.674
 6649TIP3   OH219879   4.877   1.839   3.938
 6649TIP3    H119880   4.782   1.819   3.949
 6649TIP3    H219881   4.884   1.933   3.965
 6650TIP3   OH219882   4.818   2.846   5.072
 6650TIP3    H119883   4.853   2.830   5.160
 6650TIP3    H219884   4.781   2.936   5.079
 6651TIP3   OH219885   4.946   2.089   4.043
 6651TIP3    H119886   5.042   2.095   4.059
 6651TIP3    H219887   4.927   2.170   3.993
 6652TIP3   OH219888   4.115   2.552   4.748
 6652TIP3    H119889   4.151   2.523   4.662
 6652TIP3    H219890   4.160   2.492   4.809
 6653TIP3   OH219891   4.564   2.678   3.895
 6653TIP3    H119892   4.516   2.763   3.899
 6653TIP3    H219893   4.511   2.623   3.957
 6654TIP3   OH219894   3.997   2.470   5.364
 6654TIP3    H119895   4.014   2.456   5.459
 6654TIP3    H219896   3.926   2.406   5.346
 6655TIP3   OH219897   4.725   2.587   5.383
 6655TIP3    H119898   4.665   2.528   5.334
 6655TIP3    H219899   4.812   2.551   5.356
 6656TIP3   OH219900   4.979   3.107   4.969
 6656TIP3    H119901   4.883   3.106   4.983
 6656TIP3    H219902   5.007   3.160   5.047
 6657TIP3   OH219903   5.388   2.182   3.875
 6657TIP3    H119904   5.326   2.138   3.812
 6657TIP3    H219905   5.384   2.272   3.838
 6658TIP3   OH219906   5.609   3.039   4.956
 6658TIP3    H119907   5.511   3.032   4.948
 6658TIP3    H219908   5.635   3.008   4.866
 6659TIP3   OH219909   5.089   2.998   3.785
 6659TIP3    H119910   5.062   2.932   3.851
 6659TIP3    H219911   5.102   2.946   3.704
 6660TIP3   OH219912   5.086   2.628   4.617
 6660TIP3    H119913   4.993   2.604   4.632
 6660TIP3    H219914   5.119   2.547   4.574
 6661TIP3   OH219915   4.217   2.857   4.374
 6661TIP3    H119916   4.212   2.938   4.320
 6661TIP3    H219917   4.123   2.839   4.389
 6662TIP3   OH219918   3.782   2.156   4.084
 6662TIP3    H119919   3.824   2.242   4.104
 6662TIP3    H219920   3.703   2.160   4.143
 6663TIP3   OH219921   4.347   2.619   4.316
 6663TIP3    H119922   4.314   2.709   4.336
 6663TIP3    H219923   4.313   2.568   4.392
 6664TIP3   OH219924   4.485   3.199   4.842
 6664TIP3    H119925   4.526   3.272   4.792
 6664TIP3    H219926   4.563   3.162   4.888
 6665TIP3   OH219927   4.136   3.094   4.226
 6665TIP3    H119928   4.050   3.104   4.272
 6665TIP3    H219929   4.170   3.186   4.230
 6666TIP3   OH219930   4.869   2.832   4.804
 6666TIP3    H119931   4.858   2.830   4.902
 6666TIP3    H219932   4.950   2.780   4.793
 6667TIP3   OH219933   4.847   2.732   3.687
 6667TIP3    H119934   4.902   2.704   3.764
 6667TIP3    H219935   4.761   2.698   3.715
 6668TIP3   OH219936   5.119   3.365   4.852
 6668TIP3    H119937   5.038   3.309   4.845
 6668TIP3    H219938   5.103   3.429   4.779
 6669TIP3   OH219939   5.185   3.199   3.507
 6669TIP3    H119940   5.220   3.272   3.453
 6669TIP3    H219941   5.106   3.243   3.542
 6670TIP3   OH219942   4.203   1.977   5.369
 6670TIP3    H119943   4.106   1.978   5.379
 6670TIP3    H219944   4.230   1.919   5.442
 6671TIP3   OH219945   5.010   2.654   3.894
 6671TIP3    H119946   4.998   2.593   3.970
 6671TIP3    H219947   5.107   2.653   3.887
 6672TIP3   OH219948   3.922   3.059   5.002
 6672TIP3    H119949   3.978   2.988   5.038
 6672TIP3    H219950   3.951   3.135   5.054
 6673TIP3   OH219951   4.213   2.706   3.686
 6673TIP3    H119952   4.224   2.612   3.661
 6673TIP3    H219953   4.192   2.698   3.781
 6674TIP3   OH219954   4.157   2.712   3.956
 6674TIP3    H119955   4.228   2.685   4.015
 6674TIP3    H219956   4.159   2.810   3.966
 6675TIP3   OH219957   3.890   2.404   4.163
 6675TIP3    H119958   3.823   2.448   4.219
 6675TIP3    H219959   3.902   2.472   4.094
 6676TIP3   OH219960   5.047   2.039   5.053
 6676TIP3    H119961   5.128   2.081   5.089
 6676TIP3    H219962   5.038   1.959   5.109
 6677TIP3   OH219963   4.930   1.788   4.221
 6677TIP3    H119964   4.913   1.811   4.128
 6677TIP3    H219965   4.967   1.871   4.257
 6678TIP3   OH219966   4.424   2.909   3.904
 6678TIP3    H119967   4.337   2.929   3.943
 6678TIP3    H219968   4.439   2.990   3.854
 6679TIP3   OH219969   4.610   1.973   4.321
 6679TIP3    H119970   4.673   2.046   4.306
 6679TIP3    H219971   4.615   1.963   4.419
 6680TIP3   OH219972   4.883   2.288   5.128
 6680TIP3    H119973   4.908   2.340   5.207
 6680TIP3    H219974   4.938   2.208   5.138
 6681TIP3   OH219975   4.757   1.699   4.421
 6681TIP3    H119976   4.752   1.778   4.478
 6681TIP3    H219977   4.820   1.729   4.352
 6682TIP3   OH219978   4.170   2.983   3.976
 6682TIP3    H119979   4.139   3.053   3.915
 6682TIP3    H219980   4.154   3.026   4.064
 6683TIP3   OH219981   4.267   1.698   4.210
 6683TIP3    H119982   4.262   1.787   4.251
 6683TIP3    H219983   4.363   1.682   4.219
 6684TIP3   OH219984   5.522   2.199   5.102
 6684TIP3    H119985   5.429   2.184   5.130
 6684TIP3    H219986   5.527   2.137   5.028
 6685TIP3   OH219987   5.172   2.384   4.496
 6685TIP3    H119988   5.095   2.325   4.511
 6685TIP3    H219989   5.243   2.337   4.545
 6686TIP3   OH219990   3.886   2.608   3.966
 6686TIP3    H119991   3.953   2.677   3.975
 6686TIP3    H219992   3.930   2.551   3.899
 6687TIP3   OH219993   3.827   1.883   4.097
 6687TIP3    H119994   3.821   1.980   4.096
 6687TIP3    H219995   3.753   1.857   4.040
 6688TIP3   OH219996   5.142   3.343   4.446
 6688TIP3    H119997   5.099   3.391   4.371
 6688TIP3    H219998   5.236   3.361   4.425
 6689TIP3   OH219999   3.750   2.821   4.350
 6689TIP3    H120000   3.687   2.854   4.415
 6689TIP3    H220001   3.719   2.867   4.268
 6690TIP3   OH220002   3.915   3.375   5.426
 6690TIP3    H120003   4.002   3.374   5.472
 6690TIP3    H220004   3.894   3.280   5.423
 6691TIP3   OH220005   4.392   3.330   5.470
 6691TIP3    H120006   4.487   3.310   5.475
 6691TIP3    H220007   4.365   3.269   5.398
 6692TIP3   OH220008   4.374   2.906   3.592
 6692TIP3    H120009   4.315   2.839   3.634
 6692TIP3    H220010   4.451   2.850   3.572
 6693TIP3   OH220011   5.031   3.242   5.206
 6693TIP3    H120012   5.024   3.171   5.274
 6693TIP3    H220013   5.110   3.291   5.235
 6694TIP3   OH220014   4.817   2.945   3.516
 6694TIP3    H120015   4.843   2.879   3.584
 6694TIP3    H220016   4.884   2.931   3.448
 6695TIP3   OH220017   4.043   2.776   5.626
 6695TIP3    H120018   4.057   2.680   5.632
 6695TIP3    H220019   3.956   2.780   5.580
 6696TIP3   OH220020   4.022   2.424   3.821
 6696TIP3    H120021   4.078   2.393   3.895
 6696TIP3    H220022   4.090   2.430   3.749
 6697TIP3   OH220023   4.648   2.863   5.400
 6697TIP3    H120024   4.609   2.884   5.313
 6697TIP3    H220025   4.681   2.771   5.388
 6698TIP3   OH220026   4.538   2.628   3.626
 6698TIP3    H120027   4.537   2.638   3.724
 6698TIP3    H220028   4.537   2.530   3.619
 6699TIP3   OH220029   5.142   2.875   5.007
 6699TIP3    H120030   5.219   2.916   4.963
 6699TIP3    H220031   5.074   2.943   4.990
 6700TIP3   OH220032   4.163   2.510   5.611
 6700TIP3    H120033   4.244   2.469   5.578
 6700TIP3    H220034   4.193   2.544   5.698
 6701TIP3   OH220035   4.228   2.332   4.040
 6701TIP3    H120036   4.199   2.292   4.124
 6701TIP3    H220037   4.265   2.255   3.992
 6702TIP3   OH220038   4.496   2.392   5.269
 6702TIP3    H120039   4.420   2.454   5.269
 6702TIP3    H220040   4.550   2.428   5.194
 6703TIP3   OH220041   4.330   2.126   3.880
 6703TIP3    H120042   4.305   2.135   3.786
 6703TIP3    H220043   4.428   2.128   3.873
 6704TIP3   OH220044   5.016   2.797   5.403
 6704TIP3    H120045   5.094   2.765   5.354
 6704TIP3    H220046   5.010   2.732   5.475
 6705TIP3   OH220047   5.149   2.454   3.547
 6705TIP3    H120048   5.129   2.410   3.462
 6705TIP3    H220049   5.115   2.544   3.527
 6706TIP3   OH220050   4.616   2.183   5.396
 6706TIP3    H120051   4.621   2.106   5.336
 6706TIP3    H220052   4.576   2.251   5.338
 6707TIP3   OH220053   4.620   1.971   5.204
 6707TIP3    H120054   4.651   2.011   5.120
 6707TIP3    H220055   4.529   1.943   5.180
 6708TIP3   OH220056   4.647   2.504   5.078
 6708TIP3    H120057   4.733   2.517   5.037
 6708TIP3    H220058   4.591   2.569   5.030
 6709TIP3   OH220059   5.233   2.466   5.462
 6709TIP3    H120060   5.273   2.378   5.469
 6709TIP3    H220061   5.304   2.517   5.422
 6710TIP3   OH220062   5.271   2.727   5.192
 6710TIP3    H120063   5.214   2.781   5.133
 6710TIP3    H220064   5.360   2.747   5.154
 6711TIP3   OH220065   4.498   2.293   5.628
 6711TIP3    H120066   4.430   2.224   5.642
 6711TIP3    H220067   4.532   2.268   5.540
 6712TIP3   OH220068   4.754   1.733   5.274
 6712TIP3    H120069   4.705   1.814   5.248
 6712TIP3    H220070   4.687   1.664   5.258
 6713TIP3   OH220071   4.882   2.236   5.488
 6713TIP3    H120072   4.881   2.222   5.584
 6713TIP3    H220073   4.790   2.210   5.464
 6714TIP3   OH220074   5.131   2.191   5.347
 6714TIP3    H120075   5.064   2.180   5.417
 6714TIP3    H220076   5.203   2.131   5.376
 6715TIP3   OH220077   4.335   2.073   5.683
 6715TIP3    H120078   4.346   1.984   5.645
 6715TIP3    H220079   4.375   2.061   5.772
 6716TIP3   OH220080   4.842   1.735   5.533
 6716TIP3    H120081   4.915   1.671   5.523
 6716TIP3    H220082   4.807   1.735   5.441
 6717TIP3   OH220083   4.908   1.950   5.695
 6717TIP3    H120084   4.890   1.883   5.626
 6717TIP3    H220085   4.834   2.013   5.683
 6718TIP3   OH220086   4.137   3.183   3.786
 6718TIP3    H120087   4.232   3.178   3.768
 6718TIP3    H220088   4.109   3.238   3.711
 6719TIP3   OH220089   3.616   2.568   4.002
 6719TIP3    H120090   3.711   2.588   3.987
 6719TIP3    H220091   3.609   2.479   3.961
 6720TIP3   OH220092   3.530   3.179   4.422
 6720TIP3    H120093   3.465   3.118   4.381
 6720TIP3    H220094   3.575   3.118   4.484
 6721TIP3   OH220095   3.670   3.024   4.602
 6721TIP3    H120096   3.655   2.957   4.671
 6721TIP3    H220097   3.722   3.089   4.653
 6722TIP3   OH220098   5.396   3.431   4.406
 6722TIP3    H120099   5.423   3.464   4.494
 6722TIP3    H220100   5.463   3.470   4.348
 6723TIP3   OH220101   5.422   3.450   4.689
 6723TIP3    H120102   5.378   3.363   4.684
 6723TIP3    H220103   5.499   3.427   4.743
 6724TIP3   OH220104   5.470   3.128   5.260
 6724TIP3    H120105   5.398   3.138   5.326
 6724TIP3    H220106   5.513   3.216   5.264
 6725TIP3   OH220107   5.289   2.639   3.878
 6725TIP3    H120108   5.354   2.706   3.849
 6725TIP3    H220109   5.333   2.603   3.958
 6726TIP3   OH220110   5.415   2.506   4.083
 6726TIP3    H120111   5.348   2.466   4.142
 6726TIP3    H220112   5.479   2.544   4.147
 6727TIP3   OH220113   5.472   2.903   4.515
 6727TIP3    H120114   5.523   2.835   4.468
 6727TIP3    H220115   5.468   2.975   4.449
 6728TIP3   OH220116   5.298   3.201   4.709
 6728TIP3    H120117   5.225   3.243   4.759
 6728TIP3    H220118   5.249   3.155   4.636
 6729TIP3   OH220119   5.352   2.417   3.727
 6729TIP3    H120120   5.280   2.419   3.660
 6729TIP3    H220121   5.324   2.492   3.784
 6730TIP3   OH220122   5.225   2.088   3.679
 6730TIP3    H120123   5.175   2.123   3.604
 6730TIP3    H220124   5.203   1.993   3.673
 6731TIP3   OH220125   5.227   2.367   4.228
 6731TIP3    H120126   5.234   2.271   4.221
 6731TIP3    H220127   5.212   2.380   4.325
 6732TIP3   OH220128   3.852   2.434   4.979
 6732TIP3    H120129   3.850   2.403   4.886
 6732TIP3    H220130   3.950   2.438   4.994
 6733TIP3   OH220131   5.519   2.791   5.087
 6733TIP3    H120132   5.589   2.723   5.076
 6733TIP3    H220133   5.545   2.858   5.022
 6734TIP3   OH220134   5.702   2.590   5.093
 6734TIP3    H120135   5.627   2.542   5.134
 6734TIP3    H220136   5.774   2.526   5.111
 6735TIP3   OH220137   5.166   1.822   3.664
 6735TIP3    H120138   5.237   1.790   3.723
 6735TIP3    H220139   5.090   1.765   3.685
 6736TIP3   OH220140   5.225   2.082   4.121
 6736TIP3    H120141   5.265   1.993   4.136
 6736TIP3    H220142   5.284   2.115   4.050
 6737TIP3   OH220143   5.383   2.251   4.617
 6737TIP3    H120144   5.469   2.276   4.576
 6737TIP3    H220145   5.397   2.289   4.706
 6738TIP3   OH220146   5.455   2.399   4.843
 6738TIP3    H120147   5.380   2.430   4.897
 6738TIP3    H220148   5.488   2.482   4.803
 6739TIP3   OH220149   4.068   2.119   5.646
 6739TIP3    H120150   4.166   2.118   5.652
 6739TIP3    H220151   4.047   2.034   5.688
 6740TIP3   OH220152   5.945   2.017   5.404
 6740TIP3    H120153   5.972   1.933   5.363
 6740TIP3    H220154   5.881   2.049   5.337
 6741TIP3   OH220155   5.334   1.832   4.159
 6741TIP3    H120156   5.381   1.817   4.243
 6741TIP3    H220157   5.272   1.756   4.159
 6742TIP3   OH220158   4.032   1.813   4.984
 6742TIP3    H120159   4.084   1.732   4.978
 6742TIP3    H220160   4.099   1.883   4.973
 6743TIP3   OH220161   3.834   2.090   5.053
 6743TIP3    H120162   3.883   2.084   4.969
 6743TIP3    H220163   3.861   2.177   5.084
 6744TIP3   OH220164   5.773   2.126   5.214
 6744TIP3    H120165   5.686   2.166   5.237
 6744TIP3    H220166   5.742   2.051   5.160
 6745TIP3   OH220167   5.411   1.763   3.795
 6745TIP3    H120168   5.450   1.693   3.739
 6745TIP3    H220169   5.479   1.834   3.792
 6746TIP3   OH220170   3.814   1.592   4.551
 6746TIP3    H120171   3.723   1.589   4.578
 6746TIP3    H220172   3.811   1.653   4.473
 6747TIP3   OH220173   4.982   3.297   4.061
 6747TIP3    H120174   5.032   3.288   3.977
 6747TIP3    H220175   5.031   3.367   4.106
 6748TIP3   OH220176   4.041   1.669   5.366
 6748TIP3    H120177   3.990   1.673   5.449
 6748TIP3    H220178   3.978   1.709   5.304
 6749TIP3   OH220179   4.079   3.105   5.445
 6749TIP3    H120180   3.986   3.080   5.428
 6749TIP3    H220181   4.089   3.084   5.538
 6750TIP3   OH220182   4.260   3.139   4.993
 6750TIP3    H120183   4.212   3.214   4.953
 6750TIP3    H220184   4.345   3.152   4.948
 6751TIP3   OH220185   4.699   3.379   5.131
 6751TIP3    H120186   4.742   3.378   5.219
 6751TIP3    H220187   4.765   3.430   5.080
 6752TIP3   OH220188   4.880   3.533   4.993
 6752TIP3    H120189   4.948   3.482   4.948
 6752TIP3    H220190   4.935   3.588   5.054
 6753TIP3   OH220191   5.677   1.903   5.064
 6753TIP3    H120192   5.583   1.891   5.046
 6753TIP3    H220193   5.706   1.811   5.078
 6754TIP3   OH220194   3.932   3.387   5.020
 6754TIP3    H120195   3.844   3.422   4.993
 6754TIP3    H220196   3.943   3.435   5.104
 6755TIP3   OH220197   4.170   3.370   4.876
 6755TIP3    H120198   4.082   3.384   4.918
 6755TIP3    H220199   4.153   3.404   4.786
 6756TIP3   OH220200   4.596   3.399   4.674
 6756TIP3    H120201   4.526   3.411   4.607
 6756TIP3    H220202   4.605   3.490   4.709
 6757TIP3   OH220203   4.864   3.337   4.728
 6757TIP3    H120204   4.770   3.354   4.707
 6757TIP3    H220205   4.908   3.409   4.679
 6758TIP3   OH220206   5.072   3.529   4.637
 6758TIP3    H120207   5.057   3.612   4.587
 6758TIP3    H220208   5.098   3.467   4.566
 6759TIP3   OH220209   3.842   3.182   4.761
 6759TIP3    H120210   3.870   3.156   4.851
 6759TIP3    H220211   3.916   3.142   4.709
 6760TIP3   OH220212   4.039   3.057   4.621
 6760TIP3    H120213   4.056   2.974   4.672
 6760TIP3    H220214   4.130   3.094   4.616
 6761TIP3   OH220215   4.305   3.146   4.626
 6761TIP3    H120216   4.337   3.055   4.617
 6761TIP3    H220217   4.353   3.173   4.707
 6762TIP3   OH220218   4.878   1.806   4.711
 6762TIP3    H120219   4.837   1.736   4.764
 6762TIP3    H220220   4.953   1.759   4.669
 6763TIP3   OH220221   5.401   1.682   4.609
 6763TIP3    H120222   5.437   1.738   4.537
 6763TIP3    H220223   5.307   1.706   4.608
 6764TIP3   OH220224   5.498   1.787   4.376
 6764TIP3    H120225   5.573   1.736   4.338
 6764TIP3    H220226   5.531   1.879   4.362
 6765TIP3   OH220227   3.931   1.383   4.369
 6765TIP3    H120228   3.950   1.457   4.291
 6765TIP3    H220229   3.892   1.456   4.437
 6766TIP3   OH220230   4.600   1.528   4.588
 6766TIP3    H120231   4.649   1.604   4.553
 6766TIP3    H220232   4.542   1.567   4.656
 6767TIP3   OH220233   5.117   1.697   4.589
 6767TIP3    H120234   5.116   1.656   4.501
 6767TIP3    H220235   5.105   1.618   4.647
 6768TIP3   OH220236   5.150   1.620   4.152
 6768TIP3    H120237   5.065   1.665   4.171
 6768TIP3    H220238   5.135   1.534   4.197
 6769TIP3   OH220239   3.633   2.962   4.151
 6769TIP3    H120240   3.547   2.929   4.119
 6769TIP3    H220241   3.625   3.056   4.128
 6770TIP3   OH220242   4.039   1.532   4.140
 6770TIP3    H120243   4.089   1.475   4.083
 6770TIP3    H220244   4.106   1.594   4.174
 6771TIP3   OH220245   4.545   1.721   4.236
 6771TIP3    H120246   4.602   1.674   4.299
 6771TIP3    H220247   4.568   1.813   4.261
 6772TIP3   OH220248   4.403   3.140   3.735
 6772TIP3    H120249   4.493   3.162   3.702
 6772TIP3    H220250   4.382   3.066   3.675
 6773TIP3   OH220251   5.124   3.265   3.827
 6773TIP3    H120252   5.116   3.167   3.817
 6773TIP3    H220253   5.077   3.295   3.747
 6774TIP3   OH220254   4.341   1.798   5.607
 6774TIP3    H120255   4.305   1.734   5.668
 6774TIP3    H220256   4.436   1.797   5.633
 6775TIP3   OH220257   4.589   1.793   5.732
 6775TIP3    H120258   4.674   1.783   5.686
 6775TIP3    H220259   4.592   1.718   5.794
 6776TIP3   OH220260   3.708   2.981   3.788
 6776TIP3    H120261   3.709   3.005   3.882
 6776TIP3    H220262   3.796   2.939   3.775
 6777TIP3   OH220263   5.348   3.408   5.015
 6777TIP3    H120264   5.270   3.378   4.963
 6777TIP3    H220265   5.329   3.504   5.020
 6778TIP3   OH220266   6.617   2.780   3.777
 6778TIP3    H120267   6.590   2.872   3.757
 6778TIP3    H220268   6.536   2.732   3.754
 6779TIP3   OH220269   6.619   2.777   4.164
 6779TIP3    H120270   6.654   2.760   4.254
 6779TIP3    H220271   6.574   2.694   4.143
 6780TIP3   OH220272   5.914   2.673   4.526
 6780TIP3    H120273   5.943   2.603   4.588
 6780TIP3    H220274   5.990   2.733   4.532
 6781TIP3   OH220275   6.862   3.082   3.847
 6781TIP3    H120276   6.845   3.019   3.918
 6781TIP3    H220277   6.891   3.161   3.897
 6782TIP3   OH220278   5.887   3.086   4.248
 6782TIP3    H120279   5.880   2.988   4.250
 6782TIP3    H220280   5.984   3.096   4.245
 6783TIP3   OH220281   5.596   2.287   4.030
 6783TIP3    H120282   5.548   2.369   4.052
 6783TIP3    H220283   5.523   2.235   3.992
 6784TIP3   OH220284   5.650   2.575   4.212
 6784TIP3    H120285   5.700   2.497   4.246
 6784TIP3    H220286   5.713   2.614   4.151
 6785TIP3   OH220287   6.509   3.547   3.856
 6785TIP3    H120288   6.554   3.473   3.811
 6785TIP3    H220289   6.496   3.512   3.945
 6786TIP3   OH220290   6.414   3.007   4.210
 6786TIP3    H120291   6.457   2.931   4.166
 6786TIP3    H220292   6.496   3.055   4.237
 6787TIP3   OH220293   7.429   2.324   4.206
 6787TIP3    H120294   7.454   2.406   4.253
 6787TIP3    H220295   7.450   2.348   4.114
 6788TIP3   OH220296   6.830   2.507   4.240
 6788TIP3    H120297   6.870   2.421   4.262
 6788TIP3    H220298   6.796   2.489   4.150
 6789TIP3   OH220299   6.170   2.167   4.204
 6789TIP3    H120300   6.147   2.240   4.143
 6789TIP3    H220301   6.120   2.094   4.163
 6790TIP3   OH220302   6.865   2.258   3.828
 6790TIP3    H120303   6.934   2.243   3.896
 6790TIP3    H220304   6.919   2.295   3.756
 6791TIP3   OH220305   5.800   2.370   4.313
 6791TIP3    H120306   5.882   2.351   4.363
 6791TIP3    H220307   5.814   2.312   4.235
 6792TIP3   OH220308   6.240   2.566   4.106
 6792TIP3    H120309   6.333   2.541   4.121
 6792TIP3    H220310   6.201   2.481   4.076
 6793TIP3   OH220311   7.500   2.532   4.373
 6793TIP3    H120312   7.415   2.578   4.359
 6793TIP3    H220313   7.526   2.568   4.459
 6794TIP3   OH220314   6.162   2.150   4.642
 6794TIP3    H120315   6.101   2.188   4.576
 6794TIP3    H220316   6.110   2.166   4.724
 6795TIP3   OH220317   6.506   3.002   3.647
 6795TIP3    H120318   6.463   2.994   3.560
 6795TIP3    H220319   6.464   3.085   3.679
 6796TIP3   OH220320   6.268   2.927   4.434
 6796TIP3    H120321   6.208   2.995   4.471
 6796TIP3    H220322   6.310   2.976   4.360
 6797TIP3   OH220323   7.067   2.263   4.007
 6797TIP3    H120324   7.041   2.226   4.093
 6797TIP3    H220325   7.117   2.342   4.034
 6798TIP3   OH220326   6.034   2.266   4.424
 6798TIP3    H120327   6.096   2.338   4.450
 6798TIP3    H220328   6.085   2.226   4.351
 6799TIP3   OH220329   6.097   3.123   4.533
 6799TIP3    H120330   6.073   3.211   4.498
 6799TIP3    H220331   6.018   3.106   4.588
 6800TIP3   OH220332   5.489   2.811   3.769
 6800TIP3    H120333   5.446   2.842   3.688
 6800TIP3    H220334   5.521   2.896   3.808
 6801TIP3   OH220335   6.929   3.327   4.006
 6801TIP3    H120336   6.841   3.318   4.048
 6801TIP3    H220337   6.921   3.415   3.963
 6802TIP3   OH220338   7.226   2.223   4.373
 6802TIP3    H120339   7.139   2.253   4.342
 6802TIP3    H220340   7.286   2.255   4.302
 6803TIP3   OH220341   6.515   1.867   4.359
 6803TIP3    H120342   6.498   1.773   4.377
 6803TIP3    H220343   6.438   1.908   4.406
 6804TIP3   OH220344   6.632   3.369   3.681
 6804TIP3    H120345   6.683   3.287   3.661
 6804TIP3    H220346   6.694   3.436   3.644
 6805TIP3   OH220347   6.777   3.152   3.595
 6805TIP3    H120348   6.730   3.075   3.563
 6805TIP3    H220349   6.814   3.120   3.679
 6806TIP3   OH220350   7.154   3.237   4.354
 6806TIP3    H120351   7.141   3.161   4.294
 6806TIP3    H220352   7.135   3.313   4.294
 6807TIP3   OH220353   6.445   2.623   3.610
 6807TIP3    H120354   6.371   2.684   3.590
 6807TIP3    H220355   6.494   2.622   3.525
 6808TIP3   OH220356   7.351   2.877   4.200
 6808TIP3    H120357   7.266   2.927   4.205
 6808TIP3    H220358   7.381   2.904   4.110
 6809TIP3   OH220359   6.800   2.718   3.584
 6809TIP3    H120360   6.743   2.740   3.662
 6809TIP3    H220361   6.884   2.695   3.629
 6810TIP3   OH220362   7.029   2.752   4.499
 6810TIP3    H120363   7.028   2.835   4.552
 6810TIP3    H220364   6.942   2.760   4.455
 6811TIP3   OH220365   6.028   2.710   4.000
 6811TIP3    H120366   5.991   2.652   3.930
 6811TIP3    H220367   6.105   2.658   4.031
 6812TIP3   OH220368   6.158   3.122   4.149
 6812TIP3    H120369   6.139   3.088   4.061
 6812TIP3    H220370   6.247   3.087   4.167
 6813TIP3   OH220371   6.166   2.683   4.354
 6813TIP3    H120372   6.199   2.662   4.264
 6813TIP3    H220373   6.207   2.770   4.373
 6814TIP3   OH220374   6.692   3.321   4.133
 6814TIP3    H120375   6.676   3.403   4.182
 6814TIP3    H220376   6.672   3.251   4.198
 6815TIP3   OH220377   6.303   3.239   4.679
 6815TIP3    H120378   6.242   3.301   4.725
 6815TIP3    H220379   6.239   3.187   4.628
 6816TIP3   OH220380   6.645   2.572   3.412
 6816TIP3    H120381   6.701   2.637   3.461
 6816TIP3    H220382   6.668   2.595   3.319
 6817TIP3   OH220383   6.056   2.794   4.781
 6817TIP3    H120384   6.062   2.882   4.823
 6817TIP3    H220385   5.962   2.773   4.799
 6818TIP3   OH220386   6.382   3.249   3.683
 6818TIP3    H120387   6.463   3.302   3.694
 6818TIP3    H220388   6.320   3.313   3.648
 6819TIP3   OH220389   6.096   3.405   4.766
 6819TIP3    H120390   6.060   3.410   4.676
 6819TIP3    H220391   6.015   3.384   4.819
 6820TIP3   OH220392   7.150   1.811   3.460
 6820TIP3    H120393   7.068   1.833   3.508
 6820TIP3    H220394   7.166   1.895   3.411
 6821TIP3   OH220395   5.900   2.556   3.787
 6821TIP3    H120396   5.823   2.599   3.744
 6821TIP3    H220397   5.861   2.474   3.820
 6822TIP3   OH220398   6.949   3.180   3.006
 6822TIP3    H120399   6.956   3.277   2.994
 6822TIP3    H220400   7.043   3.153   2.995
 6823TIP3   OH220401   5.674   2.939   4.713
 6823TIP3    H120402   5.606   2.918   4.646
 6823TIP3    H220403   5.711   2.851   4.734
 6824TIP3   OH220404   5.529   3.133   4.343
 6824TIP3    H120405   5.625   3.128   4.336
 6824TIP3    H220406   5.518   3.211   4.400
 6825TIP3   OH220407   7.394   3.587   4.402
 6825TIP3    H120408   7.393   3.491   4.421
 6825TIP3    H220409   7.311   3.613   4.448
 6826TIP3   OH220410   6.499   3.368   4.537
 6826TIP3    H120411   6.496   3.460   4.569
 6826TIP3    H220412   6.427   3.327   4.590
 6827TIP3   OH220413   6.264   3.503   3.487
 6827TIP3    H120414   6.215   3.488   3.405
 6827TIP3    H220415   6.220   3.582   3.523
 6828TIP3   OH220416   5.700   3.343   3.873
 6828TIP3    H120417   5.749   3.338   3.958
 6828TIP3    H220418   5.641   3.267   3.881
 6829TIP3   OH220419   6.459   3.402   3.124
 6829TIP3    H120420   6.517   3.332   3.086
 6829TIP3    H220421   6.495   3.412   3.214
 6830TIP3   OH220422   6.513   3.446   3.395
 6830TIP3    H120423   6.425   3.458   3.436
 6830TIP3    H220424   6.565   3.414   3.471
 6831TIP3   OH220425   7.285   2.713   4.677
 6831TIP3    H120426   7.198   2.725   4.635
 6831TIP3    H220427   7.298   2.616   4.668
 6832TIP3   OH220428   5.878   3.122   4.697
 6832TIP3    H120429   5.927   3.106   4.780
 6832TIP3    H220430   5.804   3.059   4.706
 6833TIP3   OH220431   6.279   1.946   4.487
 6833TIP3    H120432   6.190   1.915   4.458
 6833TIP3    H220433   6.251   2.026   4.537
 6834TIP3   OH220434   6.813   2.058   4.681
 6834TIP3    H120435   6.882   2.032   4.746
 6834TIP3    H220436   6.730   2.041   4.729
 6835TIP3   OH220437   7.049   2.491   4.599
 6835TIP3    H120438   6.998   2.487   4.683
 6835TIP3    H220439   7.026   2.579   4.564
 6836TIP3   OH220440   6.703   2.613   3.151
 6836TIP3    H120441   6.676   2.591   3.060
 6836TIP3    H220442   6.786   2.662   3.133
 6837TIP3   OH220443   6.211   2.462   4.505
 6837TIP3    H120444   6.160   2.482   4.586
 6837TIP3    H220445   6.195   2.544   4.452
 6838TIP3   OH220446   6.092   2.348   4.018
 6838TIP3    H120447   6.001   2.321   4.040
 6838TIP3    H220448   6.102   2.305   3.930
 6839TIP3   OH220449   6.587   2.431   3.745
 6839TIP3    H120450   6.534   2.503   3.704
 6839TIP3    H220451   6.643   2.403   3.670
 6840TIP3   OH220452   6.759   2.707   4.828
 6840TIP3    H120453   6.737   2.636   4.892
 6840TIP3    H220454   6.851   2.726   4.852
 6841TIP3   OH220455   6.741   2.458   3.985
 6841TIP3    H120456   6.679   2.490   3.917
 6841TIP3    H220457   6.774   2.379   3.938
 6842TIP3   OH220458   6.030   2.488   4.712
 6842TIP3    H120459   6.055   2.552   4.779
 6842TIP3    H220460   6.017   2.407   4.764
 6843TIP3   OH220461   6.103   1.992   3.417
 6843TIP3    H120462   6.084   1.976   3.511
 6843TIP3    H220463   6.016   2.022   3.385
 6844TIP3   OH220464   5.623   2.010   4.291
 6844TIP3    H120465   5.696   2.043   4.348
 6844TIP3    H220466   5.668   1.979   4.212
 6845TIP3   OH220467   5.589   1.992   3.811
 6845TIP3    H120468   5.636   2.029   3.734
 6845TIP3    H220469   5.528   2.066   3.830
 6846TIP3   OH220470   6.749   2.705   4.404
 6846TIP3    H120471   6.784   2.634   4.346
 6846TIP3    H220472   6.719   2.651   4.480
 6847TIP3   OH220473   6.424   2.166   4.075
 6847TIP3    H120474   6.342   2.167   4.128
 6847TIP3    H220475   6.492   2.166   4.144
 6848TIP3   OH220476   5.856   2.227   4.084
 6848TIP3    H120477   5.761   2.235   4.057
 6848TIP3    H220478   5.876   2.133   4.065
 6849TIP3   OH220479   6.118   2.220   3.776
 6849TIP3    H120480   6.213   2.232   3.759
 6849TIP3    H220481   6.075   2.248   3.692
 6850TIP3   OH220482   6.913   2.243   4.275
 6850TIP3    H120483   6.887   2.257   4.370
 6850TIP3    H220484   6.841   2.184   4.247
 6851TIP3   OH220485   5.980   2.276   3.541
 6851TIP3    H120486   5.896   2.228   3.529
 6851TIP3    H220487   6.026   2.252   3.460
 6852TIP3   OH220488   7.087   3.934   4.503
 6852TIP3    H120489   7.084   3.960   4.409
 6852TIP3    H220490   7.166   3.981   4.534
 6853TIP3   OH220491   6.042   3.044   4.920
 6853TIP3    H120492   6.122   3.073   4.969
 6853TIP3    H220493   5.977   3.042   4.993
 6854TIP3   OH220494   6.502   2.498   4.178
 6854TIP3    H120495   6.579   2.459   4.134
 6854TIP3    H220496   6.505   2.457   4.266
 6855TIP3   OH220497   6.024   1.983   4.059
 6855TIP3    H120498   5.985   1.909   4.110
 6855TIP3    H220499   6.073   1.937   3.990
 6856TIP3   OH220500   6.481   2.402   4.461
 6856TIP3    H120501   6.390   2.434   4.479
 6856TIP3    H220502   6.537   2.461   4.514
 6857TIP3   OH220503   6.219   2.781   3.560
 6857TIP3    H120504   6.149   2.713   3.552
 6857TIP3    H220505   6.199   2.818   3.650
 6858TIP3   OH220506   7.117   3.019   4.187
 6858TIP3    H120507   7.139   3.073   4.108
 6858TIP3    H220508   7.031   2.978   4.161
 6859TIP3   OH220509   6.646   2.100   3.424
 6859TIP3    H120510   6.584   2.100   3.498
 6859TIP3    H220511   6.691   2.186   3.438
 6860TIP3   OH220512   6.613   3.103   4.560
 6860TIP3    H120513   6.648   3.088   4.648
 6860TIP3    H220514   6.578   3.193   4.565
 6861TIP3   OH220515   6.748   2.337   3.517
 6861TIP3    H120516   6.842   2.354   3.540
 6861TIP3    H220517   6.722   2.421   3.474
 6862TIP3   OH220518   5.910   2.807   4.235
 6862TIP3    H120519   5.950   2.777   4.151
 6862TIP3    H220520   5.953   2.750   4.301
 6863TIP3   OH220521   6.358   2.932   3.379
 6863TIP3    H120522   6.311   3.019   3.382
 6863TIP3    H220523   6.307   2.881   3.445
 6864TIP3   OH220524   5.794   2.725   4.850
 6864TIP3    H120525   5.809   2.712   4.946
 6864TIP3    H220526   5.723   2.660   4.833
 6865TIP3   OH220527   6.519   2.844   4.869
 6865TIP3    H120528   6.457   2.782   4.827
 6865TIP3    H220529   6.605   2.808   4.839
 6866TIP3   OH220530   6.775   3.360   4.457
 6866TIP3    H120531   6.679   3.362   4.471
 6866TIP3    H220532   6.805   3.413   4.534
 6867TIP3   OH220533   7.183   2.439   3.364
 6867TIP3    H120534   7.122   2.396   3.300
 6867TIP3    H220535   7.181   2.529   3.325
 6868TIP3   OH220536   7.405   3.293   4.444
 6868TIP3    H120537   7.307   3.289   4.435
 6868TIP3    H220538   7.430   3.264   4.353
 6869TIP3   OH220539   6.887   3.257   3.271
 6869TIP3    H120540   6.860   3.189   3.334
 6869TIP3    H220541   6.901   3.208   3.188
 6870TIP3   OH220542   6.882   2.885   4.103
 6870TIP3    H120543   6.789   2.861   4.119
 6870TIP3    H220544   6.914   2.804   4.059
 6871TIP3   OH220545   6.012   3.111   3.857
 6871TIP3    H120546   6.009   3.194   3.805
 6871TIP3    H220547   5.919   3.100   3.879
 6872TIP3   OH220548   5.577   2.416   3.570
 6872TIP3    H120549   5.619   2.502   3.591
 6872TIP3    H220550   5.499   2.418   3.629
 6873TIP3   OH220551   6.142   2.874   3.800
 6873TIP3    H120552   6.109   2.964   3.819
 6873TIP3    H220553   6.109   2.826   3.879
 6874TIP3   OH220554   6.281   3.455   4.329
 6874TIP3    H120555   6.322   3.529   4.278
 6874TIP3    H220556   6.358   3.421   4.376
 6875TIP3   OH220557   5.933   3.351   3.712
 6875TIP3    H120558   5.847   3.362   3.758
 6875TIP3    H220559   5.966   3.443   3.715
 6876TIP3   OH220560   6.664   3.086   4.292
 6876TIP3    H120561   6.652   3.087   4.390
 6876TIP3    H220562   6.749   3.040   4.284
 6877TIP3   OH220563   6.646   2.978   3.174
 6877TIP3    H120564   6.699   2.953   3.252
 6877TIP3    H220565   6.556   2.961   3.206
 6878TIP3   OH220566   6.915   3.619   4.337
 6878TIP3    H120567   6.834   3.566   4.330
 6878TIP3    H220568   6.900   3.685   4.265
 6879TIP3   OH220569   6.979   3.455   2.997
 6879TIP3    H120570   7.008   3.519   2.929
 6879TIP3    H220571   6.901   3.505   3.029
 6880TIP3   OH220572   6.000   2.232   4.855
 6880TIP3    H120573   5.903   2.237   4.869
 6880TIP3    H220574   6.027   2.177   4.931
 6881TIP3   OH220575   6.806   2.909   3.385
 6881TIP3    H120576   6.798   2.849   3.462
 6881TIP3    H220577   6.904   2.910   3.375
 6882TIP3   OH220578   5.718   3.315   4.489
 6882TIP3    H120579   5.774   3.246   4.529
 6882TIP3    H220580   5.744   3.392   4.540
 6883TIP3   OH220581   6.012   2.962   3.172
 6883TIP3    H120582   6.020   2.868   3.149
 6883TIP3    H220583   5.991   2.956   3.268
 6884TIP3   OH220584   5.956   2.967   3.443
 6884TIP3    H120585   6.025   2.947   3.508
 6884TIP3    H220586   5.954   3.066   3.449
 6885TIP3   OH220587   5.686   2.663   3.649
 6885TIP3    H120588   5.619   2.706   3.707
 6885TIP3    H220589   5.695   2.732   3.580
 6886TIP3   OH220590   6.848   2.290   4.536
 6886TIP3    H120591   6.920   2.335   4.583
 6886TIP3    H220592   6.831   2.212   4.593
 6887TIP3   OH220593   6.727   2.052   3.711
 6887TIP3    H120594   6.736   2.084   3.620
 6887TIP3    H220595   6.767   2.127   3.761
 6888TIP3   OH220596   6.220   3.164   3.390
 6888TIP3    H120597   6.133   3.187   3.428
 6888TIP3    H220598   6.238   3.245   3.339
 6889TIP3   OH220599   6.405   2.230   3.805
 6889TIP3    H120600   6.469   2.303   3.792
 6889TIP3    H220601   6.410   2.218   3.903
 6890TIP3   OH220602   6.680   2.545   4.614
 6890TIP3    H120603   6.700   2.602   4.691
 6890TIP3    H220604   6.731   2.466   4.634
 6891TIP3   OH220605   6.551   1.951   3.910
 6891TIP3    H120606   6.541   2.027   3.969
 6891TIP3    H220607   6.612   1.987   3.842
 6892TIP3   OH220608   5.965   3.238   3.462
 6892TIP3    H120609   5.935   3.309   3.400
 6892TIP3    H220610   5.950   3.281   3.549
 6893TIP3   OH220611   6.062   1.956   3.691
 6893TIP3    H120612   6.060   2.041   3.739
 6893TIP3    H220613   6.157   1.934   3.702
 6894TIP3   OH220614   7.315   2.445   4.597
 6894TIP3    H120615   7.217   2.444   4.606
 6894TIP3    H220616   7.325   2.407   4.509
 6895TIP3   OH220617   6.969   2.639   3.984
 6895TIP3    H120618   6.892   2.582   4.000
 6895TIP3    H220619   7.040   2.593   4.033
 6896TIP3   OH220620   5.680   2.865   3.455
 6896TIP3    H120621   5.743   2.939   3.464
 6896TIP3    H220622   5.726   2.814   3.385
 6897TIP3   OH220623   5.629   2.147   3.586
 6897TIP3    H120624   5.623   2.245   3.586
 6897TIP3    H220625   5.546   2.122   3.544
 6898TIP3   OH220626   6.939   3.596   3.933
 6898TIP3    H120627   6.896   3.645   3.858
 6898TIP3    H220628   7.033   3.614   3.911
 6899TIP3   OH220629   6.015   1.865   4.457
 6899TIP3    H120630   5.983   1.829   4.372
 6899TIP3    H220631   6.004   1.788   4.517
 6900TIP3   OH220632   5.544   3.073   3.836
 6900TIP3    H120633   5.486   3.109   3.904
 6900TIP3    H220634   5.513   3.122   3.756
 6901TIP3   OH220635   5.711   3.631   4.914
 6901TIP3    H120636   5.798   3.632   4.960
 6901TIP3    H220637   5.693   3.536   4.911
 6902TIP3   OH220638   6.186   3.586   4.958
 6902TIP3    H120639   6.282   3.571   4.963
 6902TIP3    H220640   6.162   3.525   4.886
 6903TIP3   OH220641   6.170   3.167   3.078
 6903TIP3    H120642   6.118   3.094   3.118
 6903TIP3    H220643   6.247   3.118   3.044
 6904TIP3   OH220644   6.831   3.496   4.690
 6904TIP3    H120645   6.822   3.427   4.760
 6904TIP3    H220646   6.907   3.547   4.721
 6905TIP3   OH220647   6.605   3.204   2.995
 6905TIP3    H120648   6.656   3.147   3.055
 6905TIP3    H220649   6.661   3.206   2.915
 6906TIP3   OH220650   5.839   3.034   5.112
 6906TIP3    H120651   5.855   2.938   5.120
 6906TIP3    H220652   5.753   3.036   5.066
 6907TIP3   OH220653   5.817   2.683   3.305
 6907TIP3    H120654   5.871   2.656   3.380
 6907TIP3    H220655   5.885   2.688   3.235
 6908TIP3   OH220656   6.446   3.120   4.887
 6908TIP3    H120657   6.405   3.141   4.800
 6908TIP3    H220658   6.477   3.028   4.875
 6909TIP3   OH220659   6.334   2.872   3.113
 6909TIP3    H120660   6.336   2.892   3.209
 6909TIP3    H220661   6.314   2.777   3.114
 6910TIP3   OH220662   6.937   3.130   4.492
 6910TIP3    H120663   7.014   3.173   4.450
 6910TIP3    H220664   6.869   3.199   4.478
 6911TIP3   OH220665   5.961   2.772   5.095
 6911TIP3    H120666   6.034   2.714   5.072
 6911TIP3    H220667   5.989   2.804   5.184
 6912TIP3   OH220668   6.030   2.565   3.535
 6912TIP3    H120669   5.992   2.573   3.625
 6912TIP3    H220670   6.023   2.469   3.524
 6913TIP3   OH220671   6.295   2.652   4.757
 6913TIP3    H120672   6.216   2.710   4.756
 6913TIP3    H220673   6.346   2.686   4.679
 6914TIP3   OH220674   6.183   2.338   3.327
 6914TIP3    H120675   6.123   2.351   3.250
 6914TIP3    H220676   6.186   2.430   3.361
 6915TIP3   OH220677   6.810   3.053   4.890
 6915TIP3    H120678   6.893   3.027   4.848
 6915TIP3    H220679   6.804   2.990   4.964
 6916TIP3   OH220680   6.943   2.707   3.037
 6916TIP3    H120681   6.925   2.667   2.950
 6916TIP3    H220682   6.912   2.799   3.018
 6917TIP3   OH220683   6.420   2.442   4.879
 6917TIP3    H120684   6.418   2.363   4.822
 6917TIP3    H220685   6.374   2.509   4.824
 6918TIP3   OH220686   6.421   2.227   4.689
 6918TIP3    H120687   6.447   2.269   4.604
 6918TIP3    H220688   6.327   2.205   4.671
 6919TIP3   OH220689   6.443   2.759   4.560
 6919TIP3    H120690   6.530   2.779   4.522
 6919TIP3    H220691   6.386   2.825   4.516
 6920TIP3   OH220692   7.023   2.727   4.940
 6920TIP3    H120693   7.076   2.649   4.960
 6920TIP3    H220694   7.090   2.791   4.912
 6921TIP3   OH220695   7.069   2.979   4.673
 6921TIP3    H120696   7.010   3.035   4.617
 6921TIP3    H220697   7.156   3.004   4.636
 6922TIP3   OH220698   6.297   2.546   5.115
 6922TIP3    H120699   6.229   2.478   5.131
 6922TIP3    H220700   6.329   2.521   5.026
 6923TIP3   OH220701   6.551   1.987   4.758
 6923TIP3    H120702   6.501   2.069   4.736
 6923TIP3    H220703   6.482   1.919   4.749
 6924TIP3   OH220704   6.680   2.490   4.974
 6924TIP3    H120705   6.665   2.476   5.069
 6924TIP3    H220706   6.590   2.468   4.941
 6925TIP3   OH220707   6.913   2.436   4.825
 6925TIP3    H120708   6.840   2.443   4.890
 6925TIP3    H220709   6.989   2.411   4.882
 6926TIP3   OH220710   7.147   2.384   4.975
 6926TIP3    H120711   7.158   2.289   4.993
 6926TIP3    H220712   7.140   2.423   5.065
 6927TIP3   OH220713   6.136   2.327   5.168
 6927TIP3    H120714   6.137   2.235   5.136
 6927TIP3    H220715   6.172   2.316   5.258
 6928TIP3   OH220716   6.647   1.999   5.016
 6928TIP3    H120717   6.711   1.926   5.009
 6928TIP3    H220718   6.605   1.994   4.927
 6929TIP3   OH220719   6.713   2.214   5.175
 6929TIP3    H120720   6.691   2.143   5.111
 6929TIP3    H220721   6.634   2.272   5.169
 6930TIP3   OH220722   5.933   3.437   3.268
 6930TIP3    H120723   6.029   3.433   3.255
 6930TIP3    H220724   5.909   3.497   3.195
 6931TIP3   OH220725   5.411   2.826   3.486
 6931TIP3    H120726   5.506   2.847   3.474
 6931TIP3    H220727   5.406   2.736   3.446
 6932TIP3   OH220728   5.330   3.433   3.906
 6932TIP3    H120729   5.264   3.373   3.866
 6932TIP3    H220730   5.374   3.373   3.969
 6933TIP3   OH220731   5.468   3.278   4.089
 6933TIP3    H120732   5.453   3.213   4.159
 6933TIP3    H220733   5.519   3.345   4.139
 6934TIP3   OH220734   7.196   3.679   3.894
 6934TIP3    H120735   7.218   3.715   3.982
 6934TIP3    H220736   7.251   3.733   3.835
 6935TIP3   OH220737   7.220   3.707   4.175
 6935TIP3    H120738   7.174   3.620   4.170
 6935TIP3    H220739   7.292   3.683   4.235
 6936TIP3   OH220740   7.265   3.385   4.745
 6936TIP3    H120741   7.196   3.394   4.814
 6936TIP3    H220742   7.309   3.472   4.751
 6937TIP3   OH220743   7.084   2.895   3.365
 6937TIP3    H120744   7.148   2.963   3.334
 6937TIP3    H220745   7.130   2.860   3.444
 6938TIP3   OH220746   7.213   2.763   3.570
 6938TIP3    H120747   7.144   2.723   3.629
 6938TIP3    H220748   7.276   2.802   3.634
 6939TIP3   OH220749   7.269   3.160   4.003
 6939TIP3    H120750   7.319   3.093   3.952
 6939TIP3    H220751   7.264   3.234   3.940
 6940TIP3   OH220752   7.094   3.458   4.195
 6940TIP3    H120753   7.023   3.501   4.246
 6940TIP3    H220754   7.043   3.414   4.123
 6941TIP3   OH220755   7.149   2.672   3.214
 6941TIP3    H120756   7.077   2.674   3.147
 6941TIP3    H220757   7.121   2.748   3.270
 6942TIP3   OH220758   7.020   2.345   3.169
 6942TIP3    H120759   6.974   2.385   3.094
 6942TIP3    H220760   6.994   2.251   3.158
 6943TIP3   OH220761   7.025   2.624   3.716
 6943TIP3    H120762   7.033   2.528   3.710
 6943TIP3    H220763   7.009   2.638   3.813
 6944TIP3   OH220764   5.649   2.695   4.464
 6944TIP3    H120765   5.646   2.662   4.372
 6944TIP3    H220766   5.746   2.696   4.479
 6945TIP3   OH220767   7.315   3.049   4.574
 6945TIP3    H120768   7.387   2.983   4.561
 6945TIP3    H220769   7.341   3.120   4.513
 6946TIP3   OH220770   7.497   2.847   4.574
 6946TIP3    H120771   7.423   2.801   4.619
 6946TIP3    H220772   7.570   2.785   4.595
 6947TIP3   OH220773   6.961   2.079   3.157
 6947TIP3    H120774   7.039   2.050   3.208
 6947TIP3    H220775   6.895   2.011   3.176
 6948TIP3   OH220776   7.021   2.339   3.608
 6948TIP3    H120777   7.062   2.250   3.622
 6948TIP3    H220778   7.079   2.374   3.538
 6949TIP3   OH220779   7.181   2.507   4.105
 6949TIP3    H120780   7.267   2.531   4.065
 6949TIP3    H220781   7.193   2.547   4.194
 6950TIP3   OH220782   7.250   2.655   4.334
 6950TIP3    H120783   7.174   2.689   4.385
 6950TIP3    H220784   7.283   2.738   4.291
 6951TIP3   OH220785   5.869   2.380   5.142
 6951TIP3    H120786   5.967   2.372   5.145
 6951TIP3    H220787   5.843   2.293   5.178
 6952TIP3   OH220788   7.707   2.252   4.890
 6952TIP3    H120789   7.764   2.185   4.846
 6952TIP3    H220790   7.671   2.302   4.814
 6953TIP3   OH220791   7.129   2.089   3.646
 6953TIP3    H120792   7.178   2.074   3.730
 6953TIP3    H220793   7.069   2.011   3.647
 6954TIP3   OH220794   5.830   2.073   4.462
 6954TIP3    H120795   5.891   1.998   4.475
 6954TIP3    H220796   5.892   2.148   4.458
 6955TIP3   OH220797   5.629   2.345   4.537
 6955TIP3    H120798   5.680   2.347   4.454
 6955TIP3    H220799   5.656   2.427   4.580
 6956TIP3   OH220800   7.572   2.385   4.697
 6956TIP3    H120801   7.492   2.431   4.730
 6956TIP3    H220802   7.529   2.314   4.645
 6957TIP3   OH220803   7.206   2.020   3.281
 6957TIP3    H120804   7.249   1.952   3.225
 6957TIP3    H220805   7.273   2.092   3.280
 6958TIP3   OH220806   5.616   1.848   4.038
 6958TIP3    H120807   5.524   1.844   4.070
 6958TIP3    H220808   5.609   1.909   3.962
 6959TIP3   OH220809   6.778   3.552   3.548
 6959TIP3    H120810   6.827   3.546   3.463
 6959TIP3    H220811   6.824   3.625   3.592
 6960TIP3   OH220812   5.840   1.929   4.843
 6960TIP3    H120813   5.790   1.925   4.927
 6960TIP3    H220814   5.772   1.970   4.785
 6961TIP3   OH220815   5.875   3.361   4.930
 6961TIP3    H120816   5.782   3.335   4.915
 6961TIP3    H220817   5.887   3.341   5.024
 6962TIP3   OH220818   6.056   3.393   4.478
 6962TIP3    H120819   6.008   3.470   4.440
 6962TIP3    H220820   6.142   3.407   4.434
 6963TIP3   OH220821   6.495   3.634   4.616
 6963TIP3    H120822   6.537   3.634   4.705
 6963TIP3    H220823   6.560   3.687   4.565
 6964TIP3   OH220824   6.676   3.789   4.480
 6964TIP3    H120825   6.747   3.739   4.437
 6964TIP3    H220826   6.728   3.846   4.541
 6965TIP3   OH220827   7.473   2.152   4.584
 6965TIP3    H120828   7.388   2.156   4.536
 6965TIP3    H220829   7.503   2.062   4.560
 6966TIP3   OH220830   5.730   3.642   4.509
 6966TIP3    H120831   5.641   3.674   4.484
 6966TIP3    H220832   5.745   3.695   4.588
 6967TIP3   OH220833   5.966   3.626   4.363
 6967TIP3    H120834   5.879   3.639   4.405
 6967TIP3    H220835   5.949   3.660   4.272
 6968TIP3   OH220836   6.392   3.653   4.160
 6968TIP3    H120837   6.324   3.671   4.091
 6968TIP3    H220838   6.402   3.743   4.197
 6969TIP3   OH220839   6.660   3.591   4.211
 6969TIP3    H120840   6.566   3.610   4.194
 6969TIP3    H220841   6.703   3.667   4.168
 6970TIP3   OH220842   6.869   3.785   4.125
 6970TIP3    H120843   6.852   3.869   4.078
 6970TIP3    H220844   6.893   3.725   4.051
 6971TIP3   OH220845   5.639   3.439   4.248
 6971TIP3    H120846   5.667   3.412   4.338
 6971TIP3    H220847   5.712   3.397   4.196
 6972TIP3   OH220848   5.836   3.314   4.107
 6972TIP3    H120849   5.851   3.231   4.158
 6972TIP3    H220850   5.927   3.351   4.104
 6973TIP3   OH220851   6.100   3.402   4.114
 6973TIP3    H120852   6.134   3.311   4.107
 6973TIP3    H220853   6.149   3.432   4.194
 6974TIP3   OH220854   6.677   2.062   4.196
 6974TIP3    H120855   6.633   1.994   4.250
 6974TIP3    H220856   6.751   2.014   4.156
 6975TIP3   OH220857   7.198   1.940   4.096
 6975TIP3    H120858   7.233   1.996   4.023
 6975TIP3    H220859   7.103   1.963   4.095
 6976TIP3   OH220860   7.294   2.042   3.861
 6976TIP3    H120861   7.369   1.991   3.823
 6976TIP3    H220862   7.328   2.134   3.850
 6977TIP3   OH220863   5.925   1.772   4.209
 6977TIP3    H120864   5.832   1.739   4.214
 6977TIP3    H220865   5.973   1.686   4.205
 6978TIP3   OH220866   5.714   1.644   3.862
 6978TIP3    H120867   5.741   1.702   3.789
 6978TIP3    H220868   5.686   1.709   3.930
 6979TIP3   OH220869   6.372   1.802   4.094
 6979TIP3    H120870   6.427   1.853   4.032
 6979TIP3    H220871   6.393   1.843   4.179
 6980TIP3   OH220872   6.915   1.951   4.075
 6980TIP3    H120873   6.914   1.908   3.988
 6980TIP3    H220874   6.903   1.874   4.135
 6981TIP3   OH220875   6.944   1.876   3.640
 6981TIP3    H120876   6.859   1.917   3.662
 6981TIP3    H220877   6.934   1.789   3.684
 6982TIP3   OH220878   5.430   3.217   3.638
 6982TIP3    H120879   5.343   3.188   3.605
 6982TIP3    H220880   5.424   3.312   3.617
 6983TIP3   OH220881   5.832   1.802   3.620
 6983TIP3    H120882   5.879   1.736   3.565
 6983TIP3    H220883   5.907   1.854   3.655
 6984TIP3   OH220884   6.333   1.975   3.733
 6984TIP3    H120885   6.398   1.927   3.786
 6984TIP3    H220886   6.360   2.067   3.751
 6985TIP3   OH220887   6.202   3.398   3.224
 6985TIP3    H120888   6.289   3.423   3.186
 6985TIP3    H220889   6.179   3.325   3.161
 6986TIP3   OH220890   6.920   3.526   3.311
 6986TIP3    H120891   6.910   3.429   3.299
 6986TIP3    H220892   6.876   3.560   3.231
 6987TIP3   OH220893   6.133   2.054   5.099
 6987TIP3    H120894   6.090   1.991   5.159
 6987TIP3    H220895   6.225   2.051   5.133
 6988TIP3   OH220896   6.383   2.050   5.224
 6988TIP3    H120897   6.468   2.022   5.187
 6988TIP3    H220898   6.367   1.979   5.290
 6989TIP3   OH220899   5.501   3.236   3.273
 6989TIP3    H120900   5.503   3.263   3.366
 6989TIP3    H220901   5.590   3.195   3.261
 6990TIP3   OH220902   7.209   2.112   5.009
 6990TIP3    H120903   7.225   2.082   5.102
 6990TIP3    H220904   7.299   2.107   4.971
 6991TIP3   OH220905   7.146   3.665   4.498
 6991TIP3    H120906   7.067   3.634   4.450
 6991TIP3    H220907   7.125   3.760   4.507
 6992TIP3   OH220908   7.711   2.934   4.007
 6992TIP3    H120909   7.738   2.864   4.070
 6992TIP3    H220910   7.783   2.997   4.018
 6993TIP3   OH220911   7.681   3.344   3.737
 6993TIP3    H120912   7.674   3.246   3.739
 6993TIP3    H220913   7.778   3.354   3.731
 6994TIP3   OH220914   7.390   2.541   3.519
 6994TIP3    H120915   7.344   2.624   3.541
 6994TIP3    H220916   7.317   2.492   3.475
 6995TIP3   OH220917   7.448   2.832   3.699
 6995TIP3    H120918   7.498   2.754   3.732
 6995TIP3    H220919   7.507   2.867   3.631
 6996TIP3   OH220920   8.316   3.764   3.328
 6996TIP3    H120921   8.412   3.740   3.332
 6996TIP3    H220922   8.297   3.776   3.421
 6997TIP3   OH220923   8.221   3.247   3.699
 6997TIP3    H120924   8.226   3.225   3.605
 6997TIP3    H220925   8.297   3.307   3.712
 6998TIP3   OH220926   7.941   2.416   3.711
 6998TIP3    H120927   7.957   2.488   3.647
 6998TIP3    H220928   7.901   2.349   3.653
 6999TIP3   OH220929   7.596   2.627   3.799
 6999TIP3    H120930   7.677   2.608   3.851
 6999TIP3    H220931   7.615   2.572   3.720
 7000TIP3   OH220932   8.021   2.825   3.589
 7000TIP3    H120933   8.113   2.792   3.604
 7000TIP3    H220934   7.978   2.742   3.561
 7001TIP3   OH220935   8.068   3.181   3.932
 7001TIP3    H120936   8.004   3.248   3.967
 7001TIP3    H220937   8.111   3.230   3.860
 7002TIP3   OH220938   7.819   2.523   3.926
 7002TIP3    H120939   7.887   2.587   3.958
 7002TIP3    H220940   7.869   2.481   3.853
 7003TIP3   OH220941   7.895   3.377   4.020
 7003TIP3    H120942   7.870   3.465   3.985
 7003TIP3    H220943   7.816   3.359   4.075
 7004TIP3   OH220944   7.284   3.067   3.256
 7004TIP3    H120945   7.243   3.096   3.172
 7004TIP3    H220946   7.315   3.153   3.292
 7005TIP3   OH220947   7.812   2.970   3.486
 7005TIP3    H120948   7.774   2.912   3.416
 7005TIP3    H220949   7.890   2.918   3.515
 7006TIP3   OH220950   7.944   3.384   3.631
 7006TIP3    H120951   7.919   3.352   3.543
 7006TIP3    H220952   8.027   3.338   3.649
 7007TIP3   OH220953   7.966   2.938   3.839
 7007TIP3    H120954   7.990   2.917   3.747
 7007TIP3    H220955   8.003   3.027   3.854
 7008TIP3   OH220956   8.095   3.491   4.175
 7008TIP3    H120957   8.034   3.556   4.218
 7008TIP3    H220958   8.030   3.441   4.121
 7009TIP3   OH220959   7.847   3.059   4.267
 7009TIP3    H120960   7.852   3.146   4.312
 7009TIP3    H220961   7.754   3.034   4.288
 7010TIP3   OH220962   8.191   3.546   3.202
 7010TIP3    H120963   8.212   3.636   3.233
 7010TIP3    H220964   8.127   3.563   3.131
 7011TIP3   OH220965   7.890   3.661   4.256
 7011TIP3    H120966   7.852   3.665   4.166
 7011TIP3    H220967   7.811   3.639   4.311
 7012TIP3   OH220968   7.691   2.810   3.285
 7012TIP3    H120969   7.623   2.857   3.232
 7012TIP3    H220970   7.645   2.728   3.307
 7013TIP3   OH220971   7.471   3.195   4.200
 7013TIP3    H120972   7.401   3.177   4.133
 7013TIP3    H220973   7.507   3.106   4.218
 7014TIP3   OH220974   7.324   3.389   3.833
 7014TIP3    H120975   7.421   3.392   3.827
 7014TIP3    H220976   7.305   3.469   3.884
 7015TIP3   OH220977   8.280   3.608   4.013
 7015TIP3    H120978   8.287   3.699   4.047
 7015TIP3    H220979   8.212   3.571   4.073
 7016TIP3   OH220980   8.062   3.752   2.974
 7016TIP3    H120981   8.015   3.737   2.890
 7016TIP3    H220982   8.026   3.838   3.003
 7017TIP3   OH220983   7.495   3.603   3.359
 7017TIP3    H120984   7.541   3.594   3.446
 7017TIP3    H220985   7.434   3.528   3.363
 7018TIP3   OH220986   8.326   3.715   2.907
 7018TIP3    H120987   8.234   3.733   2.934
 7018TIP3    H220988   8.334   3.620   2.930
 7019TIP3   OH220989   7.677   3.377   4.183
 7019TIP3    H120990   7.723   3.365   4.268
 7019TIP3    H220991   7.601   3.315   4.192
 7020TIP3   OH220992   8.039   2.256   4.023
 7020TIP3    H120993   7.965   2.210   3.984
 7020TIP3    H220994   8.092   2.278   3.941
 7021TIP3   OH220995   8.000   2.720   3.995
 7021TIP3    H120996   7.947   2.743   4.073
 7021TIP3    H220997   7.984   2.798   3.937
 7022TIP3   OH220998   7.894   2.599   3.505
 7022TIP3    H120999   7.803   2.571   3.527
 7022TIP3    H221000   7.904   2.559   3.416
 7023TIP3   OH221001   7.810   2.755   4.197
 7023TIP3    H121002   7.864   2.814   4.253
 7023TIP3    H221003   7.755   2.710   4.262
 7024TIP3   OH221004   7.852   2.169   2.893
 7024TIP3    H121005   7.860   2.207   2.982
 7024TIP3    H221006   7.799   2.239   2.849
 7025TIP3   OH221007   7.422   2.264   3.782
 7025TIP3    H121008   7.491   2.305   3.838
 7025TIP3    H221009   7.469   2.242   3.701
 7026TIP3   OH221010   7.383   2.249   3.299
 7026TIP3    H121011   7.427   2.287   3.220
 7026TIP3    H221012   7.322   2.322   3.320
 7027TIP3   OH221013   7.651   2.485   3.569
 7027TIP3    H121014   7.557   2.493   3.543
 7027TIP3    H221015   7.673   2.392   3.551
 7028TIP3   OH221016   7.929   2.483   3.255
 7028TIP3    H121017   8.010   2.503   3.208
 7028TIP3    H221018   7.862   2.496   3.184
 7029TIP3   OH221019   7.771   2.501   3.040
 7029TIP3    H121020   7.701   2.458   2.988
 7029TIP3    H221021   7.823   2.543   2.969
 7030TIP3   OH221022   7.841   3.300   4.407
 7030TIP3    H121023   7.919   3.331   4.458
 7030TIP3    H221024   7.774   3.298   4.479
 7031TIP3   OH221025   7.811   2.242   3.539
 7031TIP3    H121026   7.782   2.167   3.597
 7031TIP3    H221027   7.853   2.194   3.467
 7032TIP3   OH221028   8.269   2.649   4.014
 7032TIP3    H121029   8.179   2.675   3.984
 7032TIP3    H221030   8.320   2.731   3.996
 7033TIP3   OH221031   7.986   3.066   3.049
 7033TIP3    H121032   7.935   2.984   3.043
 7033TIP3    H221033   7.989   3.083   3.146
 7034TIP3   OH221034   8.377   3.330   4.078
 7034TIP3    H121035   8.407   3.324   4.169
 7034TIP3    H221036   8.351   3.424   4.071
 7035TIP3   OH221037   7.710   3.068   3.725
 7035TIP3    H121038   7.742   3.035   3.639
 7035TIP3    H221039   7.744   3.003   3.788
 7036TIP3   OH221040   8.119   3.187   2.842
 7036TIP3    H121041   8.093   3.278   2.868
 7036TIP3    H221042   8.090   3.137   2.921
 7037TIP3   OH221043   7.591   2.978   4.335
 7037TIP3    H121044   7.605   2.968   4.432
 7037TIP3    H221045   7.515   2.919   4.321
 7038TIP3   OH221046   8.316   3.099   4.355
 7038TIP3    H121047   8.264   3.053   4.287
 7038TIP3    H221048   8.404   3.062   4.340
 7039TIP3   OH221049   7.810   3.370   3.351
 7039TIP3    H121050   7.806   3.449   3.294
 7039TIP3    H221051   7.716   3.351   3.362
 7040TIP3   OH221052   7.375   2.671   3.056
 7040TIP3    H121053   7.417   2.758   3.076
 7040TIP3    H221054   7.296   2.675   3.115
 7041TIP3   OH221055   7.956   3.135   3.313
 7041TIP3    H121056   7.914   3.223   3.317
 7041TIP3    H221057   7.902   3.084   3.377
 7042TIP3   OH221058   8.076   3.708   3.817
 7042TIP3    H121059   8.112   3.785   3.769
 7042TIP3    H221060   8.153   3.678   3.867
 7043TIP3   OH221061   7.728   3.605   3.201
 7043TIP3    H121062   7.642   3.617   3.246
 7043TIP3    H221063   7.762   3.697   3.203
 7044TIP3   OH221064   7.518   3.572   3.973
 7044TIP3    H121065   7.571   3.502   4.015
 7044TIP3    H221066   7.534   3.646   4.033
 7045TIP3   OH221067   7.802   3.217   2.661
 7045TIP3    H121068   7.805   3.123   2.637
 7045TIP3    H221069   7.783   3.212   2.757
 7046TIP3   OH221070   7.754   3.222   2.930
 7046TIP3    H121071   7.836   3.193   2.975
 7046TIP3    H221072   7.757   3.319   2.944
 7047TIP3   OH221073   7.483   2.917   3.137
 7047TIP3    H121074   7.416   2.963   3.193
 7047TIP3    H221075   7.495   2.986   3.068
 7048TIP3   OH221076   8.018   3.434   2.889
 7048TIP3    H121077   7.927   3.454   2.918
 7048TIP3    H221078   8.037   3.514   2.838
 7049TIP3   OH221079   7.758   3.496   2.949
 7049TIP3    H121080   7.724   3.565   2.887
 7049TIP3    H221081   7.743   3.539   3.036
 7050TIP3   OH221082   7.872   2.218   3.185
 7050TIP3    H121083   7.854   2.302   3.232
 7050TIP3    H221084   7.953   2.243   3.137
 7051TIP3   OH221085   7.479   3.119   2.940
 7051TIP3    H121086   7.544   3.191   2.952
 7051TIP3    H221087   7.525   3.067   2.871
 7052TIP3   OH221088   7.420   2.401   3.076
 7052TIP3    H121089   7.423   2.499   3.075
 7052TIP3    H221090   7.342   2.384   3.023
 7053TIP3   OH221091   7.791   2.118   3.952
 7053TIP3    H121092   7.775   2.088   3.859
 7053TIP3    H221093   7.789   2.034   4.000
 7054TIP3   OH221094   7.340   3.331   3.321
 7054TIP3    H121095   7.282   3.367   3.390
 7054TIP3    H221096   7.308   3.380   3.241
 7055TIP3   OH221097   7.509   3.888   4.396
 7055TIP3    H121098   7.593   3.887   4.447
 7055TIP3    H221099   7.485   3.794   4.399
 7056TIP3   OH221100   7.991   3.854   4.428
 7056TIP3    H121101   8.079   3.820   4.449
 7056TIP3    H221102   7.959   3.786   4.365
 7057TIP3   OH221103   7.962   3.418   2.570
 7057TIP3    H121104   7.900   3.349   2.604
 7057TIP3    H221105   8.046   3.381   2.599
 7058TIP3   OH221106   7.638   3.284   4.594
 7058TIP3    H121107   7.647   3.188   4.608
 7058TIP3    H221108   7.549   3.290   4.553
 7059TIP3   OH221109   7.621   2.937   2.791
 7059TIP3    H121110   7.675   2.912   2.868
 7059TIP3    H221111   7.690   2.943   2.722
 7060TIP3   OH221112   8.262   3.379   4.366
 7060TIP3    H121113   8.204   3.398   4.289
 7060TIP3    H221114   8.272   3.282   4.363
 7061TIP3   OH221115   8.111   3.117   2.585
 7061TIP3    H121116   8.129   3.152   2.676
 7061TIP3    H221117   8.032   3.065   2.605
 7062TIP3   OH221118   7.759   3.020   4.585
 7062TIP3    H121119   7.838   2.969   4.566
 7062TIP3    H221120   7.782   3.059   4.672
 7063TIP3   OH221121   7.818   2.842   3.011
 7063TIP3    H121122   7.789   2.802   3.095
 7063TIP3    H221123   7.862   2.767   2.965
 7064TIP3   OH221124   8.053   2.888   4.262
 7064TIP3    H121125   7.988   2.961   4.265
 7064TIP3    H221126   8.118   2.926   4.197
 7065TIP3   OH221127   7.925   2.631   2.854
 7065TIP3    H121128   7.889   2.643   2.764
 7065TIP3    H221129   8.018   2.607   2.830
 7066TIP3   OH221130   8.219   2.698   4.364
 7066TIP3    H121131   8.211   2.612   4.318
 7066TIP3    H221132   8.156   2.754   4.314
 7067TIP3   OH221133   8.193   2.466   4.198
 7067TIP3    H121134   8.217   2.529   4.127
 7067TIP3    H221135   8.152   2.394   4.148
 7068TIP3   OH221136   8.216   3.015   4.092
 7068TIP3    H121137   8.285   3.007   4.024
 7068TIP3    H221138   8.156   3.080   4.048
 7069TIP3   OH221139   8.096   2.805   4.599
 7069TIP3    H121140   8.026   2.739   4.615
 7069TIP3    H221141   8.127   2.782   4.510
 7070TIP3   OH221142   7.931   2.583   4.651
 7070TIP3    H121143   7.948   2.493   4.621
 7070TIP3    H221144   7.965   2.580   4.743
 7071TIP3   OH221145   7.720   3.698   2.760
 7071TIP3    H121146   7.817   3.696   2.749
 7071TIP3    H221147   7.696   3.753   2.683
 7072TIP3   OH221148   7.209   3.081   2.976
 7072TIP3    H121149   7.304   3.102   2.962
 7072TIP3    H221150   7.202   2.993   2.935
 7073TIP3   OH221151   7.129   3.692   3.391
 7073TIP3    H121152   7.061   3.634   3.350
 7073TIP3    H221153   7.170   3.630   3.455
 7074TIP3   OH221154   7.264   3.535   3.576
 7074TIP3    H121155   7.247   3.470   3.645
 7074TIP3    H221156   7.313   3.602   3.628
 7075TIP3   OH221157   7.445   2.947   3.951
 7075TIP3    H121158   7.441   2.916   3.858
 7075TIP3    H221159   7.542   2.950   3.965
 7076TIP3   OH221160   7.664   2.632   4.612
 7076TIP3    H121161   7.761   2.630   4.628
 7076TIP3    H221162   7.637   2.550   4.657
 7077TIP3   OH221163   7.622   2.336   3.961
 7077TIP3    H121164   7.680   2.258   3.956
 7077TIP3    H221165   7.688   2.409   3.951
 7078TIP3   OH221166   7.427   2.602   4.026
 7078TIP3    H121167   7.479   2.603   3.943
 7078TIP3    H221168   7.444   2.690   4.062
 7079TIP3   OH221169   7.412   2.098   3.522
 7079TIP3    H121170   7.322   2.099   3.557
 7079TIP3    H221171   7.406   2.163   3.448
 7080TIP3   OH221172   7.673   3.614   4.425
 7080TIP3    H121173   7.580   3.593   4.409
 7080TIP3    H221174   7.680   3.594   4.520
 7081TIP3   OH221175   7.852   3.647   3.967
 7081TIP3    H121176   7.801   3.721   3.928
 7081TIP3    H221177   7.937   3.663   3.920
 7082TIP3   OH221178   8.279   3.873   4.106
 7082TIP3    H121179   8.328   3.879   4.191
 7082TIP3    H221180   8.328   3.936   4.049
 7083TIP3   OH221181   8.418   4.043   3.924
 7083TIP3    H121182   8.469   4.038   3.843
 7083TIP3    H221183   8.477   4.099   3.980
 7084TIP3   OH221184   7.526   3.905   3.993
 7084TIP3    H121185   7.436   3.935   3.967
 7084TIP3    H221186   7.536   3.949   4.078
 7085TIP3   OH221187   7.762   3.882   3.850
 7085TIP3    H121188   7.674   3.894   3.894
 7085TIP3    H221189   7.743   3.915   3.760
 7086TIP3   OH221190   8.159   3.919   3.652
 7086TIP3    H121191   8.083   3.929   3.590
 7086TIP3    H221192   8.170   4.011   3.683
 7087TIP3   OH221193   8.408   3.814   3.628
 7087TIP3    H121194   8.319   3.851   3.636
 7087TIP3    H221195   8.463   3.890   3.655
 7088TIP3   OH221196   7.437   3.699   3.733
 7088TIP3    H121197   7.463   3.671   3.824
 7088TIP3    H221198   7.509   3.655   3.682
 7089TIP3   OH221199   7.631   3.571   3.593
 7089TIP3    H121200   7.646   3.488   3.645
 7089TIP3    H221201   7.722   3.607   3.589
 7090TIP3   OH221202   7.897   3.664   3.598
 7090TIP3    H121203   7.926   3.572   3.587
 7090TIP3    H221204   7.945   3.687   3.680
 7091TIP3   OH221205   7.722   2.031   3.693
 7091TIP3    H121206   7.631   1.995   3.700
 7091TIP3    H221207   7.772   1.946   3.687
 7092TIP3   OH221208   7.514   1.900   3.336
 7092TIP3    H121209   7.540   1.963   3.266
 7092TIP3    H221210   7.485   1.961   3.407
 7093TIP3   OH221211   7.225   3.477   3.124
 7093TIP3    H121212   7.137   3.448   3.095
 7093TIP3    H221213   7.221   3.570   3.096
 7094TIP3   OH221214   7.626   2.057   3.116
 7094TIP3    H121215   7.670   2.006   3.045
 7094TIP3    H221216   7.698   2.116   3.146
 7095TIP3   OH221217   7.989   3.655   2.717
 7095TIP3    H121218   8.081   3.665   2.684
 7095TIP3    H221219   7.959   3.586   2.655
 7096TIP3   OH221220   7.917   2.288   4.545
 7096TIP3    H121221   7.884   2.226   4.614
 7096TIP3    H221222   8.009   2.297   4.580
 7097TIP3   OH221223   8.150   2.302   4.705
 7097TIP3    H121224   8.233   2.267   4.668
 7097TIP3    H221225   8.138   2.240   4.781
 7098TIP3   OH221226   7.297   3.492   2.762
 7098TIP3    H121227   7.297   3.526   2.853
 7098TIP3    H221228   7.387   3.453   2.754
 7099TIP3   OH221229   0.865   3.824   4.956
 7099TIP3    H121230   0.835   3.915   4.937
 7099TIP3    H221231   0.789   3.774   4.923
 7100TIP3   OH221232   0.861   3.828   5.344
 7100TIP3    H121233   0.899   3.803   5.430
 7100TIP3    H221234   0.824   3.743   5.314
 7101TIP3   OH221235   0.174   3.720   5.687
 7101TIP3    H121236   0.183   3.645   5.749
 7101TIP3    H221237   0.257   3.767   5.701
 7102TIP3   OH221238   1.108   4.131   5.023
 7102TIP3    H121239   1.097   4.061   5.089
 7102TIP3    H221240   1.142   4.204   5.077
 7103TIP3   OH221241   0.145   4.111   5.375
 7103TIP3    H121242   0.132   4.015   5.389
 7103TIP3    H221243   0.239   4.122   5.393
 7104TIP3   OH221244  -0.092   3.622   5.364
 7104TIP3    H121245  -0.040   3.561   5.419
 7104TIP3    H221246  -0.027   3.690   5.342
 7105TIP3   OH221247   0.761   4.590   5.042
 7105TIP3    H121248   0.800   4.521   4.983
 7105TIP3    H221249   0.762   4.543   5.127
 7106TIP3   OH221250   0.665   4.051   5.387
 7106TIP3    H121251   0.708   3.973   5.348
 7106TIP3    H221252   0.747   4.100   5.413
 7107TIP3   OH221253   1.678   3.369   5.384
 7107TIP3    H121254   1.708   3.452   5.426
 7107TIP3    H221255   1.710   3.381   5.292
 7108TIP3   OH221256   1.071   3.551   5.418
 7108TIP3    H121257   1.118   3.468   5.440
 7108TIP3    H221258   1.044   3.532   5.326
 7109TIP3   OH221259   0.417   3.213   5.384
 7109TIP3    H121260   0.400   3.286   5.321
 7109TIP3    H221261   0.370   3.140   5.339
 7110TIP3   OH221262   1.110   3.304   5.003
 7110TIP3    H121263   1.181   3.289   5.070
 7110TIP3    H221264   1.165   3.338   4.929
 7111TIP3   OH221265   0.052   3.419   5.489
 7111TIP3    H121266   0.129   3.407   5.546
 7111TIP3    H221267   0.079   3.370   5.409
 7112TIP3   OH221268   0.492   3.609   5.278
 7112TIP3    H121269   0.586   3.585   5.293
 7112TIP3    H221270   0.454   3.524   5.249
 7113TIP3   OH221271   1.750   3.576   5.560
 7113TIP3    H121272   1.667   3.625   5.539
 7113TIP3    H221273   1.779   3.620   5.641
 7114TIP3   OH221274   0.410   3.193   5.820
 7114TIP3    H121275   0.353   3.238   5.755
 7114TIP3    H221276   0.359   3.209   5.902
 7115TIP3   OH221277   0.748   4.043   4.827
 7115TIP3    H121278   0.715   4.036   4.737
 7115TIP3    H221279   0.706   4.127   4.856
 7116TIP3   OH221280   0.517   3.975   5.612
 7116TIP3    H121281   0.461   4.043   5.655
 7116TIP3    H221282   0.559   4.025   5.539
 7117TIP3   OH221283   1.313   3.310   5.183
 7117TIP3    H121284   1.305   3.268   5.269
 7117TIP3    H221285   1.369   3.387   5.203
 7118TIP3   OH221286   0.286   3.312   5.603
 7118TIP3    H121287   0.346   3.385   5.629
 7118TIP3    H221288   0.339   3.274   5.528
 7119TIP3   OH221289   0.335   4.156   5.733
 7119TIP3    H121290   0.277   4.213   5.681
 7119TIP3    H221291   0.269   4.112   5.790
 7120TIP3   OH221292   1.175   4.374   5.186
 7120TIP3    H121293   1.085   4.364   5.225
 7120TIP3    H221294   1.168   4.460   5.141
 7121TIP3   OH221295   1.472   3.266   5.548
 7121TIP3    H121296   1.387   3.299   5.516
 7121TIP3    H221297   1.535   3.301   5.482
 7122TIP3   OH221298   0.759   2.912   5.527
 7122TIP3    H121299   0.749   2.818   5.552
 7122TIP3    H221300   0.685   2.952   5.578
 7123TIP3   OH221301   0.873   4.417   4.856
 7123TIP3    H121302   0.923   4.334   4.839
 7123TIP3    H221303   0.938   4.482   4.817
 7124TIP3   OH221304   1.018   4.202   4.773
 7124TIP3    H121305   0.995   4.119   4.728
 7124TIP3    H221306   1.057   4.168   4.857
 7125TIP3   OH221307   1.403   4.282   5.531
 7125TIP3    H121308   1.392   4.205   5.471
 7125TIP3    H221309   1.387   4.357   5.470
 7126TIP3   OH221310   0.695   3.676   4.789
 7126TIP3    H121311   0.618   3.732   4.767
 7126TIP3    H221312   0.744   3.675   4.705
 7127TIP3   OH221313   0.653   3.463   4.502
 7127TIP3    H121314   0.719   3.516   4.551
 7127TIP3    H221315   0.714   3.401   4.455
 7128TIP3   OH221316   1.597   3.919   5.375
 7128TIP3    H121317   1.515   3.972   5.379
 7128TIP3    H221318   1.630   3.943   5.286
 7129TIP3   OH221319   1.043   3.759   4.758
 7129TIP3    H121320   0.991   3.782   4.838
 7129TIP3    H221321   1.129   3.735   4.800
 7130TIP3   OH221322   1.277   3.797   5.678
 7130TIP3    H121323   1.277   3.879   5.730
 7130TIP3    H221324   1.192   3.805   5.631
 7131TIP3   OH221325   0.279   3.753   5.182
 7131TIP3    H121326   0.240   3.696   5.113
 7131TIP3    H221327   0.359   3.702   5.208
 7132TIP3   OH221328   0.419   4.175   5.322
 7132TIP3    H121329   0.397   4.137   5.236
 7132TIP3    H221330   0.507   4.137   5.340
 7133TIP3   OH221331   0.433   3.726   5.528
 7133TIP3    H121332   0.461   3.706   5.436
 7133TIP3    H221333   0.469   3.815   5.543
 7134TIP3   OH221334   0.933   4.367   5.308
 7134TIP3    H121335   0.926   4.447   5.363
 7134TIP3    H221336   0.920   4.294   5.372
 7135TIP3   OH221337   0.550   4.289   5.854
 7135TIP3    H121338   0.493   4.349   5.906
 7135TIP3    H221339   0.481   4.234   5.811
 7136TIP3   OH221340   0.879   3.621   4.586
 7136TIP3    H121341   0.940   3.679   4.635
 7136TIP3    H221342   0.907   3.640   4.493
 7137TIP3   OH221343   0.297   3.844   5.959
 7137TIP3    H121344   0.303   3.926   6.013
 7137TIP3    H221345   0.202   3.838   5.946
 7138TIP3   OH221346   0.627   4.297   4.862
 7138TIP3    H121347   0.711   4.345   4.869
 7138TIP3    H221348   0.570   4.361   4.817
 7139TIP3   OH221349   0.330   4.457   5.936
 7139TIP3    H121350   0.306   4.462   5.841
 7139TIP3    H221351   0.253   4.412   5.975
 7140TIP3   OH221352   1.399   2.857   4.634
 7140TIP3    H121353   1.319   2.882   4.684
 7140TIP3    H221354   1.417   2.940   4.584
 7141TIP3   OH221355   0.156   3.592   4.980
 7141TIP3    H121356   0.091   3.635   4.920
 7141TIP3    H221357   0.112   3.509   5.000
 7142TIP3   OH221358   1.200   4.223   4.184
 7142TIP3    H121359   1.209   4.320   4.168
 7142TIP3    H221360   1.293   4.193   4.171
 7143TIP3   OH221361   1.640   4.630   5.577
 7143TIP3    H121362   1.640   4.534   5.593
 7143TIP3    H221363   1.557   4.655   5.625
 7144TIP3   OH221364   0.745   4.415   5.709
 7144TIP3    H121365   0.744   4.507   5.744
 7144TIP3    H221366   0.676   4.373   5.764
 7145TIP3   OH221367   0.511   4.540   4.666
 7145TIP3    H121368   0.465   4.528   4.581
 7145TIP3    H221369   0.481   4.628   4.694
 7146TIP3   OH221370   0.711   4.445   4.301
 7146TIP3    H121371   0.770   4.374   4.266
 7146TIP3    H221372   0.746   4.456   4.392
 7147TIP3   OH221373   0.761   4.493   4.571
 7147TIP3    H121374   0.672   4.502   4.613
 7147TIP3    H221375   0.813   4.456   4.645
 7148TIP3   OH221376   1.528   3.756   5.856
 7148TIP3    H121377   1.448   3.765   5.802
 7148TIP3    H221378   1.546   3.660   5.847
 7149TIP3   OH221379   0.528   2.989   5.666
 7149TIP3    H121380   0.438   2.962   5.638
 7149TIP3    H221381   0.505   3.072   5.713
 7150TIP3   OH221382   1.065   3.102   5.858
 7150TIP3    H121383   1.135   3.076   5.921
 7150TIP3    H221384   0.983   3.085   5.908
 7151TIP3   OH221385   1.293   3.531   5.771
 7151TIP3    H121386   1.245   3.530   5.857
 7151TIP3    H221387   1.275   3.621   5.738
 7152TIP3   OH221388   0.957   3.661   4.331
 7152TIP3    H121389   0.925   3.638   4.242
 7152TIP3    H221390   1.043   3.703   4.308
 7153TIP3   OH221391   0.666   3.040   4.634
 7153TIP3    H121392   0.635   3.034   4.727
 7153TIP3    H221393   0.632   2.955   4.599
 7154TIP3   OH221394   0.458   3.507   5.682
 7154TIP3    H121395   0.408   3.531   5.763
 7154TIP3    H221396   0.449   3.588   5.628
 7155TIP3   OH221397   0.341   3.389   5.194
 7155TIP3    H121398   0.246   3.370   5.207
 7155TIP3    H221399   0.355   3.350   5.105
 7156TIP3   OH221400   0.831   3.473   4.922
 7156TIP3    H121401   0.783   3.546   4.878
 7156TIP3    H221402   0.889   3.442   4.850
 7157TIP3   OH221403   1.008   3.753   6.006
 7157TIP3    H121404   0.988   3.680   6.069
 7157TIP3    H221405   1.102   3.769   6.028
 7158TIP3   OH221406   0.987   3.502   5.161
 7158TIP3    H121407   0.927   3.532   5.090
 7158TIP3    H221408   1.024   3.423   5.115
 7159TIP3   OH221409   0.282   3.530   5.893
 7159TIP3    H121410   0.301   3.601   5.956
 7159TIP3    H221411   0.276   3.452   5.952
 7160TIP3   OH221412   0.324   3.010   4.599
 7160TIP3    H121413   0.319   3.012   4.696
 7160TIP3    H221414   0.247   3.065   4.575
 7161TIP3   OH221415  -0.104   3.094   5.452
 7161TIP3    H121416  -0.030   3.091   5.515
 7161TIP3    H221417  -0.093   3.013   5.400
 7162TIP3   OH221418  -0.133   3.089   5.024
 7162TIP3    H121419  -0.108   3.100   4.930
 7162TIP3    H221420  -0.136   3.183   5.050
 7163TIP3   OH221421   0.993   3.749   5.581
 7163TIP3    H121422   1.029   3.678   5.523
 7163TIP3    H221423   0.966   3.695   5.658
 7164TIP3   OH221424   0.672   3.212   5.254
 7164TIP3    H121425   0.596   3.214   5.316
 7164TIP3    H221426   0.747   3.206   5.315
 7165TIP3   OH221427   0.098   3.259   5.260
 7165TIP3    H121428   0.010   3.222   5.276
 7165TIP3    H221429   0.151   3.178   5.245
 7166TIP3   OH221430   0.368   3.263   4.952
 7166TIP3    H121431   0.464   3.279   4.938
 7166TIP3    H221432   0.327   3.288   4.866
 7167TIP3   OH221433   1.163   3.292   5.459
 7167TIP3    H121434   1.131   3.304   5.551
 7167TIP3    H221435   1.097   3.232   5.423
 7168TIP3   OH221436   0.214   3.299   4.722
 7168TIP3    H121437   0.150   3.254   4.664
 7168TIP3    H221438   0.271   3.342   4.656
 7169TIP3   OH221439   1.335   4.979   5.679
 7169TIP3    H121440   1.335   5.004   5.585
 7169TIP3    H221441   1.416   5.025   5.711
 7170TIP3   OH221442   0.286   4.078   6.119
 7170TIP3    H121443   0.363   4.108   6.170
 7170TIP3    H221444   0.216   4.131   6.160
 7171TIP3   OH221445   0.752   3.541   5.350
 7171TIP3    H121446   0.830   3.508   5.302
 7171TIP3    H221447   0.761   3.499   5.437
 7172TIP3   OH221448   0.266   3.037   5.235
 7172TIP3    H121449   0.234   2.955   5.277
 7172TIP3    H221450   0.317   3.002   5.160
 7173TIP3   OH221451   0.728   3.441   5.646
 7173TIP3    H121452   0.640   3.480   5.659
 7173TIP3    H221453   0.787   3.503   5.694
 7174TIP3   OH221454   0.464   3.829   4.734
 7174TIP3    H121455   0.391   3.765   4.723
 7174TIP3    H221456   0.446   3.863   4.826
 7175TIP3   OH221457   1.365   4.068   5.364
 7175TIP3    H121458   1.390   4.118   5.283
 7175TIP3    H221459   1.281   4.024   5.336
 7176TIP3   OH221460   0.923   3.138   4.607
 7176TIP3    H121461   0.826   3.124   4.612
 7176TIP3    H221462   0.933   3.233   4.628
 7177TIP3   OH221463   0.858   4.145   5.737
 7177TIP3    H121464   0.901   4.130   5.822
 7177TIP3    H221465   0.828   4.237   5.743
 7178TIP3   OH221466   0.993   3.391   4.705
 7178TIP3    H121467   1.089   3.395   4.722
 7178TIP3    H221468   0.976   3.471   4.653
 7179TIP3   OH221469   0.144   3.834   5.415
 7179TIP3    H121470   0.201   3.801   5.343
 7179TIP3    H221471   0.175   3.784   5.493
 7180TIP3   OH221472   0.610   3.979   4.558
 7180TIP3    H121473   0.561   4.065   4.562
 7180TIP3    H221474   0.557   3.925   4.621
 7181TIP3   OH221475   0.769   3.888   6.047
 7181TIP3    H121476   0.708   3.828   6.001
 7181TIP3    H221477   0.855   3.852   6.019
 7182TIP3   OH221478   1.022   4.407   5.632
 7182TIP3    H121479   0.926   4.409   5.646
 7182TIP3    H221480   1.052   4.459   5.709
 7183TIP3   OH221481   1.424   3.484   4.543
 7183TIP3    H121482   1.365   3.440   4.478
 7183TIP3    H221483   1.426   3.573   4.501
 7184TIP3   OH221484   1.654   4.342   5.619
 7184TIP3    H121485   1.556   4.334   5.611
 7184TIP3    H221486   1.680   4.311   5.529
 7185TIP3   OH221487   1.134   4.300   4.448
 7185TIP3    H121488   1.111   4.229   4.510
 7185TIP3    H221489   1.150   4.253   4.364
 7186TIP3   OH221490   1.130   3.930   5.280
 7186TIP3    H121491   1.037   3.906   5.294
 7186TIP3    H221492   1.164   3.849   5.237
 7187TIP3   OH221493   0.266   4.158   5.037
 7187TIP3    H121494   0.258   4.236   4.980
 7187TIP3    H221495   0.179   4.155   5.078
 7188TIP3   OH221496  -0.185   3.471   4.740
 7188TIP3    H121497  -0.123   3.545   4.759
 7188TIP3    H221498  -0.262   3.502   4.789
 7189TIP3   OH221499   0.390   3.916   4.978
 7189TIP3    H121500   0.359   4.007   4.996
 7189TIP3    H221501   0.360   3.869   5.057
 7190TIP3   OH221502   0.539   4.501   5.506
 7190TIP3    H121503   0.583   4.572   5.455
 7190TIP3    H221504   0.615   4.463   5.554
 7191TIP3   OH221505   0.176   4.399   4.894
 7191TIP3    H121506   0.096   4.426   4.941
 7191TIP3    H221507   0.223   4.486   4.891
 7192TIP3   OH221508   0.914   4.134   5.468
 7192TIP3    H121509   0.903   4.130   5.565
 7192TIP3    H221510   0.996   4.083   5.456
 7193TIP3   OH221511   0.895   4.029   4.352
 7193TIP3    H121512   0.949   4.003   4.430
 7193TIP3    H221513   0.807   4.001   4.382
 7194TIP3   OH221514   1.164   4.665   5.516
 7194TIP3    H121515   1.083   4.610   5.510
 7194TIP3    H221516   1.148   4.730   5.444
 7195TIP3   OH221517   1.230   4.500   4.167
 7195TIP3    H121518   1.267   4.574   4.117
 7195TIP3    H221519   1.150   4.543   4.203
 7196TIP3   OH221520   0.260   3.263   6.047
 7196TIP3    H121521   0.169   3.251   6.077
 7196TIP3    H221522   0.308   3.216   6.118
 7197TIP3   OH221523   1.055   3.962   4.568
 7197TIP3    H121524   1.045   3.894   4.637
 7197TIP3    H221525   1.152   3.957   4.554
 7198TIP3   OH221526   0.256   4.006   4.348
 7198TIP3    H121527   0.272   3.913   4.324
 7198TIP3    H221528   0.236   3.999   4.443
 7199TIP3   OH221529   0.206   4.013   4.624
 7199TIP3    H121530   0.286   3.989   4.674
 7199TIP3    H221531   0.208   4.111   4.628
 7200TIP3   OH221532  -0.048   3.695   4.829
 7200TIP3    H121533  -0.092   3.751   4.895
 7200TIP3    H221534  -0.034   3.761   4.758
 7201TIP3   OH221535   1.088   3.340   5.718
 7201TIP3    H121536   1.169   3.383   5.752
 7201TIP3    H221537   1.080   3.260   5.774
 7202TIP3   OH221538   0.968   3.090   4.887
 7202TIP3    H121539   0.958   3.112   4.793
 7202TIP3    H221540   1.010   3.172   4.922
 7203TIP3   OH221541   0.467   4.209   4.569
 7203TIP3    H121542   0.381   4.235   4.607
 7203TIP3    H221543   0.486   4.286   4.513
 7204TIP3   OH221544   0.647   3.276   4.986
 7204TIP3    H121545   0.713   3.346   4.966
 7204TIP3    H221546   0.659   3.265   5.082
 7205TIP3   OH221547   0.927   3.589   5.791
 7205TIP3    H121548   0.952   3.641   5.869
 7205TIP3    H221549   0.981   3.509   5.802
 7206TIP3   OH221550   0.798   2.990   5.082
 7206TIP3    H121551   0.802   3.062   5.148
 7206TIP3    H221552   0.860   3.026   5.014
 7207TIP3   OH221553   0.213   4.284   4.642
 7207TIP3    H121554   0.185   4.353   4.576
 7207TIP3    H221555   0.196   4.330   4.726
 7208TIP3   OH221556   0.313   3.000   4.877
 7208TIP3    H121557   0.313   3.092   4.911
 7208TIP3    H221558   0.409   2.981   4.884
 7209TIP3   OH221559   1.562   3.491   5.780
 7209TIP3    H121560   1.464   3.485   5.779
 7209TIP3    H221561   1.584   3.460   5.691
 7210TIP3   OH221562   1.216   3.687   5.162
 7210TIP3    H121563   1.142   3.624   5.174
 7210TIP3    H221564   1.289   3.641   5.209
 7211TIP3   OH221565  -0.064   3.913   4.665
 7211TIP3    H121566   0.014   3.973   4.659
 7211TIP3    H221567  -0.049   3.863   4.582
 7212TIP3   OH221568  -0.149   3.191   4.770
 7212TIP3    H121569  -0.139   3.287   4.766
 7212TIP3    H221570  -0.175   3.171   4.677
 7213TIP3   OH221571   1.186   4.644   5.108
 7213TIP3    H121572   1.143   4.692   5.033
 7213TIP3    H221573   1.280   4.663   5.088
 7214TIP3   OH221574   0.263   2.909   5.636
 7214TIP3    H121575   0.232   2.872   5.551
 7214TIP3    H221576   0.254   2.832   5.696
 7215TIP3   OH221577   0.425   4.632   6.137
 7215TIP3    H121578   0.521   4.637   6.144
 7215TIP3    H221579   0.414   4.568   6.065
 7216TIP3   OH221580   0.419   4.210   4.257
 7216TIP3    H121581   0.364   4.137   4.296
 7216TIP3    H221582   0.496   4.159   4.225
 7217TIP3   OH221583   1.077   4.541   5.867
 7217TIP3    H121584   1.070   4.472   5.937
 7217TIP3    H221585   1.155   4.592   5.897
 7218TIP3   OH221586   0.855   4.247   4.173
 7218TIP3    H121587   0.898   4.184   4.234
 7218TIP3    H221588   0.913   4.243   4.095
 7219TIP3   OH221589   0.065   3.726   4.493
 7219TIP3    H121590   0.128   3.704   4.563
 7219TIP3    H221591   0.126   3.731   4.416
 7220TIP3   OH221592   0.692   4.163   6.065
 7220TIP3    H121593   0.658   4.182   5.975
 7220TIP3    H221594   0.726   4.071   6.055
 7221TIP3   OH221595   0.577   3.925   4.291
 7221TIP3    H121596   0.582   3.938   4.388
 7221TIP3    H221597   0.580   3.827   4.285
 7222TIP3   OH221598   1.186   4.177   5.670
 7222TIP3    H121599   1.265   4.215   5.627
 7222TIP3    H221600   1.120   4.247   5.652
 7223TIP3   OH221601   0.208   3.799   6.290
 7223TIP3    H121602   0.279   3.765   6.234
 7223TIP3    H221603   0.258   3.847   6.360
 7224TIP3   OH221604   0.267   3.633   4.700
 7224TIP3    H121605   0.254   3.591   4.787
 7224TIP3    H221606   0.308   3.561   4.648
 7225TIP3   OH221607   0.541   3.697   5.934
 7225TIP3    H121608   0.464   3.757   5.932
 7225TIP3    H221609   0.594   3.731   5.857
 7226TIP3   OH221610   0.376   3.428   4.546
 7226TIP3    H121611   0.353   3.435   4.451
 7226TIP3    H221612   0.474   3.428   4.540
 7227TIP3   OH221613   1.060   4.098   6.065
 7227TIP3    H121614   1.140   4.070   6.019
 7227TIP3    H221615   1.055   4.033   6.138
 7228TIP3   OH221616   1.190   3.754   4.213
 7228TIP3    H121617   1.174   3.711   4.127
 7228TIP3    H221618   1.157   3.845   4.191
 7229TIP3   OH221619   0.669   3.490   6.058
 7229TIP3    H121620   0.668   3.409   6.003
 7229TIP3    H221621   0.623   3.554   6.000
 7230TIP3   OH221622   0.669   3.271   5.868
 7230TIP3    H121623   0.698   3.315   5.786
 7230TIP3    H221624   0.575   3.250   5.848
 7231TIP3   OH221625   0.692   3.805   5.739
 7231TIP3    H121626   0.779   3.818   5.700
 7231TIP3    H221627   0.637   3.871   5.692
 7232TIP3   OH221628   1.275   3.772   6.117
 7232TIP3    H121629   1.324   3.689   6.131
 7232TIP3    H221630   1.344   3.830   6.081
 7233TIP3   OH221631   1.317   4.027   5.854
 7233TIP3    H121632   1.260   4.083   5.796
 7233TIP3    H221633   1.405   4.049   5.816
 7234TIP3   OH221634   0.544   3.608   6.289
 7234TIP3    H121635   0.487   3.528   6.299
 7234TIP3    H221636   0.580   3.593   6.200
 7235TIP3   OH221637   0.801   3.032   5.935
 7235TIP3    H121638   0.751   3.114   5.913
 7235TIP3    H221639   0.732   2.963   5.926
 7236TIP3   OH221640   0.928   3.537   6.152
 7236TIP3    H121641   0.915   3.521   6.247
 7236TIP3    H221642   0.839   3.514   6.119
 7237TIP3   OH221643   1.164   3.488   6.004
 7237TIP3    H121644   1.091   3.489   6.070
 7237TIP3    H221645   1.240   3.458   6.059
 7238TIP3   OH221646   1.390   3.428   6.154
 7238TIP3    H121647   1.406   3.333   6.170
 7238TIP3    H221648   1.389   3.465   6.245
 7239TIP3   OH221649   0.412   3.375   6.340
 7239TIP3    H121650   0.401   3.284   6.309
 7239TIP3    H221651   0.440   3.359   6.432
 7240TIP3   OH221652   0.893   3.044   6.194
 7240TIP3    H121653   0.961   2.973   6.189
 7240TIP3    H221654   0.855   3.038   6.104
 7241TIP3   OH221655   0.962   3.258   6.351
 7241TIP3    H121656   0.941   3.187   6.288
 7241TIP3    H221657   0.883   3.316   6.345
 7242TIP3   OH221658   0.185   4.477   4.449
 7242TIP3    H121659   0.280   4.478   4.428
 7242TIP3    H221660   0.153   4.537   4.380
 7243TIP3   OH221661   1.439   4.736   5.069
 7243TIP3    H121662   1.468   4.763   5.158
 7243TIP3    H221663   1.509   4.772   5.013
 7244TIP3   OH221664   1.469   4.752   5.351
 7244TIP3    H121665   1.424   4.664   5.347
 7244TIP3    H221666   1.544   4.728   5.408
 7245TIP3   OH221667   1.514   4.429   5.924
 7245TIP3    H121668   1.443   4.440   5.990
 7245TIP3    H221669   1.558   4.516   5.927
 7246TIP3   OH221670   1.331   3.942   4.542
 7246TIP3    H121671   1.397   4.007   4.511
 7246TIP3    H221672   1.376   3.906   4.621
 7247TIP3   OH221673   1.459   3.814   4.748
 7247TIP3    H121674   1.396   3.772   4.810
 7247TIP3    H221675   1.530   3.845   4.807
 7248TIP3   OH221676   1.514   4.201   5.174
 7248TIP3    H121677   1.570   4.133   5.130
 7248TIP3    H221678   1.513   4.272   5.108
 7249TIP3   OH221679   1.343   4.503   5.371
 7249TIP3    H121680   1.271   4.543   5.423
 7249TIP3    H221681   1.294   4.456   5.300
 7250TIP3   OH221682   1.395   3.717   4.393
 7250TIP3    H121683   1.324   3.720   4.325
 7250TIP3    H221684   1.368   3.793   4.448
 7251TIP3   OH221685   1.262   3.392   4.346
 7251TIP3    H121686   1.224   3.425   4.264
 7251TIP3    H221687   1.241   3.296   4.339
 7252TIP3   OH221688   1.270   3.669   4.892
 7252TIP3    H121689   1.283   3.574   4.884
 7252TIP3    H221690   1.257   3.681   4.989
 7253TIP3   OH221691   1.563   4.093   5.749
 7253TIP3    H121692   1.634   4.025   5.741
 7253TIP3    H221693   1.591   4.159   5.684
 7254TIP3   OH221694   1.744   3.893   5.766
 7254TIP3    H121695   1.670   3.841   5.805
 7254TIP3    H221696   1.817   3.829   5.780
 7255TIP3   OH221697   1.211   3.125   4.330
 7255TIP3    H121698   1.289   3.095   4.381
 7255TIP3    H221699   1.142   3.061   4.353
 7256TIP3   OH221700   1.269   3.384   4.783
 7256TIP3    H121701   1.310   3.295   4.798
 7256TIP3    H221702   1.327   3.417   4.712
 7257TIP3   OH221703   1.427   3.555   5.281
 7257TIP3    H121704   1.513   3.579   5.239
 7257TIP3    H221705   1.445   3.592   5.370
 7258TIP3   OH221706   1.501   3.700   5.513
 7258TIP3    H121707   1.424   3.736   5.560
 7258TIP3    H221708   1.535   3.780   5.466
 7259TIP3   OH221709   0.133   3.347   6.428
 7259TIP3    H121710   0.193   3.387   6.363
 7259TIP3    H221711   0.047   3.381   6.397
 7260TIP3   OH221712   1.949   3.293   6.068
 7260TIP3    H121713   2.012   3.229   6.027
 7260TIP3    H221714   1.920   3.345   5.991
 7261TIP3   OH221715   1.376   3.136   4.826
 7261TIP3    H121716   1.428   3.119   4.907
 7261TIP3    H221717   1.318   3.056   4.825
 7262TIP3   OH221718   0.089   3.120   5.648
 7262TIP3    H121719   0.153   3.045   5.657
 7262TIP3    H221720   0.152   3.194   5.632
 7263TIP3   OH221721   1.819   3.428   5.872
 7263TIP3    H121722   1.733   3.472   5.890
 7263TIP3    H221723   1.788   3.355   5.815
 7264TIP3   OH221724   1.454   3.066   4.456
 7264TIP3    H121725   1.499   2.997   4.404
 7264TIP3    H221726   1.522   3.136   4.460
 7265TIP3   OH221727  -0.111   2.913   5.234
 7265TIP3    H121728  -0.206   2.906   5.253
 7265TIP3    H221729  -0.111   2.974   5.158
 7266TIP3   OH221730   1.023   4.600   4.724
 7266TIP3    H121731   1.075   4.590   4.641
 7266TIP3    H221732   1.076   4.665   4.773
 7267TIP3   OH221733   0.077   2.980   6.044
 7267TIP3    H121734   0.044   2.976   6.136
 7267TIP3    H221735   0.013   3.040   6.003
 7268TIP3   OH221736   0.302   4.471   5.649
 7268TIP3    H121737   0.286   4.552   5.596
 7268TIP3    H221738   0.393   4.451   5.619
 7269TIP3   OH221739   0.745   4.679   5.792
 7269TIP3    H121740   0.786   4.679   5.881
 7269TIP3    H221741   0.811   4.732   5.742
 7270TIP3   OH221742   0.925   4.835   5.655
 7270TIP3    H121743   0.997   4.784   5.614
 7270TIP3    H221744   0.976   4.891   5.717
 7271TIP3   OH221745   1.720   3.193   5.754
 7271TIP3    H121746   1.631   3.184   5.717
 7271TIP3    H221747   1.754   3.101   5.744
 7272TIP3   OH221748   0.217   4.701   5.513
 7272TIP3    H121749   0.191   4.794   5.537
 7272TIP3    H221750   0.164   4.686   5.435
 7273TIP3   OH221751   0.642   4.699   5.341
 7273TIP3    H121752   0.594   4.721   5.260
 7273TIP3    H221753   0.656   4.787   5.382
 7274TIP3   OH221754   0.911   4.636   5.390
 7274TIP3    H121755   0.818   4.656   5.370
 7274TIP3    H221756   0.957   4.710   5.346
 7275TIP3   OH221757   1.112   4.828   5.301
 7275TIP3    H121758   1.100   4.912   5.253
 7275TIP3    H221759   1.142   4.768   5.229
 7276TIP3   OH221760   0.089   4.358   5.274
 7276TIP3    H121761   0.096   4.269   5.317
 7276TIP3    H221762   0.181   4.389   5.278
 7277TIP3   OH221763   0.363   4.457   5.291
 7277TIP3    H121764   0.389   4.365   5.273
 7277TIP3    H221765   0.417   4.472   5.372
 7278TIP3   OH221766   0.918   3.105   5.362
 7278TIP3    H121767   0.883   3.034   5.418
 7278TIP3    H221768   1.000   3.065   5.326
 7279TIP3   OH221769   1.444   2.986   5.275
 7279TIP3    H121770   1.484   3.038   5.202
 7279TIP3    H221771   1.351   3.014   5.271
 7280TIP3   OH221772   1.542   3.086   5.040
 7280TIP3    H121773   1.615   3.032   5.002
 7280TIP3    H221774   1.580   3.176   5.026
 7281TIP3   OH221775   0.170   2.809   5.393
 7281TIP3    H121776   0.073   2.796   5.394
 7281TIP3    H221777   0.197   2.718   5.373
 7282TIP3   OH221778  -0.008   2.677   5.052
 7282TIP3    H121779   0.007   2.733   4.974
 7282TIP3    H221780  -0.065   2.733   5.107
 7283TIP3   OH221781   0.622   2.848   5.277
 7283TIP3    H121782   0.671   2.894   5.207
 7283TIP3    H221783   0.661   2.889   5.357
 7284TIP3   OH221784   1.154   2.996   5.254
 7284TIP3    H121785   1.171   2.957   5.168
 7284TIP3    H221786   1.145   2.916   5.311
 7285TIP3   OH221787   1.194   2.921   4.816
 7285TIP3    H121788   1.108   2.964   4.832
 7285TIP3    H221789   1.180   2.835   4.861
 7286TIP3   OH221790   0.084   2.847   4.800
 7286TIP3    H121791   0.129   2.782   4.743
 7286TIP3    H221792   0.159   2.899   4.834
 7287TIP3   OH221793   0.589   3.024   4.900
 7287TIP3    H121794   0.655   2.979   4.957
 7287TIP3    H221795   0.609   3.117   4.924
 7288TIP3   OH221796   0.454   4.443   4.399
 7288TIP3    H121797   0.542   4.466   4.362
 7288TIP3    H221798   0.430   4.369   4.338
 7289TIP3   OH221799   1.170   4.567   4.492
 7289TIP3    H121800   1.162   4.469   4.482
 7289TIP3    H221801   1.123   4.597   4.412
 7290TIP3   OH221802   0.381   3.102   6.269
 7290TIP3    H121803   0.343   3.030   6.325
 7290TIP3    H221804   0.473   3.099   6.303
 7291TIP3   OH221805   0.628   3.096   6.399
 7291TIP3    H121806   0.715   3.073   6.363
 7291TIP3    H221807   0.615   3.025   6.465
 7292TIP3   OH221808   1.459   3.158   6.185
 7292TIP3    H121809   1.476   3.127   6.277
 7292TIP3    H221810   1.548   3.153   6.146
 7293TIP3   OH221811   1.392   4.709   5.678
 7293TIP3    H121812   1.314   4.680   5.628
 7293TIP3    H221813   1.374   4.805   5.685
 7294TIP3   OH221814   1.968   3.980   5.183
 7294TIP3    H121815   1.985   3.910   5.249
 7294TIP3    H221816   2.047   4.034   5.195
 7295TIP3   OH221817   1.927   4.377   4.911
 7295TIP3    H121818   1.927   4.279   4.907
 7295TIP3    H221819   2.023   4.394   4.913
 7296TIP3   OH221820   1.634   3.591   4.686
 7296TIP3    H121821   1.590   3.674   4.708
 7296TIP3    H221822   1.560   3.540   4.647
 7297TIP3   OH221823   1.699   3.875   4.874
 7297TIP3    H121824   1.745   3.794   4.908
 7297TIP3    H221825   1.769   3.912   4.818
 7298TIP3   OH221826   2.553   4.852   4.524
 7298TIP3    H121827   2.602   4.778   4.482
 7298TIP3    H221828   2.539   4.819   4.614
 7299TIP3   OH221829   3.473   3.621   4.874
 7299TIP3    H121830   3.506   3.707   4.907
 7299TIP3    H221831   3.491   3.628   4.779
 7300TIP3   OH221832   2.874   3.819   4.904
 7300TIP3    H121833   2.900   3.726   4.895
 7300TIP3    H221834   2.836   3.843   4.818
 7301TIP3   OH221835   2.152   3.470   4.876
 7301TIP3    H121836   2.147   3.552   4.824
 7301TIP3    H221837   2.119   3.404   4.811
 7302TIP3   OH221838   2.909   3.532   4.481
 7302TIP3    H121839   2.953   3.538   4.567
 7302TIP3    H221840   2.957   3.598   4.428
 7303TIP3   OH221841   1.839   3.669   4.983
 7303TIP3    H121842   1.927   3.666   5.024
 7303TIP3    H221843   1.853   3.605   4.909
 7304TIP3   OH221844   3.550   3.836   5.039
 7304TIP3    H121845   3.461   3.875   5.023
 7304TIP3    H221846   3.559   3.854   5.133
 7305TIP3   OH221847   2.209   3.455   5.306
 7305TIP3    H121848   2.153   3.498   5.238
 7305TIP3    H221849   2.154   3.471   5.385
 7306TIP3   OH221850   2.586   4.330   4.289
 7306TIP3    H121851   2.527   4.254   4.284
 7306TIP3    H221852   2.522   4.401   4.312
 7307TIP3   OH221853   2.311   4.236   5.146
 7307TIP3    H121854   2.235   4.293   5.169
 7307TIP3    H221855   2.351   4.287   5.076
 7308TIP3   OH221856   2.076   3.583   5.103
 7308TIP3    H121857   2.130   3.663   5.092
 7308TIP3    H221858   2.105   3.532   5.023
 7309TIP3   OH221859   2.131   4.432   5.199
 7309TIP3    H121860   2.111   4.522   5.166
 7309TIP3    H221861   2.051   4.416   5.255
 7310TIP3   OH221862   1.527   4.116   4.434
 7310TIP3    H121863   1.492   4.146   4.348
 7310TIP3    H221864   1.565   4.199   4.470
 7311TIP3   OH221865   3.003   4.638   4.703
 7311TIP3    H121866   2.922   4.594   4.734
 7311TIP3    H221867   2.969   4.723   4.670
 7312TIP3   OH221868   3.264   3.525   5.038
 7312TIP3    H121869   3.177   3.548   5.001
 7312TIP3    H221870   3.325   3.558   4.968
 7313TIP3   OH221871   2.563   3.168   5.026
 7313TIP3    H121872   2.542   3.074   5.038
 7313TIP3    H221873   2.485   3.209   5.068
 7314TIP3   OH221874   2.684   4.676   4.354
 7314TIP3    H121875   2.730   4.595   4.325
 7314TIP3    H221876   2.741   4.743   4.310
 7315TIP3   OH221877   2.818   4.458   4.251
 7315TIP3    H121878   2.733   4.410   4.237
 7315TIP3    H221879   2.851   4.413   4.328
 7316TIP3   OH221880   3.199   4.567   4.966
 7316TIP3    H121881   3.179   4.473   4.970
 7316TIP3    H221882   3.109   4.602   4.949
 7317TIP3   OH221883   2.504   3.943   4.262
 7317TIP3    H121884   2.417   3.987   4.263
 7317TIP3    H221885   2.521   3.933   4.168
 7318TIP3   OH221886   2.448   3.721   3.984
 7318TIP3    H121887   2.512   3.761   4.045
 7318TIP3    H221888   2.507   3.659   3.936
 7319TIP3   OH221889   3.352   4.199   4.902
 7319TIP3    H121890   3.260   4.221   4.884
 7319TIP3    H221891   3.373   4.142   4.827
 7320TIP3   OH221892   3.086   4.061   5.164
 7320TIP3    H121893   3.067   4.144   5.211
 7320TIP3    H221894   2.996   4.046   5.125
 7321TIP3   OH221895   2.195   4.441   4.811
 7321TIP3    H121896   2.181   4.381   4.737
 7321TIP3    H221897   2.286   4.421   4.838
 7322TIP3   OH221898   2.348   4.539   5.348
 7322TIP3    H121899   2.284   4.602   5.388
 7322TIP3    H221900   2.287   4.486   5.293
 7323TIP3   OH221901   2.693   3.867   4.063
 7323TIP3    H121902   2.731   3.945   4.104
 7323TIP3    H221903   2.711   3.886   3.968
 7324TIP3   OH221904   2.102   4.102   5.446
 7324TIP3    H121905   2.103   4.189   5.489
 7324TIP3    H221906   2.009   4.076   5.460
 7325TIP3   OH221907   2.429   4.550   4.344
 7325TIP3    H121908   2.497   4.614   4.369
 7325TIP3    H221909   2.360   4.605   4.305
 7326TIP3   OH221910   2.138   4.710   5.430
 7326TIP3    H121911   2.104   4.713   5.338
 7326TIP3    H221912   2.057   4.689   5.481
 7327TIP3   OH221913   3.195   3.113   4.122
 7327TIP3    H121914   3.114   3.137   4.171
 7327TIP3    H221915   3.211   3.197   4.072
 7328TIP3   OH221916   1.946   3.836   4.414
 7328TIP3    H121917   1.859   3.875   4.394
 7328TIP3    H221918   1.932   3.789   4.497
 7329TIP3   OH221919   2.998   4.480   3.673
 7329TIP3    H121920   3.007   4.576   3.655
 7329TIP3    H221921   3.091   4.449   3.660
 7330TIP3   OH221922   1.717   4.243   5.375
 7330TIP3    H121923   1.653   4.217   5.306
 7330TIP3    H221924   1.756   4.158   5.404
 7331TIP3   OH221925   1.575   4.433   5.006
 7331TIP3    H121926   1.670   4.421   4.995
 7331TIP3    H221927   1.572   4.509   5.066
 7332TIP3   OH221928   3.416   4.859   5.049
 7332TIP3    H121929   3.429   4.772   5.096
 7332TIP3    H221930   3.347   4.899   5.107
 7333TIP3   OH221931   2.511   4.701   5.182
 7333TIP3    H121932   2.516   4.779   5.239
 7333TIP3    H221933   2.481   4.631   5.242
 7334TIP3   OH221934   2.308   4.802   4.148
 7334TIP3    H121935   2.257   4.779   4.069
 7334TIP3    H221936   2.268   4.886   4.177
 7335TIP3   OH221937   1.744   4.647   4.539
 7335TIP3    H121938   1.791   4.638   4.625
 7335TIP3    H221939   1.696   4.562   4.536
 7336TIP3   OH221940   2.505   4.703   3.789
 7336TIP3    H121941   2.564   4.632   3.753
 7336TIP3    H221942   2.540   4.711   3.880
 7337TIP3   OH221943   2.558   4.749   4.059
 7337TIP3    H121944   2.468   4.761   4.097
 7337TIP3    H221945   2.601   4.700   4.130
 7338TIP3   OH221946   3.323   4.017   5.337
 7338TIP3    H121947   3.240   4.027   5.286
 7338TIP3    H221948   3.339   3.921   5.326
 7339TIP3   OH221949   1.917   4.429   5.366
 7339TIP3    H121950   1.970   4.408   5.445
 7339TIP3    H221951   1.846   4.363   5.372
 7340TIP3   OH221952   2.323   3.244   5.151
 7340TIP3    H121953   2.234   3.217   5.120
 7340TIP3    H221954   2.299   3.329   5.194
 7341TIP3   OH221955   2.859   3.358   5.346
 7341TIP3    H121956   2.927   3.331   5.410
 7341TIP3    H221957   2.775   3.342   5.393
 7342TIP3   OH221958   3.098   3.794   5.268
 7342TIP3    H121959   3.043   3.789   5.349
 7342TIP3    H221960   3.063   3.874   5.224
 7343TIP3   OH221961   2.758   3.928   3.814
 7343TIP3    H121962   2.720   3.899   3.729
 7343TIP3    H221963   2.845   3.963   3.786
 7344TIP3   OH221964   2.466   3.295   4.120
 7344TIP3    H121965   2.435   3.291   4.213
 7344TIP3    H221966   2.427   3.212   4.086
 7345TIP3   OH221967   2.614   3.719   4.389
 7345TIP3    H121968   2.577   3.806   4.363
 7345TIP3    H221969   2.678   3.700   4.319
 7346TIP3   OH221970   2.810   4.015   5.504
 7346TIP3    H121971   2.784   3.941   5.563
 7346TIP3    H221972   2.905   4.021   5.523
 7347TIP3   OH221973   2.045   3.802   5.389
 7347TIP3    H121974   2.124   3.849   5.419
 7347TIP3    H221975   2.057   3.714   5.428
 7348TIP3   OH221976   2.121   3.269   4.084
 7348TIP3    H121977   2.116   3.267   4.182
 7348TIP3    H221978   2.045   3.327   4.064
 7349TIP3   OH221979   1.675   3.306   4.961
 7349TIP3    H121980   1.741   3.350   5.018
 7349TIP3    H221981   1.721   3.306   4.875
 7350TIP3   OH221982   1.630   3.291   4.475
 7350TIP3    H121983   1.680   3.325   4.398
 7350TIP3    H221984   1.575   3.369   4.494
 7351TIP3   OH221985   2.834   3.997   5.100
 7351TIP3    H121986   2.843   3.939   5.021
 7351TIP3    H221987   2.778   3.942   5.158
 7352TIP3   OH221988   1.870   3.490   4.782
 7352TIP3    H121989   1.796   3.523   4.726
 7352TIP3    H221990   1.925   3.440   4.719
 7353TIP3   OH221991   2.168   3.495   4.426
 7353TIP3    H121992   2.251   3.544   4.432
 7353TIP3    H221993   2.114   3.547   4.363
 7354TIP3   OH221994   2.952   3.550   4.939
 7354TIP3    H121995   2.921   3.567   5.031
 7354TIP3    H221996   2.885   3.488   4.908
 7355TIP3   OH221997   2.001   3.561   4.211
 7355TIP3    H121998   1.936   3.515   4.155
 7355TIP3    H221999   2.061   3.598   4.143
 7356TIP3   OH222000   3.133   5.237   5.172
 7356TIP3    H122001   3.129   5.262   5.079
 7356TIP3    H222002   3.214   5.283   5.203
 7357TIP3   OH222003   2.082   4.349   5.584
 7357TIP3    H122004   2.165   4.376   5.629
 7357TIP3    H222005   2.021   4.345   5.659
 7358TIP3   OH222006   2.060   3.282   4.700
 7358TIP3    H122007   2.032   3.206   4.754
 7358TIP3    H222008   2.114   3.241   4.631
 7359TIP3   OH222009   2.263   4.084   4.220
 7359TIP3    H122010   2.193   4.016   4.206
 7359TIP3    H222011   2.239   4.117   4.310
 7360TIP3   OH222012   2.716   3.396   4.083
 7360TIP3    H122013   2.620   3.377   4.098
 7360TIP3    H222014   2.726   3.488   4.116
 7361TIP3   OH222015   2.792   3.641   4.187
 7361TIP3    H122016   2.888   3.645   4.205
 7361TIP3    H222017   2.777   3.720   4.132
 7362TIP3   OH222018   1.985   4.093   4.895
 7362TIP3    H122019   2.067   4.053   4.857
 7362TIP3    H222020   1.981   4.041   4.977
 7363TIP3   OH222021   2.401   4.231   4.035
 7363TIP3    H122022   2.360   4.319   4.050
 7363TIP3    H222023   2.353   4.177   4.102
 7364TIP3   OH222024   1.832   4.038   5.518
 7364TIP3    H122025   1.859   4.020   5.611
 7364TIP3    H222026   1.777   3.961   5.498
 7365TIP3   OH222027   2.565   4.142   5.535
 7365TIP3    H122028   2.507   4.097   5.471
 7365TIP3    H222029   2.652   4.108   5.506
 7366TIP3   OH222030   2.843   4.692   5.090
 7366TIP3    H122031   2.761   4.643   5.067
 7366TIP3    H222032   2.825   4.720   5.182
 7367TIP3   OH222033   3.224   3.748   4.026
 7367TIP3    H122034   3.164   3.697   3.967
 7367TIP3    H222035   3.221   3.833   3.977
 7368TIP3   OH222036   3.445   4.591   5.104
 7368TIP3    H122037   3.349   4.589   5.088
 7368TIP3    H222038   3.478   4.561   5.016
 7369TIP3   OH222039   2.936   4.555   3.938
 7369TIP3    H122040   2.900   4.485   3.995
 7369TIP3    H222041   2.946   4.510   3.852
 7370TIP3   OH222042   2.052   4.413   4.527
 7370TIP3    H122043   2.048   4.493   4.471
 7370TIP3    H222044   1.959   4.391   4.539
 7371TIP3   OH222045   1.617   3.715   4.228
 7371TIP3    H122046   1.665   3.797   4.252
 7371TIP3    H222047   1.544   3.718   4.293
 7372TIP3   OH222048   2.193   4.175   4.461
 7372TIP3    H122049   2.148   4.253   4.499
 7372TIP3    H222050   2.226   4.127   4.539
 7373TIP3   OH222051   2.325   4.749   4.988
 7373TIP3    H122052   2.378   4.817   4.943
 7373TIP3    H222053   2.395   4.708   5.043
 7374TIP3   OH222054   1.970   4.655   4.374
 7374TIP3    H122055   1.887   4.661   4.424
 7374TIP3    H222056   2.001   4.748   4.378
 7375TIP3   OH222057   2.684   4.292   3.832
 7375TIP3    H122058   2.741   4.261   3.906
 7375TIP3    H222059   2.598   4.257   3.860
 7376TIP3   OH222060   2.961   4.929   5.018
 7376TIP3    H122061   2.914   4.843   5.029
 7376TIP3    H222062   2.924   4.959   4.933
 7377TIP3   OH222063   3.027   4.756   3.655
 7377TIP3    H122064   3.065   4.829   3.603
 7377TIP3    H222065   2.947   4.800   3.688
 7378TIP3   OH222066   2.048   3.530   5.522
 7378TIP3    H122067   1.952   3.535   5.532
 7378TIP3    H222068   2.074   3.473   5.596
 7379TIP3   OH222069   2.855   4.213   4.032
 7379TIP3    H122070   2.833   4.192   4.123
 7379TIP3    H222071   2.953   4.208   4.032
 7380TIP3   OH222072   1.762   4.616   5.152
 7380TIP3    H122073   1.816   4.542   5.185
 7380TIP3    H222074   1.792   4.687   5.210
 7381TIP3   OH222075   2.050   4.264   3.837
 7381TIP3    H122076   2.065   4.171   3.811
 7381TIP3    H222077   2.031   4.254   3.933
 7382TIP3   OH222078   1.995   4.269   4.109
 7382TIP3    H122079   2.066   4.234   4.164
 7382TIP3    H222080   2.004   4.366   4.121
 7383TIP3   OH222081   1.718   3.959   4.311
 7383TIP3    H122082   1.655   4.007   4.368
 7383TIP3    H222083   1.741   4.029   4.247
 7384TIP3   OH222084   2.888   3.593   5.204
 7384TIP3    H122085   2.966   3.634   5.243
 7384TIP3    H222086   2.875   3.513   5.259
 7385TIP3   OH222087   2.764   3.333   4.367
 7385TIP3    H122088   2.750   3.363   4.276
 7385TIP3    H222089   2.809   3.411   4.407
 7386TIP3   OH222090   2.268   4.468   4.058
 7386TIP3    H122091   2.180   4.489   4.095
 7386TIP3    H222092   2.277   4.539   3.993
 7387TIP3   OH222093   2.450   3.527   4.479
 7387TIP3    H122094   2.513   3.593   4.440
 7387TIP3    H222095   2.453   3.556   4.571
 7388TIP3   OH222096   2.721   3.849   5.293
 7388TIP3    H122097   2.755   3.902   5.367
 7388TIP3    H222098   2.769   3.765   5.301
 7389TIP3   OH222099   2.602   3.250   4.577
 7389TIP3    H122100   2.634   3.310   4.647
 7389TIP3    H222101   2.652   3.285   4.500
 7390TIP3   OH222102   2.014   4.543   4.126
 7390TIP3    H122103   1.980   4.613   4.065
 7390TIP3    H222104   1.994   4.583   4.214
 7391TIP3   OH222105   2.111   3.241   4.358
 7391TIP3    H122106   2.113   3.335   4.389
 7391TIP3    H222107   2.207   3.222   4.368
 7392TIP3   OH222108   3.363   3.746   5.257
 7392TIP3    H122109   3.265   3.751   5.270
 7392TIP3    H222110   3.365   3.698   5.172
 7393TIP3   OH222111   1.728   4.169   4.113
 7393TIP3    H122112   1.803   4.231   4.124
 7393TIP3    H222113   1.770   4.107   4.049
 7394TIP3   OH222114   1.666   3.444   4.250
 7394TIP3    H122115   1.677   3.541   4.249
 7394TIP3    H222116   1.582   3.434   4.203
 7395TIP3   OH222117   2.997   4.905   4.586
 7395TIP3    H122118   2.938   4.958   4.527
 7395TIP3    H222119   3.070   4.888   4.526
 7396TIP3   OH222120   2.055   3.169   5.123
 7396TIP3    H122121   2.028   3.137   5.034
 7396TIP3    H222122   2.044   3.089   5.177
 7397TIP3   OH222123   1.596   4.388   4.500
 7397TIP3    H122124   1.531   4.416   4.566
 7397TIP3    H222125   1.560   4.430   4.418
 7398TIP3   OH222126   1.757   4.932   5.574
 7398TIP3    H122127   1.843   4.933   5.621
 7398TIP3    H222128   1.737   4.837   5.574
 7399TIP3   OH222129   2.234   4.889   5.619
 7399TIP3    H122130   2.328   4.866   5.625
 7399TIP3    H222131   2.205   4.829   5.547
 7400TIP3   OH222132   2.215   4.464   3.747
 7400TIP3    H122133   2.157   4.393   3.785
 7400TIP3    H222134   2.291   4.410   3.720
 7401TIP3   OH222135   2.864   4.803   5.358
 7401TIP3    H122136   2.859   4.730   5.424
 7401TIP3    H222137   2.946   4.849   5.386
 7402TIP3   OH222138   2.652   4.508   3.662
 7402TIP3    H122139   2.685   4.438   3.723
 7402TIP3    H222140   2.711   4.499   3.585
 7403TIP3   OH222141   1.883   4.334   5.777
 7403TIP3    H122142   1.900   4.238   5.783
 7403TIP3    H222143   1.797   4.336   5.730
 7404TIP3   OH222144   1.864   3.980   3.974
 7404TIP3    H122145   1.920   3.948   4.048
 7404TIP3    H222146   1.932   3.986   3.903
 7405TIP3   OH222147   2.490   4.421   5.554
 7405TIP3    H122148   2.457   4.444   5.464
 7405TIP3    H222149   2.524   4.330   5.540
 7406TIP3   OH222150   2.374   4.183   3.771
 7406TIP3    H122151   2.375   4.195   3.869
 7406TIP3    H222152   2.378   4.085   3.767
 7407TIP3   OH222153   2.980   4.413   5.146
 7407TIP3    H122154   2.967   4.507   5.132
 7407TIP3    H222155   2.898   4.376   5.104
 7408TIP3   OH222156   2.003   4.072   5.758
 7408TIP3    H122157   2.081   4.026   5.725
 7408TIP3    H222158   2.034   4.102   5.846
 7409TIP3   OH222159   2.066   3.896   4.180
 7409TIP3    H122160   2.031   3.871   4.269
 7409TIP3    H222161   2.100   3.811   4.148
 7410TIP3   OH222162   2.324   3.941   5.416
 7410TIP3    H122163   2.257   4.011   5.416
 7410TIP3    H222164   2.388   3.976   5.349
 7411TIP3   OH222165   2.170   3.680   4.031
 7411TIP3    H122166   2.146   3.691   3.936
 7411TIP3    H222167   2.268   3.682   4.025
 7412TIP3   OH222168   2.869   4.360   5.566
 7412TIP3    H122169   2.919   4.316   5.496
 7412TIP3    H222170   2.852   4.288   5.628
 7413TIP3   OH222171   2.991   4.013   3.697
 7413TIP3    H122172   2.973   3.967   3.613
 7413TIP3    H222173   2.954   4.102   3.674
 7414TIP3   OH222174   2.464   3.744   5.543
 7414TIP3    H122175   2.468   3.667   5.482
 7414TIP3    H222176   2.420   3.811   5.486
 7415TIP3   OH222177   2.465   3.536   5.345
 7415TIP3    H122178   2.482   3.589   5.265
 7415TIP3    H222179   2.372   3.509   5.331
 7416TIP3   OH222180   2.493   4.065   5.249
 7416TIP3    H122181   2.574   4.076   5.197
 7416TIP3    H222182   2.429   4.122   5.200
 7417TIP3   OH222183   3.073   4.027   5.607
 7417TIP3    H122184   3.122   3.944   5.613
 7417TIP3    H222185   3.138   4.086   5.565
 7418TIP3   OH222186   3.116   4.292   5.353
 7418TIP3    H122187   3.058   4.340   5.290
 7418TIP3    H222188   3.202   4.303   5.309
 7419TIP3   OH222189   2.342   3.848   5.781
 7419TIP3    H122190   2.274   3.779   5.793
 7419TIP3    H222191   2.373   3.828   5.690
 7420TIP3   OH222192   2.594   3.294   5.423
 7420TIP3    H122193   2.547   3.375   5.394
 7420TIP3    H222194   2.526   3.225   5.410
 7421TIP3   OH222195   2.723   3.791   5.637
 7421TIP3    H122196   2.703   3.776   5.731
 7421TIP3    H222197   2.635   3.771   5.598
 7422TIP3   OH222198   2.961   3.746   5.495
 7422TIP3    H122199   2.885   3.747   5.556
 7422TIP3    H222200   3.035   3.715   5.551
 7423TIP3   OH222201   3.196   3.687   5.642
 7423TIP3    H122202   3.206   3.591   5.658
 7423TIP3    H222203   3.190   3.723   5.734
 7424TIP3   OH222204   2.176   3.630   5.833
 7424TIP3    H122205   2.183   3.539   5.797
 7424TIP3    H222206   2.215   3.617   5.922
 7425TIP3   OH222207   2.688   3.299   5.682
 7425TIP3    H122208   2.754   3.227   5.673
 7425TIP3    H222209   2.648   3.297   5.592
 7426TIP3   OH222210   2.757   3.514   5.840
 7426TIP3    H122211   2.736   3.444   5.775
 7426TIP3    H222212   2.679   3.573   5.832
 7427TIP3   OH222213   1.981   4.751   3.940
 7427TIP3    H122214   2.075   4.737   3.918
 7427TIP3    H222215   1.952   4.798   3.860
 7428TIP3   OH222216   1.459   4.128   4.150
 7428TIP3    H122217   1.554   4.149   4.136
 7428TIP3    H222218   1.453   4.038   4.112
 7429TIP3   OH222219   1.375   4.738   4.570
 7429TIP3    H122220   1.309   4.677   4.530
 7429TIP3    H222221   1.419   4.679   4.634
 7430TIP3   OH222222   1.508   4.585   4.757
 7430TIP3    H122223   1.498   4.514   4.822
 7430TIP3    H222224   1.561   4.648   4.809
 7431TIP3   OH222225   3.311   4.688   5.405
 7431TIP3    H122226   3.240   4.694   5.471
 7431TIP3    H222227   3.355   4.775   5.415
 7432TIP3   OH222228   3.133   4.199   4.048
 7432TIP3    H122229   3.190   4.262   3.999
 7432TIP3    H222230   3.186   4.185   4.127
 7433TIP3   OH222231   3.346   4.447   4.647
 7433TIP3    H122232   3.316   4.379   4.584
 7433TIP3    H222233   3.273   4.510   4.644
 7434TIP3   OH222234   3.189   3.978   3.881
 7434TIP3    H122235   3.121   3.976   3.811
 7434TIP3    H222236   3.158   4.054   3.933
 7435TIP3   OH222237   3.059   3.650   3.832
 7435TIP3    H122238   3.021   3.675   3.747
 7435TIP3    H222239   3.040   3.554   3.832
 7436TIP3   OH222240   1.698   3.998   5.126
 7436TIP3    H122241   1.694   3.960   5.036
 7436TIP3    H222242   1.795   3.998   5.142
 7437TIP3   OH222243   3.361   4.351   5.233
 7437TIP3    H122244   3.427   4.278   5.227
 7437TIP3    H222245   3.399   4.417   5.173
 7438TIP3   OH222246   3.541   4.150   5.247
 7438TIP3    H122247   3.465   4.099   5.285
 7438TIP3    H222248   3.614   4.087   5.267
 7439TIP3   OH222249   3.006   3.384   3.817
 7439TIP3    H122250   3.082   3.351   3.870
 7439TIP3    H222251   2.934   3.322   3.838
 7440TIP3   OH222252   3.066   3.642   4.260
 7440TIP3    H122253   3.100   3.551   4.278
 7440TIP3    H222254   3.132   3.672   4.195
 7441TIP3   OH222255   3.304   3.954   5.016
 7441TIP3    H122256   3.216   3.963   5.057
 7441TIP3    H222257   3.322   4.047   4.996
 7442TIP3   OH222258   1.909   3.679   5.796
 7442TIP3    H122259   2.007   3.676   5.800
 7442TIP3    H222260   1.888   3.593   5.838
 7443TIP3   OH222261   3.748   3.552   5.553
 7443TIP3    H122262   3.809   3.487   5.512
 7443TIP3    H222263   3.717   3.603   5.475
 7444TIP3   OH222264   3.172   3.394   4.311
 7444TIP3    H122265   3.224   3.375   4.392
 7444TIP3    H222266   3.110   3.318   4.311
 7445TIP3   OH222267   1.872   3.381   5.146
 7445TIP3    H122268   1.935   3.306   5.142
 7445TIP3    H222269   1.932   3.456   5.129
 7446TIP3   OH222270   1.671   3.648   5.202
 7446TIP3    H122271   1.723   3.642   5.119
 7446TIP3    H222272   1.711   3.725   5.244
 7447TIP3   OH222273   3.616   3.687   5.356
 7447TIP3    H122274   3.530   3.730   5.372
 7447TIP3    H222275   3.586   3.613   5.300
 7448TIP3   OH222276   3.250   3.322   3.943
 7448TIP3    H122277   3.293   3.253   3.890
 7448TIP3    H222278   3.318   3.392   3.946
 7449TIP3   OH222279   1.657   3.136   4.694
 7449TIP3    H122280   1.569   3.147   4.732
 7449TIP3    H222281   1.657   3.205   4.624
 7450TIP3   OH222282   2.822   4.859   4.210
 7450TIP3    H122283   2.869   4.845   4.125
 7450TIP3    H222284   2.876   4.927   4.252
 7451TIP3   OH222285   1.881   3.230   5.518
 7451TIP3    H122286   1.829   3.230   5.600
 7451TIP3    H222287   1.817   3.269   5.455
 7452TIP3   OH222288   1.918   4.667   5.595
 7452TIP3    H122289   1.827   4.636   5.578
 7452TIP3    H222290   1.932   4.640   5.687
 7453TIP3   OH222291   2.099   4.701   5.144
 7453TIP3    H122292   2.057   4.778   5.102
 7453TIP3    H222293   2.187   4.707   5.102
 7454TIP3   OH222294   2.539   4.957   5.294
 7454TIP3    H122295   2.587   4.947   5.379
 7454TIP3    H222296   2.609   4.994   5.236
 7455TIP3   OH222297   2.724   5.087   5.134
 7455TIP3    H122298   2.794   5.028   5.102
 7455TIP3    H222299   2.775   5.144   5.196
 7456TIP3   OH222300   3.516   3.450   5.241
 7456TIP3    H122301   3.427   3.443   5.203
 7456TIP3    H222302   3.549   3.357   5.231
 7457TIP3   OH222303   1.773   4.952   5.165
 7457TIP3    H122304   1.682   4.985   5.146
 7457TIP3    H222305   1.787   4.990   5.252
 7458TIP3   OH222306   2.011   4.934   5.027
 7458TIP3    H122307   1.923   4.943   5.070
 7458TIP3    H222308   1.992   4.960   4.935
 7459TIP3   OH222309   2.437   4.955   4.818
 7459TIP3    H122310   2.360   4.975   4.762
 7459TIP3    H222311   2.449   5.039   4.867
 7460TIP3   OH222312   2.727   4.926   4.835
 7460TIP3    H122313   2.642   4.881   4.849
 7460TIP3    H222314   2.702   5.018   4.841
 7461TIP3   OH222315   2.963   5.100   4.785
 7461TIP3    H122316   2.923   5.174   4.735
 7461TIP3    H222317   2.949   5.024   4.725
 7462TIP3   OH222318   1.686   4.742   4.912
 7462TIP3    H122319   1.713   4.715   5.003
 7462TIP3    H222320   1.758   4.697   4.862
 7463TIP3   OH222321   1.883   4.613   4.773
 7463TIP3    H122322   1.897   4.528   4.819
 7463TIP3    H222323   1.974   4.647   4.769
 7464TIP3   OH222324   2.151   4.713   4.774
 7464TIP3    H122325   2.173   4.617   4.765
 7464TIP3    H222326   2.203   4.731   4.856
 7465TIP3   OH222327   2.721   3.354   4.840
 7465TIP3    H122328   2.679   3.293   4.902
 7465TIP3    H222329   2.805   3.310   4.817
 7466TIP3   OH222330   3.243   3.241   4.761
 7466TIP3    H122331   3.281   3.296   4.690
 7466TIP3    H222332   3.150   3.270   4.762
 7467TIP3   OH222333   3.339   3.350   4.527
 7467TIP3    H122334   3.410   3.293   4.490
 7467TIP3    H222335   3.378   3.438   4.509
 7468TIP3   OH222336   1.971   3.071   4.875
 7468TIP3    H122337   1.878   3.043   4.878
 7468TIP3    H222338   2.017   2.985   4.871
 7469TIP3   OH222339   1.756   2.943   4.521
 7469TIP3    H122340   1.789   3.001   4.451
 7469TIP3    H222341   1.729   3.008   4.590
 7470TIP3   OH222342   2.421   3.100   4.757
 7470TIP3    H122343   2.474   3.150   4.692
 7470TIP3    H222344   2.435   3.151   4.838
 7471TIP3   OH222345   2.958   3.249   4.737
 7471TIP3    H122346   2.962   3.209   4.649
 7471TIP3    H222347   2.947   3.169   4.794
 7472TIP3   OH222348   2.990   3.179   4.303
 7472TIP3    H122349   2.905   3.222   4.320
 7472TIP3    H222350   2.975   3.092   4.346
 7473TIP3   OH222351   1.473   4.519   4.298
 7473TIP3    H122352   1.387   4.485   4.267
 7473TIP3    H222353   1.463   4.613   4.275
 7474TIP3   OH222354   1.876   3.101   4.286
 7474TIP3    H122355   1.926   3.040   4.228
 7474TIP3    H222356   1.949   3.155   4.322
 7475TIP3   OH222357   2.392   3.275   4.385
 7475TIP3    H122358   2.454   3.239   4.450
 7475TIP3    H222359   2.396   3.370   4.411
 7476TIP3   OH222360   2.245   4.700   3.882
 7476TIP3    H122361   2.334   4.722   3.847
 7476TIP3    H222362   2.223   4.625   3.822
 7477TIP3   OH222363   2.966   4.822   3.979
 7477TIP3    H122364   2.960   4.724   3.969
 7477TIP3    H222365   2.920   4.852   3.897
 7478TIP3   OH222366   2.176   3.351   5.765
 7478TIP3    H122367   2.141   3.281   5.823
 7478TIP3    H222368   2.270   3.352   5.794
 7479TIP3   OH222369   2.427   3.352   5.885
 7479TIP3    H122370   2.512   3.329   5.844
 7479TIP3    H222371   2.417   3.280   5.951
 7480TIP3   OH222372   1.551   4.541   3.940
 7480TIP3    H122373   1.552   4.555   4.035
 7480TIP3    H222374   1.638   4.497   3.925
 7481TIP3   OH222375   3.255   3.415   5.672
 7481TIP3    H122376   3.272   3.384   5.764
 7481TIP3    H222377   3.344   3.410   5.632
 7482TIP3   OH222378   3.193   4.969   5.154
 7482TIP3    H122379   3.107   4.942   5.114
 7482TIP3    H222380   3.173   5.062   5.173
 7483TIP3   OH222381   3.730   4.653   4.405
 7483TIP3    H122382   3.734   4.558   4.422
 7483TIP3    H222383   3.825   4.672   4.390
 7484TIP3   OH222384   3.426   3.822   4.207
 7484TIP3    H122385   3.426   3.917   4.223
 7484TIP3    H222386   3.352   3.808   4.144
 7485TIP3   OH222387   4.356   5.104   4.015
 7485TIP3    H122388   4.394   5.033   3.960
 7485TIP3    H222389   4.349   5.060   4.101
 7486TIP3   OH222390   4.668   4.073   4.398
 7486TIP3    H122391   4.700   3.981   4.405
 7486TIP3    H222392   4.641   4.073   4.303
 7487TIP3   OH222393   4.001   3.706   4.352
 7487TIP3    H122394   3.974   3.766   4.281
 7487TIP3    H222395   3.945   3.630   4.327
 7488TIP3   OH222396   4.701   3.805   3.972
 7488TIP3    H122397   4.770   3.793   4.041
 7488TIP3    H222398   4.748   3.862   3.909
 7489TIP3   OH222399   5.359   4.079   4.549
 7489TIP3    H122400   5.281   4.124   4.510
 7489TIP3    H222401   5.367   4.126   4.633
 7490TIP3   OH222402   4.006   3.708   4.801
 7490TIP3    H122403   3.952   3.741   4.725
 7490TIP3    H222404   3.947   3.731   4.875
 7491TIP3   OH222405   4.372   4.594   3.749
 7491TIP3    H122406   4.326   4.510   3.735
 7491TIP3    H222407   4.301   4.650   3.785
 7492TIP3   OH222408   4.118   4.488   4.606
 7492TIP3    H122409   4.043   4.537   4.644
 7492TIP3    H222410   4.155   4.553   4.546
 7493TIP3   OH222411   4.904   3.802   4.152
 7493TIP3    H122412   4.869   3.764   4.234
 7493TIP3    H222413   4.979   3.855   4.181
 7494TIP3   OH222414   3.879   3.807   4.584
 7494TIP3    H122415   3.922   3.895   4.587
 7494TIP3    H222416   3.909   3.776   4.496
 7495TIP3   OH222417   3.932   4.683   4.684
 7495TIP3    H122418   3.908   4.772   4.652
 7495TIP3    H222419   3.856   4.665   4.742
 7496TIP3   OH222420   3.317   4.370   3.923
 7496TIP3    H122421   3.289   4.388   3.831
 7496TIP3    H222422   3.355   4.455   3.951
 7497TIP3   OH222423   4.775   4.902   4.172
 7497TIP3    H122424   4.684   4.892   4.205
 7497TIP3    H222425   4.767   4.984   4.119
 7498TIP3   OH222426   5.050   3.784   4.521
 7498TIP3    H122427   4.955   3.800   4.502
 7498TIP3    H222428   5.092   3.820   4.443
 7499TIP3   OH222429   4.360   3.425   4.517
 7499TIP3    H122430   4.336   3.331   4.524
 7499TIP3    H222431   4.281   3.466   4.557
 7500TIP3   OH222432   4.467   4.932   3.828
 7500TIP3    H122433   4.515   4.852   3.797
 7500TIP3    H222434   4.529   5.000   3.792
 7501TIP3   OH222435   4.608   4.729   3.715
 7501TIP3    H122436   4.532   4.670   3.693
 7501TIP3    H222437   4.655   4.676   3.780
 7502TIP3   OH222438   4.996   4.795   4.492
 7502TIP3    H122439   4.971   4.725   4.429
 7502TIP3    H222440   4.980   4.876   4.440
 7503TIP3   OH222441   4.309   4.240   3.742
 7503TIP3    H122442   4.212   4.239   3.744
 7503TIP3    H222443   4.329   4.187   3.664
 7504TIP3   OH222444   4.245   3.979   3.470
 7504TIP3    H122445   4.314   4.024   3.523
 7504TIP3    H222446   4.300   3.914   3.423
 7505TIP3   OH222447   4.602   4.273   3.751
 7505TIP3    H122448   4.513   4.281   3.790
 7505TIP3    H222449   4.633   4.196   3.802
 7506TIP3   OH222450   4.862   4.287   4.648
 7506TIP3    H122451   4.870   4.369   4.702
 7506TIP3    H222452   4.773   4.301   4.609
 7507TIP3   OH222453   3.983   4.683   4.297
 7507TIP3    H122454   3.961   4.649   4.208
 7507TIP3    H222455   4.070   4.644   4.312
 7508TIP3   OH222456   4.534   4.927   4.297
 7508TIP3    H122457   4.523   5.021   4.323
 7508TIP3    H222458   4.536   4.884   4.383
 7509TIP3   OH222459   4.144   4.805   4.825
 7509TIP3    H122460   4.080   4.860   4.875
 7509TIP3    H222461   4.084   4.742   4.780
 7510TIP3   OH222462   4.480   4.119   3.552
 7510TIP3    H122463   4.523   4.190   3.604
 7510TIP3    H222464   4.507   4.145   3.460
 7511TIP3   OH222465   3.895   4.358   4.934
 7511TIP3    H122466   3.897   4.444   4.981
 7511TIP3    H222467   3.802   4.330   4.946
 7512TIP3   OH222468   4.214   4.815   3.848
 7512TIP3    H122469   4.299   4.864   3.847
 7512TIP3    H222470   4.159   4.868   3.788
 7513TIP3   OH222471   3.932   4.962   4.917
 7513TIP3    H122472   3.897   4.968   4.826
 7513TIP3    H222473   3.852   4.947   4.970
 7514TIP3   OH222474   4.987   3.369   3.607
 7514TIP3    H122475   4.909   3.394   3.661
 7514TIP3    H222476   5.006   3.452   3.560
 7515TIP3   OH222477   4.793   4.741   3.157
 7515TIP3    H122478   4.803   4.835   3.133
 7515TIP3    H222479   4.885   4.709   3.146
 7516TIP3   OH222480   3.517   4.500   4.860
 7516TIP3    H122481   3.454   4.472   4.791
 7516TIP3    H222482   3.550   4.414   4.894
 7517TIP3   OH222483   3.381   4.719   4.481
 7517TIP3    H122484   3.454   4.658   4.469
 7517TIP3    H222485   3.425   4.795   4.521
 7518TIP3   OH222486   5.233   5.143   4.554
 7518TIP3    H122487   5.234   5.047   4.572
 7518TIP3    H222488   5.150   5.168   4.600
 7519TIP3   OH222489   4.336   4.933   4.680
 7519TIP3    H122490   4.331   5.023   4.719
 7519TIP3    H222491   4.272   4.885   4.736
 7520TIP3   OH222492   4.104   5.053   3.639
 7520TIP3    H122493   4.057   5.034   3.556
 7520TIP3    H222494   4.069   5.141   3.663
 7521TIP3   OH222495   3.538   4.904   4.023
 7521TIP3    H122496   3.585   4.896   4.109
 7521TIP3    H222497   3.491   4.819   4.020
 7522TIP3   OH222498   4.301   4.958   3.277
 7522TIP3    H122499   4.360   4.888   3.241
 7522TIP3    H222500   4.336   4.967   3.368
 7523TIP3   OH222501   4.353   5.007   3.545
 7523TIP3    H122502   4.265   5.016   3.586
 7523TIP3    H222503   4.403   4.963   3.616
 7524TIP3   OH222504   5.132   4.270   4.849
 7524TIP3    H122505   5.055   4.301   4.800
 7524TIP3    H222506   5.141   4.177   4.821
 7525TIP3   OH222507   3.713   4.688   4.853
 7525TIP3    H122508   3.772   4.669   4.929
 7525TIP3    H222509   3.649   4.614   4.859
 7526TIP3   OH222510   4.119   3.500   4.637
 7526TIP3    H122511   4.029   3.473   4.609
 7526TIP3    H222512   4.097   3.586   4.678
 7527TIP3   OH222513   4.657   3.624   4.834
 7527TIP3    H122514   4.723   3.584   4.894
 7527TIP3    H222515   4.571   3.597   4.875
 7528TIP3   OH222516   4.887   4.042   4.760
 7528TIP3    H122517   4.832   4.061   4.837
 7528TIP3    H222518   4.873   4.124   4.707
 7529TIP3   OH222519   4.554   4.175   3.300
 7529TIP3    H122520   4.517   4.154   3.212
 7529TIP3    H222521   4.637   4.220   3.275
 7530TIP3   OH222522   4.268   3.548   3.616
 7530TIP3    H122523   4.229   3.557   3.705
 7530TIP3    H222524   4.221   3.469   3.583
 7531TIP3   OH222525   4.043   4.041   4.636
 7531TIP3    H122526   3.991   4.049   4.719
 7531TIP3    H222527   4.003   4.110   4.581
 7532TIP3   OH222528   4.476   4.038   3.885
 7532TIP3    H122529   4.385   4.070   3.898
 7532TIP3    H222530   4.462   3.958   3.832
 7533TIP3   OH222531   4.591   4.008   4.145
 7533TIP3    H122532   4.539   4.068   4.089
 7533TIP3    H222533   4.605   3.934   4.084
 7534TIP3   OH222534   3.876   4.033   4.860
 7534TIP3    H122535   3.912   4.100   4.919
 7534TIP3    H222536   3.868   3.954   4.918
 7535TIP3   OH222537   3.920   3.527   3.572
 7535TIP3    H122538   3.913   3.529   3.670
 7535TIP3    H222539   3.842   3.581   3.549
 7536TIP3   OH222540   3.469   3.567   4.435
 7536TIP3    H122541   3.535   3.611   4.492
 7536TIP3    H222542   3.519   3.559   4.352
 7537TIP3   OH222543   3.427   3.547   3.962
 7537TIP3    H122544   3.474   3.580   3.883
 7537TIP3    H222545   3.377   3.627   3.986
 7538TIP3   OH222546   4.597   4.272   4.566
 7538TIP3    H122547   4.623   4.212   4.493
 7538TIP3    H222548   4.560   4.206   4.628
 7539TIP3   OH222549   4.277   3.671   4.249
 7539TIP3    H122550   4.182   3.692   4.256
 7539TIP3    H222551   4.315   3.735   4.311
 7540TIP3   OH222552   3.700   3.760   4.284
 7540TIP3    H122553   3.615   3.791   4.247
 7540TIP3    H222554   3.733   3.697   4.219
 7541TIP3   OH222555   4.759   3.799   4.443
 7541TIP3    H122556   4.714   3.823   4.526
 7541TIP3    H222557   4.693   3.736   4.407
 7542TIP3   OH222558   3.776   3.819   3.691
 7542TIP3    H122559   3.729   3.770   3.622
 7542TIP3    H222560   3.854   3.852   3.643
 7543TIP3   OH222561   4.928   5.494   4.652
 7543TIP3    H122562   4.926   5.519   4.558
 7543TIP3    H222563   5.008   5.540   4.683
 7544TIP3   OH222564   3.877   4.612   5.069
 7544TIP3    H122565   3.960   4.635   5.115
 7544TIP3    H222566   3.817   4.601   5.145
 7545TIP3   OH222567   3.855   3.538   4.198
 7545TIP3    H122568   3.838   3.449   4.234
 7545TIP3    H222569   3.922   3.525   4.130
 7546TIP3   OH222570   4.307   3.940   4.641
 7546TIP3    H122571   4.222   3.987   4.632
 7546TIP3    H222572   4.369   4.011   4.664
 7547TIP3   OH222573   4.037   4.353   3.700
 7547TIP3    H122574   3.978   4.275   3.703
 7547TIP3    H222575   4.033   4.385   3.793
 7548TIP3   OH222576   4.506   3.658   3.543
 7548TIP3    H122577   4.417   3.634   3.577
 7548TIP3    H222578   4.525   3.743   3.590
 7549TIP3   OH222579   4.421   4.654   4.734
 7549TIP3    H122580   4.509   4.635   4.769
 7549TIP3    H222581   4.423   4.748   4.717
 7550TIP3   OH222582   4.588   3.886   3.663
 7550TIP3    H122583   4.680   3.899   3.692
 7550TIP3    H222584   4.563   3.975   3.629
 7551TIP3   OH222585   4.193   4.486   3.518
 7551TIP3    H122586   4.155   4.575   3.536
 7551TIP3    H222587   4.143   4.433   3.584
 7552TIP3   OH222588   3.625   4.293   5.005
 7552TIP3    H122589   3.656   4.280   5.097
 7552TIP3    H222590   3.557   4.224   5.000
 7553TIP3   OH222591   4.604   4.930   4.603
 7553TIP3    H122592   4.509   4.933   4.625
 7553TIP3    H222593   4.643   4.965   4.685
 7554TIP3   OH222594   5.025   4.001   3.511
 7554TIP3    H122595   4.965   3.952   3.450
 7554TIP3    H222596   5.020   4.089   3.467
 7555TIP3   OH222597   5.245   4.856   4.593
 7555TIP3    H122598   5.147   4.845   4.589
 7555TIP3    H222599   5.268   4.823   4.503
 7556TIP3   OH222600   4.730   4.814   3.424
 7556TIP3    H122601   4.697   4.745   3.483
 7556TIP3    H222602   4.741   4.768   3.339
 7557TIP3   OH222603   3.856   4.684   4.023
 7557TIP3    H122604   3.862   4.761   3.964
 7557TIP3    H222605   3.764   4.660   4.011
 7558TIP3   OH222606   3.408   3.963   3.712
 7558TIP3    H122607   3.459   4.045   3.730
 7558TIP3    H222608   3.338   3.969   3.780
 7559TIP3   OH222609   4.027   4.467   3.946
 7559TIP3    H122610   3.978   4.544   3.979
 7559TIP3    H222611   4.079   4.438   4.024
 7560TIP3   OH222612   4.122   5.009   4.479
 7560TIP3    H122613   4.164   5.082   4.431
 7560TIP3    H222614   4.197   4.976   4.532
 7561TIP3   OH222615   3.770   4.913   3.863
 7561TIP3    H122616   3.684   4.923   3.909
 7561TIP3    H222617   3.803   5.005   3.865
 7562TIP3   OH222618   4.483   4.546   3.325
 7562TIP3    H122619   4.538   4.518   3.402
 7562TIP3    H222620   4.396   4.514   3.354
 7563TIP3   OH222621   4.759   5.179   4.490
 7563TIP3    H122622   4.677   5.126   4.490
 7563TIP3    H222623   4.741   5.243   4.418
 7564TIP3   OH222624   4.827   5.025   3.134
 7564TIP3    H122625   4.875   5.105   3.107
 7564TIP3    H222626   4.744   5.065   3.167
 7565TIP3   OH222627   3.840   3.792   5.013
 7565TIP3    H122628   3.742   3.793   5.016
 7565TIP3    H222629   3.862   3.727   5.081
 7566TIP3   OH222630   4.647   4.468   3.534
 7566TIP3    H122631   4.632   4.411   3.611
 7566TIP3    H222632   4.744   4.464   3.524
 7567TIP3   OH222633   3.531   4.873   4.696
 7567TIP3    H122634   3.599   4.805   4.711
 7567TIP3    H222635   3.586   4.954   4.695
 7568TIP3   OH222636   3.846   4.521   3.326
 7568TIP3    H122637   3.862   4.429   3.297
 7568TIP3    H222638   3.824   4.507   3.420
 7569TIP3   OH222639   3.793   4.525   3.600
 7569TIP3    H122640   3.876   4.490   3.638
 7569TIP3    H222641   3.803   4.622   3.610
 7570TIP3   OH222642   3.506   4.207   3.774
 7570TIP3    H122643   3.457   4.252   3.844
 7570TIP3    H222644   3.540   4.280   3.721
 7571TIP3   OH222645   4.676   3.868   4.708
 7571TIP3    H122646   4.770   3.891   4.721
 7571TIP3    H222647   4.669   3.778   4.749
 7572TIP3   OH222648   4.570   3.598   3.855
 7572TIP3    H122649   4.549   3.633   3.767
 7572TIP3    H222650   4.612   3.676   3.897
 7573TIP3   OH222651   4.065   4.725   3.551
 7573TIP3    H122652   3.976   4.750   3.583
 7573TIP3    H222653   4.076   4.789   3.478
 7574TIP3   OH222654   4.521   4.091   4.750
 7574TIP3    H122655   4.547   4.122   4.837
 7574TIP3    H222656   4.569   4.006   4.739
 7575TIP3   OH222657   4.383   3.512   4.056
 7575TIP3    H122658   4.358   3.584   4.119
 7575TIP3    H222659   4.450   3.556   3.999
 7576TIP3   OH222660   3.809   4.800   3.613
 7576TIP3    H122661   3.777   4.868   3.550
 7576TIP3    H222662   3.791   4.843   3.699
 7577TIP3   OH222663   3.903   3.523   3.847
 7577TIP3    H122664   3.889   3.611   3.887
 7577TIP3    H222665   4.000   3.514   3.860
 7578TIP3   OH222666   5.156   4.004   4.754
 7578TIP3    H122667   5.058   4.000   4.756
 7578TIP3    H222668   5.175   3.973   4.665
 7579TIP3   OH222669   3.526   4.433   3.596
 7579TIP3    H122670   3.605   4.489   3.607
 7579TIP3    H222671   3.563   4.368   3.532
 7580TIP3   OH222672   3.459   3.692   3.733
 7580TIP3    H122673   3.478   3.788   3.733
 7580TIP3    H222674   3.373   3.690   3.689
 7581TIP3   OH222675   4.778   5.162   4.080
 7581TIP3    H122676   4.735   5.208   4.004
 7581TIP3    H222677   4.872   5.181   4.059
 7582TIP3   OH222678   3.852   3.426   4.610
 7582TIP3    H122679   3.822   3.394   4.522
 7582TIP3    H222680   3.840   3.347   4.665
 7583TIP3   OH222681   3.395   4.648   3.991
 7583TIP3    H122682   3.321   4.673   4.046
 7583TIP3    H222683   3.367   4.686   3.904
 7584TIP3   OH222684   3.557   5.191   5.064
 7584TIP3    H122685   3.642   5.204   5.113
 7584TIP3    H222686   3.553   5.095   5.066
 7585TIP3   OH222687   4.025   5.147   5.106
 7585TIP3    H122688   4.120   5.136   5.119
 7585TIP3    H222689   4.007   5.083   5.034
 7586TIP3   OH222690   4.013   4.721   3.237
 7586TIP3    H122691   3.957   4.648   3.273
 7586TIP3    H222692   4.088   4.670   3.201
 7587TIP3   OH222693   4.680   5.028   4.870
 7587TIP3    H122694   4.724   4.954   4.919
 7587TIP3    H222695   4.748   5.098   4.880
 7588TIP3   OH222696   4.447   4.762   3.151
 7588TIP3    H122697   4.485   4.695   3.211
 7588TIP3    H222698   4.503   4.754   3.071
 7589TIP3   OH222699   3.680   4.592   5.263
 7589TIP3    H122700   3.700   4.497   5.274
 7589TIP3    H222701   3.591   4.588   5.223
 7590TIP3   OH222702   3.656   4.239   3.460
 7590TIP3    H122703   3.706   4.199   3.532
 7590TIP3    H222704   3.725   4.244   3.390
 7591TIP3   OH222705   4.282   4.674   5.030
 7591TIP3    H122706   4.248   4.697   4.941
 7591TIP3    H222707   4.356   4.615   5.007
 7592TIP3   OH222708   4.167   4.436   3.255
 7592TIP3    H122709   4.170   4.450   3.353
 7592TIP3    H222710   4.171   4.338   3.252
 7593TIP3   OH222711   4.774   4.689   4.642
 7593TIP3    H122712   4.858   4.729   4.615
 7593TIP3    H222713   4.710   4.757   4.616
 7594TIP3   OH222714   3.798   4.335   5.242
 7594TIP3    H122715   3.867   4.272   5.215
 7594TIP3    H222716   3.830   4.361   5.331
 7595TIP3   OH222717   3.870   4.135   3.688
 7595TIP3    H122718   3.856   4.076   3.764
 7595TIP3    H222719   3.905   4.069   3.624
 7596TIP3   OH222720   4.128   4.205   4.911
 7596TIP3    H122721   4.054   4.269   4.902
 7596TIP3    H222722   4.192   4.242   4.845
 7597TIP3   OH222723   3.964   3.942   3.516
 7597TIP3    H122724   3.942   3.948   3.421
 7597TIP3    H222725   4.062   3.940   3.513
 7598TIP3   OH222726   4.636   4.554   5.046
 7598TIP3    H122727   4.688   4.609   4.984
 7598TIP3    H222728   4.676   4.587   5.128
 7599TIP3   OH222729   4.787   4.267   3.184
 7599TIP3    H122730   4.769   4.225   3.098
 7599TIP3    H222731   4.753   4.358   3.165
 7600TIP3   OH222732   4.249   3.996   5.034
 7600TIP3    H122733   4.258   3.919   4.975
 7600TIP3    H222734   4.210   4.064   4.974
 7601TIP3   OH222735   4.263   3.778   4.854
 7601TIP3    H122736   4.287   3.827   4.771
 7601TIP3    H222737   4.169   3.756   4.835
 7602TIP3   OH222738   4.290   4.308   4.718
 7602TIP3    H122739   4.375   4.330   4.678
 7602TIP3    H222740   4.229   4.373   4.676
 7603TIP3   OH222741   4.858   4.269   5.116
 7603TIP3    H122742   4.938   4.220   5.093
 7603TIP3    H222743   4.878   4.356   5.078
 7604TIP3   OH222744   4.913   4.498   4.801
 7604TIP3    H122745   4.851   4.571   4.782
 7604TIP3    H222746   4.998   4.545   4.788
 7605TIP3   OH222747   4.144   4.108   5.261
 7605TIP3    H122748   4.074   4.042   5.278
 7605TIP3    H222749   4.172   4.082   5.171
 7606TIP3   OH222750   4.396   3.543   4.911
 7606TIP3    H122751   4.345   3.625   4.889
 7606TIP3    H222752   4.328   3.475   4.897
 7607TIP3   OH222753   4.739   4.013   5.018
 7607TIP3    H122754   4.704   3.923   5.007
 7607TIP3    H222755   4.833   3.992   5.040
 7608TIP3   OH222756   4.976   3.939   5.128
 7608TIP3    H122757   4.998   3.845   5.141
 7608TIP3    H222758   4.985   3.975   5.219
 7609TIP3   OH222759   3.978   3.891   5.320
 7609TIP3    H122760   3.980   3.801   5.281
 7609TIP3    H222761   4.017   3.872   5.408
 7610TIP3   OH222762   4.488   3.560   5.169
 7610TIP3    H122763   4.552   3.487   5.162
 7610TIP3    H222764   4.447   3.555   5.080
 7611TIP3   OH222765   4.557   3.782   5.317
 7611TIP3    H122766   4.532   3.705   5.261
 7611TIP3    H222767   4.478   3.840   5.310
 7612TIP3   OH222768   3.777   5.005   3.427
 7612TIP3    H122769   3.871   4.994   3.407
 7612TIP3    H222770   3.749   5.054   3.347
 7613TIP3   OH222771   3.258   4.381   3.645
 7613TIP3    H122772   3.352   4.405   3.625
 7613TIP3    H222773   3.252   4.293   3.603
 7614TIP3   OH222774   3.168   4.997   4.055
 7614TIP3    H122775   3.105   4.934   4.014
 7614TIP3    H222776   3.212   4.938   4.120
 7615TIP3   OH222777   3.296   4.848   4.245
 7615TIP3    H122778   3.298   4.773   4.307
 7615TIP3    H222779   3.352   4.910   4.295
 7616TIP3   OH222780   5.032   5.249   4.044
 7616TIP3    H122781   5.062   5.281   4.131
 7616TIP3    H222782   5.101   5.283   3.985
 7617TIP3   OH222783   5.063   5.268   4.326
 7617TIP3    H122784   5.018   5.181   4.321
 7617TIP3    H222785   5.137   5.244   4.384
 7618TIP3   OH222786   5.109   4.932   4.888
 7618TIP3    H122787   5.032   4.900   4.940
 7618TIP3    H222788   5.131   5.020   4.923
 7619TIP3   OH222789   4.925   4.458   3.516
 7619TIP3    H122790   4.985   4.525   3.476
 7619TIP3    H222791   4.982   4.425   3.589
 7620TIP3   OH222792   5.081   4.345   3.714
 7620TIP3    H122793   5.014   4.304   3.770
 7620TIP3    H222794   5.140   4.386   3.780
 7621TIP3   OH222795   4.940   5.023   4.349
 7621TIP3    H122796   4.869   5.065   4.401
 7621TIP3    H222797   4.889   4.977   4.278
 7622TIP3   OH222798   4.987   4.233   3.365
 7622TIP3    H122799   4.917   4.233   3.296
 7622TIP3    H222800   4.958   4.310   3.417
 7623TIP3   OH222801   4.864   3.899   3.316
 7623TIP3    H122802   4.816   3.942   3.244
 7623TIP3    H222803   4.840   3.805   3.303
 7624TIP3   OH222804   5.152   4.603   4.715
 7624TIP3    H122805   5.227   4.539   4.713
 7624TIP3    H222806   5.192   4.684   4.681
 7625TIP3   OH222807   5.337   4.403   4.729
 7625TIP3    H122808   5.264   4.356   4.776
 7625TIP3    H222809   5.411   4.343   4.751
 7626TIP3   OH222810   4.810   3.627   3.285
 7626TIP3    H122811   4.882   3.609   3.350
 7626TIP3    H222812   4.733   3.583   3.325
 7627TIP3   OH222813   4.857   3.895   3.746
 7627TIP3    H122814   4.896   3.807   3.767
 7627TIP3    H222815   4.924   3.928   3.684
 7628TIP3   OH222816   5.114   4.247   4.544
 7628TIP3    H122817   5.024   4.248   4.584
 7628TIP3    H222818   5.101   4.312   4.474
 7629TIP3   OH222819   3.712   3.944   5.299
 7629TIP3    H122820   3.809   3.934   5.293
 7629TIP3    H222821   3.687   3.855   5.330
 7630TIP3   OH222822   5.542   3.806   5.041
 7630TIP3    H122823   5.604   3.742   5.000
 7630TIP3    H222824   5.512   3.858   4.964
 7631TIP3   OH222825   4.970   3.648   3.796
 7631TIP3    H122826   5.018   3.633   3.880
 7631TIP3    H222827   4.907   3.574   3.797
 7632TIP3   OH222828   3.661   3.638   4.629
 7632TIP3    H122829   3.725   3.565   4.628
 7632TIP3    H222830   3.720   3.712   4.605
 7633TIP3   OH222831   5.412   3.944   4.846
 7633TIP3    H122832   5.327   3.988   4.864
 7633TIP3    H222833   5.381   3.873   4.787
 7634TIP3   OH222834   5.045   3.581   3.429
 7634TIP3    H122835   5.093   3.510   3.381
 7634TIP3    H222836   5.114   3.650   3.434
 7635TIP3   OH222837   3.453   3.391   4.180
 7635TIP3    H122838   3.366   3.402   4.219
 7635TIP3    H222839   3.453   3.460   4.111
 7636TIP3   OH222840   4.616   5.115   3.698
 7636TIP3    H122841   4.667   5.104   3.615
 7636TIP3    H222842   4.670   5.180   3.746
 7637TIP3   OH222843   3.679   3.490   5.008
 7637TIP3    H122844   3.624   3.486   5.088
 7637TIP3    H222845   3.615   3.527   4.944
 7638TIP3   OH222846   3.706   4.926   5.080
 7638TIP3    H122847   3.633   4.864   5.067
 7638TIP3    H222848   3.734   4.905   5.171
 7639TIP3   OH222849   3.889   4.953   4.626
 7639TIP3    H122850   3.852   5.035   4.587
 7639TIP3    H222851   3.978   4.958   4.586
 7640TIP3   OH222852   4.334   5.196   4.768
 7640TIP3    H122853   4.377   5.192   4.856
 7640TIP3    H222854   4.400   5.249   4.718
 7641TIP3   OH222855   4.514   5.351   4.633
 7641TIP3    H122856   4.581   5.303   4.583
 7641TIP3    H222857   4.570   5.405   4.692
 7642TIP3   OH222858   5.313   3.705   4.727
 7642TIP3    H122859   5.223   3.693   4.694
 7642TIP3    H222860   5.349   3.613   4.718
 7643TIP3   OH222861   3.564   5.192   4.661
 7643TIP3    H122862   3.473   5.226   4.644
 7643TIP3    H222863   3.592   5.257   4.729
 7644TIP3   OH222864   3.803   5.185   4.514
 7644TIP3    H122865   3.715   5.200   4.555
 7644TIP3    H222866   3.788   5.219   4.423
 7645TIP3   OH222867   4.228   5.213   4.312
 7645TIP3    H122868   4.161   5.232   4.244
 7645TIP3    H222869   4.239   5.301   4.354
 7646TIP3   OH222870   4.499   5.180   4.374
 7646TIP3    H122871   4.406   5.195   4.350
 7646TIP3    H222872   4.546   5.251   4.326
 7647TIP3   OH222873   4.706   5.343   4.275
 7647TIP3    H122874   4.694   5.427   4.226
 7647TIP3    H222875   4.735   5.283   4.202
 7648TIP3   OH222876   3.479   4.995   4.398
 7648TIP3    H122877   3.519   5.018   4.483
 7648TIP3    H222878   3.554   4.950   4.352
 7649TIP3   OH222879   3.678   4.877   4.258
 7649TIP3    H122880   3.697   4.792   4.303
 7649TIP3    H222881   3.768   4.914   4.249
 7650TIP3   OH222882   3.943   4.968   4.262
 7650TIP3    H122883   3.972   4.877   4.244
 7650TIP3    H222884   3.995   4.986   4.343
 7651TIP3   OH222885   4.553   3.622   4.381
 7651TIP3    H122886   4.478   3.568   4.410
 7651TIP3    H222887   4.586   3.572   4.305
 7652TIP3   OH222888   5.045   3.506   4.251
 7652TIP3    H122889   5.078   3.555   4.173
 7652TIP3    H222890   4.948   3.516   4.242
 7653TIP3   OH222891   5.137   3.601   4.012
 7653TIP3    H122892   5.210   3.547   3.973
 7653TIP3    H222893   5.173   3.691   3.997
 7654TIP3   OH222894   3.767   3.322   4.368
 7654TIP3    H122895   3.673   3.295   4.369
 7654TIP3    H222896   3.811   3.235   4.361
 7655TIP3   OH222897   3.555   3.199   4.009
 7655TIP3    H122898   3.585   3.259   3.938
 7655TIP3    H222899   3.525   3.263   4.077
 7656TIP3   OH222900   4.215   3.358   4.246
 7656TIP3    H122901   4.263   3.413   4.182
 7656TIP3    H222902   4.220   3.413   4.325
 7657TIP3   OH222903   4.772   3.507   4.218
 7657TIP3    H122904   4.748   3.469   4.133
 7657TIP3    H222905   4.751   3.433   4.280
 7658TIP3   OH222906   4.785   3.436   3.788
 7658TIP3    H122907   4.702   3.483   3.810
 7658TIP3    H222908   4.770   3.351   3.834
 7659TIP3   OH222909   3.269   4.776   3.790
 7659TIP3    H122910   3.184   4.740   3.758
 7659TIP3    H222911   3.258   4.868   3.761
 7660TIP3   OH222912   3.673   3.359   3.773
 7660TIP3    H122913   3.723   3.298   3.715
 7660TIP3    H222914   3.744   3.416   3.808
 7661TIP3   OH222915   4.172   3.570   3.882
 7661TIP3    H122916   4.243   3.539   3.941
 7661TIP3    H222917   4.142   3.652   3.928
 7662TIP3   OH222918   4.042   4.958   3.371
 7662TIP3    H122919   4.131   4.980   3.336
 7662TIP3    H222920   4.020   4.883   3.311
 7663TIP3   OH222921   4.760   5.081   3.464
 7663TIP3    H122922   4.755   4.982   3.456
 7663TIP3    H222923   4.714   5.108   3.383
 7664TIP3   OH222924   3.973   3.614   5.257
 7664TIP3    H122925   3.937   3.541   5.311
 7664TIP3    H222926   4.067   3.612   5.284
 7665TIP3   OH222927   4.226   3.610   5.374
 7665TIP3    H122928   4.308   3.581   5.332
 7665TIP3    H222929   4.212   3.539   5.441
 7666TIP3   OH222930   3.348   4.797   3.425
 7666TIP3    H122931   3.353   4.811   3.521
 7666TIP3    H222932   3.434   4.751   3.407
 7667TIP3   OH222933   5.052   3.674   5.159
 7667TIP3    H122934   5.069   3.640   5.250
 7667TIP3    H222935   5.142   3.667   5.119
 7668TIP3   OH222936   4.985   5.225   4.651
 7668TIP3    H122937   4.908   5.195   4.598
 7668TIP3    H222938   4.966   5.321   4.656
 7669TIP3   OH222939   6.269   4.606   3.428
 7669TIP3    H122940   6.225   4.687   3.395
 7669TIP3    H222941   6.203   4.541   3.400
 7670TIP3   OH222942   6.500   4.914   3.468
 7670TIP3    H122943   6.490   4.833   3.517
 7670TIP3    H222944   6.532   4.979   3.533
 7671TIP3   OH222945   5.523   4.911   3.894
 7671TIP3    H122946   5.502   4.828   3.852
 7671TIP3    H222947   5.620   4.919   3.877
 7672TIP3   OH222948   5.219   4.088   3.686
 7672TIP3    H122949   5.193   4.181   3.681
 7672TIP3    H222950   5.152   4.045   3.629
 7673TIP3   OH222951   6.151   5.362   3.501
 7673TIP3    H122952   6.190   5.293   3.444
 7673TIP3    H222953   6.138   5.314   3.583
 7674TIP3   OH222954   7.068   4.140   3.845
 7674TIP3    H122955   7.099   4.225   3.884
 7674TIP3    H222956   7.090   4.154   3.751
 7675TIP3   OH222957   6.529   4.313   3.865
 7675TIP3    H122958   6.555   4.226   3.902
 7675TIP3    H222959   6.480   4.283   3.787
 7676TIP3   OH222960   6.497   4.070   3.463
 7676TIP3    H122961   6.567   4.057   3.531
 7676TIP3    H222962   6.551   4.110   3.392
 7677TIP3   OH222963   7.147   4.351   4.014
 7677TIP3    H122964   7.060   4.392   3.993
 7677TIP3    H222965   7.155   4.374   4.108
 7678TIP3   OH222966   5.802   3.965   4.282
 7678TIP3    H122967   5.750   4.000   4.206
 7678TIP3    H222968   5.742   3.987   4.357
 7679TIP3   OH222969   6.133   4.811   3.296
 7679TIP3    H122970   6.110   4.797   3.203
 7679TIP3    H222971   6.091   4.897   3.315
 7680TIP3   OH222972   5.923   4.757   4.095
 7680TIP3    H122973   5.842   4.794   4.136
 7680TIP3    H222974   5.933   4.818   4.021
 7681TIP3   OH222975   6.697   4.078   3.643
 7681TIP3    H122976   6.683   4.031   3.727
 7681TIP3    H222977   6.752   4.154   3.670
 7682TIP3   OH222978   5.679   4.066   4.054
 7682TIP3    H122979   5.720   4.153   4.065
 7682TIP3    H222980   5.666   4.065   3.957
 7683TIP3   OH222981   5.728   4.938   4.169
 7683TIP3    H122982   5.704   5.027   4.136
 7683TIP3    H222983   5.650   4.921   4.226
 7684TIP3   OH222984   5.121   4.628   3.406
 7684TIP3    H122985   5.086   4.653   3.318
 7684TIP3    H222986   5.153   4.714   3.440
 7685TIP3   OH222987   6.563   5.138   3.649
 7685TIP3    H122988   6.473   5.134   3.687
 7685TIP3    H222989   6.558   5.222   3.599
 7686TIP3   OH222990   6.860   4.041   4.014
 7686TIP3    H122991   6.770   4.057   3.980
 7686TIP3    H222992   6.917   4.074   3.942
 7687TIP3   OH222993   6.153   3.680   4.001
 7687TIP3    H122994   6.130   3.586   4.013
 7687TIP3    H222995   6.075   3.723   4.043
 7688TIP3   OH222996   6.266   5.188   3.321
 7688TIP3    H122997   6.311   5.103   3.298
 7688TIP3    H222998   6.330   5.251   3.281
 7689TIP3   OH222999   6.399   4.972   3.221
 7689TIP3    H123000   6.393   4.889   3.170
 7689TIP3    H223001   6.440   4.941   3.304
 7690TIP3   OH223002   6.789   5.057   3.996
 7690TIP3    H123003   6.788   4.980   3.935
 7690TIP3    H223004   6.777   5.132   3.934
 7691TIP3   OH223005   6.095   4.474   3.254
 7691TIP3    H123006   6.015   4.504   3.208
 7691TIP3    H223007   6.147   4.434   3.183
 7692TIP3   OH223008   6.035   4.244   2.955
 7692TIP3    H123009   6.107   4.298   2.994
 7692TIP3    H223010   6.066   4.155   2.975
 7693TIP3   OH223011   6.990   4.689   3.839
 7693TIP3    H123012   6.907   4.742   3.842
 7693TIP3    H223013   7.022   4.712   3.748
 7694TIP3   OH223014   6.431   4.525   3.215
 7694TIP3    H123015   6.378   4.550   3.294
 7694TIP3    H223016   6.515   4.498   3.257
 7695TIP3   OH223017   6.679   4.567   4.145
 7695TIP3    H123018   6.677   4.647   4.202
 7695TIP3    H223019   6.588   4.565   4.111
 7696TIP3   OH223020   5.778   4.923   3.777
 7696TIP3    H123021   5.766   4.868   3.698
 7696TIP3    H223022   5.873   4.919   3.790
 7697TIP3   OH223023   6.323   5.134   3.776
 7697TIP3    H123024   6.312   5.218   3.825
 7697TIP3    H223025   6.306   5.066   3.842
 7698TIP3   OH223026   5.939   5.055   4.311
 7698TIP3    H123027   5.878   5.115   4.360
 7698TIP3    H223028   5.873   5.000   4.263
 7699TIP3   OH223029   6.259   4.375   3.047
 7699TIP3    H123030   6.328   4.417   3.103
 7699TIP3    H223031   6.293   4.397   2.957
 7700TIP3   OH223032   5.694   4.612   4.420
 7700TIP3    H123033   5.696   4.698   4.466
 7700TIP3    H223034   5.600   4.587   4.429
 7701TIP3   OH223035   6.017   5.066   3.331
 7701TIP3    H123036   6.098   5.119   3.329
 7701TIP3    H223037   5.956   5.118   3.276
 7702TIP3   OH223038   5.732   5.219   4.404
 7702TIP3    H123039   5.695   5.224   4.314
 7702TIP3    H223040   5.653   5.199   4.458
 7703TIP3   OH223041   6.790   3.641   3.088
 7703TIP3    H123042   6.709   3.658   3.139
 7703TIP3    H223043   6.786   3.718   3.027
 7704TIP3   OH223044   5.542   4.352   3.403
 7704TIP3    H123045   5.458   4.384   3.365
 7704TIP3    H223046   5.514   4.278   3.459
 7705TIP3   OH223047   6.589   4.994   2.647
 7705TIP3    H123048   6.597   5.090   2.628
 7705TIP3    H223049   6.681   4.964   2.633
 7706TIP3   OH223050   5.316   4.744   4.352
 7706TIP3    H123051   5.251   4.711   4.288
 7706TIP3    H223052   5.350   4.662   4.393
 7707TIP3   OH223053   5.177   4.967   3.954
 7707TIP3    H123054   5.270   4.959   3.976
 7707TIP3    H223055   5.145   5.022   4.028
 7708TIP3   OH223056   7.032   5.394   4.039
 7708TIP3    H123057   7.035   5.298   4.054
 7708TIP3    H223058   6.950   5.417   4.088
 7709TIP3   OH223059   6.131   5.185   4.169
 7709TIP3    H123060   6.129   5.277   4.205
 7709TIP3    H223061   6.061   5.142   4.223
 7710TIP3   OH223062   5.902   5.311   3.125
 7710TIP3    H123063   5.854   5.290   3.044
 7710TIP3    H223064   5.865   5.398   3.150
 7711TIP3   OH223065   5.332   5.160   3.513
 7711TIP3    H123066   5.383   5.153   3.596
 7711TIP3    H223067   5.288   5.074   3.511
 7712TIP3   OH223068   6.098   5.215   2.763
 7712TIP3    H123069   6.156   5.145   2.726
 7712TIP3    H223070   6.134   5.224   2.853
 7713TIP3   OH223071   6.152   5.263   3.032
 7713TIP3    H123072   6.063   5.274   3.072
 7713TIP3    H223073   6.200   5.219   3.104
 7714TIP3   OH223074   6.918   4.526   4.314
 7714TIP3    H123075   6.836   4.530   4.263
 7714TIP3    H223076   6.938   4.430   4.308
 7715TIP3   OH223077   5.513   4.937   4.335
 7715TIP3    H123078   5.565   4.923   4.418
 7715TIP3    H223079   5.440   4.873   4.347
 7716TIP3   OH223080   5.914   3.757   4.126
 7716TIP3    H123081   5.824   3.730   4.098
 7716TIP3    H223082   5.892   3.842   4.170
 7717TIP3   OH223083   6.451   3.876   4.317
 7717TIP3    H123084   6.519   3.847   4.381
 7717TIP3    H223085   6.367   3.855   4.363
 7718TIP3   OH223086   6.693   4.300   4.243
 7718TIP3    H123087   6.638   4.296   4.325
 7718TIP3    H223088   6.664   4.384   4.203
 7719TIP3   OH223089   6.339   4.437   2.794
 7719TIP3    H123090   6.313   4.401   2.707
 7719TIP3    H223091   6.427   4.473   2.772
 7720TIP3   OH223092   6.101   3.814   3.085
 7720TIP3    H123093   6.066   3.816   3.176
 7720TIP3    H223094   6.053   3.737   3.051
 7721TIP3   OH223095   5.850   4.301   4.134
 7721TIP3    H123096   5.784   4.311   4.206
 7721TIP3    H223097   5.825   4.371   4.071
 7722TIP3   OH223098   6.399   4.523   4.464
 7722TIP3    H123099   6.373   4.450   4.524
 7722TIP3    H223100   6.492   4.535   4.491
 7723TIP3   OH223101   6.374   4.283   3.623
 7723TIP3    H123102   6.278   4.278   3.604
 7723TIP3    H223103   6.403   4.203   3.576
 7724TIP3   OH223104   5.668   4.291   4.346
 7724TIP3    H123105   5.698   4.358   4.409
 7724TIP3    H223106   5.661   4.211   4.401
 7725TIP3   OH223107   5.721   3.787   3.054
 7725TIP3    H123108   5.713   3.782   3.151
 7725TIP3    H223109   5.642   3.840   3.032
 7726TIP3   OH223110   5.260   3.828   3.937
 7726TIP3    H123111   5.338   3.856   3.989
 7726TIP3    H223112   5.299   3.812   3.850
 7727TIP3   OH223113   5.221   3.801   3.448
 7727TIP3    H123114   5.275   3.835   3.373
 7727TIP3    H223115   5.168   3.881   3.466
 7728TIP3   OH223116   5.508   4.038   3.733
 7728TIP3    H123117   5.412   4.042   3.717
 7728TIP3    H223118   5.536   3.953   3.694
 7729TIP3   OH223119   5.811   4.011   3.384
 7729TIP3    H123120   5.846   4.083   3.440
 7729TIP3    H223121   5.740   4.053   3.334
 7730TIP3   OH223122   6.559   4.046   3.931
 7730TIP3    H123123   6.517   4.065   4.018
 7730TIP3    H223124   6.491   3.983   3.896
 7731TIP3   OH223125   5.600   4.073   3.195
 7731TIP3    H123126   5.532   4.026   3.143
 7731TIP3    H223127   5.656   4.107   3.123
 7732TIP3   OH223128   5.678   4.861   4.556
 7732TIP3    H123129   5.758   4.888   4.606
 7732TIP3    H223130   5.613   4.857   4.629
 7733TIP3   OH223131   5.630   3.795   3.665
 7733TIP3    H123132   5.617   3.726   3.731
 7733TIP3    H223133   5.726   3.804   3.661
 7734TIP3   OH223134   6.109   4.208   4.119
 7734TIP3    H123135   6.020   4.248   4.123
 7734TIP3    H223136   6.168   4.273   4.162
 7735TIP3   OH223137   5.836   4.609   3.191
 7735TIP3    H123138   5.773   4.535   3.173
 7735TIP3    H223139   5.840   4.608   3.288
 7736TIP3   OH223140   6.764   4.848   3.821
 7736TIP3    H123141   6.806   4.898   3.747
 7736TIP3    H223142   6.677   4.829   3.784
 7737TIP3   OH223143   6.255   4.924   4.182
 7737TIP3    H123144   6.271   4.882   4.268
 7737TIP3    H223145   6.213   5.008   4.207
 7738TIP3   OH223146   6.000   4.750   3.022
 7738TIP3    H123147   5.954   4.837   3.025
 7738TIP3    H223148   5.942   4.697   3.081
 7739TIP3   OH223149   5.424   4.538   4.497
 7739TIP3    H123150   5.470   4.556   4.581
 7739TIP3    H223151   5.373   4.460   4.526
 7740TIP3   OH223152   6.158   4.659   4.510
 7740TIP3    H123153   6.094   4.606   4.459
 7740TIP3    H223154   6.242   4.621   4.477
 7741TIP3   OH223155   6.411   5.179   4.091
 7741TIP3    H123156   6.315   5.176   4.110
 7741TIP3    H223157   6.442   5.231   4.168
 7742TIP3   OH223158   6.830   4.236   3.001
 7742TIP3    H123159   6.772   4.167   2.966
 7742TIP3    H223160   6.801   4.315   2.951
 7743TIP3   OH223161   7.042   5.109   4.081
 7743TIP3    H123162   6.944   5.104   4.075
 7743TIP3    H223163   7.067   5.078   3.991
 7744TIP3   OH223164   6.528   5.068   2.911
 7744TIP3    H123165   6.496   4.995   2.965
 7744TIP3    H223166   6.539   5.026   2.823
 7745TIP3   OH223167   5.214   4.230   3.206
 7745TIP3    H123168   5.259   4.314   3.226
 7745TIP3    H223169   5.137   4.234   3.266
 7746TIP3   OH223170   5.920   5.264   3.964
 7746TIP3    H123171   5.959   5.340   3.916
 7746TIP3    H223172   5.995   5.235   4.019
 7747TIP3   OH223173   5.554   5.179   3.331
 7747TIP3    H123174   5.478   5.176   3.392
 7747TIP3    H223175   5.586   5.270   3.345
 7748TIP3   OH223176   6.353   4.866   3.936
 7748TIP3    H123177   6.295   4.878   4.013
 7748TIP3    H223178   6.437   4.900   3.980
 7749TIP3   OH223179   6.284   4.801   2.812
 7749TIP3    H123180   6.334   4.775   2.892
 7749TIP3    H223181   6.196   4.768   2.835
 7750TIP3   OH223182   6.548   5.445   3.982
 7750TIP3    H123183   6.473   5.383   3.974
 7750TIP3    H223184   6.534   5.503   3.904
 7751TIP3   OH223185   6.619   5.269   2.628
 7751TIP3    H123186   6.652   5.339   2.570
 7751TIP3    H223187   6.539   5.314   2.663
 7752TIP3   OH223188   5.633   4.047   4.494
 7752TIP3    H123189   5.536   4.051   4.507
 7752TIP3    H223190   5.660   3.991   4.569
 7753TIP3   OH223191   6.443   4.740   3.036
 7753TIP3    H123192   6.428   4.663   3.095
 7753TIP3    H223193   6.539   4.729   3.017
 7754TIP3   OH223194   5.358   5.129   4.128
 7754TIP3    H123195   5.416   5.062   4.169
 7754TIP3    H223196   5.378   5.206   4.182
 7755TIP3   OH223197   5.647   4.777   2.811
 7755TIP3    H123198   5.656   4.684   2.782
 7755TIP3    H223199   5.621   4.766   2.905
 7756TIP3   OH223200   5.588   4.781   3.084
 7756TIP3    H123201   5.672   4.755   3.126
 7756TIP3    H223202   5.592   4.879   3.091
 7757TIP3   OH223203   5.319   4.475   3.288
 7757TIP3    H123204   5.251   4.521   3.341
 7757TIP3    H223205   5.334   4.541   3.217
 7758TIP3   OH223206   6.474   4.119   4.186
 7758TIP3    H123207   6.560   4.146   4.223
 7758TIP3    H223208   6.458   4.034   4.233
 7759TIP3   OH223209   6.368   3.869   3.336
 7759TIP3    H123210   6.292   3.922   3.305
 7759TIP3    H223211   6.420   3.937   3.384
 7760TIP3   OH223212   5.861   4.981   3.035
 7760TIP3    H123213   5.772   5.004   3.068
 7760TIP3    H223214   5.870   5.046   2.964
 7761TIP3   OH223215   6.304   4.368   4.238
 7761TIP3    H123216   6.334   4.414   4.317
 7761TIP3    H223217   6.357   4.286   4.240
 7762TIP3   OH223218   6.168   3.796   3.563
 7762TIP3    H123219   6.137   3.879   3.608
 7762TIP3    H223220   6.243   3.829   3.510
 7763TIP3   OH223221   5.605   5.053   3.097
 7763TIP3    H123222   5.573   5.123   3.036
 7763TIP3    H223223   5.587   5.095   3.184
 7764TIP3   OH223224   5.703   3.757   3.323
 7764TIP3    H123225   5.706   3.846   3.364
 7764TIP3    H223226   5.794   3.729   3.340
 7765TIP3   OH223227   6.957   4.260   4.231
 7765TIP3    H123228   6.860   4.260   4.244
 7765TIP3    H223229   6.962   4.209   4.148
 7766TIP3   OH223230   6.591   4.471   3.626
 7766TIP3    H123231   6.525   4.399   3.621
 7766TIP3    H223232   6.665   4.425   3.672
 7767TIP3   OH223233   5.320   4.679   3.093
 7767TIP3    H123234   5.391   4.746   3.099
 7767TIP3    H223235   5.359   4.622   3.024
 7768TIP3   OH223236   5.259   3.958   3.224
 7768TIP3    H123237   5.272   4.055   3.222
 7768TIP3    H223238   5.173   3.950   3.182
 7769TIP3   OH223239   6.575   5.412   3.571
 7769TIP3    H123240   6.531   5.460   3.497
 7769TIP3    H223241   6.669   5.432   3.550
 7770TIP3   OH223242   5.649   3.681   4.100
 7770TIP3    H123243   5.621   3.648   4.012
 7770TIP3    H223244   5.638   3.601   4.156
 7771TIP3   OH223245   5.186   4.891   3.477
 7771TIP3    H123246   5.119   4.927   3.536
 7771TIP3    H223247   5.161   4.934   3.392
 7772TIP3   OH223248   5.348   5.445   4.549
 7772TIP3    H123249   5.435   5.446   4.596
 7772TIP3    H223250   5.329   5.350   4.548
 7773TIP3   OH223251   5.825   5.402   4.592
 7773TIP3    H123252   5.919   5.382   4.601
 7773TIP3    H223253   5.799   5.340   4.522
 7774TIP3   OH223254   5.811   4.980   2.722
 7774TIP3    H123255   5.756   4.906   2.757
 7774TIP3    H223256   5.884   4.931   2.682
 7775TIP3   OH223257   6.471   5.310   4.322
 7775TIP3    H123258   6.458   5.243   4.394
 7775TIP3    H223259   6.547   5.361   4.357
 7776TIP3   OH223260   6.243   5.019   2.635
 7776TIP3    H123261   6.286   4.953   2.692
 7776TIP3    H223262   6.297   5.015   2.553
 7777TIP3   OH223263   5.478   4.855   4.748
 7777TIP3    H123264   5.485   4.762   4.776
 7777TIP3    H223265   5.388   4.856   4.711
 7778TIP3   OH223266   5.456   4.495   2.948
 7778TIP3    H123267   5.516   4.465   3.018
 7778TIP3    H223268   5.520   4.503   2.873
 7779TIP3   OH223269   6.083   4.933   4.523
 7779TIP3    H123270   6.041   4.947   4.436
 7779TIP3    H223271   6.115   4.840   4.516
 7780TIP3   OH223272   5.972   4.697   2.752
 7780TIP3    H123273   5.973   4.707   2.850
 7780TIP3    H223274   5.967   4.600   2.743
 7781TIP3   OH223275   6.567   4.937   4.104
 7781TIP3    H123276   6.648   4.983   4.074
 7781TIP3    H223277   6.508   5.014   4.121
 7782TIP3   OH223278   5.596   4.583   4.721
 7782TIP3    H123279   5.671   4.526   4.703
 7782TIP3    H223280   5.619   4.616   4.811
 7783TIP3   OH223281   5.664   4.401   3.163
 7783TIP3    H123282   5.629   4.370   3.250
 7783TIP3    H223283   5.693   4.317   3.122
 7784TIP3   OH223284   5.925   4.466   4.402
 7784TIP3    H123285   5.846   4.524   4.401
 7784TIP3    H223286   5.977   4.503   4.328
 7785TIP3   OH223287   5.758   4.194   3.003
 7785TIP3    H123288   5.729   4.204   2.910
 7785TIP3    H223289   5.853   4.212   2.994
 7786TIP3   OH223290   6.451   4.870   4.526
 7786TIP3    H123291   6.535   4.839   4.490
 7786TIP3    H223292   6.437   4.806   4.598
 7787TIP3   OH223293   6.578   4.524   2.672
 7787TIP3    H123294   6.558   4.480   2.587
 7787TIP3    H223295   6.545   4.614   2.651
 7788TIP3   OH223296   6.057   4.256   4.517
 7788TIP3    H123297   6.056   4.176   4.459
 7788TIP3    H223298   6.009   4.321   4.462
 7789TIP3   OH223299   6.059   4.039   4.332
 7789TIP3    H123300   6.085   4.082   4.248
 7789TIP3    H223301   5.965   4.016   4.314
 7790TIP3   OH223302   6.088   4.589   4.228
 7790TIP3    H123303   6.132   4.529   4.168
 7790TIP3    H223304   6.033   4.647   4.170
 7791TIP3   OH223305   6.663   4.541   4.578
 7791TIP3    H123306   6.705   4.456   4.596
 7791TIP3    H223307   6.737   4.595   4.548
 7792TIP3   OH223308   6.703   4.800   4.305
 7792TIP3    H123309   6.646   4.852   4.244
 7792TIP3    H223310   6.792   4.822   4.270
 7793TIP3   OH223311   5.934   4.362   4.752
 7793TIP3    H123312   5.867   4.292   4.767
 7793TIP3    H223313   5.966   4.338   4.663
 7794TIP3   OH223314   6.190   3.802   4.397
 7794TIP3    H123315   6.140   3.884   4.373
 7794TIP3    H223316   6.122   3.734   4.383
 7795TIP3   OH223317   6.314   4.308   4.610
 7795TIP3    H123318   6.298   4.291   4.705
 7795TIP3    H223319   6.226   4.284   4.575
 7796TIP3   OH223320   6.554   4.260   4.469
 7796TIP3    H123321   6.478   4.259   4.530
 7796TIP3    H223322   6.628   4.227   4.525
 7797TIP3   OH223323   6.785   4.198   4.614
 7797TIP3    H123324   6.797   4.103   4.630
 7797TIP3    H223325   6.780   4.236   4.704
 7798TIP3   OH223326   5.773   4.142   4.806
 7798TIP3    H123327   5.776   4.051   4.772
 7798TIP3    H223328   5.811   4.129   4.895
 7799TIP3   OH223329   6.282   3.813   4.655
 7799TIP3    H123330   6.348   3.741   4.648
 7799TIP3    H223331   6.242   3.810   4.566
 7800TIP3   OH223332   6.351   4.029   4.812
 7800TIP3    H123333   6.329   3.957   4.748
 7800TIP3    H223334   6.272   4.086   4.805
 7801TIP3   OH223335   5.573   5.262   2.915
 7801TIP3    H123336   5.668   5.251   2.894
 7801TIP3    H223337   5.544   5.308   2.835
 7802TIP3   OH223338   5.050   4.638   3.130
 7802TIP3    H123339   5.144   4.661   3.110
 7802TIP3    H223340   5.043   4.551   3.087
 7803TIP3   OH223341   4.967   5.250   3.542
 7803TIP3    H123342   4.900   5.188   3.505
 7803TIP3    H223343   5.011   5.191   3.608
 7804TIP3   OH223344   5.097   5.101   3.729
 7804TIP3    H123345   5.099   5.029   3.796
 7804TIP3    H223346   5.151   5.166   3.778
 7805TIP3   OH223347   6.828   5.505   3.533
 7805TIP3    H123348   6.863   5.542   3.615
 7805TIP3    H223349   6.893   5.535   3.467
 7806TIP3   OH223350   6.856   5.528   3.823
 7806TIP3    H123351   6.812   5.441   3.810
 7806TIP3    H223352   6.938   5.499   3.866
 7807TIP3   OH223353   6.900   5.200   4.382
 7807TIP3    H123354   6.830   5.211   4.451
 7807TIP3    H223355   6.946   5.286   4.387
 7808TIP3   OH223356   6.719   4.710   3.002
 7808TIP3    H123357   6.785   4.774   2.970
 7808TIP3    H223358   6.765   4.673   3.081
 7809TIP3   OH223359   6.846   4.582   3.209
 7809TIP3    H123360   6.780   4.536   3.266
 7809TIP3    H223361   6.912   4.614   3.274
 7810TIP3   OH223362   6.904   4.974   3.631
 7810TIP3    H123363   6.958   4.905   3.587
 7810TIP3    H223364   6.908   5.048   3.567
 7811TIP3   OH223365   6.731   5.274   3.832
 7811TIP3    H123366   6.657   5.312   3.881
 7811TIP3    H223367   6.686   5.227   3.758
 7812TIP3   OH223368   6.781   4.482   2.849
 7812TIP3    H123369   6.709   4.489   2.782
 7812TIP3    H223370   6.755   4.556   2.907
 7813TIP3   OH223371   6.583   4.167   2.819
 7813TIP3    H123372   6.599   4.184   2.726
 7813TIP3    H223373   6.637   4.086   2.835
 7814TIP3   OH223374   6.660   4.437   3.352
 7814TIP3    H123375   6.664   4.340   3.338
 7814TIP3    H223376   6.646   4.443   3.449
 7815TIP3   OH223377   6.951   4.863   4.207
 7815TIP3    H123378   7.021   4.794   4.200
 7815TIP3    H223379   6.986   4.932   4.148
 7816TIP3   OH223380   7.132   4.663   4.221
 7816TIP3    H123381   7.059   4.611   4.260
 7816TIP3    H223382   7.207   4.602   4.238
 7817TIP3   OH223383   6.666   4.160   3.264
 7817TIP3    H123384   6.704   4.070   3.276
 7817TIP3    H223385   6.705   4.183   3.178
 7818TIP3   OH223386   6.815   4.332   3.734
 7818TIP3    H123387   6.903   4.354   3.696
 7818TIP3    H223388   6.830   4.360   3.826
 7819TIP3   OH223389   6.896   4.466   3.971
 7819TIP3    H123390   6.821   4.501   4.024
 7819TIP3    H223391   6.929   4.547   3.926
 7820TIP3   OH223392   5.507   4.199   4.782
 7820TIP3    H123393   5.605   4.191   4.782
 7820TIP3    H223394   5.483   4.111   4.817
 7821TIP3   OH223395   7.339   4.064   4.527
 7821TIP3    H123396   7.400   3.999   4.486
 7821TIP3    H223397   7.309   4.115   4.449
 7822TIP3   OH223398   6.758   3.906   3.296
 7822TIP3    H123399   6.811   3.885   3.375
 7822TIP3    H223400   6.705   3.825   3.286
 7823TIP3   OH223401   5.468   3.893   4.098
 7823TIP3    H123402   5.530   3.818   4.109
 7823TIP3    H223403   5.531   3.966   4.088
 7824TIP3   OH223404   7.211   4.199   4.330
 7824TIP3    H123405   7.126   4.244   4.353
 7824TIP3    H223406   7.175   4.127   4.274
 7825TIP3   OH223407   5.247   3.655   3.675
 7825TIP3    H123408   5.155   3.659   3.706
 7825TIP3    H223409   5.247   3.720   3.601
 7826TIP3   OH223410   6.416   5.371   3.188
 7826TIP3    H123411   6.459   5.355   3.102
 7826TIP3    H223412   6.472   5.440   3.225
 7827TIP3   OH223413   5.478   3.746   4.494
 7827TIP3    H123414   5.421   3.745   4.573
 7827TIP3    H223415   5.435   3.811   4.437
 7828TIP3   OH223416   5.511   5.176   4.567
 7828TIP3    H123417   5.419   5.150   4.553
 7828TIP3    H223418   5.525   5.151   4.660
 7829TIP3   OH223419   5.692   5.208   4.116
 7829TIP3    H123420   5.644   5.285   4.077
 7829TIP3    H223421   5.778   5.223   4.072
 7830TIP3   OH223422   6.132   5.449   4.251
 7830TIP3    H123423   6.172   5.445   4.341
 7830TIP3    H223424   6.198   5.502   4.203
 7831TIP3   OH223425   6.325   5.600   4.124
 7831TIP3    H123426   6.379   5.548   4.062
 7831TIP3    H223427   6.384   5.609   4.200
 7832TIP3   OH223428   7.109   3.962   4.213
 7832TIP3    H123429   7.019   3.953   4.178
 7832TIP3    H223430   7.142   3.870   4.205
 7833TIP3   OH223431   5.367   5.462   4.143
 7833TIP3    H123432   5.277   5.494   4.119
 7833TIP3    H223433   5.380   5.509   4.226
 7834TIP3   OH223434   5.604   5.442   4.001
 7834TIP3    H123435   5.516   5.454   4.044
 7834TIP3    H223436   5.585   5.474   3.910
 7835TIP3   OH223437   6.027   5.467   3.799
 7835TIP3    H123438   5.959   5.483   3.731
 7835TIP3    H223439   6.037   5.557   3.837
 7836TIP3   OH223440   6.297   5.408   3.852
 7836TIP3    H123441   6.203   5.425   3.831
 7836TIP3    H223442   6.341   5.475   3.797
 7837TIP3   OH223443   6.504   5.599   3.760
 7837TIP3    H123444   6.485   5.682   3.710
 7837TIP3    H223445   6.531   5.538   3.688
 7838TIP3   OH223446   5.276   5.259   3.887
 7838TIP3    H123447   5.302   5.227   3.976
 7838TIP3    H223448   5.346   5.216   3.833
 7839TIP3   OH223449   5.472   5.136   3.745
 7839TIP3    H123450   5.488   5.056   3.799
 7839TIP3    H223451   5.562   5.174   3.739
 7840TIP3   OH223452   5.737   5.227   3.748
 7840TIP3    H123453   5.769   5.139   3.725
 7840TIP3    H223454   5.787   5.243   3.831
 7841TIP3   OH223455   6.354   3.875   3.867
 7841TIP3    H123456   6.268   3.836   3.893
 7841TIP3    H223457   6.379   3.820   3.792
 7842TIP3   OH223458   6.842   3.758   3.740
 7842TIP3    H123459   6.876   3.810   3.663
 7842TIP3    H223460   6.746   3.772   3.731
 7843TIP3   OH223461   6.933   3.854   3.503
 7843TIP3    H123462   7.007   3.805   3.460
 7843TIP3    H223463   6.963   3.947   3.487
 7844TIP3   OH223464   5.565   3.586   3.856
 7844TIP3    H123465   5.472   3.556   3.854
 7844TIP3    H223466   5.611   3.500   3.846
 7845TIP3   OH223467   5.351   3.458   3.500
 7845TIP3    H123468   5.379   3.517   3.427
 7845TIP3    H223469   5.324   3.524   3.568
 7846TIP3   OH223470   6.013   3.617   3.730
 7846TIP3    H123471   6.060   3.677   3.670
 7846TIP3    H223472   6.020   3.666   3.813
 7847TIP3   OH223473   6.571   3.759   3.701
 7847TIP3    H123474   6.551   3.717   3.617
 7847TIP3    H223475   6.547   3.688   3.765
 7848TIP3   OH223476   6.582   3.689   3.274
 7848TIP3    H123477   6.500   3.739   3.294
 7848TIP3    H223478   6.564   3.604   3.318
 7849TIP3   OH223479   5.065   5.026   3.278
 7849TIP3    H123480   4.984   4.991   3.236
 7849TIP3    H223481   5.049   5.121   3.271
 7850TIP3   OH223482   5.466   3.618   3.256
 7850TIP3    H123483   5.517   3.555   3.201
 7850TIP3    H223484   5.539   3.671   3.295
 7851TIP3   OH223485   5.991   3.803   3.348
 7851TIP3    H123486   6.045   3.792   3.428
 7851TIP3    H223487   5.939   3.883   3.371
 7852TIP3   OH223488   5.839   5.214   2.859
 7852TIP3    H123489   5.927   5.237   2.822
 7852TIP3    H223490   5.816   5.141   2.798
 7853TIP3   OH223491   6.556   5.335   2.954
 7853TIP3    H123492   6.550   5.237   2.942
 7853TIP3    H223493   6.511   5.365   2.873
 7854TIP3   OH223494   5.769   3.867   4.741
 7854TIP3    H123495   5.733   3.796   4.797
 7854TIP3    H223496   5.863   3.866   4.769
 7855TIP3   OH223497   6.020   3.865   4.859
 7855TIP3    H123498   6.105   3.840   4.819
 7855TIP3    H223499   6.009   3.794   4.926
 7856TIP3   OH223500   5.162   5.077   2.928
 7856TIP3    H123501   5.170   5.059   3.022
 7856TIP3    H223502   5.235   5.023   2.891
 7857TIP3   OH223503   6.847   3.928   4.647
 7857TIP3    H123504   6.864   3.896   4.738
 7857TIP3    H223505   6.937   3.922   4.607
 7858TIP3   OH223506   6.785   5.476   4.138
 7858TIP3    H123507   6.702   5.452   4.092
 7858TIP3    H223508   6.792   5.570   4.118
 7859TIP3   OH223509   8.049   4.855   2.903
 7859TIP3    H123510   8.018   4.945   2.884
 7859TIP3    H223511   7.971   4.804   2.874
 7860TIP3   OH223512   8.046   4.851   3.284
 7860TIP3    H123513   8.074   4.839   3.377
 7860TIP3    H223514   8.004   4.765   3.266
 7861TIP3   OH223515   7.345   4.746   3.655
 7861TIP3    H123516   7.376   4.676   3.716
 7861TIP3    H223517   7.427   4.796   3.640
 7862TIP3   OH223518   8.293   5.151   2.969
 7862TIP3    H123519   8.275   5.089   3.041
 7862TIP3    H223520   8.324   5.229   3.018
 7863TIP3   OH223521   7.320   5.158   3.375
 7863TIP3    H123522   7.314   5.059   3.375
 7863TIP3    H223523   7.417   5.168   3.368
 7864TIP3   OH223524   7.026   4.362   3.156
 7864TIP3    H123525   6.970   4.439   3.172
 7864TIP3    H223526   6.963   4.304   3.109
 7865TIP3   OH223527   7.083   4.647   3.341
 7865TIP3    H123528   7.132   4.567   3.371
 7865TIP3    H223529   7.137   4.676   3.267
 7866TIP3   OH223530   7.947   5.619   2.986
 7866TIP3    H123531   7.988   5.546   2.934
 7866TIP3    H223532   7.937   5.578   3.073
 7867TIP3   OH223533   7.847   5.079   3.335
 7867TIP3    H123534   7.888   5.002   3.292
 7867TIP3    H223535   7.929   5.125   3.362
 7868TIP3   OH223536   8.252   4.602   3.363
 7868TIP3    H123537   8.264   4.508   3.390
 7868TIP3    H223538   8.207   4.588   3.278
 7869TIP3   OH223539   7.601   4.238   3.332
 7869TIP3    H123540   7.582   4.310   3.268
 7869TIP3    H223541   7.554   4.164   3.286
 7870TIP3   OH223542   8.286   4.331   2.965
 7870TIP3    H123543   8.352   4.271   3.004
 7870TIP3    H223544   8.342   4.383   2.906
 7871TIP3   OH223545   7.232   4.438   3.437
 7871TIP3    H123546   7.315   4.419   3.484
 7871TIP3    H223547   7.244   4.382   3.357
 7872TIP3   OH223548   7.671   4.636   3.236
 7872TIP3    H123549   7.766   4.612   3.246
 7872TIP3    H223550   7.633   4.552   3.202
 7873TIP3   OH223551   7.596   4.223   3.767
 7873TIP3    H123552   7.537   4.259   3.698
 7873TIP3    H223553   7.542   4.240   3.847
 7874TIP3   OH223554   7.946   5.078   2.764
 7874TIP3    H123555   7.896   5.058   2.684
 7874TIP3    H223556   7.895   5.155   2.799
 7875TIP3   OH223557   7.702   4.997   3.557
 7875TIP3    H123558   7.643   5.067   3.595
 7875TIP3    H223559   7.746   5.046   3.484
 7876TIP3   OH223560   7.467   4.336   3.549
 7876TIP3    H123561   7.530   4.409   3.573
 7876TIP3    H223562   7.516   4.297   3.473
 7877TIP3   OH223563   7.531   5.195   3.659
 7877TIP3    H123564   7.506   5.282   3.622
 7877TIP3    H223565   7.452   5.177   3.713
 7878TIP3   OH223566   6.920   4.882   2.893
 7878TIP3    H123567   6.881   4.908   2.807
 7878TIP3    H223568   6.953   4.968   2.927
 7879TIP3   OH223569   8.362   5.397   3.131
 7879TIP3    H123570   8.274   5.385   3.175
 7879TIP3    H223571   8.349   5.485   3.090
 7880TIP3   OH223572   7.941   3.932   3.485
 7880TIP3    H123573   7.918   3.838   3.498
 7880TIP3    H223574   7.863   3.975   3.528
 7881TIP3   OH223575   8.062   5.441   2.805
 7881TIP3    H123576   8.113   5.360   2.785
 7881TIP3    H223577   8.124   5.508   2.766
 7882TIP3   OH223578   8.201   5.218   2.716
 7882TIP3    H123579   8.129   5.153   2.711
 7882TIP3    H223580   8.247   5.191   2.798
 7883TIP3   OH223581   8.579   5.299   3.481
 7883TIP3    H123582   8.587   5.225   3.418
 7883TIP3    H223583   8.584   5.378   3.424
 7884TIP3   OH223584   7.879   4.704   2.737
 7884TIP3    H123585   7.797   4.755   2.721
 7884TIP3    H223586   7.919   4.702   2.649
 7885TIP3   OH223587   7.838   4.489   2.449
 7885TIP3    H123588   7.903   4.544   2.494
 7885TIP3    H223589   7.897   4.427   2.401
 7886TIP3   OH223590   8.221   4.782   2.707
 7886TIP3    H123591   8.165   4.813   2.782
 7886TIP3    H223592   8.295   4.740   2.755
 7887TIP3   OH223593   8.446   4.798   3.625
 7887TIP3    H123594   8.485   4.877   3.666
 7887TIP3    H223595   8.365   4.835   3.585
 7888TIP3   OH223596   7.461   4.783   3.125
 7888TIP3    H123597   7.419   4.724   3.058
 7888TIP3    H223598   7.536   4.728   3.156
 7889TIP3   OH223599   7.589   5.195   3.273
 7889TIP3    H123600   7.570   5.160   3.184
 7889TIP3    H223601   7.678   5.158   3.291
 7890TIP3   OH223602   7.592   4.755   3.480
 7890TIP3    H123603   7.627   4.729   3.392
 7890TIP3    H223604   7.639   4.840   3.497
 7891TIP3   OH223605   8.123   5.391   3.256
 7891TIP3    H123606   8.110   5.473   3.307
 7891TIP3    H223607   8.105   5.321   3.322
 7892TIP3   OH223608   7.737   5.311   3.804
 7892TIP3    H123609   7.675   5.372   3.850
 7892TIP3    H223610   7.673   5.257   3.753
 7893TIP3   OH223611   8.066   4.637   2.531
 7893TIP3    H123612   8.121   4.702   2.580
 7893TIP3    H223613   8.094   4.657   2.438
 7894TIP3   OH223614   7.493   4.865   3.909
 7894TIP3    H123615   7.498   4.953   3.950
 7894TIP3    H223616   7.398   4.845   3.920
 7895TIP3   OH223617   7.815   5.320   2.811
 7895TIP3    H123618   7.896   5.373   2.818
 7895TIP3    H223619   7.754   5.380   2.766
 7896TIP3   OH223620   7.529   5.476   3.890
 7896TIP3    H123621   7.493   5.480   3.799
 7896TIP3    H223622   7.448   5.456   3.942
 7897TIP3   OH223623   7.327   4.627   2.929
 7897TIP3    H123624   7.257   4.669   2.874
 7897TIP3    H223625   7.291   4.538   2.940
 7898TIP3   OH223626   8.379   5.255   2.133
 7898TIP3    H123627   8.378   5.349   2.111
 7898TIP3    H223628   8.463   5.226   2.095
 7899TIP3   OH223629   7.106   5.009   3.839
 7899TIP3    H123630   7.050   4.985   3.763
 7899TIP3    H223631   7.148   4.924   3.863
 7900TIP3   OH223632   6.964   5.201   3.474
 7900TIP3    H123633   7.059   5.192   3.457
 7900TIP3    H223634   6.962   5.281   3.528
 7901TIP3   OH223635   7.930   5.441   3.659
 7901TIP3    H123636   7.928   5.533   3.693
 7901TIP3    H223637   7.861   5.399   3.715
 7902TIP3   OH223638   7.696   5.567   2.613
 7902TIP3    H123639   7.649   5.549   2.529
 7902TIP3    H223640   7.661   5.654   2.639
 7903TIP3   OH223641   7.132   5.416   2.998
 7903TIP3    H123642   7.178   5.407   3.084
 7903TIP3    H223643   7.082   5.333   2.995
 7904TIP3   OH223644   7.893   5.473   2.251
 7904TIP3    H123645   7.952   5.404   2.213
 7904TIP3    H223646   7.930   5.482   2.341
 7905TIP3   OH223647   7.946   5.520   2.520
 7905TIP3    H123648   7.858   5.528   2.562
 7905TIP3    H223649   7.998   5.480   2.592
 7906TIP3   OH223650   7.310   5.193   3.822
 7906TIP3    H123651   7.362   5.177   3.904
 7906TIP3    H223652   7.237   5.130   3.832
 7907TIP3   OH223653   7.711   4.016   3.613
 7907TIP3    H123654   7.623   3.986   3.582
 7907TIP3    H223655   7.685   4.098   3.659
 7908TIP3   OH223656   8.211   4.154   3.787
 7908TIP3    H123657   8.276   4.109   3.845
 7908TIP3    H223658   8.127   4.131   3.831
 7909TIP3   OH223659   8.514   4.558   3.738
 7909TIP3    H123660   8.454   4.579   3.812
 7909TIP3    H223661   8.499   4.637   3.681
 7910TIP3   OH223662   8.146   4.685   2.278
 7910TIP3    H123663   8.116   4.662   2.187
 7910TIP3    H223664   8.209   4.756   2.259
 7911TIP3   OH223665   7.870   4.061   2.583
 7911TIP3    H123666   7.831   4.059   2.673
 7911TIP3    H223667   7.824   3.984   2.544
 7912TIP3   OH223668   7.643   4.533   3.629
 7912TIP3    H123669   7.593   4.554   3.710
 7912TIP3    H223670   7.627   4.615   3.576
 7913TIP3   OH223671   7.525   4.419   3.143
 7913TIP3    H123672   7.433   4.391   3.162
 7913TIP3    H223673   7.538   4.377   3.055
 7914TIP3   OH223674   8.020   4.507   2.870
 7914TIP3    H123675   7.965   4.577   2.828
 7914TIP3    H223676   8.074   4.477   2.795
 7915TIP3   OH223677   8.191   4.777   3.950
 7915TIP3    H123678   8.199   4.703   4.012
 7915TIP3    H223679   8.283   4.808   3.950
 7916TIP3   OH223680   8.159   4.537   3.110
 7916TIP3    H123681   8.100   4.554   3.034
 7916TIP3    H223682   8.196   4.452   3.081
 7917TIP3   OH223683   7.463   4.561   3.837
 7917TIP3    H123684   7.496   4.623   3.904
 7917TIP3    H223685   7.452   4.479   3.888
 7918TIP3   OH223686   7.515   4.040   2.547
 7918TIP3    H123687   7.503   4.038   2.644
 7918TIP3    H223688   7.437   4.093   2.520
 7919TIP3   OH223689   7.053   4.080   3.423
 7919TIP3    H123690   7.133   4.113   3.469
 7919TIP3    H223691   7.085   4.056   3.335
 7920TIP3   OH223692   7.077   4.098   2.962
 7920TIP3    H123693   7.104   4.124   2.872
 7920TIP3    H223694   6.991   4.143   2.967
 7921TIP3   OH223695   8.153   4.791   3.531
 7921TIP3    H123696   8.199   4.725   3.474
 7921TIP3    H223697   8.134   4.734   3.609
 7922TIP3   OH223698   7.851   4.258   3.200
 7922TIP3    H123699   7.776   4.246   3.261
 7922TIP3    H223700   7.925   4.220   3.251
 7923TIP3   OH223701   7.286   4.296   3.208
 7923TIP3    H123702   7.192   4.307   3.179
 7923TIP3    H223703   7.305   4.204   3.182
 7924TIP3   OH223704   7.553   4.291   2.903
 7924TIP3    H123705   7.647   4.307   2.880
 7924TIP3    H223706   7.506   4.313   2.819
 7925TIP3   OH223707   8.269   4.337   3.404
 7925TIP3    H123708   8.250   4.330   3.498
 7925TIP3    H223709   8.345   4.275   3.393
 7926TIP3   OH223710   7.404   4.328   2.679
 7926TIP3    H123711   7.331   4.282   2.635
 7926TIP3    H223712   7.454   4.363   2.602
 7927TIP3   OH223713   8.507   6.014   3.624
 7927TIP3    H123714   8.507   6.023   3.526
 7927TIP3    H223715   8.583   6.068   3.647
 7928TIP3   OH223716   7.474   5.117   4.044
 7928TIP3    H123717   7.555   5.145   4.091
 7928TIP3    H223718   7.411   5.114   4.118
 7929TIP3   OH223719   7.938   4.573   3.304
 7929TIP3    H123720   8.003   4.525   3.249
 7929TIP3    H223721   7.941   4.522   3.387
 7930TIP3   OH223722   7.463   4.054   3.182
 7930TIP3    H123723   7.422   3.979   3.231
 7930TIP3    H223724   7.496   4.011   3.103
 7931TIP3   OH223725   7.912   4.466   3.596
 7931TIP3    H123726   7.821   4.502   3.604
 7931TIP3    H223727   7.966   4.532   3.643
 7932TIP3   OH223728   7.651   4.855   2.686
 7932TIP3    H123729   7.579   4.789   2.673
 7932TIP3    H223730   7.628   4.889   2.776
 7933TIP3   OH223731   8.551   5.085   3.301
 7933TIP3    H123732   8.568   5.104   3.209
 7933TIP3    H223733   8.461   5.046   3.297
 7934TIP3   OH223734   8.120   4.161   2.547
 7934TIP3    H123735   8.025   4.135   2.556
 7934TIP3    H223736   8.116   4.258   2.558
 7935TIP3   OH223737   8.041   5.173   3.683
 7935TIP3    H123738   8.086   5.162   3.767
 7935TIP3    H223739   8.010   5.265   3.688
 7936TIP3   OH223740   8.208   4.426   2.633
 7936TIP3    H123741   8.290   4.476   2.643
 7936TIP3    H223742   8.151   4.493   2.589
 7937TIP3   OH223743   7.344   4.881   3.358
 7937TIP3    H123744   7.381   4.852   3.272
 7937TIP3    H223745   7.389   4.821   3.419
 7938TIP3   OH223746   7.797   5.005   2.511
 7938TIP3    H123747   7.748   5.090   2.511
 7938TIP3    H223748   7.741   4.950   2.570
 7939TIP3   OH223749   7.226   4.801   3.976
 7939TIP3    H123750   7.248   4.786   4.070
 7939TIP3    H223751   7.161   4.731   3.960
 7940TIP3   OH223752   7.949   4.915   3.993
 7940TIP3    H123753   7.884   4.854   3.953
 7940TIP3    H223754   8.032   4.879   3.956
 7941TIP3   OH223755   8.206   5.433   3.580
 7941TIP3    H123756   8.109   5.436   3.595
 7941TIP3    H223757   8.237   5.485   3.657
 7942TIP3   OH223758   8.306   5.335   2.396
 7942TIP3    H123759   8.308   5.279   2.475
 7942TIP3    H223760   8.334   5.277   2.324
 7943TIP3   OH223761   8.307   4.958   3.233
 7943TIP3    H123762   8.212   4.938   3.244
 7943TIP3    H223763   8.340   4.871   3.204
 7944TIP3   OH223764   7.446   5.185   2.987
 7944TIP3    H123765   7.442   5.265   2.931
 7944TIP3    H223766   7.353   5.163   2.996
 7945TIP3   OH223767   7.009   4.483   2.694
 7945TIP3    H123768   7.053   4.568   2.714
 7945TIP3    H223769   6.932   4.487   2.754
 7946TIP3   OH223770   7.578   4.947   2.928
 7946TIP3    H123771   7.544   5.036   2.948
 7946TIP3    H223772   7.542   4.895   3.003
 7947TIP3   OH223773   7.715   5.525   3.454
 7947TIP3    H123774   7.758   5.598   3.404
 7947TIP3    H223775   7.791   5.488   3.502
 7948TIP3   OH223776   7.362   5.422   2.837
 7948TIP3    H123777   7.277   5.432   2.884
 7948TIP3    H223778   7.396   5.515   2.840
 7949TIP3   OH223779   8.098   5.158   3.416
 7949TIP3    H123780   8.084   5.156   3.514
 7949TIP3    H223781   8.184   5.115   3.409
 7950TIP3   OH223782   8.059   5.057   2.309
 7950TIP3    H123783   8.116   5.029   2.384
 7950TIP3    H223784   7.971   5.031   2.342
 7951TIP3   OH223785   8.350   5.689   3.462
 7951TIP3    H123786   8.270   5.633   3.456
 7951TIP3    H223787   8.332   5.755   3.391
 7952TIP3   OH223788   7.432   4.303   3.978
 7952TIP3    H123789   7.335   4.309   3.990
 7952TIP3    H223790   7.458   4.249   4.054
 7953TIP3   OH223791   8.234   4.976   2.510
 7953TIP3    H123792   8.222   4.910   2.580
 7953TIP3    H223793   8.302   5.032   2.549
 7954TIP3   OH223794   7.149   5.388   3.615
 7954TIP3    H123795   7.205   5.315   3.647
 7954TIP3    H223796   7.185   5.462   3.666
 7955TIP3   OH223797   7.442   5.034   2.297
 7955TIP3    H123798   7.453   4.941   2.270
 7955TIP3    H223799   7.420   5.023   2.392
 7956TIP3   OH223800   7.385   5.040   2.569
 7956TIP3    H123801   7.459   5.013   2.625
 7956TIP3    H223802   7.389   5.138   2.576
 7957TIP3   OH223803   7.120   4.731   2.773
 7957TIP3    H123804   7.053   4.775   2.829
 7957TIP3    H223805   7.132   4.799   2.704
 7958TIP3   OH223806   8.273   4.404   3.701
 7958TIP3    H123807   8.370   4.409   3.689
 7958TIP3    H223808   8.257   4.311   3.726
 7959TIP3   OH223809   8.133   4.129   2.840
 7959TIP3    H123810   8.132   4.142   2.744
 7959TIP3    H223811   8.179   4.208   2.873
 7960TIP3   OH223812   7.655   5.234   2.517
 7960TIP3    H123813   7.567   5.259   2.553
 7960TIP3    H223814   7.669   5.307   2.455
 7961TIP3   OH223815   7.837   4.303   2.931
 7961TIP3    H123816   7.903   4.374   2.918
 7961TIP3    H223817   7.842   4.290   3.028
 7962TIP3   OH223818   8.105   4.616   3.732
 7962TIP3    H123819   8.136   4.662   3.813
 7962TIP3    H223820   8.165   4.539   3.727
 7963TIP3   OH223821   7.976   4.012   3.030
 7963TIP3    H123822   7.999   4.070   3.106
 7963TIP3    H223823   8.033   4.053   2.961
 7964TIP3   OH223824   7.401   5.311   2.587
 7964TIP3    H123825   7.370   5.381   2.524
 7964TIP3    H223826   7.383   5.354   2.673
 7965TIP3   OH223827   7.498   4.026   2.823
 7965TIP3    H123828   7.493   4.116   2.862
 7965TIP3    H223829   7.595   4.011   2.831
 7966TIP3   OH223830   8.397   4.696   3.142
 7966TIP3    H123831   8.311   4.660   3.114
 7966TIP3    H223832   8.405   4.652   3.230
 7967TIP3   OH223833   7.116   4.936   2.577
 7967TIP3    H123834   7.186   5.004   2.585
 7967TIP3    H223835   7.158   4.878   2.510
 7968TIP3   OH223836   7.060   4.212   2.711
 7968TIP3    H123837   7.056   4.310   2.708
 7968TIP3    H223838   6.976   4.187   2.672
 7969TIP3   OH223839   8.378   5.674   3.055
 7969TIP3    H123840   8.338   5.722   2.979
 7969TIP3    H223841   8.472   5.678   3.032
 7970TIP3   OH223842   7.448   3.937   3.581
 7970TIP3    H123843   7.417   3.904   3.494
 7970TIP3    H223844   7.435   3.859   3.639
 7971TIP3   OH223845   6.983   5.157   2.961
 7971TIP3    H123846   6.915   5.185   3.022
 7971TIP3    H223847   6.951   5.199   2.877
 7972TIP3   OH223848   7.145   5.700   4.037
 7972TIP3    H123849   7.231   5.706   4.085
 7972TIP3    H223850   7.134   5.604   4.034
 7973TIP3   OH223851   7.618   5.658   4.081
 7973TIP3    H123852   7.713   5.645   4.089
 7973TIP3    H223853   7.597   5.596   4.009
 7974TIP3   OH223854   7.605   5.236   2.207
 7974TIP3    H123855   7.550   5.163   2.244
 7974TIP3    H223856   7.680   5.185   2.171
 7975TIP3   OH223857   8.258   5.568   3.815
 7975TIP3    H123858   8.253   5.498   3.884
 7975TIP3    H223859   8.337   5.618   3.842
 7976TIP3   OH223860   8.033   5.278   2.117
 7976TIP3    H123861   8.076   5.217   2.179
 7976TIP3    H223862   8.088   5.271   2.037
 7977TIP3   OH223863   7.273   5.103   4.236
 7977TIP3    H123864   7.289   5.007   4.245
 7977TIP3    H223865   7.186   5.105   4.191
 7978TIP3   OH223866   7.251   4.751   2.432
 7978TIP3    H123867   7.308   4.721   2.504
 7978TIP3    H223868   7.317   4.757   2.359
 7979TIP3   OH223869   7.878   5.191   4.011
 7979TIP3    H123870   7.840   5.214   3.923
 7979TIP3    H223871   7.908   5.099   3.997
 7980TIP3   OH223872   7.764   4.954   2.240
 7980TIP3    H123873   7.764   4.964   2.337
 7980TIP3    H223874   7.767   4.856   2.231
 7981TIP3   OH223875   8.369   5.197   3.618
 7981TIP3    H123876   8.449   5.235   3.576
 7981TIP3    H223877   8.306   5.271   3.602
 7982TIP3   OH223878   7.395   4.839   4.219
 7982TIP3    H123879   7.473   4.789   4.192
 7982TIP3    H223880   7.423   4.872   4.307
 7983TIP3   OH223881   7.459   4.658   2.652
 7983TIP3    H123882   7.428   4.617   2.734
 7983TIP3    H223883   7.495   4.582   2.602
 7984TIP3   OH223884   7.734   4.723   3.882
 7984TIP3    H123885   7.654   4.780   3.881
 7984TIP3    H223886   7.784   4.758   3.804
 7985TIP3   OH223887   7.559   4.454   2.490
 7985TIP3    H123888   7.534   4.462   2.396
 7985TIP3    H223889   7.657   4.455   2.483
 7986TIP3   OH223890   8.247   5.125   4.011
 7986TIP3    H123891   8.328   5.109   3.960
 7986TIP3    H223892   8.251   5.058   4.080
 7987TIP3   OH223893   7.846   4.509   4.015
 7987TIP3    H123894   7.855   4.436   3.951
 7987TIP3    H223895   7.812   4.581   3.958
 7988TIP3   OH223896   7.855   4.296   3.815
 7988TIP3    H123897   7.882   4.342   3.733
 7988TIP3    H223898   7.761   4.277   3.796
 7989TIP3   OH223899   7.880   4.833   3.685
 7989TIP3    H123900   7.966   4.846   3.643
 7989TIP3    H223901   7.824   4.900   3.640
 7990TIP3   OH223902   8.470   4.815   4.061
 7990TIP3    H123903   8.523   4.735   4.051
 7990TIP3    H223904   8.529   4.883   4.025
 7991TIP3   OH223905   8.509   5.048   3.802
 7991TIP3    H123906   8.458   5.105   3.739
 7991TIP3    H223907   8.592   5.035   3.750
 7992TIP3   OH223908   7.712   4.634   4.232
 7992TIP3    H123909   7.655   4.557   4.254
 7992TIP3    H223910   7.761   4.599   4.156
 7993TIP3   OH223911   7.976   4.060   3.893
 7993TIP3    H123912   7.923   4.139   3.868
 7993TIP3    H223913   7.910   3.988   3.880
 7994TIP3   OH223914   8.335   4.524   3.984
 7994TIP3    H123915   8.298   4.447   3.936
 7994TIP3    H223916   8.407   4.483   4.034
 7995TIP3   OH223917   8.537   4.411   4.125
 7995TIP3    H123918   8.614   4.352   4.127
 7995TIP3    H223919   8.561   4.479   4.190
 7996TIP3   OH223920   7.568   4.401   4.293
 7996TIP3    H123921   7.570   4.308   4.262
 7996TIP3    H223922   7.606   4.390   4.383
 7997TIP3   OH223923   8.095   4.083   4.139
 7997TIP3    H123924   8.142   3.998   4.140
 7997TIP3    H223925   8.047   4.075   4.054
 7998TIP3   OH223926   8.085   4.315   4.281
 7998TIP3    H123927   8.120   4.248   4.217
 7998TIP3    H223928   7.992   4.288   4.279
 7999TIP3   OH223929   7.369   5.515   2.400
 7999TIP3    H123930   7.464   5.506   2.379
 7999TIP3    H223931   7.340   5.565   2.322
 8000TIP3   OH223932   6.847   4.896   2.614
 8000TIP3    H123933   6.941   4.916   2.598
 8000TIP3    H223934   6.839   4.807   2.572
 8001TIP3   OH223935   6.761   5.508   3.030
 8001TIP3    H123936   6.697   5.446   2.989
 8001TIP3    H223937   6.806   5.448   3.093
 8002TIP3   OH223938   6.896   5.355   3.216
 8002TIP3    H123939   6.885   5.283   3.280
 8002TIP3    H223940   6.952   5.416   3.267
 8003TIP3   OH223941   8.685   5.761   3.293
 8003TIP3    H123942   8.639   5.675   3.283
 8003TIP3    H223943   8.675   5.773   3.389
 8004TIP3   OH223944   8.663   5.478   3.873
 8004TIP3    H123945   8.601   5.476   3.948
 8004TIP3    H223946   8.709   5.563   3.885
 8005TIP3   OH223947   8.533   5.529   3.315
 8005TIP3    H123948   8.467   5.566   3.376
 8005TIP3    H223949   8.477   5.478   3.252
 8006TIP3   OH223950   8.435   4.660   2.833
 8006TIP3    H123951   8.525   4.619   2.842
 8006TIP3    H223952   8.432   4.707   2.918
 8007TIP3   OH223953   7.082   4.769   3.589
 8007TIP3    H123954   7.079   4.733   3.498
 8007TIP3    H223955   7.179   4.769   3.605
 8008TIP3   OH223956   7.302   4.454   4.264
 8008TIP3    H123957   7.400   4.449   4.266
 8008TIP3    H223958   7.279   4.366   4.300
 8009TIP3   OH223959   7.264   4.146   3.595
 8009TIP3    H123960   7.325   4.070   3.601
 8009TIP3    H223961   7.327   4.219   3.584
 8010TIP3   OH223962   7.065   4.418   3.663
 8010TIP3    H123963   7.113   4.410   3.578
 8010TIP3    H223964   7.103   4.500   3.698
 8011TIP3   OH223965   7.044   3.921   3.164
 8011TIP3    H123966   6.947   3.921   3.172
 8011TIP3    H223967   7.058   3.987   3.092
 8012TIP3   OH223968   8.206   5.628   2.674
 8012TIP3    H123969   8.252   5.617   2.588
 8012TIP3    H223970   8.265   5.690   2.719
 8013TIP3   OH223971   7.270   3.999   3.977
 8013TIP3    H123972   7.218   3.997   4.060
 8013TIP3    H223973   7.205   4.039   3.917
 8014TIP3   OH223974   7.308   5.435   4.054
 8014TIP3    H123975   7.216   5.404   4.041
 8014TIP3    H223976   7.323   5.413   4.147
 8015TIP3   OH223977   7.487   5.466   3.602
 8015TIP3    H123978   7.443   5.543   3.562
 8015TIP3    H223979   7.575   5.477   3.559
 8016TIP3   OH223980   7.928   5.708   3.740
 8016TIP3    H123981   7.971   5.706   3.829
 8016TIP3    H223982   7.995   5.759   3.689
 8017TIP3   OH223983   8.109   5.860   3.602
 8017TIP3    H123984   8.182   5.810   3.561
 8017TIP3    H223985   8.160   5.918   3.664
 8018TIP3   OH223986   7.161   5.718   3.630
 8018TIP3    H123987   7.071   5.751   3.609
 8018TIP3    H223988   7.180   5.768   3.711
 8019TIP3   OH223989   7.399   5.699   3.487
 8019TIP3    H123990   7.310   5.710   3.529
 8019TIP3    H223991   7.382   5.730   3.396
 8020TIP3   OH223992   7.823   5.725   3.285
 8020TIP3    H123993   7.754   5.745   3.220
 8020TIP3    H223994   7.836   5.813   3.327
 8021TIP3   OH223995   8.092   5.659   3.336
 8021TIP3    H123996   8.000   5.683   3.316
 8021TIP3    H223997   8.141   5.735   3.298
 8022TIP3   OH223998   8.280   5.847   3.248
 8022TIP3    H123999   8.276   5.935   3.205
 8022TIP3    H224000   8.315   5.791   3.175
 8023TIP3   OH224001   7.072   5.510   3.373
 8023TIP3    H124002   7.101   5.484   3.464
 8023TIP3    H224003   7.145   5.469   3.321
 8024TIP3   OH224004   7.269   5.386   3.233
 8024TIP3    H124005   7.285   5.301   3.281
 8024TIP3    H224006   7.360   5.421   3.227
 8025TIP3   OH224007   7.537   5.477   3.237
 8025TIP3    H124008   7.567   5.385   3.225
 8025TIP3    H224009   7.586   5.500   3.318
 8026TIP3   OH224010   8.064   4.102   3.284
 8026TIP3    H124011   8.048   4.044   3.360
 8026TIP3    H224012   8.162   4.091   3.270
 8027TIP3   OH224013   7.358   3.844   3.334
 8027TIP3    H124014   7.265   3.814   3.337
 8027TIP3    H224015   7.404   3.758   3.328
 8028TIP3   OH224016   7.156   3.713   2.983
 8028TIP3    H124017   7.170   3.773   2.908
 8028TIP3    H224018   7.113   3.773   3.048
 8029TIP3   OH224019   7.809   3.869   3.216
 8029TIP3    H124020   7.859   3.918   3.150
 8029TIP3    H224021   7.826   3.921   3.296
 8030TIP3   OH224022   8.314   4.005   3.198
 8030TIP3    H124023   8.338   3.984   3.107
 8030TIP3    H224024   8.313   3.916   3.239
 8031TIP3   OH224025   6.861   5.290   2.761
 8031TIP3    H124026   6.775   5.256   2.729
 8031TIP3    H224027   6.853   5.383   2.732
 8032TIP3   OH224028   7.264   3.872   2.740
 8032TIP3    H124029   7.316   3.811   2.684
 8032TIP3    H224030   7.335   3.926   2.782
 8033TIP3   OH224031   7.775   4.052   2.844
 8033TIP3    H124032   7.835   4.006   2.906
 8033TIP3    H224033   7.795   4.145   2.869
 8034TIP3   OH224034   7.635   5.470   2.346
 8034TIP3    H124035   7.723   5.493   2.310
 8034TIP3    H224036   7.613   5.396   2.285
 8035TIP3   OH224037   8.339   5.600   2.440
 8035TIP3    H124038   8.338   5.502   2.431
 8035TIP3    H224039   8.314   5.626   2.350
 8036TIP3   OH224040   7.570   4.125   4.231
 8036TIP3    H124041   7.532   4.054   4.285
 8036TIP3    H224042   7.664   4.122   4.259
 8037TIP3   OH224043   7.831   4.121   4.348
 8037TIP3    H124044   7.903   4.066   4.311
 8037TIP3    H224045   7.801   4.061   4.420
 8038TIP3   OH224046   6.939   5.308   2.399
 8038TIP3    H124047   6.942   5.331   2.493
 8038TIP3    H224048   7.027   5.265   2.385
 8039TIP3   OH224049   8.572   5.747   3.626
 8039TIP3    H124050   8.497   5.709   3.577
 8039TIP3    H224051   8.547   5.841   3.630
 8040TIP3   OH224052   0.505   5.642   4.591
 8040TIP3    H124053   0.468   5.731   4.598
 8040TIP3    H224054   0.433   5.596   4.542
 8041TIP3   OH224055   0.523   5.623   4.962
 8041TIP3    H124056   0.545   5.602   5.055
 8041TIP3    H224057   0.469   5.546   4.937
 8042TIP3   OH224058   0.747   5.943   4.659
 8042TIP3    H124059   0.735   5.878   4.730
 8042TIP3    H224060   0.776   6.022   4.710
 8043TIP3   OH224061   0.448   6.429   4.658
 8043TIP3    H124062   0.495   6.347   4.639
 8043TIP3    H224063   0.382   6.399   4.724
 8044TIP3   OH224064   0.326   5.828   5.046
 8044TIP3    H124065   0.357   5.760   4.985
 8044TIP3    H224066   0.409   5.879   5.059
 8045TIP3   OH224067   1.315   5.186   5.023
 8045TIP3    H124068   1.346   5.268   5.065
 8045TIP3    H224069   1.337   5.203   4.930
 8046TIP3   OH224070   0.710   5.365   5.058
 8046TIP3    H124071   0.754   5.280   5.076
 8046TIP3    H224072   0.680   5.350   4.966
 8047TIP3   OH224073   0.747   5.121   4.642
 8047TIP3    H124074   0.818   5.105   4.708
 8047TIP3    H224075   0.802   5.154   4.567
 8048TIP3   OH224076   1.389   5.395   5.192
 8048TIP3    H124077   1.305   5.440   5.173
 8048TIP3    H224078   1.406   5.425   5.282
 8049TIP3   OH224079   0.367   5.873   4.474
 8049TIP3    H124080   0.355   5.829   4.389
 8049TIP3    H224081   0.446   5.930   4.456
 8050TIP3   OH224082   0.952   5.124   4.819
 8050TIP3    H124083   0.940   5.076   4.902
 8050TIP3    H224084   1.005   5.202   4.846
 8051TIP3   OH224085   0.810   6.183   4.817
 8051TIP3    H124086   0.720   6.179   4.857
 8051TIP3    H224087   0.809   6.273   4.778
 8052TIP3   OH224088   1.108   5.084   5.188
 8052TIP3    H124089   1.021   5.111   5.154
 8052TIP3    H224090   1.169   5.117   5.119
 8053TIP3   OH224091   0.408   4.717   5.157
 8053TIP3    H124092   0.400   4.622   5.176
 8053TIP3    H224093   0.364   4.755   5.234
 8054TIP3   OH224094   0.511   6.208   4.479
 8054TIP3    H124095   0.559   6.125   4.458
 8054TIP3    H224096   0.575   6.275   4.447
 8055TIP3   OH224097   0.634   5.977   4.410
 8055TIP3    H124098   0.672   5.914   4.346
 8055TIP3    H224099   0.688   5.960   4.490
 8056TIP3   OH224100   1.040   6.093   5.172
 8056TIP3    H124101   1.028   6.019   5.109
 8056TIP3    H224102   1.020   6.171   5.114
 8057TIP3   OH224103   0.334   5.510   4.427
 8057TIP3    H124104   0.254   5.456   4.450
 8057TIP3    H224105   0.352   5.486   4.336
 8058TIP3   OH224106   0.309   5.283   4.139
 8058TIP3    H124107   0.383   5.334   4.178
 8058TIP3    H224108   0.360   5.216   4.089
 8059TIP3   OH224109   1.236   5.736   5.015
 8059TIP3    H124110   1.152   5.787   5.018
 8059TIP3    H224111   1.267   5.762   4.925
 8060TIP3   OH224112   0.683   5.573   4.395
 8060TIP3    H124113   0.629   5.596   4.475
 8060TIP3    H224114   0.768   5.548   4.438
 8061TIP3   OH224115   0.916   5.612   5.315
 8061TIP3    H124116   0.915   5.694   5.367
 8061TIP3    H224117   0.832   5.620   5.266
 8062TIP3   OH224118   0.569   6.183   4.937
 8062TIP3    H124119   0.550   6.268   4.982
 8062TIP3    H224120   0.556   6.117   5.007
 8063TIP3   OH224121   0.522   5.431   4.223
 8063TIP3    H124122   0.576   5.493   4.276
 8063TIP3    H224123   0.551   5.455   4.131
 8064TIP3   OH224124   1.036   4.671   4.273
 8064TIP3    H124125   0.954   4.693   4.322
 8064TIP3    H224126   1.051   4.754   4.223
 8065TIP3   OH224127   0.837   6.040   3.822
 8065TIP3    H124128   0.845   6.136   3.805
 8065TIP3    H224129   0.930   6.011   3.809
 8066TIP3   OH224130   1.285   6.444   5.220
 8066TIP3    H124131   1.278   6.349   5.236
 8066TIP3    H224132   1.200   6.474   5.260
 8067TIP3   OH224133   0.349   6.262   3.937
 8067TIP3    H124134   0.410   6.192   3.907
 8067TIP3    H224135   0.365   6.267   4.033
 8068TIP3   OH224136   0.395   6.310   4.218
 8068TIP3    H124137   0.332   6.311   4.292
 8068TIP3    H224138   0.478   6.293   4.265
 8069TIP3   OH224139   1.168   5.572   5.492
 8069TIP3    H124140   1.086   5.583   5.442
 8069TIP3    H224141   1.185   5.477   5.482
 8070TIP3   OH224142   0.709   4.919   5.492
 8070TIP3    H124143   0.780   4.892   5.555
 8070TIP3    H224144   0.627   4.901   5.542
 8071TIP3   OH224145   0.931   5.346   5.409
 8071TIP3    H124146   0.884   5.344   5.496
 8071TIP3    H224147   0.913   5.437   5.377
 8072TIP3   OH224148   0.596   5.477   3.969
 8072TIP3    H124149   0.559   5.454   3.882
 8072TIP3    H224150   0.681   5.519   3.942
 8073TIP3   OH224151   0.297   4.861   4.245
 8073TIP3    H124152   0.285   4.858   4.343
 8073TIP3    H224153   0.269   4.769   4.224
 8074TIP3   OH224154   0.475   5.300   4.563
 8074TIP3    H124155   0.423   5.372   4.523
 8074TIP3    H224156   0.523   5.264   4.487
 8075TIP3   OH224157   0.670   5.558   5.636
 8075TIP3    H124158   0.645   5.486   5.698
 8075TIP3    H224159   0.765   5.570   5.661
 8076TIP3   OH224160   0.624   5.318   4.800
 8076TIP3    H124161   0.564   5.347   4.728
 8076TIP3    H224162   0.661   5.239   4.755
 8077TIP3   OH224163   0.631   5.563   5.222
 8077TIP3    H124164   0.668   5.496   5.161
 8077TIP3    H224165   0.606   5.505   5.297
 8078TIP3   OH224166   0.318   5.020   4.882
 8078TIP3    H124167   0.228   5.051   4.904
 8078TIP3    H224168   0.367   5.037   4.963
 8079TIP3   OH224169   0.798   5.104   5.099
 8079TIP3    H124170   0.764   5.118   5.190
 8079TIP3    H224171   0.731   5.041   5.065
 8080TIP3   OH224172   0.975   6.787   5.319
 8080TIP3    H124173   0.970   6.811   5.224
 8080TIP3    H224174   1.047   6.844   5.350
 8081TIP3   OH224175   0.402   5.344   4.989
 8081TIP3    H124176   0.477   5.317   4.933
 8081TIP3    H224177   0.423   5.304   5.074
 8082TIP3   OH224178   0.396   5.238   5.280
 8082TIP3    H124179   0.331   5.311   5.272
 8082TIP3    H224180   0.468   5.284   5.328
 8083TIP3   OH224181   1.002   5.880   5.001
 8083TIP3    H124182   1.027   5.933   4.922
 8083TIP3    H224183   0.918   5.837   4.972
 8084TIP3   OH224184   0.556   4.954   4.242
 8084TIP3    H124185   0.459   4.939   4.244
 8084TIP3    H224186   0.565   5.047   4.269
 8085TIP3   OH224187   0.482   5.961   5.370
 8085TIP3    H124188   0.537   5.964   5.450
 8085TIP3    H224189   0.437   6.047   5.373
 8086TIP3   OH224190   0.628   5.203   4.344
 8086TIP3    H124191   0.724   5.208   4.361
 8086TIP3    H224192   0.612   5.285   4.292
 8087TIP3   OH224193   0.238   5.796   4.211
 8087TIP3    H124194   0.175   5.870   4.207
 8087TIP3    H224195   0.187   5.730   4.258
 8088TIP3   OH224196   0.455   5.693   5.734
 8088TIP3    H124197   0.410   5.611   5.710
 8088TIP3    H224198   0.544   5.674   5.699
 8089TIP3   OH224199   0.662   6.207   5.268
 8089TIP3    H124200   0.570   6.237   5.272
 8089TIP3    H224201   0.700   6.259   5.342
 8090TIP3   OH224202   1.070   5.298   4.177
 8090TIP3    H124203   1.008   5.254   4.114
 8090TIP3    H224204   1.067   5.388   4.138
 8091TIP3   OH224205   1.292   6.150   5.259
 8091TIP3    H124206   1.194   6.147   5.250
 8091TIP3    H224207   1.317   6.122   5.168
 8092TIP3   OH224208   0.773   6.113   4.085
 8092TIP3    H124209   0.745   6.037   4.138
 8092TIP3    H224210   0.786   6.074   3.997
 8093TIP3   OH224211   0.773   5.743   4.915
 8093TIP3    H124212   0.680   5.716   4.929
 8093TIP3    H224213   0.807   5.663   4.871
 8094TIP3   OH224214   0.567   5.943   5.105
 8094TIP3    H124215   0.555   5.954   5.202
 8094TIP3    H224216   0.656   5.907   5.100
 8095TIP3   OH224217   0.538   5.842   3.985
 8095TIP3    H124218   0.578   5.818   4.071
 8095TIP3    H224219   0.448   5.808   3.993
 8096TIP3   OH224220   0.804   6.475   5.145
 8096TIP3    H124221   0.719   6.428   5.136
 8096TIP3    H224222   0.791   6.547   5.079
 8097TIP3   OH224223   0.870   6.314   3.804
 8097TIP3    H124224   0.906   6.390   3.755
 8097TIP3    H224225   0.789   6.357   3.840
 8098TIP3   OH224226   0.695   5.783   4.217
 8098TIP3    H124227   0.684   5.707   4.278
 8098TIP3    H224228   0.790   5.772   4.194
 8099TIP3   OH224229   0.722   5.160   5.359
 8099TIP3    H124230   0.807   5.198   5.388
 8099TIP3    H224231   0.717   5.077   5.411
 8100TIP3   OH224232   0.614   4.900   4.525
 8100TIP3    H124233   0.591   4.922   4.433
 8100TIP3    H224234   0.648   4.985   4.560
 8101TIP3   OH224235   0.291   5.099   4.620
 8101TIP3    H124236   0.358   5.170   4.610
 8101TIP3    H224237   0.293   5.082   4.716
 8102TIP3   OH224238   0.574   5.397   5.428
 8102TIP3    H124239   0.604   5.452   5.503
 8102TIP3    H224240   0.631   5.318   5.437
 8103TIP3   OH224241   0.445   4.808   4.737
 8103TIP3    H124242   0.419   4.891   4.781
 8103TIP3    H224243   0.497   4.842   4.661
 8104TIP3   OH224244   1.199   5.307   5.410
 8104TIP3    H124245   1.102   5.304   5.416
 8104TIP3    H224246   1.213   5.260   5.326
 8105TIP3   OH224247   0.854   5.499   4.796
 8105TIP3    H124248   0.777   5.441   4.811
 8105TIP3    H224249   0.925   5.451   4.845
 8106TIP3   OH224250   0.831   6.450   4.745
 8106TIP3    H124251   0.788   6.496   4.669
 8106TIP3    H224252   0.925   6.475   4.727
 8107TIP3   OH224253   0.730   6.343   5.491
 8107TIP3    H124254   0.700   6.297   5.572
 8107TIP3    H224255   0.796   6.406   5.526
 8108TIP3   OH224256   0.497   6.065   3.812
 8108TIP3    H124257   0.537   5.997   3.869
 8108TIP3    H224258   0.550   6.059   3.731
 8109TIP3   OH224259   0.237   5.747   3.932
 8109TIP3    H124260   0.225   5.755   4.029
 8109TIP3    H224261   0.230   5.650   3.920
 8110TIP3   OH224262   0.821   5.987   5.305
 8110TIP3    H124263   0.902   6.026   5.265
 8110TIP3    H224264   0.758   6.061   5.290
 8111TIP3   OH224265   0.049   5.254   4.234
 8111TIP3    H124266   0.029   5.254   4.138
 8111TIP3    H224267   0.146   5.253   4.230
 8112TIP3   OH224268   0.691   5.914   5.712
 8112TIP3    H124269   0.765   5.885   5.657
 8112TIP3    H224270   0.696   5.851   5.786
 8113TIP3   OH224271   0.830   5.567   3.850
 8113TIP3    H124272   0.812   5.525   3.764
 8113TIP3    H224273   0.798   5.658   3.829
 8114TIP3   OH224274   0.265   5.036   5.422
 8114TIP3    H124275   0.319   5.097   5.371
 8114TIP3    H224276   0.229   5.099   5.492
 8115TIP3   OH224277   0.387   5.680   5.324
 8115TIP3    H124278   0.483   5.661   5.300
 8115TIP3    H224279   0.380   5.770   5.279
 8116TIP3   OH224280   0.920   5.581   5.752
 8116TIP3    H124281   0.971   5.503   5.778
 8116TIP3    H224282   0.989   5.640   5.719
 8117TIP3   OH224283   0.952   5.841   5.491
 8117TIP3    H124284   0.896   5.897   5.433
 8117TIP3    H224285   1.041   5.863   5.454
 8118TIP3   OH224286   0.448   4.850   5.559
 8118TIP3    H124287   0.386   4.919   5.530
 8118TIP3    H224288   0.393   4.771   5.550
 8119TIP3   OH224289   0.568   5.358   5.798
 8119TIP3    H124290   0.606   5.353   5.888
 8119TIP3    H224291   0.487   5.307   5.809
 8120TIP3   OH224292   0.804   5.295   5.642
 8120TIP3    H124293   0.734   5.294   5.710
 8120TIP3    H224294   0.883   5.269   5.695
 8121TIP3   OH224295   1.030   5.242   5.790
 8121TIP3    H124296   1.044   5.146   5.808
 8121TIP3    H224297   1.025   5.280   5.880
 8122TIP3   OH224298   0.538   4.860   5.822
 8122TIP3    H124299   0.602   4.786   5.820
 8122TIP3    H224300   0.499   4.854   5.733
 8123TIP3   OH224301   0.615   5.071   5.976
 8123TIP3    H124302   0.595   4.993   5.920
 8123TIP3    H224303   0.527   5.113   5.980
 8124TIP3   OH224304   1.081   6.551   4.708
 8124TIP3    H124305   1.101   6.581   4.798
 8124TIP3    H224306   1.137   6.610   4.655
 8125TIP3   OH224307   1.104   6.567   4.984
 8125TIP3    H124308   1.065   6.478   4.986
 8125TIP3    H224309   1.179   6.556   5.044
 8126TIP3   OH224310   1.157   6.240   5.556
 8126TIP3    H124311   1.085   6.248   5.622
 8126TIP3    H224312   1.197   6.329   5.561
 8127TIP3   OH224313   0.968   5.756   4.180
 8127TIP3    H124314   1.033   5.821   4.148
 8127TIP3    H224315   1.015   5.719   4.258
 8128TIP3   OH224316   1.096   5.624   4.384
 8128TIP3    H124317   1.030   5.582   4.443
 8128TIP3    H224318   1.161   5.660   4.447
 8129TIP3   OH224319   1.153   6.018   4.816
 8129TIP3    H124320   1.205   5.952   4.765
 8129TIP3    H224321   1.153   6.095   4.756
 8130TIP3   OH224322   0.981   6.311   5.012
 8130TIP3    H124323   0.913   6.362   5.060
 8130TIP3    H224324   0.930   6.272   4.938
 8131TIP3   OH224325   1.034   5.532   4.029
 8131TIP3    H124326   0.963   5.533   3.961
 8131TIP3    H224327   1.005   5.608   4.084
 8132TIP3   OH224328   0.904   5.205   3.982
 8132TIP3    H124329   0.860   5.239   3.904
 8132TIP3    H224330   0.882   5.109   3.975
 8133TIP3   OH224331   0.909   5.482   4.528
 8133TIP3    H124332   0.916   5.386   4.520
 8133TIP3    H224333   0.894   5.494   4.625
 8134TIP3   OH224334   1.199   5.905   5.388
 8134TIP3    H124335   1.271   5.840   5.375
 8134TIP3    H224336   1.223   5.976   5.325
 8135TIP3   OH224337   1.383   5.706   5.393
 8135TIP3    H124338   1.309   5.658   5.436
 8135TIP3    H224339   1.456   5.644   5.412
 8136TIP3   OH224340   0.848   4.939   3.966
 8136TIP3    H124341   0.921   4.907   4.023
 8136TIP3    H224342   0.774   4.879   3.988
 8137TIP3   OH224343   0.907   5.198   4.421
 8137TIP3    H124344   0.947   5.109   4.436
 8137TIP3    H224345   0.965   5.230   4.350
 8138TIP3   OH224346   1.066   5.368   4.919
 8138TIP3    H124347   1.151   5.392   4.877
 8138TIP3    H224348   1.081   5.406   5.008
 8139TIP3   OH224349   1.138   5.515   5.148
 8139TIP3    H124350   1.062   5.550   5.198
 8139TIP3    H224351   1.172   5.596   5.104
 8140TIP3   OH224352   1.587   5.107   5.704
 8140TIP3    H124353   1.649   5.042   5.664
 8140TIP3    H224354   1.559   5.159   5.626
 8141TIP3   OH224355   1.015   4.948   4.460
 8141TIP3    H124356   1.063   4.932   4.544
 8141TIP3    H224357   0.954   4.872   4.459
 8142TIP3   OH224358   1.457   5.244   5.507
 8142TIP3    H124359   1.373   5.287   5.532
 8142TIP3    H224360   1.423   5.171   5.452
 8143TIP3   OH224361   1.093   4.879   4.095
 8143TIP3    H124362   1.132   4.809   4.040
 8143TIP3    H224363   1.161   4.949   4.092
 8144TIP3   OH224364   0.657   6.398   4.361
 8144TIP3    H124365   0.715   6.404   4.282
 8144TIP3    H224366   0.693   6.470   4.416
 8145TIP3   OH224367   0.556   6.633   5.299
 8145TIP3    H124368   0.626   6.582   5.257
 8145TIP3    H224369   0.611   6.696   5.351
 8146TIP3   OH224370   1.358   5.006   5.390
 8146TIP3    H124371   1.268   4.995   5.355
 8146TIP3    H224372   1.393   4.914   5.382
 8147TIP3   OH224373   0.541   6.454   5.028
 8147TIP3    H124374   0.462   6.504   5.053
 8147TIP3    H224375   0.590   6.523   4.980
 8148TIP3   OH224376   0.743   6.637   4.935
 8148TIP3    H124377   0.733   6.725   4.893
 8148TIP3    H224378   0.778   6.583   4.862
 8149TIP3   OH224379   0.579   4.925   5.026
 8149TIP3    H124380   0.524   4.850   5.054
 8149TIP3    H224381   0.641   4.884   4.963
 8150TIP3   OH224382   1.082   4.803   4.914
 8150TIP3    H124383   1.119   4.855   4.838
 8150TIP3    H224384   0.987   4.821   4.906
 8151TIP3   OH224385   1.179   4.902   4.678
 8151TIP3    H124386   1.253   4.850   4.640
 8151TIP3    H224387   1.213   4.993   4.663
 8152TIP3   OH224388   0.276   4.653   4.912
 8152TIP3    H124389   0.318   4.705   4.841
 8152TIP3    H224390   0.318   4.693   4.990
 8153TIP3   OH224391   0.799   4.810   4.887
 8153TIP3    H124392   0.798   4.769   4.800
 8153TIP3    H224393   0.787   4.733   4.947
 8154TIP3   OH224394   0.832   4.736   4.453
 8154TIP3    H124395   0.748   4.782   4.473
 8154TIP3    H224396   0.816   4.650   4.497
 8155TIP3   OH224397   0.274   4.845   4.511
 8155TIP3    H124398   0.276   4.795   4.594
 8155TIP3    H224399   0.264   4.936   4.544
 8156TIP3   OH224400   0.807   6.382   4.130
 8156TIP3    H124401   0.798   6.284   4.117
 8156TIP3    H224402   0.762   6.414   4.049
 8157TIP3   OH224403   1.095   4.972   5.822
 8157TIP3    H124404   1.113   4.942   5.914
 8157TIP3    H224405   1.185   4.968   5.783
 8158TIP3   OH224406   1.036   6.520   5.308
 8158TIP3    H124407   0.955   6.494   5.259
 8158TIP3    H224408   1.018   6.616   5.319
 8159TIP3   OH224409   2.313   5.871   4.452
 8159TIP3    H124410   2.342   5.876   4.545
 8159TIP3    H224411   2.254   5.793   4.457
 8160TIP3   OH224412   1.598   5.788   4.825
 8160TIP3    H124413   1.626   5.718   4.887
 8160TIP3    H224414   1.670   5.851   4.835
 8161TIP3   OH224415   2.542   6.189   4.155
 8161TIP3    H124416   2.535   6.139   4.238
 8161TIP3    H224417   2.573   6.275   4.189
 8162TIP3   OH224418   1.571   6.201   4.548
 8162TIP3    H124419   1.562   6.104   4.551
 8162TIP3    H224420   1.667   6.211   4.548
 8163TIP3   OH224421   1.277   5.402   4.332
 8163TIP3    H124422   1.229   5.484   4.352
 8163TIP3    H224423   1.206   5.350   4.291
 8164TIP3   OH224424   1.332   5.690   4.513
 8164TIP3    H124425   1.382   5.612   4.546
 8164TIP3    H224426   1.392   5.726   4.447
 8165TIP3   OH224427   2.195   6.662   4.159
 8165TIP3    H124428   2.240   6.587   4.116
 8165TIP3    H224429   2.176   6.628   4.247
 8166TIP3   OH224430   2.094   6.125   4.510
 8166TIP3    H124431   2.131   6.052   4.458
 8166TIP3    H224432   2.178   6.168   4.539
 8167TIP3   OH224433   3.111   5.443   4.507
 8167TIP3    H124434   3.143   5.524   4.551
 8167TIP3    H224435   3.140   5.459   4.415
 8168TIP3   OH224436   2.522   5.628   4.529
 8168TIP3    H124437   2.557   5.543   4.561
 8168TIP3    H224438   2.464   5.597   4.457
 8169TIP3   OH224439   1.854   5.283   4.503
 8169TIP3    H124440   1.828   5.354   4.442
 8169TIP3    H224441   1.804   5.208   4.464
 8170TIP3   OH224442   2.547   5.384   4.123
 8170TIP3    H124443   2.616   5.362   4.190
 8170TIP3    H224444   2.605   5.408   4.047
 8171TIP3   OH224445   1.481   5.485   4.614
 8171TIP3    H124446   1.563   5.465   4.663
 8171TIP3    H224447   1.495   5.428   4.535
 8172TIP3   OH224448   1.922   5.681   4.405
 8172TIP3    H124449   2.013   5.653   4.424
 8172TIP3    H224450   1.880   5.597   4.376
 8173TIP3   OH224451   3.184   5.650   4.681
 8173TIP3    H124452   3.101   5.697   4.662
 8173TIP3    H224453   3.208   5.687   4.767
 8174TIP3   OH224454   1.844   5.266   4.942
 8174TIP3    H124455   1.783   5.303   4.876
 8174TIP3    H224456   1.792   5.281   5.024
 8175TIP3   OH224457   2.216   6.135   3.925
 8175TIP3    H124458   2.151   6.091   3.868
 8175TIP3    H224459   2.160   6.207   3.962
 8176TIP3   OH224460   1.950   6.043   4.735
 8176TIP3    H124461   1.889   6.110   4.773
 8176TIP3    H224462   1.990   6.094   4.661
 8177TIP3   OH224463   2.743   5.380   4.307
 8177TIP3    H124464   2.734   5.332   4.390
 8177TIP3    H224465   2.801   5.455   4.331
 8178TIP3   OH224466   1.716   5.380   4.724
 8178TIP3    H124467   1.778   5.453   4.750
 8178TIP3    H224468   1.767   5.341   4.650
 8179TIP3   OH224469   1.780   6.239   4.833
 8179TIP3    H124470   1.755   6.328   4.799
 8179TIP3    H224471   1.701   6.221   4.888
 8180TIP3   OH224472   1.168   5.925   4.069
 8180TIP3    H124473   1.128   5.956   3.986
 8180TIP3    H224474   1.200   6.010   4.107
 8181TIP3   OH224475   2.609   6.441   4.301
 8181TIP3    H124476   2.522   6.434   4.346
 8181TIP3    H224477   2.602   6.531   4.262
 8182TIP3   OH224478   2.901   5.352   4.674
 8182TIP3    H124479   2.813   5.374   4.640
 8182TIP3    H224480   2.961   5.379   4.602
 8183TIP3   OH224481   2.193   4.983   4.656
 8183TIP3    H124482   2.183   4.889   4.679
 8183TIP3    H224483   2.117   5.021   4.705
 8184TIP3   OH224484   2.319   6.483   3.983
 8184TIP3    H124485   2.372   6.404   3.963
 8184TIP3    H224486   2.377   6.553   3.944
 8185TIP3   OH224487   2.458   6.250   3.894
 8185TIP3    H124488   2.367   6.210   3.901
 8185TIP3    H224489   2.496   6.224   3.980
 8186TIP3   OH224490   2.836   6.353   4.656
 8186TIP3    H124491   2.825   6.277   4.596
 8186TIP3    H224492   2.818   6.429   4.596
 8187TIP3   OH224493   2.129   5.742   3.900
 8187TIP3    H124494   2.049   5.799   3.897
 8187TIP3    H224495   2.165   5.755   3.811
 8188TIP3   OH224496   2.088   5.533   3.624
 8188TIP3    H124497   2.151   5.582   3.679
 8188TIP3    H224498   2.149   5.471   3.578
 8189TIP3   OH224499   3.031   5.990   4.499
 8189TIP3    H124500   2.949   6.043   4.504
 8189TIP3    H224501   3.064   6.016   4.410
 8190TIP3   OH224502   2.710   5.870   4.800
 8190TIP3    H124503   2.710   5.952   4.853
 8190TIP3    H224504   2.622   5.876   4.757
 8191TIP3   OH224505   1.709   5.827   4.300
 8191TIP3    H124506   1.667   5.769   4.232
 8191TIP3    H224507   1.786   5.772   4.329
 8192TIP3   OH224508   1.841   6.243   4.448
 8192TIP3    H124509   1.818   6.205   4.361
 8192TIP3    H224510   1.929   6.204   4.465
 8193TIP3   OH224511   1.853   5.796   4.656
 8193TIP3    H124512   1.879   5.780   4.563
 8193TIP3    H224513   1.889   5.885   4.674
 8194TIP3   OH224514   2.375   6.435   4.434
 8194TIP3    H124515   2.358   6.519   4.480
 8194TIP3    H224516   2.352   6.368   4.500
 8195TIP3   OH224517   1.984   6.354   4.980
 8195TIP3    H124518   1.923   6.416   5.025
 8195TIP3    H224519   1.920   6.303   4.928
 8196TIP3   OH224520   2.334   5.699   3.699
 8196TIP3    H124521   2.386   5.780   3.711
 8196TIP3    H224522   2.338   5.697   3.601
 8197TIP3   OH224523   1.738   5.910   5.081
 8197TIP3    H124524   1.744   5.998   5.123
 8197TIP3    H224525   1.644   5.889   5.099
 8198TIP3   OH224526   2.067   6.360   3.986
 8198TIP3    H124527   2.142   6.422   3.999
 8198TIP3    H224528   1.999   6.417   3.947
 8199TIP3   OH224529   1.779   6.520   5.068
 8199TIP3    H124530   1.742   6.528   4.979
 8199TIP3    H224531   1.699   6.497   5.121
 8200TIP3   OH224532   2.833   4.928   3.760
 8200TIP3    H124533   2.751   4.950   3.808
 8200TIP3    H224534   2.847   5.010   3.708
 8201TIP3   OH224535   1.577   5.671   4.101
 8201TIP3    H124536   1.507   5.716   4.049
 8201TIP3    H224537   1.537   5.585   4.118
 8202TIP3   OH224538   2.634   6.295   3.307
 8202TIP3    H124539   2.644   6.392   3.293
 8202TIP3    H224540   2.727   6.265   3.296
 8203TIP3   OH224541   1.356   6.054   5.014
 8203TIP3    H124542   1.288   6.036   4.946
 8203TIP3    H224543   1.393   5.966   5.033
 8204TIP3   OH224544   1.209   6.248   4.653
 8204TIP3    H124545   1.305   6.258   4.642
 8204TIP3    H224546   1.187   6.334   4.693
 8205TIP3   OH224547   3.074   6.701   4.704
 8205TIP3    H124548   3.073   6.605   4.721
 8205TIP3    H224549   2.991   6.728   4.750
 8206TIP3   OH224550   2.181   6.482   4.838
 8206TIP3    H124551   2.178   6.575   4.870
 8206TIP3    H224552   2.108   6.443   4.891
 8207TIP3   OH224553   1.948   6.616   3.787
 8207TIP3    H124554   1.894   6.599   3.708
 8207TIP3    H224555   1.910   6.699   3.820
 8208TIP3   OH224556   1.381   6.464   4.174
 8208TIP3    H124557   1.430   6.460   4.259
 8208TIP3    H224558   1.317   6.392   4.186
 8209TIP3   OH224559   2.143   6.517   3.426
 8209TIP3    H124560   2.203   6.447   3.391
 8209TIP3    H224561   2.176   6.527   3.518
 8210TIP3   OH224562   2.196   6.564   3.694
 8210TIP3    H124563   2.106   6.576   3.733
 8210TIP3    H224564   2.244   6.527   3.770
 8211TIP3   OH224565   2.965   5.825   4.977
 8211TIP3    H124566   2.879   5.836   4.932
 8211TIP3    H224567   2.978   5.729   4.973
 8212TIP3   OH224568   1.562   6.235   4.996
 8212TIP3    H124569   1.608   6.223   5.081
 8212TIP3    H224570   1.485   6.174   5.005
 8213TIP3   OH224571   1.959   5.063   4.786
 8213TIP3    H124572   1.871   5.031   4.757
 8213TIP3    H224573   1.930   5.140   4.839
 8214TIP3   OH224574   2.497   5.173   4.981
 8214TIP3    H124575   2.565   5.144   5.046
 8214TIP3    H224576   2.413   5.153   5.028
 8215TIP3   OH224577   2.733   5.609   4.901
 8215TIP3    H124578   2.681   5.603   4.985
 8215TIP3    H224579   2.707   5.696   4.866
 8216TIP3   OH224580   2.392   5.733   3.445
 8216TIP3    H124581   2.357   5.709   3.357
 8216TIP3    H224582   2.477   5.775   3.421
 8217TIP3   OH224583   2.106   5.107   3.758
 8217TIP3    H124584   2.069   5.102   3.849
 8217TIP3    H224585   2.065   5.027   3.720
 8218TIP3   OH224586   1.895   5.576   4.807
 8218TIP3    H124587   1.842   5.596   4.887
 8218TIP3    H224588   1.879   5.657   4.754
 8219TIP3   OH224589   1.775   5.464   4.318
 8219TIP3    H124590   1.682   5.438   4.338
 8219TIP3    H224591   1.785   5.423   4.229
 8220TIP3   OH224592   2.302   5.596   4.039
 8220TIP3    H124593   2.229   5.641   3.991
 8220TIP3    H224594   2.335   5.536   3.968
 8221TIP3   OH224595   2.441   5.824   5.130
 8221TIP3    H124596   2.418   5.752   5.194
 8221TIP3    H224597   2.534   5.839   5.154
 8222TIP3   OH224598   2.411   5.558   4.286
 8222TIP3    H124599   2.334   5.546   4.227
 8222TIP3    H224600   2.469   5.488   4.248
 8223TIP3   OH224601   1.713   5.603   5.012
 8223TIP3    H124602   1.734   5.668   5.081
 8223TIP3    H224603   1.701   5.522   5.065
 8224TIP3   OH224604   1.763   5.086   3.722
 8224TIP3    H124605   1.751   5.083   3.819
 8224TIP3    H224606   1.684   5.137   3.696
 8225TIP3   OH224607   1.304   5.125   4.594
 8225TIP3    H124608   1.379   5.158   4.648
 8225TIP3    H224609   1.346   5.094   4.513
 8226TIP3   OH224610   1.271   5.107   4.113
 8226TIP3    H124611   1.317   5.143   4.034
 8226TIP3    H224612   1.210   5.181   4.131
 8227TIP3   OH224613   2.433   5.822   4.701
 8227TIP3    H124614   2.468   5.750   4.644
 8227TIP3    H224615   2.402   5.770   4.778
 8228TIP3   OH224616   2.110   5.298   4.381
 8228TIP3    H124617   2.025   5.289   4.430
 8228TIP3    H224618   2.174   5.271   4.449
 8229TIP3   OH224619   1.538   5.342   4.385
 8229TIP3    H124620   1.444   5.351   4.358
 8229TIP3    H224621   1.559   5.249   4.365
 8230TIP3   OH224622   1.802   5.337   4.078
 8230TIP3    H124623   1.894   5.352   4.050
 8230TIP3    H224624   1.751   5.356   3.996
 8231TIP3   OH224625   2.590   5.364   4.579
 8231TIP3    H124626   2.564   5.374   4.674
 8231TIP3    H224627   2.526   5.297   4.550
 8232TIP3   OH224628   1.652   5.371   3.855
 8232TIP3    H124629   1.580   5.326   3.810
 8232TIP3    H224630   1.702   5.407   3.779
 8233TIP3   OH224631   2.769   7.049   4.803
 8233TIP3    H124632   2.766   7.076   4.709
 8233TIP3    H224633   2.848   7.097   4.834
 8234TIP3   OH224634   1.725   6.157   5.221
 8234TIP3    H124635   1.802   6.190   5.270
 8234TIP3    H224636   1.658   6.159   5.293
 8235TIP3   OH224637   2.185   5.616   4.487
 8235TIP3    H124638   2.242   5.548   4.450
 8235TIP3    H224639   2.174   5.582   4.579
 8236TIP3   OH224640   1.707   5.098   4.361
 8236TIP3    H124641   1.668   5.024   4.412
 8236TIP3    H224642   1.751   5.051   4.290
 8237TIP3   OH224643   2.162   5.527   4.750
 8237TIP3    H124644   2.071   5.550   4.778
 8237TIP3    H224645   2.217   5.579   4.812
 8238TIP3   OH224646   1.903   5.899   3.867
 8238TIP3    H124647   1.830   5.834   3.852
 8238TIP3    H224648   1.879   5.933   3.956
 8239TIP3   OH224649   2.799   6.138   4.486
 8239TIP3    H124650   2.826   6.191   4.408
 8239TIP3    H224651   2.712   6.102   4.457
 8240TIP3   OH224652   2.356   5.205   3.736
 8240TIP3    H124653   2.261   5.182   3.739
 8240TIP3    H224654   2.356   5.301   3.752
 8241TIP3   OH224655   2.297   6.221   4.858
 8241TIP3    H124656   2.324   6.201   4.948
 8241TIP3    H224657   2.258   6.310   4.866
 8242TIP3   OH224658   2.422   5.463   3.829
 8242TIP3    H124659   2.519   5.455   3.839
 8242TIP3    H224660   2.413   5.538   3.767
 8243TIP3   OH224661   1.594   5.924   4.537
 8243TIP3    H124662   1.632   5.892   4.453
 8243TIP3    H224663   1.631   5.862   4.602
 8244TIP3   OH224664   2.040   6.046   3.683
 8244TIP3    H124665   1.995   6.134   3.687
 8244TIP3    H224666   1.985   5.994   3.745
 8245TIP3   OH224667   1.477   5.838   5.149
 8245TIP3    H124668   1.491   5.827   5.245
 8245TIP3    H224669   1.404   5.776   5.133
 8246TIP3   OH224670   2.200   5.960   5.169
 8246TIP3    H124671   2.136   5.897   5.130
 8246TIP3    H224672   2.285   5.922   5.140
 8247TIP3   OH224673   2.457   6.475   4.758
 8247TIP3    H124674   2.360   6.477   4.772
 8247TIP3    H224675   2.487   6.529   4.833
 8248TIP3   OH224676   2.863   5.557   3.665
 8248TIP3    H124677   2.801   5.511   3.604
 8248TIP3    H224678   2.862   5.645   3.621
 8249TIP3   OH224679   3.087   6.410   4.745
 8249TIP3    H124680   2.989   6.405   4.736
 8249TIP3    H224681   3.113   6.380   4.654
 8250TIP3   OH224682   2.572   6.373   3.573
 8250TIP3    H124683   2.538   6.308   3.636
 8250TIP3    H224684   2.581   6.323   3.490
 8251TIP3   OH224685   2.560   6.005   4.393
 8251TIP3    H124686   2.471   5.979   4.421
 8251TIP3    H224687   2.599   5.919   4.370
 8252TIP3   OH224688   1.693   6.227   4.157
 8252TIP3    H124689   1.686   6.310   4.105
 8252TIP3    H224690   1.601   6.215   4.185
 8253TIP3   OH224691   1.259   5.531   3.870
 8253TIP3    H124692   1.302   5.617   3.891
 8253TIP3    H224693   1.181   5.534   3.930
 8254TIP3   OH224694   1.829   5.992   4.107
 8254TIP3    H124695   1.790   6.081   4.123
 8254TIP3    H224696   1.790   5.942   4.181
 8255TIP3   OH224697   1.963   6.573   4.629
 8255TIP3    H124698   2.005   6.646   4.580
 8255TIP3    H224699   2.038   6.537   4.679
 8256TIP3   OH224700   1.611   6.465   4.014
 8256TIP3    H124701   1.526   6.474   4.061
 8256TIP3    H224702   1.644   6.557   4.017
 8257TIP3   OH224703   2.347   6.194   4.593
 8257TIP3    H124704   2.332   6.202   4.690
 8257TIP3    H224705   2.439   6.164   4.592
 8258TIP3   OH224706   2.324   6.103   3.470
 8258TIP3    H124707   2.376   6.064   3.544
 8258TIP3    H224708   2.235   6.074   3.493
 8259TIP3   OH224709   2.598   6.734   4.638
 8259TIP3    H124710   2.516   6.681   4.631
 8259TIP3    H224711   2.582   6.800   4.567
 8260TIP3   OH224712   2.666   6.574   3.291
 8260TIP3    H124713   2.707   6.654   3.255
 8260TIP3    H224714   2.583   6.613   3.325
 8261TIP3   OH224715   1.682   5.347   5.156
 8261TIP3    H124716   1.586   5.349   5.169
 8261TIP3    H224717   1.711   5.292   5.230
 8262TIP3   OH224718   2.488   6.004   3.678
 8262TIP3    H124719   2.479   6.050   3.762
 8262TIP3    H224720   2.585   6.009   3.664
 8263TIP3   OH224721   1.407   6.432   4.791
 8263TIP3    H124722   1.464   6.365   4.834
 8263TIP3    H224723   1.411   6.504   4.855
 8264TIP3   OH224724   1.692   6.077   3.472
 8264TIP3    H124725   1.702   5.984   3.447
 8264TIP3    H224726   1.671   6.069   3.568
 8265TIP3   OH224727   1.635   6.084   3.743
 8265TIP3    H124728   1.702   6.059   3.808
 8265TIP3    H224729   1.637   6.182   3.751
 8266TIP3   OH224730   1.368   5.777   3.951
 8266TIP3    H124731   1.301   5.821   4.007
 8266TIP3    H224732   1.379   5.845   3.882
 8267TIP3   OH224733   2.527   5.407   4.840
 8267TIP3    H124734   2.602   5.448   4.887
 8267TIP3    H224735   2.510   5.328   4.895
 8268TIP3   OH224736   2.398   5.167   4.014
 8268TIP3    H124737   2.387   5.180   3.917
 8268TIP3    H224738   2.445   5.248   4.041
 8269TIP3   OH224739   1.905   6.281   3.693
 8269TIP3    H124740   1.816   6.301   3.730
 8269TIP3    H224741   1.917   6.358   3.636
 8270TIP3   OH224742   2.092   5.347   4.112
 8270TIP3    H124743   2.163   5.411   4.102
 8270TIP3    H224744   2.088   5.334   4.209
 8271TIP3   OH224745   2.364   5.663   4.912
 8271TIP3    H124746   2.383   5.717   4.992
 8271TIP3    H224747   2.413   5.581   4.932
 8272TIP3   OH224748   2.229   5.067   4.211
 8272TIP3    H124749   2.234   5.141   4.274
 8272TIP3    H224750   2.290   5.099   4.140
 8273TIP3   OH224751   1.650   6.355   3.764
 8273TIP3    H124752   1.618   6.425   3.702
 8273TIP3    H224753   1.631   6.397   3.851
 8274TIP3   OH224754   1.744   5.070   3.998
 8274TIP3    H124755   1.742   5.159   4.039
 8274TIP3    H224756   1.840   5.051   4.005
 8275TIP3   OH224757   2.996   5.550   4.897
 8275TIP3    H124758   2.898   5.554   4.907
 8275TIP3    H224759   3.003   5.534   4.802
 8276TIP3   OH224760   2.632   5.747   4.273
 8276TIP3    H124761   2.597   5.686   4.341
 8276TIP3    H224762   2.727   5.730   4.289
 8277TIP3   OH224763   1.363   5.980   3.754
 8277TIP3    H124764   1.428   6.052   3.763
 8277TIP3    H224765   1.409   5.925   3.687
 8278TIP3   OH224766   1.306   5.261   3.888
 8278TIP3    H124767   1.306   5.359   3.887
 8278TIP3    H224768   1.226   5.240   3.840
 8279TIP3   OH224769   2.620   6.712   4.231
 8279TIP3    H124770   2.577   6.759   4.156
 8279TIP3    H224771   2.714   6.732   4.211
 8280TIP3   OH224772   1.695   4.980   4.759
 8280TIP3    H124773   1.665   4.944   4.673
 8280TIP3    H224774   1.686   4.903   4.818
 8281TIP3   OH224775   1.224   6.186   4.137
 8281TIP3    H124776   1.173   6.227   4.208
 8281TIP3    H224777   1.192   6.236   4.058
 8282TIP3   OH224778   1.389   6.739   5.221
 8282TIP3    H124779   1.477   6.744   5.264
 8282TIP3    H224780   1.373   6.643   5.218
 8283TIP3   OH224781   1.875   6.699   5.261
 8283TIP3    H124782   1.969   6.679   5.258
 8283TIP3    H224783   1.842   6.641   5.189
 8284TIP3   OH224784   1.853   6.279   3.381
 8284TIP3    H124785   1.796   6.209   3.420
 8284TIP3    H224786   1.928   6.226   3.352
 8285TIP3   OH224787   2.513   6.611   4.990
 8285TIP3    H124788   2.505   6.543   5.061
 8285TIP3    H224789   2.588   6.665   5.021
 8286TIP3   OH224790   2.290   6.321   3.298
 8286TIP3    H124791   2.325   6.253   3.359
 8286TIP3    H224792   2.349   6.313   3.221
 8287TIP3   OH224793   1.522   6.149   5.413
 8287TIP3    H124794   1.536   6.053   5.420
 8287TIP3    H224795   1.435   6.153   5.368
 8288TIP3   OH224796   1.500   5.797   3.607
 8288TIP3    H124797   1.556   5.767   3.681
 8288TIP3    H224798   1.568   5.802   3.536
 8289TIP3   OH224799   2.129   6.237   5.186
 8289TIP3    H124800   2.085   6.257   5.101
 8289TIP3    H224801   2.157   6.144   5.175
 8290TIP3   OH224802   2.018   6.000   3.414
 8290TIP3    H124803   2.014   6.011   3.512
 8290TIP3    H224804   2.017   5.902   3.407
 8291TIP3   OH224805   2.619   6.243   4.789
 8291TIP3    H124806   2.696   6.288   4.750
 8291TIP3    H224807   2.551   6.313   4.781
 8292TIP3   OH224808   1.642   5.884   5.397
 8292TIP3    H124809   1.718   5.830   5.373
 8292TIP3    H224810   1.669   5.919   5.485
 8293TIP3   OH224811   1.709   5.705   3.830
 8293TIP3    H124812   1.676   5.665   3.912
 8293TIP3    H224813   1.743   5.627   3.781
 8294TIP3   OH224814   1.978   5.770   5.059
 8294TIP3    H124815   1.897   5.825   5.058
 8294TIP3    H224816   2.027   5.804   4.981
 8295TIP3   OH224817   1.807   5.498   3.667
 8295TIP3    H124818   1.781   5.506   3.573
 8295TIP3    H224819   1.905   5.499   3.659
 8296TIP3   OH224820   2.494   6.169   5.191
 8296TIP3    H124821   2.573   6.137   5.144
 8296TIP3    H224822   2.486   6.105   5.263
 8297TIP3   OH224823   2.628   5.826   3.336
 8297TIP3    H124824   2.610   5.782   3.251
 8297TIP3    H224825   2.594   5.916   3.314
 8298TIP3   OH224826   2.101   5.558   5.180
 8298TIP3    H124827   2.099   5.479   5.123
 8298TIP3    H224828   2.055   5.625   5.125
 8299TIP3   OH224829   2.101   5.347   4.989
 8299TIP3    H124830   2.127   5.380   4.901
 8299TIP3    H224831   2.007   5.322   4.973
 8300TIP3   OH224832   2.125   5.875   4.861
 8300TIP3    H124833   2.211   5.895   4.822
 8300TIP3    H224834   2.067   5.941   4.818
 8301TIP3   OH224835   2.707   5.842   5.241
 8301TIP3    H124836   2.755   5.759   5.260
 8301TIP3    H224837   2.777   5.899   5.209
 8302TIP3   OH224838   2.750   6.097   4.977
 8302TIP3    H124839   2.692   6.152   4.919
 8302TIP3    H224840   2.838   6.120   4.939
 8303TIP3   OH224841   1.979   5.663   5.416
 8303TIP3    H124842   1.911   5.595   5.432
 8303TIP3    H224843   2.011   5.637   5.327
 8304TIP3   OH224844   2.234   5.105   5.056
 8304TIP3    H124845   2.181   5.185   5.037
 8304TIP3    H224846   2.168   5.034   5.048
 8305TIP3   OH224847   2.360   5.607   5.274
 8305TIP3    H124848   2.346   5.590   5.369
 8305TIP3    H224849   2.270   5.584   5.241
 8306TIP3   OH224850   2.597   5.555   5.128
 8306TIP3    H124851   2.523   5.558   5.192
 8306TIP3    H224852   2.672   5.526   5.184
 8307TIP3   OH224853   2.829   5.500   5.276
 8307TIP3    H124854   2.842   5.404   5.292
 8307TIP3    H224855   2.824   5.536   5.367
 8308TIP3   OH224856   1.817   5.444   5.469
 8308TIP3    H124857   1.819   5.351   5.438
 8308TIP3    H224858   1.855   5.433   5.559
 8309TIP3   OH224859   2.320   5.120   5.318
 8309TIP3    H124860   2.391   5.052   5.317
 8309TIP3    H224861   2.285   5.110   5.228
 8310TIP3   OH224862   2.397   5.332   5.473
 8310TIP3    H124863   2.374   5.259   5.411
 8310TIP3    H224864   2.316   5.388   5.469
 8311TIP3   OH224865   1.616   6.558   3.575
 8311TIP3    H124866   1.712   6.550   3.554
 8311TIP3    H224867   1.587   6.610   3.498
 8312TIP3   OH224868   1.094   5.941   3.787
 8312TIP3    H124869   1.189   5.961   3.774
 8312TIP3    H224870   1.088   5.852   3.747
 8313TIP3   OH224871   1.013   6.551   4.204
 8313TIP3    H124872   0.945   6.492   4.167
 8313TIP3    H224873   1.056   6.492   4.269
 8314TIP3   OH224874   1.148   6.390   4.383
 8314TIP3    H124875   1.128   6.331   4.457
 8314TIP3    H224876   1.201   6.457   4.432
 8315TIP3   OH224877   2.875   6.801   4.194
 8315TIP3    H124878   2.899   6.833   4.283
 8315TIP3    H224879   2.939   6.847   4.137
 8316TIP3   OH224880   2.900   6.822   4.474
 8316TIP3    H124881   2.857   6.734   4.472
 8316TIP3    H224882   2.976   6.801   4.531
 8317TIP3   OH224883   2.948   6.500   5.047
 8317TIP3    H124884   2.877   6.510   5.113
 8317TIP3    H224885   2.992   6.588   5.051
 8318TIP3   OH224886   2.767   6.014   3.671
 8318TIP3    H124887   2.833   6.078   3.638
 8318TIP3    H224888   2.811   5.979   3.751
 8319TIP3   OH224889   2.892   5.886   3.887
 8319TIP3    H124890   2.860   5.845   3.968
 8319TIP3    H224891   2.975   5.926   3.919
 8320TIP3   OH224892   2.947   6.273   4.299
 8320TIP3    H124893   3.003   6.207   4.252
 8320TIP3    H224894   2.947   6.348   4.236
 8321TIP3   OH224895   2.775   6.572   4.496
 8321TIP3    H124896   2.704   6.616   4.546
 8321TIP3    H224897   2.725   6.529   4.423
 8322TIP3   OH224898   2.830   5.790   3.517
 8322TIP3    H124899   2.759   5.790   3.449
 8322TIP3    H224900   2.800   5.867   3.571
 8323TIP3   OH224901   2.694   5.465   3.474
 8323TIP3    H124902   2.659   5.495   3.390
 8323TIP3    H224903   2.673   5.369   3.470
 8324TIP3   OH224904   1.332   5.807   4.766
 8324TIP3    H124905   1.327   5.776   4.673
 8324TIP3    H224906   1.429   5.809   4.780
 8325TIP3   OH224907   2.997   6.164   4.873
 8325TIP3    H124908   3.068   6.097   4.862
 8325TIP3    H224909   3.024   6.233   4.811
 8326TIP3   OH224910   3.178   5.963   4.880
 8326TIP3    H124911   3.104   5.913   4.923
 8326TIP3    H224912   3.252   5.902   4.898
 8327TIP3   OH224913   2.642   5.200   3.459
 8327TIP3    H124914   2.717   5.163   3.509
 8327TIP3    H224915   2.571   5.135   3.474
 8328TIP3   OH224916   2.696   5.445   3.894
 8328TIP3    H124917   2.741   5.359   3.911
 8328TIP3    H224918   2.760   5.487   3.835
 8329TIP3   OH224919   2.856   5.641   4.395
 8329TIP3    H124920   2.946   5.659   4.360
 8329TIP3    H224921   2.870   5.670   4.487
 8330TIP3   OH224922   2.933   5.770   4.636
 8330TIP3    H124923   2.858   5.805   4.687
 8330TIP3    H224924   2.967   5.851   4.592
 8331TIP3   OH224925   1.551   5.496   5.437
 8331TIP3    H124926   1.649   5.491   5.442
 8331TIP3    H224927   1.527   5.409   5.475
 8332TIP3   OH224928   3.383   5.365   5.193
 8332TIP3    H124929   3.446   5.300   5.152
 8332TIP3    H224930   3.355   5.417   5.115
 8333TIP3   OH224931   2.808   5.204   3.951
 8333TIP3    H124932   2.858   5.188   4.034
 8333TIP3    H224933   2.748   5.127   3.950
 8334TIP3   OH224934   1.511   5.189   4.767
 8334TIP3    H124935   1.571   5.113   4.776
 8334TIP3    H224936   1.574   5.263   4.759
 8335TIP3   OH224937   1.311   5.461   4.839
 8335TIP3    H124938   1.362   5.461   4.756
 8335TIP3    H224939   1.337   5.546   4.877
 8336TIP3   OH224940   3.256   5.505   4.999
 8336TIP3    H124941   3.173   5.547   5.029
 8336TIP3    H224942   3.219   5.434   4.943
 8337TIP3   OH224943   2.889   5.135   3.582
 8337TIP3    H124944   2.928   5.065   3.526
 8337TIP3    H224945   2.958   5.205   3.578
 8338TIP3   OH224946   1.298   4.967   4.342
 8338TIP3    H124947   1.206   4.960   4.370
 8338TIP3    H224948   1.292   5.026   4.264
 8339TIP3   OH224949   2.459   6.668   3.848
 8339TIP3    H124950   2.512   6.665   3.765
 8339TIP3    H224951   2.504   6.738   3.898
 8340TIP3   OH224952   1.518   5.048   5.156
 8340TIP3    H124953   1.467   5.042   5.238
 8340TIP3    H224954   1.451   5.084   5.095
 8341TIP3   OH224955   1.561   6.467   5.231
 8341TIP3    H124956   1.466   6.450   5.215
 8341TIP3    H224957   1.564   6.462   5.328
 8342TIP3   OH224958   1.737   6.511   4.780
 8342TIP3    H124959   1.680   6.583   4.745
 8342TIP3    H224960   1.820   6.532   4.732
 8343TIP3   OH224961   2.179   6.748   4.916
 8343TIP3    H124962   2.219   6.751   5.006
 8343TIP3    H224963   2.244   6.802   4.866
 8344TIP3   OH224964   2.358   6.904   4.780
 8344TIP3    H124965   2.431   6.855   4.739
 8344TIP3    H224966   2.409   6.963   4.841
 8345TIP3   OH224967   3.136   5.282   4.880
 8345TIP3    H124968   3.057   5.335   4.860
 8345TIP3    H224969   3.098   5.193   4.862
 8346TIP3   OH224970   1.625   6.747   4.670
 8346TIP3    H124971   1.535   6.776   4.698
 8346TIP3    H224972   1.621   6.776   4.577
 8347TIP3   OH224973   2.075   6.770   4.458
 8347TIP3    H124974   2.000   6.786   4.398
 8347TIP3    H224975   2.084   6.857   4.502
 8348TIP3   OH224976   2.343   6.705   4.510
 8348TIP3    H124977   2.249   6.726   4.493
 8348TIP3    H224978   2.387   6.783   4.471
 8349TIP3   OH224979   2.548   6.899   4.426
 8349TIP3    H124980   2.535   6.984   4.379
 8349TIP3    H224981   2.575   6.840   4.352
 8350TIP3   OH224982   1.316   6.539   4.538
 8350TIP3    H124983   1.343   6.536   4.631
 8350TIP3    H224984   1.398   6.509   4.494
 8351TIP3   OH224985   1.524   6.426   4.401
 8351TIP3    H124986   1.537   6.346   4.457
 8351TIP3    H224987   1.614   6.465   4.402
 8352TIP3   OH224988   1.789   6.521   4.411
 8352TIP3    H124989   1.817   6.428   4.406
 8352TIP3    H224990   1.834   6.546   4.494
 8353TIP3   OH224991   2.352   5.175   4.492
 8353TIP3    H124992   2.312   5.107   4.550
 8353TIP3    H224993   2.429   5.127   4.455
 8354TIP3   OH224994   2.879   5.064   4.401
 8354TIP3    H124995   2.914   5.114   4.324
 8354TIP3    H224996   2.783   5.077   4.392
 8355TIP3   OH224997   2.975   5.159   4.165
 8355TIP3    H124998   3.048   5.107   4.124
 8355TIP3    H224999   3.010   5.250   4.149
 8356TIP3   OH225000   1.607   4.886   4.511
 8356TIP3    H125001   1.514   4.854   4.515
 8356TIP3    H225002   1.654   4.801   4.507
 8357TIP3   OH225003   1.394   4.760   4.162
 8357TIP3    H125004   1.424   4.816   4.089
 8357TIP3    H225005   1.369   4.826   4.230
 8358TIP3   OH225006   2.051   4.921   4.394
 8358TIP3    H125007   2.111   4.967   4.334
 8358TIP3    H225008   2.080   4.954   4.481
 8359TIP3   OH225009   2.598   5.067   4.373
 8359TIP3    H125010   2.598   5.022   4.288
 8359TIP3    H225011   2.586   4.991   4.435
 8360TIP3   OH225012   2.628   4.991   3.942
 8360TIP3    H125013   2.538   5.026   3.952
 8360TIP3    H225014   2.617   4.904   3.986
 8361TIP3   OH225015   1.113   6.333   3.938
 8361TIP3    H125016   1.026   6.303   3.904
 8361TIP3    H225017   1.105   6.428   3.919
 8362TIP3   OH225018   1.513   4.916   3.921
 8362TIP3    H125019   1.560   4.852   3.865
 8362TIP3    H225020   1.588   4.969   3.957
 8363TIP3   OH225021   2.021   5.097   4.021
 8363TIP3    H125022   2.077   5.046   4.082
 8363TIP3    H225023   2.046   5.188   4.048
 8364TIP3   OH225024   1.883   6.513   3.521
 8364TIP3    H125025   1.971   6.537   3.485
 8364TIP3    H225026   1.861   6.439   3.461
 8365TIP3   OH225027   2.605   6.640   3.615
 8365TIP3    H125028   2.597   6.542   3.605
 8365TIP3    H225029   2.556   6.669   3.535
 8366TIP3   OH225030   1.815   5.171   5.404
 8366TIP3    H125031   1.778   5.099   5.459
 8366TIP3    H225032   1.909   5.168   5.433
 8367TIP3   OH225033   2.066   5.166   5.522
 8367TIP3    H125034   2.150   5.138   5.482
 8367TIP3    H225035   2.053   5.097   5.590
 8368TIP3   OH225036   1.185   6.354   3.576
 8368TIP3    H125037   1.183   6.377   3.670
 8368TIP3    H225038   1.274   6.312   3.566
 8369TIP3   OH225039   2.890   5.229   5.309
 8369TIP3    H125040   2.904   5.197   5.401
 8369TIP3    H225041   2.980   5.221   5.272
 8370TIP3   OH225042   2.826   6.779   4.801
 8370TIP3    H125043   2.747   6.750   4.751
 8370TIP3    H225044   2.808   6.875   4.808
 8371TIP3   OH225045   4.095   6.152   3.566
 8371TIP3    H125046   4.065   6.243   3.547
 8371TIP3    H225047   4.019   6.101   3.532
 8372TIP3   OH225048   4.093   6.155   3.953
 8372TIP3    H125049   4.129   6.130   4.041
 8372TIP3    H225050   4.054   6.071   3.924
 8373TIP3   OH225051   3.389   6.046   4.319
 8373TIP3    H125052   3.420   5.977   4.380
 8373TIP3    H225053   3.469   6.100   4.310
 8374TIP3   OH225054   4.340   6.457   3.634
 8374TIP3    H125055   4.324   6.389   3.701
 8374TIP3    H225056   4.371   6.532   3.687
 8375TIP3   OH225057   3.365   6.455   4.035
 8375TIP3    H125058   3.357   6.358   4.037
 8375TIP3    H225059   3.462   6.466   4.030
 8376TIP3   OH225060   3.071   5.653   3.819
 8376TIP3    H125061   3.027   5.738   3.835
 8376TIP3    H225062   3.000   5.604   3.774
 8377TIP3   OH225063   3.133   5.947   3.989
 8377TIP3    H125064   3.180   5.869   4.026
 8377TIP3    H225065   3.205   5.992   3.941
 8378TIP3   OH225066   3.990   6.918   3.651
 8378TIP3    H125067   4.031   6.847   3.597
 8378TIP3    H225068   3.984   6.875   3.737
 8379TIP3   OH225069   3.892   6.380   3.999
 8379TIP3    H125070   3.934   6.303   3.957
 8379TIP3    H225071   3.974   6.428   4.024
 8380TIP3   OH225072   4.908   5.698   3.997
 8380TIP3    H125073   4.938   5.781   4.039
 8380TIP3    H225074   4.932   5.714   3.904
 8381TIP3   OH225075   4.303   5.878   4.028
 8381TIP3    H125076   4.348   5.794   4.049
 8381TIP3    H225077   4.273   5.861   3.937
 8382TIP3   OH225078   3.646   5.539   3.995
 8382TIP3    H125079   3.627   5.612   3.931
 8382TIP3    H225080   3.598   5.466   3.950
 8383TIP3   OH225081   4.340   5.633   3.615
 8383TIP3    H125082   4.411   5.618   3.681
 8383TIP3    H225083   4.394   5.667   3.540
 8384TIP3   OH225084   3.276   5.742   4.101
 8384TIP3    H125085   3.359   5.726   4.149
 8384TIP3    H225086   3.292   5.686   4.021
 8385TIP3   OH225087   3.716   5.938   3.900
 8385TIP3    H125088   3.811   5.915   3.909
 8385TIP3    H225089   3.679   5.854   3.865
 8386TIP3   OH225090   4.981   5.907   4.167
 8386TIP3    H125091   4.897   5.953   4.148
 8386TIP3    H225092   5.001   5.942   4.255
 8387TIP3   OH225093   3.638   5.522   4.430
 8387TIP3    H125094   3.580   5.561   4.361
 8387TIP3    H225095   3.586   5.542   4.510
 8388TIP3   OH225096   3.978   6.370   3.438
 8388TIP3    H125097   3.944   6.361   3.348
 8388TIP3    H225098   3.936   6.454   3.466
 8389TIP3   OH225099   3.746   6.298   4.220
 8389TIP3    H125100   3.688   6.368   4.257
 8389TIP3    H225101   3.791   6.346   4.147
 8390TIP3   OH225102   4.545   5.637   3.793
 8390TIP3    H125103   4.531   5.593   3.878
 8390TIP3    H225104   4.597   5.715   3.818
 8391TIP3   OH225105   3.511   5.638   4.212
 8391TIP3    H125106   3.573   5.711   4.237
 8391TIP3    H225107   3.560   5.599   4.137
 8392TIP3   OH225108   3.576   6.496   4.321
 8392TIP3    H125109   3.551   6.584   4.285
 8392TIP3    H225110   3.496   6.479   4.376
 8393TIP3   OH225111   2.963   6.183   3.557
 8393TIP3    H125112   2.927   6.212   3.472
 8393TIP3    H225113   2.997   6.268   3.594
 8394TIP3   OH225114   4.406   6.701   3.796
 8394TIP3    H125115   4.316   6.692   3.836
 8394TIP3    H225116   4.398   6.787   3.752
 8395TIP3   OH225117   4.701   5.596   4.160
 8395TIP3    H125118   4.614   5.626   4.127
 8395TIP3    H225119   4.762   5.630   4.092
 8396TIP3   OH225120   3.991   5.239   4.142
 8396TIP3    H125121   3.977   5.145   4.161
 8396TIP3    H225122   3.915   5.279   4.190
 8397TIP3   OH225123   4.104   6.744   3.467
 8397TIP3    H125124   4.154   6.661   3.449
 8397TIP3    H225125   4.168   6.809   3.429
 8398TIP3   OH225126   4.248   6.529   3.384
 8398TIP3    H125127   4.225   6.447   3.337
 8398TIP3    H225128   4.287   6.494   3.467
 8399TIP3   OH225129   4.632   6.609   4.142
 8399TIP3    H125130   4.621   6.533   4.082
 8399TIP3    H225131   4.615   6.685   4.082
 8400TIP3   OH225132   3.925   6.005   3.400
 8400TIP3    H125133   3.847   6.059   3.379
 8400TIP3    H225134   3.972   6.002   3.315
 8401TIP3   OH225135   3.883   5.791   3.113
 8401TIP3    H125136   3.950   5.844   3.160
 8401TIP3    H225137   3.943   5.728   3.066
 8402TIP3   OH225138   4.828   6.248   3.987
 8402TIP3    H125139   4.744   6.300   3.991
 8402TIP3    H225140   4.859   6.274   3.898
 8403TIP3   OH225141   4.274   6.087   3.369
 8403TIP3    H125142   4.220   6.111   3.448
 8403TIP3    H225143   4.359   6.064   3.412
 8404TIP3   OH225144   4.507   6.124   4.288
 8404TIP3    H125145   4.506   6.207   4.340
 8404TIP3    H225146   4.422   6.131   4.241
 8405TIP3   OH225147   3.505   6.084   3.791
 8405TIP3    H125148   3.465   6.026   3.723
 8405TIP3    H225149   3.582   6.030   3.820
 8406TIP3   OH225150   3.634   6.494   3.936
 8406TIP3    H125151   3.617   6.462   3.847
 8406TIP3    H225152   3.724   6.459   3.954
 8407TIP3   OH225153   3.635   6.058   4.141
 8407TIP3    H125154   3.672   6.031   4.054
 8407TIP3    H225155   3.683   6.142   4.159
 8408TIP3   OH225156   4.165   6.694   3.919
 8408TIP3    H125157   4.154   6.775   3.972
 8408TIP3    H225158   4.149   6.622   3.983
 8409TIP3   OH225159   3.781   6.612   4.466
 8409TIP3    H125160   3.720   6.673   4.513
 8409TIP3    H225161   3.717   6.559   4.415
 8410TIP3   OH225162   4.110   5.947   3.197
 8410TIP3    H125163   4.170   6.008   3.246
 8410TIP3    H225164   4.137   5.967   3.103
 8411TIP3   OH225165   3.536   6.167   4.572
 8411TIP3    H125166   3.541   6.256   4.612
 8411TIP3    H225167   3.441   6.147   4.584
 8412TIP3   OH225168   3.857   6.624   3.474
 8412TIP3    H125169   3.941   6.673   3.480
 8412TIP3    H225170   3.799   6.688   3.430
 8413TIP3   OH225171   3.573   6.777   4.554
 8413TIP3    H125172   3.538   6.782   4.463
 8413TIP3    H225173   3.493   6.756   4.606
 8414TIP3   OH225174   4.626   5.187   3.242
 8414TIP3    H125175   4.546   5.205   3.295
 8414TIP3    H225176   4.640   5.273   3.198
 8415TIP3   OH225177   3.371   5.928   3.595
 8415TIP3    H125178   3.303   5.971   3.538
 8415TIP3    H225179   3.339   5.837   3.599
 8416TIP3   OH225180   4.430   6.551   2.798
 8416TIP3    H125181   4.439   6.647   2.779
 8416TIP3    H225182   4.522   6.521   2.784
 8417TIP3   OH225183   3.151   6.312   4.501
 8417TIP3    H125184   3.086   6.289   4.432
 8417TIP3    H225185   3.191   6.225   4.524
 8418TIP3   OH225186   3.008   6.503   4.133
 8418TIP3    H125187   3.104   6.500   4.125
 8418TIP3    H225188   2.996   6.582   4.188
 8419TIP3   OH225189   4.871   6.957   4.191
 8419TIP3    H125190   4.869   6.861   4.207
 8419TIP3    H225191   4.788   6.984   4.237
 8420TIP3   OH225192   3.976   6.741   4.323
 8420TIP3    H125193   3.973   6.834   4.356
 8420TIP3    H225194   3.905   6.700   4.378
 8421TIP3   OH225195   3.739   6.867   3.277
 8421TIP3    H125196   3.695   6.851   3.191
 8421TIP3    H225197   3.707   6.955   3.302
 8422TIP3   OH225198   3.176   6.719   3.663
 8422TIP3    H125199   3.226   6.711   3.747
 8422TIP3    H225200   3.123   6.637   3.667
 8423TIP3   OH225201   3.938   6.771   2.914
 8423TIP3    H125202   3.996   6.702   2.877
 8423TIP3    H225203   3.974   6.782   3.004
 8424TIP3   OH225204   3.991   6.821   3.184
 8424TIP3    H125205   3.903   6.829   3.227
 8424TIP3    H225206   4.044   6.784   3.256
 8425TIP3   OH225207   4.759   6.084   4.466
 8425TIP3    H125208   4.677   6.095   4.416
 8425TIP3    H225209   4.776   5.988   4.456
 8426TIP3   OH225210   3.356   6.494   4.484
 8426TIP3    H125211   3.406   6.480   4.567
 8426TIP3    H225212   3.282   6.432   4.494
 8427TIP3   OH225213   3.755   5.315   4.277
 8427TIP3    H125214   3.667   5.285   4.246
 8427TIP3    H225215   3.730   5.398   4.321
 8428TIP3   OH225216   4.294   5.430   4.468
 8428TIP3    H125217   4.364   5.404   4.531
 8428TIP3    H225218   4.212   5.413   4.518
 8429TIP3   OH225219   4.524   5.860   4.384
 8429TIP3    H125220   4.475   5.859   4.469
 8429TIP3    H225221   4.505   5.949   4.350
 8430TIP3   OH225222   4.191   5.988   2.943
 8430TIP3    H125223   4.153   5.967   2.855
 8430TIP3    H225224   4.274   6.032   2.917
 8431TIP3   OH225225   3.900   5.364   3.245
 8431TIP3    H125226   3.865   5.360   3.336
 8431TIP3    H225227   3.861   5.283   3.209
 8432TIP3   OH225228   3.686   5.836   4.290
 8432TIP3    H125229   3.639   5.858   4.373
 8432TIP3    H225230   3.670   5.917   4.237
 8433TIP3   OH225231   3.573   5.719   3.806
 8433TIP3    H125232   3.480   5.693   3.824
 8433TIP3    H225233   3.585   5.679   3.717
 8434TIP3   OH225234   4.062   5.804   3.535
 8434TIP3    H125235   4.012   5.876   3.490
 8434TIP3    H225236   4.118   5.770   3.461
 8435TIP3   OH225237   4.238   6.080   4.617
 8435TIP3    H125238   4.217   6.008   4.680
 8435TIP3    H225239   4.331   6.096   4.639
 8436TIP3   OH225240   4.217   5.831   3.771
 8436TIP3    H125241   4.156   5.860   3.700
 8436TIP3    H225242   4.253   5.752   3.726
 8437TIP3   OH225243   3.506   5.863   4.500
 8437TIP3    H125244   3.542   5.926   4.564
 8437TIP3    H225245   3.498   5.781   4.554
 8438TIP3   OH225246   3.557   5.340   3.210
 8438TIP3    H125247   3.547   5.339   3.307
 8438TIP3    H225248   3.479   5.394   3.184
 8439TIP3   OH225249   3.100   5.383   4.083
 8439TIP3    H125250   3.177   5.415   4.135
 8439TIP3    H225251   3.140   5.353   4.000
 8440TIP3   OH225252   3.066   5.362   3.602
 8440TIP3    H125253   3.112   5.397   3.522
 8440TIP3    H225254   3.006   5.437   3.618
 8441TIP3   OH225255   4.225   6.076   4.192
 8441TIP3    H125256   4.260   6.006   4.133
 8441TIP3    H225257   4.197   6.022   4.269
 8442TIP3   OH225258   3.904   5.541   3.866
 8442TIP3    H125259   3.824   5.540   3.922
 8442TIP3    H225260   3.975   5.536   3.932
 8443TIP3   OH225261   3.333   5.597   3.875
 8443TIP3    H125262   3.240   5.602   3.845
 8443TIP3    H225263   3.360   5.506   3.851
 8444TIP3   OH225264   3.598   5.593   3.564
 8444TIP3    H125265   3.693   5.606   3.544
 8444TIP3    H225266   3.553   5.614   3.479
 8445TIP3   OH225267   4.392   5.618   4.069
 8445TIP3    H125268   4.360   5.631   4.161
 8445TIP3    H225269   4.323   5.558   4.034
 8446TIP3   OH225270   3.448   5.630   3.339
 8446TIP3    H125271   3.379   5.583   3.288
 8446TIP3    H225272   3.501   5.668   3.266
 8447TIP3   OH225273   4.563   7.305   4.289
 8447TIP3    H125274   4.562   7.333   4.195
 8447TIP3    H225275   4.645   7.350   4.320
 8448TIP3   OH225276   3.519   6.416   4.708
 8448TIP3    H125277   3.600   6.446   4.755
 8448TIP3    H225278   3.455   6.416   4.781
 8449TIP3   OH225279   3.981   5.870   3.962
 8449TIP3    H125280   4.056   5.835   3.912
 8449TIP3    H225281   3.991   5.826   4.048
 8450TIP3   OH225282   3.501   5.358   3.845
 8450TIP3    H125283   3.466   5.280   3.893
 8450TIP3    H225284   3.548   5.317   3.772
 8451TIP3   OH225285   3.958   5.768   4.257
 8451TIP3    H125286   3.869   5.807   4.268
 8451TIP3    H225287   4.016   5.831   4.304
 8452TIP3   OH225288   3.693   6.157   3.346
 8452TIP3    H125289   3.621   6.091   3.335
 8452TIP3    H225290   3.674   6.191   3.437
 8453TIP3   OH225291   4.594   6.393   3.975
 8453TIP3    H125292   4.619   6.445   3.895
 8453TIP3    H225293   4.510   6.351   3.947
 8454TIP3   OH225294   4.153   5.465   3.219
 8454TIP3    H125295   4.056   5.447   3.224
 8454TIP3    H225296   4.159   5.560   3.239
 8455TIP3   OH225297   4.089   6.473   4.347
 8455TIP3    H125298   4.129   6.460   4.434
 8455TIP3    H225299   4.056   6.564   4.352
 8456TIP3   OH225300   4.221   5.719   3.318
 8456TIP3    H125301   4.317   5.725   3.332
 8456TIP3    H225302   4.202   5.799   3.265
 8457TIP3   OH225303   3.383   6.172   4.022
 8457TIP3    H125304   3.424   6.149   3.936
 8457TIP3    H225305   3.439   6.123   4.084
 8458TIP3   OH225306   3.842   6.306   3.172
 8458TIP3    H125307   3.792   6.391   3.174
 8458TIP3    H225308   3.788   6.251   3.233
 8459TIP3   OH225309   3.271   6.101   4.639
 8459TIP3    H125310   3.292   6.089   4.733
 8459TIP3    H225311   3.203   6.032   4.625
 8460TIP3   OH225312   3.999   6.216   4.656
 8460TIP3    H125313   3.939   6.156   4.608
 8460TIP3    H225314   4.086   6.181   4.629
 8461TIP3   OH225315   4.252   6.733   4.245
 8461TIP3    H125316   4.156   6.736   4.258
 8461TIP3    H225317   4.282   6.787   4.321
 8462TIP3   OH225318   4.658   5.814   3.153
 8462TIP3    H125319   4.599   5.771   3.087
 8462TIP3    H225320   4.657   5.904   3.113
 8463TIP3   OH225321   4.883   6.666   4.231
 8463TIP3    H125322   4.785   6.661   4.222
 8463TIP3    H225323   4.909   6.636   4.141
 8464TIP3   OH225324   4.365   6.627   3.060
 8464TIP3    H125325   4.339   6.554   3.118
 8464TIP3    H225326   4.380   6.583   2.974
 8465TIP3   OH225327   4.360   6.257   3.892
 8465TIP3    H125328   4.266   6.234   3.905
 8465TIP3    H225329   4.393   6.176   3.848
 8466TIP3   OH225330   3.492   6.486   3.651
 8466TIP3    H125331   3.491   6.565   3.594
 8466TIP3    H225332   3.398   6.468   3.661
 8467TIP3   OH225333   3.054   5.787   3.354
 8467TIP3    H125334   3.099   5.872   3.376
 8467TIP3    H225335   2.978   5.791   3.416
 8468TIP3   OH225336   3.619   6.246   3.590
 8468TIP3    H125337   3.589   6.336   3.610
 8468TIP3    H225338   3.587   6.197   3.667
 8469TIP3   OH225339   3.760   6.827   4.117
 8469TIP3    H125340   3.803   6.899   4.067
 8469TIP3    H225341   3.836   6.789   4.165
 8470TIP3   OH225342   3.406   6.725   3.499
 8470TIP3    H125343   3.322   6.734   3.548
 8470TIP3    H225344   3.439   6.817   3.503
 8471TIP3   OH225345   4.143   6.461   4.079
 8471TIP3    H125346   4.132   6.458   4.176
 8471TIP3    H225347   4.225   6.411   4.067
 8472TIP3   OH225348   4.123   6.357   2.963
 8472TIP3    H125349   4.177   6.331   3.041
 8472TIP3    H225350   4.035   6.328   2.992
 8473TIP3   OH225351   4.393   6.992   4.126
 8473TIP3    H125352   4.312   6.938   4.119
 8473TIP3    H225353   4.378   7.058   4.054
 8474TIP3   OH225354   4.460   6.827   2.778
 8474TIP3    H125355   4.496   6.898   2.724
 8474TIP3    H225356   4.380   6.872   2.813
 8475TIP3   OH225357   3.479   5.605   4.645
 8475TIP3    H125358   3.383   5.609   4.660
 8475TIP3    H225359   3.509   5.553   4.721
 8476TIP3   OH225360   4.284   6.292   3.180
 8476TIP3    H125361   4.274   6.223   3.248
 8476TIP3    H225362   4.381   6.285   3.164
 8477TIP3   OH225363   3.197   6.687   4.275
 8477TIP3    H125364   3.254   6.618   4.314
 8477TIP3    H225365   3.221   6.764   4.329
 8478TIP3   OH225366   3.482   6.336   2.961
 8478TIP3    H125367   3.500   6.244   2.933
 8478TIP3    H225368   3.463   6.324   3.056
 8479TIP3   OH225369   3.428   6.340   3.236
 8479TIP3    H125370   3.508   6.313   3.284
 8479TIP3    H225371   3.433   6.438   3.242
 8480TIP3   OH225372   3.163   6.031   3.437
 8480TIP3    H125373   3.097   6.078   3.492
 8480TIP3    H225374   3.180   6.099   3.369
 8481TIP3   OH225375   4.319   5.668   4.328
 8481TIP3    H125376   4.399   5.710   4.365
 8481TIP3    H225377   4.309   5.588   4.384
 8482TIP3   OH225378   4.199   5.417   3.498
 8482TIP3    H125379   4.185   5.438   3.404
 8482TIP3    H225380   4.238   5.501   3.532
 8483TIP3   OH225381   3.697   6.534   3.181
 8483TIP3    H125382   3.611   6.561   3.217
 8483TIP3    H225383   3.715   6.606   3.119
 8484TIP3   OH225384   3.881   5.603   3.596
 8484TIP3    H125385   3.946   5.675   3.578
 8484TIP3    H225386   3.890   5.594   3.694
 8485TIP3   OH225387   4.156   5.916   4.402
 8485TIP3    H125388   4.181   5.969   4.480
 8485TIP3    H225389   4.210   5.836   4.413
 8486TIP3   OH225390   4.027   5.321   3.695
 8486TIP3    H125391   4.022   5.398   3.754
 8486TIP3    H225392   4.090   5.355   3.626
 8487TIP3   OH225393   3.442   6.613   3.250
 8487TIP3    H125394   3.413   6.684   3.188
 8487TIP3    H225395   3.428   6.655   3.337
 8488TIP3   OH225396   3.541   5.328   3.486
 8488TIP3    H125397   3.541   5.418   3.524
 8488TIP3    H225398   3.637   5.308   3.493
 8489TIP3   OH225399   4.792   5.819   4.386
 8489TIP3    H125400   4.694   5.816   4.391
 8489TIP3    H225401   4.807   5.778   4.300
 8490TIP3   OH225402   4.446   6.013   3.772
 8490TIP3    H125403   4.370   5.953   3.784
 8490TIP3    H225404   4.518   5.966   3.820
 8491TIP3   OH225405   3.161   6.238   3.239
 8491TIP3    H125406   3.234   6.302   3.250
 8491TIP3    H225407   3.204   6.179   3.173
 8492TIP3   OH225408   3.099   5.517   3.379
 8492TIP3    H125409   3.102   5.614   3.375
 8492TIP3    H225410   3.029   5.496   3.316
 8493TIP3   OH225411   4.416   6.971   3.718
 8493TIP3    H125412   4.373   7.018   3.644
 8493TIP3    H225413   4.510   6.989   3.698
 8494TIP3   OH225414   3.488   5.234   4.247
 8494TIP3    H125415   3.460   5.204   4.158
 8494TIP3    H225416   3.470   5.155   4.302
 8495TIP3   OH225417   3.025   6.449   3.624
 8495TIP3    H125418   2.962   6.484   3.689
 8495TIP3    H225419   2.995   6.494   3.542
 8496TIP3   OH225420   3.190   7.004   4.700
 8496TIP3    H125421   3.276   7.006   4.747
 8496TIP3    H225422   3.172   6.908   4.699
 8497TIP3   OH225423   3.664   6.959   4.745
 8497TIP3    H125424   3.759   6.944   4.752
 8497TIP3    H225425   3.641   6.897   4.673
 8498TIP3   OH225426   3.649   6.538   2.871
 8498TIP3    H125427   3.596   6.463   2.907
 8498TIP3    H225428   3.725   6.490   2.832
 8499TIP3   OH225429   4.306   6.869   4.479
 8499TIP3    H125430   4.299   6.800   4.548
 8499TIP3    H225431   4.384   6.920   4.508
 8500TIP3   OH225432   4.083   6.577   2.784
 8500TIP3    H125433   4.128   6.513   2.843
 8500TIP3    H225434   4.138   6.573   2.703
 8501TIP3   OH225435   3.318   6.405   4.900
 8501TIP3    H125436   3.333   6.309   4.908
 8501TIP3    H225437   3.231   6.408   4.854
 8502TIP3   OH225438   3.294   6.051   3.097
 8502TIP3    H125439   3.353   6.021   3.169
 8502TIP3    H225440   3.360   6.056   3.023
 8503TIP3   OH225441   3.923   6.492   4.675
 8503TIP3    H125442   3.885   6.513   4.587
 8503TIP3    H225443   3.956   6.400   4.663
 8504TIP3   OH225444   3.805   6.253   2.904
 8504TIP3    H125445   3.811   6.264   3.001
 8504TIP3    H225446   3.809   6.155   2.896
 8505TIP3   OH225447   4.416   6.504   4.281
 8505TIP3    H125448   4.494   6.543   4.237
 8505TIP3    H225449   4.349   6.574   4.264
 8506TIP3   OH225450   3.438   6.139   4.883
 8506TIP3    H125451   3.518   6.092   4.856
 8506TIP3    H225452   3.465   6.174   4.971
 8507TIP3   OH225453   3.498   5.960   3.311
 8507TIP3    H125454   3.477   5.917   3.396
 8507TIP3    H225455   3.539   5.887   3.260
 8508TIP3   OH225456   3.768   6.019   4.540
 8508TIP3    H125457   3.694   6.082   4.542
 8508TIP3    H225458   3.823   6.055   4.466
 8509TIP3   OH225459   3.606   5.756   3.155
 8509TIP3    H125460   3.582   5.763   3.060
 8509TIP3    H225461   3.703   5.756   3.149
 8510TIP3   OH225462   4.289   6.425   4.676
 8510TIP3    H125463   4.369   6.397   4.630
 8510TIP3    H225464   4.284   6.361   4.750
 8511TIP3   OH225465   4.423   6.081   2.824
 8511TIP3    H125466   4.405   6.039   2.737
 8511TIP3    H225467   4.390   6.171   2.803
 8512TIP3   OH225468   3.894   5.813   4.668
 8512TIP3    H125469   3.897   5.734   4.610
 8512TIP3    H225470   3.851   5.880   4.611
 8513TIP3   OH225471   3.898   5.598   4.478
 8513TIP3    H125472   3.927   5.642   4.396
 8513TIP3    H225473   3.804   5.577   4.458
 8514TIP3   OH225474   3.921   6.131   4.350
 8514TIP3    H125475   4.008   6.147   4.312
 8514TIP3    H225476   3.866   6.198   4.304
 8515TIP3   OH225477   4.504   6.099   4.728
 8515TIP3    H125478   4.554   6.017   4.743
 8515TIP3    H225479   4.572   6.158   4.693
 8516TIP3   OH225480   4.546   6.354   4.464
 8516TIP3    H125481   4.488   6.409   4.407
 8516TIP3    H225482   4.634   6.376   4.426
 8517TIP3   OH225483   3.772   5.920   4.902
 8517TIP3    H125484   3.705   5.851   4.918
 8517TIP3    H225485   3.807   5.894   4.814
 8518TIP3   OH225486   4.030   5.360   4.546
 8518TIP3    H125487   3.981   5.442   4.523
 8518TIP3    H225488   3.961   5.292   4.534
 8519TIP3   OH225489   4.157   5.863   4.762
 8519TIP3    H125490   4.146   5.849   4.858
 8519TIP3    H225491   4.066   5.840   4.732
 8520TIP3   OH225492   4.394   5.814   4.615
 8520TIP3    H125493   4.320   5.816   4.680
 8520TIP3    H225494   4.469   5.785   4.671
 8521TIP3   OH225495   4.621   5.756   4.764
 8521TIP3    H125496   4.635   5.660   4.781
 8521TIP3    H225497   4.618   5.793   4.855
 8522TIP3   OH225498   3.612   5.699   4.956
 8522TIP3    H125499   3.624   5.608   4.923
 8522TIP3    H225500   3.650   5.691   5.046
 8523TIP3   OH225501   4.120   5.371   4.806
 8523TIP3    H125502   4.189   5.301   4.801
 8523TIP3    H225503   4.084   5.366   4.715
 8524TIP3   OH225504   4.190   5.587   4.962
 8524TIP3    H125505   4.169   5.515   4.898
 8524TIP3    H225506   4.111   5.644   4.955
 8525TIP3   OH225507   3.413   6.817   3.063
 8525TIP3    H125508   3.509   6.805   3.046
 8525TIP3    H225509   3.389   6.868   2.983
 8526TIP3   OH225510   2.892   6.197   3.277
 8526TIP3    H125511   2.987   6.219   3.261
 8526TIP3    H225512   2.886   6.108   3.237
 8527TIP3   OH225513   2.810   6.809   3.692
 8527TIP3    H125514   2.743   6.749   3.654
 8527TIP3    H225515   2.853   6.750   3.758
 8528TIP3   OH225516   2.943   6.655   3.879
 8528TIP3    H125517   2.930   6.586   3.946
 8528TIP3    H225518   2.996   6.719   3.929
 8529TIP3   OH225519   4.671   7.058   3.681
 8529TIP3    H125520   4.695   7.090   3.769
 8529TIP3    H225521   4.734   7.104   3.624
 8530TIP3   OH225522   4.697   7.079   3.962
 8530TIP3    H125523   4.654   6.991   3.959
 8530TIP3    H225524   4.772   7.059   4.020
 8531TIP3   OH225525   4.744   6.757   4.535
 8531TIP3    H125526   4.673   6.768   4.601
 8531TIP3    H225527   4.788   6.845   4.538
 8532TIP3   OH225528   4.561   6.269   3.153
 8532TIP3    H125529   4.626   6.334   3.120
 8532TIP3    H225530   4.607   6.232   3.231
 8533TIP3   OH225531   4.690   6.137   3.357
 8533TIP3    H125532   4.623   6.096   3.417
 8533TIP3    H225533   4.755   6.173   3.420
 8534TIP3   OH225534   4.745   6.531   3.788
 8534TIP3    H125535   4.797   6.462   3.741
 8534TIP3    H225536   4.742   6.603   3.722
 8535TIP3   OH225537   4.572   6.830   3.983
 8535TIP3    H125538   4.501   6.872   4.034
 8535TIP3    H225539   4.523   6.784   3.911
 8536TIP3   OH225540   4.626   6.045   3.003
 8536TIP3    H125541   4.556   6.047   2.934
 8536TIP3    H225542   4.597   6.121   3.057
 8537TIP3   OH225543   4.504   5.720   2.951
 8537TIP3    H125544   4.453   5.758   2.878
 8537TIP3    H225545   4.473   5.626   2.948
 8538TIP3   OH225546   4.501   5.997   3.503
 8538TIP3    H125547   4.509   5.900   3.495
 8538TIP3    H225548   4.486   6.009   3.600
 8539TIP3   OH225549   3.127   6.066   4.248
 8539TIP3    H125550   3.129   6.037   4.155
 8539TIP3    H225551   3.224   6.068   4.268
 8540TIP3   OH225552   4.792   6.420   4.361
 8540TIP3    H125553   4.863   6.353   4.350
 8540TIP3    H225554   4.819   6.489   4.298
 8541TIP3   OH225555   4.974   6.219   4.369
 8541TIP3    H125556   4.900   6.170   4.411
 8541TIP3    H225557   5.048   6.157   4.386
 8542TIP3   OH225558   4.440   5.457   2.949
 8542TIP3    H125559   4.514   5.411   2.992
 8542TIP3    H225560   4.365   5.396   2.956
 8543TIP3   OH225561   4.500   5.711   3.395
 8543TIP3    H125562   4.541   5.623   3.409
 8543TIP3    H225563   4.557   5.745   3.324
 8544TIP3   OH225564   4.658   5.881   3.892
 8544TIP3    H125565   4.744   5.905   3.850
 8544TIP3    H225566   4.673   5.919   3.981
 8545TIP3   OH225567   4.730   6.028   4.122
 8545TIP3    H125568   4.654   6.063   4.171
 8545TIP3    H225569   4.764   6.109   4.077
 8546TIP3   OH225570   3.346   5.751   4.917
 8546TIP3    H125571   3.443   5.748   4.926
 8546TIP3    H225572   3.322   5.666   4.960
 8547TIP3   OH225573   5.180   5.621   4.678
 8547TIP3    H125574   5.242   5.556   4.637
 8547TIP3    H225575   5.150   5.672   4.600
 8548TIP3   OH225576   4.609   5.460   3.431
 8548TIP3    H125577   4.657   5.445   3.516
 8548TIP3    H225578   4.547   5.385   3.433
 8549TIP3   OH225579   3.307   5.447   4.258
 8549TIP3    H125580   3.368   5.371   4.265
 8549TIP3    H225581   3.370   5.520   4.247
 8550TIP3   OH225582   3.106   5.719   4.324
 8550TIP3    H125583   3.160   5.717   4.242
 8550TIP3    H225584   3.139   5.800   4.366
 8551TIP3   OH225585   5.049   5.756   4.482
 8551TIP3    H125586   4.965   5.801   4.503
 8551TIP3    H225587   5.016   5.684   4.425
 8552TIP3   OH225588   4.705   5.388   3.051
 8552TIP3    H125589   4.789   5.338   3.063
 8552TIP3    H225590   4.742   5.478   3.055
 8553TIP3   OH225591   3.095   5.226   3.832
 8553TIP3    H125592   3.001   5.217   3.856
 8553TIP3    H225593   3.090   5.283   3.752
 8554TIP3   OH225594   4.251   6.929   3.334
 8554TIP3    H125595   4.303   6.918   3.252
 8554TIP3    H225596   4.305   6.992   3.383
 8555TIP3   OH225597   3.312   5.298   4.647
 8555TIP3    H125598   3.258   5.302   4.727
 8555TIP3    H225599   3.250   5.334   4.581
 8556TIP3   OH225600   3.353   6.732   4.717
 8556TIP3    H125601   3.259   6.708   4.704
 8556TIP3    H225602   3.365   6.715   4.811
 8557TIP3   OH225603   3.533   6.766   4.265
 8557TIP3    H125604   3.487   6.843   4.227
 8557TIP3    H225605   3.620   6.779   4.222
 8558TIP3   OH225606   3.973   7.008   4.404
 8558TIP3    H125607   4.015   7.007   4.493
 8558TIP3    H225608   4.040   7.060   4.353
 8559TIP3   OH225609   4.154   7.162   4.266
 8559TIP3    H125610   4.225   7.112   4.224
 8559TIP3    H225611   4.206   7.219   4.327
 8560TIP3   OH225612   4.950   5.520   4.364
 8560TIP3    H125613   4.861   5.509   4.328
 8560TIP3    H225614   4.986   5.428   4.355
 8561TIP3   OH225615   3.206   7.019   4.293
 8561TIP3    H125616   3.115   7.051   4.272
 8561TIP3    H225617   3.223   7.068   4.374
 8562TIP3   OH225618   3.443   6.999   4.151
 8562TIP3    H125619   3.355   7.011   4.193
 8562TIP3    H225620   3.425   7.032   4.060
 8563TIP3   OH225621   3.869   7.026   3.949
 8563TIP3    H125622   3.801   7.046   3.882
 8563TIP3    H225623   3.881   7.113   3.991
 8564TIP3   OH225624   4.139   6.964   4.001
 8564TIP3    H125625   4.046   6.984   3.980
 8564TIP3    H225626   4.186   7.037   3.957
 8565TIP3   OH225627   4.341   7.154   3.912
 8565TIP3    H125628   4.330   7.240   3.865
 8565TIP3    H225629   4.371   7.095   3.839
 8566TIP3   OH225630   3.119   6.812   4.034
 8566TIP3    H125631   3.145   6.786   4.125
 8566TIP3    H225632   3.192   6.769   3.984
 8567TIP3   OH225633   3.315   6.685   3.895
 8567TIP3    H125634   3.331   6.601   3.944
 8567TIP3    H225635   3.407   6.722   3.891
 8568TIP3   OH225636   3.581   6.778   3.901
 8568TIP3    H125637   3.613   6.686   3.889
 8568TIP3    H225638   3.630   6.802   3.982
 8569TIP3   OH225639   4.153   5.436   3.982
 8569TIP3    H125640   4.112   5.363   4.032
 8569TIP3    H225641   4.229   5.392   3.939
 8570TIP3   OH225642   4.673   5.318   3.886
 8570TIP3    H125643   4.710   5.369   3.811
 8570TIP3    H225644   4.578   5.339   3.879
 8571TIP3   OH225645   4.771   5.414   3.650
 8571TIP3    H125646   4.846   5.362   3.613
 8571TIP3    H225647   4.807   5.505   3.636
 8572TIP3   OH225648   3.402   5.145   3.999
 8572TIP3    H125649   3.309   5.113   4.001
 8572TIP3    H225650   3.449   5.059   3.994
 8573TIP3   OH225651   3.193   5.016   3.650
 8573TIP3    H125652   3.223   5.069   3.575
 8573TIP3    H225653   3.168   5.084   3.716
 8574TIP3   OH225654   3.850   5.177   3.883
 8574TIP3    H125655   3.903   5.223   3.815
 8574TIP3    H225656   3.883   5.218   3.964
 8575TIP3   OH225657   4.387   5.324   3.863
 8575TIP3    H125658   4.393   5.283   3.776
 8575TIP3    H225659   4.378   5.245   3.921
 8576TIP3   OH225660   4.425   5.248   3.426
 8576TIP3    H125661   4.339   5.291   3.441
 8576TIP3    H225662   4.410   5.162   3.471
 8577TIP3   OH225663   2.908   6.588   3.425
 8577TIP3    H125664   2.822   6.556   3.392
 8577TIP3    H225665   2.898   6.683   3.408
 8578TIP3   OH225666   3.310   5.172   3.410
 8578TIP3    H125667   3.357   5.108   3.352
 8578TIP3    H225668   3.385   5.225   3.444
 8579TIP3   OH225669   3.817   5.352   3.509
 8579TIP3    H125670   3.879   5.304   3.567
 8579TIP3    H225671   3.841   5.444   3.534
 8580TIP3   OH225672   3.679   6.771   3.010
 8580TIP3    H125673   3.768   6.794   2.974
 8580TIP3    H225674   3.658   6.697   2.949
 8581TIP3   OH225675   4.399   6.894   3.104
 8581TIP3    H125676   4.391   6.796   3.093
 8581TIP3    H225677   4.354   6.924   3.022
 8582TIP3   OH225678   3.613   5.416   4.880
 8582TIP3    H125679   3.575   5.351   4.942
 8582TIP3    H225680   3.706   5.417   4.912
 8583TIP3   OH225681   3.860   5.422   5.006
 8583TIP3    H125682   3.947   5.400   4.970
 8583TIP3    H225683   3.850   5.353   5.075
 8584TIP3   OH225684   2.978   6.613   3.057
 8584TIP3    H125685   2.984   6.626   3.153
 8584TIP3    H225686   3.066   6.571   3.038
 8585TIP3   OH225687   4.689   5.486   4.797
 8585TIP3    H125688   4.707   5.455   4.889
 8585TIP3    H225689   4.779   5.482   4.758
 8586TIP3   OH225690   4.623   7.037   4.288
 8586TIP3    H125691   4.544   7.008   4.238
 8586TIP3    H225692   4.604   7.133   4.295
 8587TIP3   OH225693   5.890   6.408   3.055
 8587TIP3    H125694   5.859   6.499   3.033
 8587TIP3    H225695   5.817   6.357   3.017
 8588TIP3   OH225696   5.891   6.412   3.438
 8588TIP3    H125697   5.924   6.385   3.526
 8588TIP3    H225698   5.850   6.331   3.405
 8589TIP3   OH225699   5.187   6.303   3.804
 8589TIP3    H125700   5.217   6.233   3.865
 8589TIP3    H225701   5.267   6.356   3.794
 8590TIP3   OH225702   6.136   6.714   3.121
 8590TIP3    H125703   6.120   6.645   3.187
 8590TIP3    H225704   6.169   6.788   3.174
 8591TIP3   OH225705   5.161   6.714   3.523
 8591TIP3    H125706   5.154   6.616   3.524
 8591TIP3    H225707   5.258   6.724   3.517
 8592TIP3   OH225708   4.868   5.912   3.306
 8592TIP3    H125709   4.823   5.997   3.326
 8592TIP3    H225710   4.794   5.864   3.263
 8593TIP3   OH225711   4.925   6.203   3.487
 8593TIP3    H125712   4.975   6.125   3.519
 8593TIP3    H225713   4.986   6.241   3.422
 8594TIP3   OH225714   5.787   7.176   3.143
 8594TIP3    H125715   5.823   7.112   3.079
 8594TIP3    H225716   5.789   7.123   3.224
 8595TIP3   OH225717   5.687   6.637   3.486
 8595TIP3    H125718   5.728   6.561   3.441
 8595TIP3    H225719   5.770   6.684   3.511
 8596TIP3   OH225720   6.703   5.950   3.485
 8596TIP3    H125721   6.727   6.037   3.522
 8596TIP3    H225722   6.727   5.963   3.391
 8597TIP3   OH225723   6.101   6.132   3.516
 8597TIP3    H125724   6.146   6.047   3.533
 8597TIP3    H225725   6.069   6.118   3.425
 8598TIP3   OH225726   5.443   5.795   3.480
 8598TIP3    H125727   5.423   5.868   3.417
 8598TIP3    H225728   5.394   5.722   3.436
 8599TIP3   OH225729   6.135   5.892   3.101
 8599TIP3    H125730   6.207   5.876   3.166
 8599TIP3    H225731   6.188   5.924   3.025
 8600TIP3   OH225732   5.073   5.997   3.589
 8600TIP3    H125733   5.156   5.980   3.637
 8600TIP3    H225734   5.089   5.942   3.509
 8601TIP3   OH225735   5.512   6.195   3.387
 8601TIP3    H125736   5.607   6.171   3.396
 8601TIP3    H225737   5.475   6.111   3.352
 8602TIP3   OH225738   6.762   6.154   3.685
 8602TIP3    H125739   6.686   6.207   3.653
 8602TIP3    H225740   6.814   6.222   3.733
 8603TIP3   OH225741   5.436   5.780   3.916
 8603TIP3    H125742   5.377   5.817   3.848
 8603TIP3    H225743   5.383   5.797   3.997
 8604TIP3   OH225744   5.772   6.625   2.927
 8604TIP3    H125745   5.742   6.617   2.835
 8604TIP3    H225746   5.729   6.709   2.954
 8605TIP3   OH225747   5.543   6.555   3.708
 8605TIP3    H125748   5.484   6.624   3.744
 8605TIP3    H225749   5.586   6.603   3.634
 8606TIP3   OH225750   6.341   5.894   3.278
 8606TIP3    H125751   6.337   5.841   3.358
 8606TIP3    H225752   6.394   5.971   3.305
 8607TIP3   OH225753   5.308   5.894   3.699
 8607TIP3    H125754   5.370   5.966   3.723
 8607TIP3    H225755   5.357   5.854   3.623
 8608TIP3   OH225756   5.373   6.752   3.808
 8608TIP3    H125757   5.346   6.839   3.772
 8608TIP3    H225758   5.293   6.733   3.863
 8609TIP3   OH225759   4.760   6.440   3.043
 8609TIP3    H125760   4.723   6.467   2.957
 8609TIP3    H225761   4.794   6.525   3.078
 8610TIP3   OH225762   6.200   6.957   3.285
 8610TIP3    H125763   6.109   6.949   3.322
 8610TIP3    H225764   6.194   7.043   3.238
 8611TIP3   OH225765   6.491   5.854   3.648
 8611TIP3    H125766   6.404   5.876   3.610
 8611TIP3    H225767   6.553   5.887   3.580
 8612TIP3   OH225768   5.789   5.495   3.633
 8612TIP3    H125769   5.770   5.401   3.650
 8612TIP3    H225770   5.713   5.537   3.679
 8613TIP3   OH225771   5.897   7.005   2.953
 8613TIP3    H125772   5.946   6.921   2.937
 8613TIP3    H225773   5.963   7.068   2.915
 8614TIP3   OH225774   6.039   6.787   2.872
 8614TIP3    H125775   6.026   6.707   2.820
 8614TIP3    H225776   6.079   6.751   2.955
 8615TIP3   OH225777   6.427   6.865   3.629
 8615TIP3    H125778   6.418   6.790   3.567
 8615TIP3    H225779   6.412   6.942   3.570
 8616TIP3   OH225780   5.723   6.262   2.888
 8616TIP3    H125781   5.644   6.316   2.866
 8616TIP3    H225782   5.768   6.257   2.802
 8617TIP3   OH225783   5.680   6.045   2.602
 8617TIP3    H125784   5.747   6.101   2.646
 8617TIP3    H225785   5.739   5.983   2.554
 8618TIP3   OH225786   6.623   6.502   3.476
 8618TIP3    H125787   6.541   6.555   3.478
 8618TIP3    H225788   6.657   6.529   3.387
 8619TIP3   OH225789   6.069   6.345   2.855
 8619TIP3    H125790   6.016   6.367   2.935
 8619TIP3    H225791   6.155   6.321   2.898
 8620TIP3   OH225792   6.300   6.380   3.773
 8620TIP3    H125793   6.298   6.465   3.822
 8620TIP3    H225794   6.213   6.386   3.727
 8621TIP3   OH225795   5.301   6.341   3.277
 8621TIP3    H125796   5.259   6.283   3.210
 8621TIP3    H225797   5.377   6.287   3.306
 8622TIP3   OH225798   5.431   6.755   3.422
 8622TIP3    H125799   5.411   6.721   3.333
 8622TIP3    H225800   5.520   6.717   3.439
 8623TIP3   OH225801   5.434   6.313   3.630
 8623TIP3    H125802   5.468   6.286   3.542
 8623TIP3    H225803   5.480   6.398   3.646
 8624TIP3   OH225804   5.957   6.951   3.406
 8624TIP3    H125805   5.954   7.029   3.464
 8624TIP3    H225806   5.945   6.877   3.468
 8625TIP3   OH225807   5.578   6.868   3.953
 8625TIP3    H125808   5.517   6.929   4.001
 8625TIP3    H225809   5.514   6.814   3.903
 8626TIP3   OH225810   5.906   6.203   2.683
 8626TIP3    H125811   5.966   6.264   2.732
 8626TIP3    H225812   5.933   6.223   2.590
 8627TIP3   OH225813   5.333   6.422   4.060
 8627TIP3    H125814   5.337   6.512   4.100
 8627TIP3    H225815   5.238   6.403   4.071
 8628TIP3   OH225816   5.652   6.881   2.965
 8628TIP3    H125817   5.737   6.930   2.967
 8628TIP3    H225818   5.596   6.939   2.911
 8629TIP3   OH225819   5.370   7.032   4.041
 8629TIP3    H125820   5.332   7.034   3.951
 8629TIP3    H225821   5.291   7.012   4.095
 8630TIP3   OH225822   6.426   5.441   2.734
 8630TIP3    H125823   6.344   5.464   2.781
 8630TIP3    H225824   6.442   5.522   2.682
 8631TIP3   OH225825   5.166   6.185   3.083
 8631TIP3    H125826   5.100   6.229   3.025
 8631TIP3    H225827   5.131   6.096   3.087
 8632TIP3   OH225828   6.220   6.809   2.290
 8632TIP3    H125829   6.230   6.901   2.259
 8632TIP3    H225830   6.309   6.773   2.267
 8633TIP3   OH225831   4.947   6.568   3.988
 8633TIP3    H125832   4.881   6.547   3.919
 8633TIP3    H225833   4.987   6.481   4.009
 8634TIP3   OH225834   4.804   6.761   3.618
 8634TIP3    H125835   4.900   6.755   3.610
 8634TIP3    H225836   4.794   6.839   3.675
 8635TIP3   OH225837   6.671   7.217   3.681
 8635TIP3    H125838   6.666   7.120   3.693
 8635TIP3    H225839   6.586   7.244   3.724
 8636TIP3   OH225840   5.769   6.999   3.808
 8636TIP3    H125841   5.768   7.091   3.843
 8636TIP3    H225842   5.701   6.957   3.865
 8637TIP3   OH225843   5.536   7.122   2.763
 8637TIP3    H125844   5.492   7.101   2.678
 8637TIP3    H225845   5.501   7.210   2.785
 8638TIP3   OH225846   4.972   6.975   3.150
 8638TIP3    H125847   5.019   6.965   3.235
 8638TIP3    H225848   4.923   6.891   3.145
 8639TIP3   OH225849   5.735   7.027   2.400
 8639TIP3    H125850   5.793   6.958   2.361
 8639TIP3    H225851   5.773   7.035   2.490
 8640TIP3   OH225852   5.788   7.078   2.671
 8640TIP3    H125853   5.700   7.085   2.712
 8640TIP3    H225854   5.839   7.037   2.743
 8641TIP3   OH225855   6.560   6.330   3.959
 8641TIP3    H125856   6.480   6.371   3.923
 8641TIP3    H225857   6.552   6.239   3.927
 8642TIP3   OH225858   5.152   6.751   3.970
 8642TIP3    H125859   5.201   6.737   4.054
 8642TIP3    H225860   5.078   6.688   3.980
 8643TIP3   OH225861   5.553   5.573   3.763
 8643TIP3    H125862   5.465   5.544   3.731
 8643TIP3    H225863   5.526   5.655   3.810
 8644TIP3   OH225864   6.087   5.690   3.955
 8644TIP3    H125865   6.152   5.662   4.022
 8644TIP3    H225866   6.001   5.671   3.999
 8645TIP3   OH225867   6.321   6.123   3.883
 8645TIP3    H125868   6.269   6.123   3.966
 8645TIP3    H225869   6.298   6.209   3.843
 8646TIP3   OH225870   5.988   6.247   2.431
 8646TIP3    H125871   5.948   6.225   2.345
 8646TIP3    H225872   6.071   6.289   2.402
 8647TIP3   OH225873   5.695   5.621   2.732
 8647TIP3    H125874   5.659   5.616   2.822
 8647TIP3    H225875   5.657   5.539   2.695
 8648TIP3   OH225876   5.484   6.091   3.778
 8648TIP3    H125877   5.434   6.112   3.860
 8648TIP3    H225878   5.468   6.172   3.725
 8649TIP3   OH225879   5.369   5.976   3.293
 8649TIP3    H125880   5.276   5.952   3.310
 8649TIP3    H225881   5.381   5.936   3.203
 8650TIP3   OH225882   5.859   6.061   3.022
 8650TIP3    H125883   5.809   6.132   2.977
 8650TIP3    H225884   5.915   6.027   2.949
 8651TIP3   OH225885   6.036   6.334   4.098
 8651TIP3    H125886   6.011   6.268   4.167
 8651TIP3    H225887   6.128   6.354   4.125
 8652TIP3   OH225888   6.014   6.089   3.258
 8652TIP3    H125889   5.952   6.118   3.188
 8652TIP3    H225890   6.050   6.010   3.213
 8653TIP3   OH225891   5.304   6.118   3.986
 8653TIP3    H125892   5.333   6.183   4.053
 8653TIP3    H225893   5.294   6.037   4.039
 8654TIP3   OH225894   5.354   5.597   2.697
 8654TIP3    H125895   5.344   5.595   2.794
 8654TIP3    H225896   5.277   5.652   2.672
 8655TIP3   OH225897   4.901   5.635   3.568
 8655TIP3    H125898   4.970   5.673   3.625
 8655TIP3    H225899   4.949   5.612   3.487
 8656TIP3   OH225900   4.855   5.621   3.088
 8656TIP3    H125901   4.904   5.652   3.009
 8656TIP3    H225902   4.800   5.701   3.104
 8657TIP3   OH225903   6.026   6.333   3.678
 8657TIP3    H125904   6.059   6.261   3.619
 8657TIP3    H225905   5.992   6.280   3.753
 8658TIP3   OH225906   5.702   5.796   3.353
 8658TIP3    H125907   5.619   5.795   3.405
 8658TIP3    H225908   5.769   5.795   3.423
 8659TIP3   OH225909   5.130   5.855   3.361
 8659TIP3    H125910   5.036   5.861   3.331
 8659TIP3    H225911   5.155   5.764   3.336
 8660TIP3   OH225912   5.395   5.850   3.051
 8660TIP3    H125913   5.489   5.863   3.029
 8660TIP3    H225914   5.349   5.871   2.966
 8661TIP3   OH225915   6.191   5.872   3.563
 8661TIP3    H125916   6.150   5.887   3.650
 8661TIP3    H225917   6.126   5.813   3.522
 8662TIP3   OH225918   5.245   5.886   2.826
 8662TIP3    H125919   5.179   5.836   2.774
 8662TIP3    H225920   5.298   5.925   2.754
 8663TIP3   OH225921   6.355   7.560   3.776
 8663TIP3    H125922   6.359   7.584   3.682
 8663TIP3    H225923   6.438   7.603   3.809
 8664TIP3   OH225924   5.316   6.673   4.195
 8664TIP3    H125925   5.396   6.703   4.243
 8664TIP3    H225926   5.251   6.673   4.267
 8665TIP3   OH225927   5.778   6.127   3.449
 8665TIP3    H125928   5.851   6.091   3.398
 8665TIP3    H225929   5.786   6.081   3.534
 8666TIP3   OH225930   5.297   5.614   3.332
 8666TIP3    H125931   5.263   5.536   3.380
 8666TIP3    H225932   5.346   5.573   3.259
 8667TIP3   OH225933   5.753   6.024   3.743
 8667TIP3    H125934   5.662   6.060   3.753
 8667TIP3    H225935   5.808   6.090   3.789
 8668TIP3   OH225936   5.489   6.414   2.835
 8668TIP3    H125937   5.417   6.348   2.823
 8668TIP3    H225938   5.469   6.447   2.926
 8669TIP3   OH225939   6.392   6.649   3.461
 8669TIP3    H125940   6.417   6.701   3.381
 8669TIP3    H225941   6.307   6.608   3.433
 8670TIP3   OH225942   5.949   5.720   2.711
 8670TIP3    H125943   5.852   5.702   2.711
 8670TIP3    H225944   5.955   5.816   2.725
 8671TIP3   OH225945   5.886   6.730   3.834
 8671TIP3    H125946   5.924   6.717   3.922
 8671TIP3    H225947   5.852   6.821   3.839
 8672TIP3   OH225948   6.017   5.977   2.806
 8672TIP3    H125949   6.114   5.983   2.817
 8672TIP3    H225950   5.997   6.055   2.751
 8673TIP3   OH225951   5.184   6.437   3.510
 8673TIP3    H125952   5.221   6.409   3.424
 8673TIP3    H225953   5.231   6.379   3.571
 8674TIP3   OH225954   5.639   6.563   2.662
 8674TIP3    H125955   5.590   6.649   2.664
 8674TIP3    H225956   5.584   6.509   2.722
 8675TIP3   OH225957   5.068   6.356   4.125
 8675TIP3    H125958   5.086   6.343   4.220
 8675TIP3    H225959   4.998   6.290   4.110
 8676TIP3   OH225960   5.794   6.471   4.143
 8676TIP3    H125961   5.732   6.412   4.098
 8676TIP3    H225962   5.880   6.437   4.110
 8677TIP3   OH225963   6.047   6.989   3.730
 8677TIP3    H125964   5.951   6.992   3.745
 8677TIP3    H225965   6.079   7.042   3.807
 8678TIP3   OH225966   6.458   6.069   2.638
 8678TIP3    H125967   6.396   6.025   2.574
 8678TIP3    H225968   6.454   6.159   2.598
 8679TIP3   OH225969   6.678   6.919   3.720
 8679TIP3    H125970   6.581   6.918   3.709
 8679TIP3    H225971   6.706   6.893   3.629
 8680TIP3   OH225972   6.161   6.884   2.551
 8680TIP3    H125973   6.134   6.808   2.604
 8680TIP3    H225974   6.177   6.845   2.463
 8681TIP3   OH225975   6.156   6.513   3.381
 8681TIP3    H125976   6.062   6.490   3.393
 8681TIP3    H225977   6.189   6.433   3.335
 8682TIP3   OH225978   5.288   6.744   3.141
 8682TIP3    H125979   5.285   6.821   3.082
 8682TIP3    H225980   5.195   6.719   3.144
 8683TIP3   OH225981   4.855   6.043   2.845
 8683TIP3    H125982   4.897   6.129   2.864
 8683TIP3    H225983   4.776   6.048   2.904
 8684TIP3   OH225984   5.416   6.503   3.078
 8684TIP3    H125985   5.386   6.594   3.099
 8684TIP3    H225986   5.382   6.453   3.155
 8685TIP3   OH225987   5.557   7.083   3.608
 8685TIP3    H125988   5.607   7.146   3.552
 8685TIP3    H225989   5.629   7.041   3.657
 8686TIP3   OH225990   5.201   6.979   2.986
 8686TIP3    H125991   5.117   6.989   3.035
 8686TIP3    H225992   5.234   7.071   2.986
 8687TIP3   OH225993   5.939   6.718   3.565
 8687TIP3    H125994   5.929   6.715   3.663
 8687TIP3    H225995   6.020   6.666   3.552
 8688TIP3   OH225996   5.918   6.618   2.451
 8688TIP3    H125997   5.970   6.592   2.530
 8688TIP3    H225998   5.830   6.585   2.476
 8689TIP3   OH225999   6.190   7.250   3.613
 8689TIP3    H126000   6.109   7.196   3.606
 8689TIP3    H226001   6.176   7.315   3.542
 8690TIP3   OH226002   6.255   7.086   2.266
 8690TIP3    H126003   6.287   7.155   2.205
 8690TIP3    H226004   6.176   7.131   2.301
 8691TIP3   OH226005   5.274   5.861   4.130
 8691TIP3    H126006   5.178   5.863   4.143
 8691TIP3    H226007   5.303   5.805   4.204
 8692TIP3   OH226008   6.080   6.554   2.670
 8692TIP3    H126009   6.069   6.482   2.736
 8692TIP3    H226010   6.176   6.544   2.651
 8693TIP3   OH226011   4.994   6.944   3.762
 8693TIP3    H126012   5.049   6.873   3.798
 8693TIP3    H226013   5.015   7.016   3.824
 8694TIP3   OH226014   5.280   6.594   2.449
 8694TIP3    H126015   5.295   6.503   2.418
 8694TIP3    H226016   5.258   6.579   2.543
 8695TIP3   OH226017   5.225   6.596   2.724
 8695TIP3    H126018   5.305   6.570   2.771
 8695TIP3    H226019   5.230   6.694   2.728
 8696TIP3   OH226020   4.961   6.288   2.924
 8696TIP3    H126021   4.894   6.334   2.978
 8696TIP3    H226022   4.975   6.356   2.854
 8697TIP3   OH226023   6.110   5.931   3.823
 8697TIP3    H126024   6.195   5.963   3.856
 8697TIP3    H226025   6.097   5.848   3.873
 8698TIP3   OH226026   5.993   5.674   2.986
 8698TIP3    H126027   5.978   5.692   2.891
 8698TIP3    H226028   6.032   5.759   3.017
 8699TIP3   OH226029   5.496   6.791   2.670
 8699TIP3    H126030   5.408   6.820   2.704
 8699TIP3    H226031   5.508   6.854   2.597
 8700TIP3   OH226032   5.679   5.859   3.083
 8700TIP3    H126033   5.743   5.931   3.064
 8700TIP3    H226034   5.687   5.852   3.181
 8701TIP3   OH226035   5.948   6.173   3.884
 8701TIP3    H126036   5.976   6.224   3.962
 8701TIP3    H226037   6.000   6.091   3.890
 8702TIP3   OH226038   5.823   5.580   3.184
 8702TIP3    H126039   5.810   5.661   3.236
 8702TIP3    H226040   5.885   5.612   3.115
 8703TIP3   OH226041   5.241   6.869   2.735
 8703TIP3    H126042   5.210   6.939   2.673
 8703TIP3    H226043   5.224   6.911   2.822
 8704TIP3   OH226044   5.336   5.585   2.974
 8704TIP3    H126045   5.337   5.675   3.011
 8704TIP3    H226046   5.432   5.564   2.980
 8705TIP3   OH226047   6.579   6.053   3.884
 8705TIP3    H126048   6.483   6.064   3.865
 8705TIP3    H226049   6.615   6.048   3.793
 8706TIP3   OH226050   6.242   6.268   3.260
 8706TIP3    H126051   6.166   6.208   3.269
 8706TIP3    H226052   6.313   6.220   3.307
 8707TIP3   OH226053   4.957   6.494   2.727
 8707TIP3    H126054   5.030   6.558   2.736
 8707TIP3    H226055   4.998   6.435   2.660
 8708TIP3   OH226056   4.890   5.772   2.861
 8708TIP3    H126057   4.908   5.868   2.861
 8708TIP3    H226058   4.807   5.768   2.812
 8709TIP3   OH226059   6.213   7.228   3.206
 8709TIP3    H126060   6.171   7.278   3.132
 8709TIP3    H226061   6.308   7.249   3.187
 8710TIP3   OH226062   5.287   5.496   3.732
 8710TIP3    H126063   5.258   5.460   3.645
 8710TIP3    H226064   5.276   5.418   3.791
 8711TIP3   OH226065   4.825   6.713   3.111
 8711TIP3    H126066   4.759   6.743   3.175
 8711TIP3    H226067   4.791   6.756   3.028
 8712TIP3   OH226068   4.986   7.261   4.186
 8712TIP3    H126069   5.072   7.267   4.234
 8712TIP3    H226070   4.971   7.165   4.188
 8713TIP3   OH226071   5.460   7.219   4.229
 8713TIP3    H126072   5.555   7.206   4.240
 8713TIP3    H226073   5.439   7.152   4.160
 8714TIP3   OH226074   5.448   6.796   2.361
 8714TIP3    H126075   5.394   6.719   2.394
 8714TIP3    H226076   5.521   6.749   2.317
 8715TIP3   OH226077   6.104   7.125   3.963
 8715TIP3    H126078   6.097   7.057   4.034
 8715TIP3    H226079   6.182   7.176   3.992
 8716TIP3   OH226080   5.884   6.836   2.266
 8716TIP3    H126081   5.925   6.773   2.328
 8716TIP3    H226082   5.949   6.841   2.194
 8717TIP3   OH226083   5.114   6.661   4.386
 8717TIP3    H126084   5.128   6.565   4.393
 8717TIP3    H226085   5.027   6.664   4.341
 8718TIP3   OH226086   5.091   6.308   2.584
 8718TIP3    H126087   5.151   6.280   2.655
 8718TIP3    H226088   5.155   6.314   2.509
 8719TIP3   OH226089   5.721   6.748   4.161
 8719TIP3    H126090   5.681   6.769   4.074
 8719TIP3    H226091   5.752   6.656   4.149
 8720TIP3   OH226092   5.604   6.509   2.392
 8720TIP3    H126093   5.608   6.519   2.490
 8720TIP3    H226094   5.607   6.411   2.384
 8721TIP3   OH226095   6.212   6.760   3.770
 8721TIP3    H126096   6.290   6.799   3.725
 8721TIP3    H226097   6.145   6.829   3.752
 8722TIP3   OH226098   5.233   6.396   4.371
 8722TIP3    H126099   5.313   6.349   4.344
 8722TIP3    H226100   5.262   6.431   4.458
 8723TIP3   OH226101   5.296   6.217   2.800
 8723TIP3    H126102   5.273   6.172   2.882
 8723TIP3    H226103   5.337   6.144   2.747
 8724TIP3   OH226104   5.568   6.279   4.030
 8724TIP3    H126105   5.491   6.339   4.031
 8724TIP3    H226106   5.620   6.314   3.954
 8725TIP3   OH226107   5.402   6.013   2.642
 8725TIP3    H126108   5.378   6.020   2.547
 8725TIP3    H226109   5.500   6.012   2.635
 8726TIP3   OH226110   6.083   6.682   4.164
 8726TIP3    H126111   6.164   6.656   4.118
 8726TIP3    H226112   6.079   6.619   4.238
 8727TIP3   OH226113   6.223   6.332   2.308
 8727TIP3    H126114   6.202   6.290   2.223
 8727TIP3    H226115   6.188   6.423   2.288
 8728TIP3   OH226116   5.694   6.071   4.152
 8728TIP3    H126117   5.692   5.992   4.095
 8728TIP3    H226118   5.649   6.138   4.097
 8729TIP3   OH226119   5.695   5.855   3.965
 8729TIP3    H126120   5.722   5.899   3.882
 8729TIP3    H226121   5.601   5.833   3.946
 8730TIP3   OH226122   5.718   6.390   3.837
 8730TIP3    H126123   5.803   6.406   3.796
 8730TIP3    H226124   5.660   6.455   3.792
 8731TIP3   OH226125   6.293   6.364   4.210
 8731TIP3    H126126   6.341   6.297   4.265
 8731TIP3    H226127   6.364   6.422   4.180
 8732TIP3   OH226128   6.345   6.607   3.948
 8732TIP3    H126129   6.285   6.663   3.894
 8732TIP3    H226130   6.431   6.635   3.910
 8733TIP3   OH226131   5.571   6.175   4.389
 8733TIP3    H126132   5.503   6.106   4.404
 8733TIP3    H226133   5.603   6.151   4.299
 8734TIP3   OH226134   5.826   5.617   4.032
 8734TIP3    H126135   5.776   5.698   4.009
 8734TIP3    H226136   5.757   5.548   4.021
 8735TIP3   OH226137   5.951   6.118   4.244
 8735TIP3    H126138   5.935   6.104   4.339
 8735TIP3    H226139   5.861   6.097   4.211
 8736TIP3   OH226140   6.191   6.061   4.123
 8736TIP3    H126141   6.098   6.076   4.151
 8736TIP3    H226142   6.230   6.045   4.210
 8737TIP3   OH226143   5.408   5.957   4.443
 8737TIP3    H126144   5.412   5.864   4.411
 8737TIP3    H226145   5.446   5.947   4.533
 8738TIP3   OH226146   5.921   5.630   4.290
 8738TIP3    H126147   5.984   5.555   4.284
 8738TIP3    H226148   5.879   5.625   4.201
 8739TIP3   OH226149   5.991   5.846   4.446
 8739TIP3    H126150   5.967   5.774   4.384
 8739TIP3    H226151   5.911   5.903   4.443
 8740TIP3   OH226152   5.211   7.077   2.552
 8740TIP3    H126153   5.306   7.065   2.531
 8740TIP3    H226154   5.183   7.124   2.471
 8741TIP3   OH226155   4.688   6.453   2.765
 8741TIP3    H126156   4.782   6.474   2.748
 8741TIP3    H226157   4.681   6.364   2.724
 8742TIP3   OH226158   4.604   7.066   3.181
 8742TIP3    H126159   4.539   7.005   3.140
 8742TIP3    H226160   4.648   7.007   3.245
 8743TIP3   OH226161   4.737   6.913   3.367
 8743TIP3    H126162   4.726   6.842   3.432
 8743TIP3    H226163   4.790   6.976   3.420
 8744TIP3   OH226164   6.463   7.329   3.166
 8744TIP3    H126165   6.498   7.347   3.255
 8744TIP3    H226166   6.539   7.350   3.109
 8745TIP3   OH226167   6.491   7.338   3.449
 8745TIP3    H126168   6.452   7.248   3.448
 8745TIP3    H226169   6.576   7.319   3.492
 8746TIP3   OH226170   6.543   7.012   4.025
 8746TIP3    H126171   6.468   7.026   4.087
 8746TIP3    H226172   6.585   7.100   4.025
 8747TIP3   OH226173   6.355   6.525   2.640
 8747TIP3    H126174   6.421   6.590   2.607
 8747TIP3    H226175   6.403   6.488   2.718
 8748TIP3   OH226176   6.486   6.392   2.843
 8748TIP3    H126177   6.419   6.353   2.903
 8748TIP3    H226178   6.552   6.429   2.906
 8749TIP3   OH226179   6.541   6.787   3.274
 8749TIP3    H126180   6.593   6.720   3.225
 8749TIP3    H226181   6.540   6.862   3.211
 8750TIP3   OH226182   6.369   7.085   3.472
 8750TIP3    H126183   6.297   7.129   3.522
 8750TIP3    H226184   6.319   7.041   3.399
 8751TIP3   OH226185   6.423   6.302   2.490
 8751TIP3    H126186   6.353   6.301   2.421
 8751TIP3    H226187   6.392   6.378   2.543
 8752TIP3   OH226188   6.293   5.975   2.444
 8752TIP3    H126189   6.250   6.011   2.366
 8752TIP3    H226190   6.269   5.880   2.436
 8753TIP3   OH226191   6.297   6.253   2.989
 8753TIP3    H126192   6.304   6.157   2.979
 8753TIP3    H226193   6.283   6.263   3.086
 8754TIP3   OH226194   4.923   6.323   3.738
 8754TIP3    H126195   4.921   6.290   3.646
 8754TIP3    H226196   5.020   6.325   3.754
 8755TIP3   OH226197   6.589   6.676   3.846
 8755TIP3    H126198   6.662   6.612   3.832
 8755TIP3    H226199   6.613   6.749   3.785
 8756TIP3   OH226200   6.768   6.474   3.856
 8756TIP3    H126201   6.698   6.423   3.902
 8756TIP3    H226202   6.846   6.417   3.874
 8757TIP3   OH226203   6.235   5.710   2.431
 8757TIP3    H126204   6.307   5.674   2.486
 8757TIP3    H226205   6.161   5.649   2.446
 8758TIP3   OH226206   6.297   5.969   2.883
 8758TIP3    H126207   6.337   5.880   2.897
 8758TIP3    H226208   6.353   6.001   2.810
 8759TIP3   OH226209   6.457   6.138   3.383
 8759TIP3    H126210   6.542   6.163   3.340
 8759TIP3    H226211   6.471   6.179   3.470
 8760TIP3   OH226212   6.528   6.287   3.617
 8760TIP3    H126213   6.448   6.324   3.658
 8760TIP3    H226214   6.561   6.365   3.566
 8761TIP3   OH226215   5.142   6.008   4.409
 8761TIP3    H126216   5.239   6.004   4.414
 8761TIP3    H226217   5.119   5.922   4.448
 8762TIP3   OH226218   6.985   5.881   4.171
 8762TIP3    H126219   7.043   5.812   4.131
 8762TIP3    H226220   6.950   5.926   4.092
 8763TIP3   OH226221   6.404   5.719   2.923
 8763TIP3    H126222   6.451   5.700   3.006
 8763TIP3    H226223   6.342   5.642   2.920
 8764TIP3   OH226224   5.102   5.704   3.745
 8764TIP3    H126225   5.163   5.628   3.750
 8764TIP3    H226226   5.165   5.777   3.733
 8765TIP3   OH226227   4.903   5.975   3.812
 8765TIP3    H126228   4.954   5.973   3.729
 8765TIP3    H226229   4.931   6.059   3.851
 8766TIP3   OH226230   6.835   6.005   3.972
 8766TIP3    H126231   6.776   6.067   3.924
 8766TIP3    H226232   6.832   5.928   3.911
 8767TIP3   OH226233   6.484   5.647   2.559
 8767TIP3    H126234   6.520   5.579   2.498
 8767TIP3    H226235   6.549   5.719   2.551
 8768TIP3   OH226236   4.890   5.474   3.312
 8768TIP3    H126237   4.801   5.476   3.349
 8768TIP3    H226238   4.882   5.537   3.236
 8769TIP3   OH226239   6.051   7.187   2.823
 8769TIP3    H126240   6.097   7.172   2.738
 8769TIP3    H226241   6.112   7.246   2.869
 8770TIP3   OH226242   5.112   5.560   4.130
 8770TIP3    H126243   5.060   5.556   4.211
 8770TIP3    H226244   5.046   5.597   4.067
 8771TIP3   OH226245   5.150   6.987   4.203
 8771TIP3    H126246   5.056   6.963   4.191
 8771TIP3    H226247   5.162   6.974   4.298
 8772TIP3   OH226248   5.328   7.022   3.753
 8772TIP3    H126249   5.279   7.097   3.714
 8772TIP3    H226250   5.415   7.036   3.709
 8773TIP3   OH226251   5.769   7.268   3.888
 8773TIP3    H126252   5.810   7.263   3.977
 8773TIP3    H226253   5.838   7.319   3.840
 8774TIP3   OH226254   5.949   7.423   3.747
 8774TIP3    H126255   6.021   7.369   3.710
 8774TIP3    H226256   6.001   7.478   3.811
 8775TIP3   OH226257   6.736   5.776   3.854
 8775TIP3    H126258   6.656   5.757   3.802
 8775TIP3    H226259   6.780   5.687   3.851
 8776TIP3   OH226260   5.005   7.282   3.780
 8776TIP3    H126261   4.913   7.309   3.760
 8776TIP3    H226262   5.019   7.330   3.863
 8777TIP3   OH226263   5.238   7.260   3.641
 8777TIP3    H126264   5.152   7.268   3.689
 8777TIP3    H226265   5.211   7.282   3.550
 8778TIP3   OH226266   5.677   7.269   3.441
 8778TIP3    H126267   5.612   7.293   3.374
 8778TIP3    H226268   5.693   7.352   3.490
 8779TIP3   OH226269   5.944   7.219   3.491
 8779TIP3    H126270   5.851   7.232   3.463
 8779TIP3    H226271   5.991   7.289   3.443
 8780TIP3   OH226272   6.133   7.411   3.396
 8780TIP3    H126273   6.126   7.496   3.347
 8780TIP3    H226274   6.168   7.352   3.326
 8781TIP3   OH226275   4.916   7.071   3.523
 8781TIP3    H126276   4.941   7.042   3.613
 8781TIP3    H226277   4.987   7.025   3.472
 8782TIP3   OH226278   5.111   6.943   3.383
 8782TIP3    H126279   5.125   6.858   3.431
 8782TIP3    H226280   5.202   6.976   3.378
 8783TIP3   OH226281   5.378   7.037   3.389
 8783TIP3    H126282   5.407   6.946   3.370
 8783TIP3    H226283   5.428   7.054   3.471
 8784TIP3   OH226284   5.956   5.695   3.479
 8784TIP3    H126285   5.910   5.622   3.523
 8784TIP3    H226286   6.024   5.648   3.427
 8785TIP3   OH226287   6.471   5.581   3.384
 8785TIP3    H126288   6.509   5.626   3.305
 8785TIP3    H226289   6.376   5.591   3.369
 8786TIP3   OH226290   6.567   5.668   3.143
 8786TIP3    H126291   6.640   5.617   3.101
 8786TIP3    H226292   6.600   5.760   3.127
 8787TIP3   OH226293   5.198   5.400   3.486
 8787TIP3    H126294   5.106   5.367   3.491
 8787TIP3    H226295   5.247   5.315   3.481
 8788TIP3   OH226296   4.950   5.280   3.120
 8788TIP3    H126297   5.011   5.321   3.056
 8788TIP3    H226298   4.952   5.344   3.194
 8789TIP3   OH226299   5.643   5.439   3.371
 8789TIP3    H126300   5.699   5.481   3.303
 8789TIP3    H226301   5.677   5.479   3.452
 8790TIP3   OH226302   6.189   5.581   3.348
 8790TIP3    H126303   6.188   5.543   3.259
 8790TIP3    H226304   6.176   5.502   3.404
 8791TIP3   OH226305   6.221   5.506   2.914
 8791TIP3    H126306   6.133   5.548   2.926
 8791TIP3    H226307   6.206   5.419   2.957
 8792TIP3   OH226308   4.702   6.848   2.912
 8792TIP3    H126309   4.617   6.813   2.880
 8792TIP3    H226310   4.693   6.941   2.884
 8793TIP3   OH226311   5.104   5.431   2.906
 8793TIP3    H126312   5.145   5.366   2.845
 8793TIP3    H226313   5.183   5.482   2.934
 8794TIP3   OH226314   5.612   5.608   2.996
 8794TIP3    H126315   5.673   5.558   3.053
 8794TIP3    H226316   5.638   5.700   3.021
 8795TIP3   OH226317   5.477   7.031   2.495
 8795TIP3    H126318   5.565   7.051   2.459
 8795TIP3    H226319   5.454   6.956   2.436
 8796TIP3   OH226320   6.195   7.151   2.592
 8796TIP3    H126321   6.188   7.053   2.583
 8796TIP3    H226322   6.151   7.180   2.509
 8797TIP3   OH226323   5.407   5.682   4.377
 8797TIP3    H126324   5.370   5.611   4.433
 8797TIP3    H226325   5.501   5.681   4.406
 8798TIP3   OH226326   5.657   5.679   4.496
 8798TIP3    H126327   5.743   5.652   4.459
 8798TIP3    H226328   5.643   5.610   4.565
 8799TIP3   OH226329   4.782   6.867   2.549
 8799TIP3    H126330   4.787   6.884   2.644
 8799TIP3    H226331   4.868   6.822   2.531
 8800TIP3   OH226332   6.419   7.293   3.775
 8800TIP3    H126333   6.341   7.265   3.724
 8800TIP3    H226334   6.402   7.389   3.782
 8801TIP3   OH226335   7.690   6.662   2.541
 8801TIP3    H126336   7.657   6.738   2.591
 8801TIP3    H226337   7.610   6.621   2.504
 8802TIP3   OH226338   7.678   6.656   2.924
 8802TIP3    H126339   7.718   6.643   3.013
 8802TIP3    H226340   7.636   6.569   2.909
 8803TIP3   OH226341   6.984   6.561   3.293
 8803TIP3    H126342   7.018   6.492   3.353
 8803TIP3    H226343   7.061   6.618   3.283
 8804TIP3   OH226344   7.906   6.942   2.623
 8804TIP3    H126345   7.912   6.887   2.703
 8804TIP3    H226346   7.911   7.031   2.658
 8805TIP3   OH226347   6.927   6.957   3.007
 8805TIP3    H126348   6.941   6.860   3.006
 8805TIP3    H226349   7.019   6.988   3.014
 8806TIP3   OH226350   6.664   6.169   2.794
 8806TIP3    H126351   6.618   6.253   2.812
 8806TIP3    H226352   6.593   6.120   2.748
 8807TIP3   OH226353   6.719   6.460   2.975
 8807TIP3    H126354   6.771   6.382   3.006
 8807TIP3    H226355   6.783   6.505   2.917
 8808TIP3   OH226356   7.596   7.416   2.631
 8808TIP3    H126357   7.637   7.328   2.640
 8808TIP3    H226358   7.556   7.426   2.719
 8809TIP3   OH226359   7.492   6.885   2.971
 8809TIP3    H126360   7.539   6.807   2.935
 8809TIP3    H226361   7.570   6.939   2.996
 8810TIP3   OH226362   8.484   6.213   2.976
 8810TIP3    H126363   8.503   6.293   3.026
 8810TIP3    H226364   8.496   6.240   2.884
 8811TIP3   OH226365   7.900   6.395   2.998
 8811TIP3    H126366   7.938   6.308   3.023
 8811TIP3    H226367   7.865   6.375   2.910
 8812TIP3   OH226368   7.240   6.052   2.966
 8812TIP3    H126369   7.218   6.125   2.904
 8812TIP3    H226370   7.191   5.978   2.923
 8813TIP3   OH226371   7.935   6.145   2.594
 8813TIP3    H126372   8.008   6.125   2.656
 8813TIP3    H226373   7.986   6.179   2.517
 8814TIP3   OH226374   6.867   6.252   3.076
 8814TIP3    H126375   6.951   6.236   3.123
 8814TIP3    H226376   6.882   6.198   2.996
 8815TIP3   OH226377   7.309   6.451   2.869
 8815TIP3    H126378   7.403   6.426   2.882
 8815TIP3    H226379   7.270   6.366   2.837
 8816TIP3   OH226380   7.232   6.036   3.402
 8816TIP3    H126381   7.174   6.074   3.333
 8816TIP3    H226382   7.180   6.056   3.482
 8817TIP3   OH226383   7.340   6.810   3.195
 8817TIP3    H126384   7.281   6.879   3.233
 8817TIP3    H226385   7.377   6.858   3.118
 8818TIP3   OH226386   8.146   6.145   2.769
 8818TIP3    H126387   8.113   6.103   2.850
 8818TIP3    H226388   8.186   6.227   2.803
 8819TIP3   OH226389   7.105   6.150   3.186
 8819TIP3    H126390   7.165   6.224   3.209
 8819TIP3    H226391   7.154   6.111   3.110
 8820TIP3   OH226392   7.171   7.006   3.290
 8820TIP3    H126393   7.146   7.080   3.230
 8820TIP3    H226394   7.089   7.003   3.345
 8821TIP3   OH226395   6.556   6.694   2.531
 8821TIP3    H126396   6.517   6.717   2.444
 8821TIP3    H226397   6.588   6.781   2.563
 8822TIP3   OH226398   8.290   6.102   3.139
 8822TIP3    H126399   8.204   6.138   3.112
 8822TIP3    H226400   8.350   6.136   3.069
 8823TIP3   OH226401   7.584   5.753   3.117
 8823TIP3    H126402   7.570   5.658   3.135
 8823TIP3    H226403   7.508   5.792   3.165
 8824TIP3   OH226404   7.519   6.520   2.375
 8824TIP3    H126405   7.436   6.566   2.352
 8824TIP3    H226406   7.561   6.508   2.288
 8825TIP3   OH226407   7.476   6.303   2.084
 8825TIP3    H126408   7.544   6.357   2.129
 8825TIP3    H226409   7.534   6.239   2.038
 8826TIP3   OH226410   8.444   6.734   2.993
 8826TIP3    H126411   8.352   6.766   2.983
 8826TIP3    H226412   8.490   6.788   2.929
 8827TIP3   OH226413   7.863   6.580   2.349
 8827TIP3    H126414   7.812   6.607   2.429
 8827TIP3    H226415   7.951   6.562   2.389
 8828TIP3   OH226416   8.098   6.635   3.265
 8828TIP3    H126417   8.096   6.717   3.317
 8828TIP3    H226418   8.011   6.640   3.220
 8829TIP3   OH226419   7.103   6.599   2.756
 8829TIP3    H126420   7.059   6.539   2.692
 8829TIP3    H226421   7.176   6.543   2.790
 8830TIP3   OH226422   7.205   6.951   2.912
 8830TIP3    H126423   7.221   6.931   2.819
 8830TIP3    H226424   7.293   6.977   2.942
 8831TIP3   OH226425   7.232   6.571   3.115
 8831TIP3    H126426   7.266   6.549   3.026
 8831TIP3    H226427   7.274   6.657   3.134
 8832TIP3   OH226428   7.736   7.182   2.855
 8832TIP3    H126429   7.755   7.266   2.902
 8832TIP3    H226430   7.732   7.119   2.929
 8833TIP3   OH226431   7.368   7.116   3.448
 8833TIP3    H126432   7.306   7.183   3.486
 8833TIP3    H226433   7.306   7.069   3.389
 8834TIP3   OH226434   7.697   6.459   2.167
 8834TIP3    H126435   7.761   6.509   2.223
 8834TIP3    H226436   7.729   6.484   2.077
 8835TIP3   OH226437   7.130   6.675   3.550
 8835TIP3    H126438   7.135   6.767   3.584
 8835TIP3    H226439   7.034   6.660   3.556
 8836TIP3   OH226440   7.165   7.292   3.521
 8836TIP3    H126441   7.124   7.304   3.433
 8836TIP3    H226442   7.087   7.267   3.576
 8837TIP3   OH226443   8.212   5.702   2.212
 8837TIP3    H126444   8.135   5.708   2.271
 8837TIP3    H226445   8.235   5.795   2.200
 8838TIP3   OH226446   6.966   6.440   2.561
 8838TIP3    H126447   6.895   6.485   2.510
 8838TIP3    H226448   6.926   6.354   2.576
 8839TIP3   OH226449   6.742   6.826   3.476
 8839TIP3    H126450   6.680   6.807   3.403
 8839TIP3    H226451   6.784   6.739   3.493
 8840TIP3   OH226452   6.607   7.017   3.108
 8840TIP3    H126453   6.700   6.999   3.087
 8840TIP3    H226454   6.617   7.090   3.171
 8841TIP3   OH226455   7.577   7.243   3.314
 8841TIP3    H126456   7.567   7.340   3.323
 8841TIP3    H226457   7.492   7.212   3.353
 8842TIP3   OH226458   7.289   7.400   2.252
 8842TIP3    H126459   7.277   7.362   2.164
 8842TIP3    H226460   7.370   7.454   2.244
 8843TIP3   OH226461   6.775   7.234   2.643
 8843TIP3    H126462   6.828   7.224   2.725
 8843TIP3    H226463   6.727   7.149   2.641
 8844TIP3   OH226464   8.365   6.611   3.445
 8844TIP3    H126465   8.294   6.625   3.381
 8844TIP3    H226466   8.396   6.521   3.420
 8845TIP3   OH226467   6.954   7.006   3.458
 8845TIP3    H126468   6.999   6.991   3.543
 8845TIP3    H226469   6.874   6.951   3.466
 8846TIP3   OH226470   7.348   5.829   3.249
 8846TIP3    H126471   7.260   5.800   3.218
 8846TIP3    H226472   7.322   5.911   3.296
 8847TIP3   OH226473   7.886   5.944   3.442
 8847TIP3    H126474   7.956   5.917   3.505
 8847TIP3    H226475   7.803   5.926   3.492
 8848TIP3   OH226476   8.114   6.369   3.356
 8848TIP3    H126477   8.069   6.369   3.443
 8848TIP3    H226478   8.102   6.462   3.326
 8849TIP3   OH226479   7.784   6.524   1.918
 8849TIP3    H126480   7.739   6.489   1.839
 8849TIP3    H226481   7.872   6.544   1.885
 8850TIP3   OH226482   7.493   5.878   2.219
 8850TIP3    H126483   7.457   5.873   2.310
 8850TIP3    H226484   7.453   5.797   2.182
 8851TIP3   OH226485   7.280   6.348   3.264
 8851TIP3    H126486   7.231   6.371   3.346
 8851TIP3    H226487   7.265   6.430   3.210
 8852TIP3   OH226488   7.164   6.232   2.779
 8852TIP3    H126489   7.071   6.207   2.798
 8852TIP3    H226490   7.175   6.192   2.691
 8853TIP3   OH226491   7.657   6.319   2.510
 8853TIP3    H126492   7.607   6.390   2.466
 8853TIP3    H226493   7.711   6.284   2.436
 8854TIP3   OH226494   7.830   6.594   3.590
 8854TIP3    H126495   7.810   6.521   3.653
 8854TIP3    H226496   7.924   6.610   3.611
 8855TIP3   OH226497   7.812   6.345   2.743
 8855TIP3    H126498   7.747   6.370   2.673
 8855TIP3    H226499   7.849   6.266   2.699
 8856TIP3   OH226500   7.101   6.376   3.475
 8856TIP3    H126501   7.134   6.443   3.536
 8856TIP3    H226502   7.098   6.296   3.531
 8857TIP3   OH226503   7.152   5.855   2.183
 8857TIP3    H126504   7.139   5.853   2.280
 8857TIP3    H226505   7.073   5.906   2.156
 8858TIP3   OH226506   6.692   5.892   3.062
 8858TIP3    H126507   6.769   5.927   3.109
 8858TIP3    H226508   6.727   5.868   2.974
 8859TIP3   OH226509   6.660   5.878   2.575
 8859TIP3    H126510   6.704   5.913   2.495
 8859TIP3    H226511   6.598   5.951   2.592
 8860TIP3   OH226512   7.821   6.592   3.165
 8860TIP3    H126513   7.857   6.521   3.106
 8860TIP3    H226514   7.791   6.538   3.241
 8861TIP3   OH226515   7.497   6.055   2.840
 8861TIP3    H126516   7.414   6.053   2.892
 8861TIP3    H226517   7.565   6.048   2.909
 8862TIP3   OH226518   6.925   6.111   2.848
 8862TIP3    H126519   6.831   6.120   2.819
 8862TIP3    H226520   6.947   6.020   2.823
 8863TIP3   OH226521   7.191   6.106   2.539
 8863TIP3    H126522   7.284   6.120   2.514
 8863TIP3    H226523   7.142   6.127   2.456
 8864TIP3   OH226524   7.980   6.131   3.035
 8864TIP3    H126525   7.955   6.143   3.130
 8864TIP3    H226526   7.910   6.069   3.007
 8865TIP3   OH226527   7.042   6.142   2.315
 8865TIP3    H126528   6.970   6.096   2.269
 8865TIP3    H226529   7.092   6.177   2.239
 8866TIP3   OH226530   7.112   6.924   3.683
 8866TIP3    H126531   7.192   6.959   3.728
 8866TIP3    H226532   7.047   6.934   3.755
 8867TIP3   OH226533   7.574   6.386   2.939
 8867TIP3    H126534   7.645   6.341   2.891
 8867TIP3    H226535   7.577   6.342   3.026
 8868TIP3   OH226536   7.096   5.870   2.820
 8868TIP3    H126537   7.058   5.793   2.868
 8868TIP3    H226538   7.137   5.827   2.744
 8869TIP3   OH226539   7.551   6.285   3.225
 8869TIP3    H126540   7.461   6.321   3.241
 8869TIP3    H226541   7.608   6.346   3.276
 8870TIP3   OH226542   7.292   6.671   2.320
 8870TIP3    H126543   7.220   6.605   2.306
 8870TIP3    H226544   7.271   6.703   2.411
 8871TIP3   OH226545   8.192   6.810   2.928
 8871TIP3    H126546   8.183   6.908   2.923
 8871TIP3    H226547   8.098   6.783   2.924
 8872TIP3   OH226548   7.745   5.977   2.194
 8872TIP3    H126549   7.648   5.958   2.199
 8872TIP3    H226550   7.750   6.073   2.213
 8873TIP3   OH226551   7.688   6.984   3.323
 8873TIP3    H126552   7.706   6.968   3.416
 8873TIP3    H226553   7.646   7.072   3.326
 8874TIP3   OH226554   7.811   6.232   2.293
 8874TIP3    H126555   7.907   6.236   2.306
 8874TIP3    H226556   7.795   6.307   2.233
 8875TIP3   OH226557   6.975   6.678   2.994
 8875TIP3    H126558   7.020   6.664   2.909
 8875TIP3    H226559   7.034   6.632   3.056
 8876TIP3   OH226560   7.437   6.835   2.161
 8876TIP3    H126561   7.364   6.899   2.151
 8876TIP3    H226562   7.394   6.768   2.218
 8877TIP3   OH226563   6.864   6.612   3.612
 8877TIP3    H126564   6.885   6.600   3.707
 8877TIP3    H226565   6.792   6.549   3.598
 8878TIP3   OH226566   7.590   6.728   3.630
 8878TIP3    H126567   7.530   6.670   3.580
 8878TIP3    H226568   7.677   6.692   3.603
 8879TIP3   OH226569   7.840   7.226   3.238
 8879TIP3    H126570   7.742   7.228   3.231
 8879TIP3    H226571   7.851   7.277   3.321
 8880TIP3   OH226572   7.928   6.761   2.856
 8880TIP3    H126573   7.835   6.737   2.872
 8880TIP3    H226574   7.960   6.680   2.810
 8881TIP3   OH226575   7.077   6.988   2.592
 8881TIP3    H126576   7.063   7.077   2.553
 8881TIP3    H226577   7.001   6.981   2.652
 8882TIP3   OH226578   6.649   6.300   2.331
 8882TIP3    H126579   6.689   6.386   2.350
 8882TIP3    H226580   6.569   6.303   2.389
 8883TIP3   OH226581   7.226   6.761   2.564
 8883TIP3    H126582   7.178   6.846   2.575
 8883TIP3    H226583   7.190   6.709   2.638
 8884TIP3   OH226584   6.997   7.235   2.471
 8884TIP3    H126585   6.914   7.247   2.522
 8884TIP3    H226586   7.032   7.327   2.475
 8885TIP3   OH226587   7.739   6.968   3.053
 8885TIP3    H126588   7.722   6.970   3.150
 8885TIP3    H226589   7.819   6.914   3.050
 8886TIP3   OH226590   7.639   6.884   1.935
 8886TIP3    H126591   7.705   6.819   1.962
 8886TIP3    H226592   7.557   6.831   1.937
 8887TIP3   OH226593   7.075   6.116   3.621
 8887TIP3    H126594   6.979   6.104   3.633
 8887TIP3    H226595   7.111   6.060   3.692
 8888TIP3   OH226596   7.883   6.775   2.158
 8888TIP3    H126597   7.842   6.721   2.228
 8888TIP3    H226598   7.972   6.735   2.159
 8889TIP3   OH226599   6.768   7.202   3.259
 8889TIP3    H126600   6.849   7.146   3.257
 8889TIP3    H226601   6.810   7.286   3.282
 8890TIP3   OH226602   7.084   6.841   1.932
 8890TIP3    H126603   7.085   6.747   1.906
 8890TIP3    H226604   7.058   6.835   2.027
 8891TIP3   OH226605   7.032   6.855   2.201
 8891TIP3    H126606   7.076   6.825   2.281
 8891TIP3    H226607   7.033   6.953   2.212
 8892TIP3   OH226608   6.758   6.547   2.411
 8892TIP3    H126609   6.689   6.589   2.468
 8892TIP3    H226610   6.766   6.616   2.342
 8893TIP3   OH226611   7.915   6.177   3.295
 8893TIP3    H126612   7.991   6.224   3.334
 8893TIP3    H226613   7.904   6.100   3.355
 8894TIP3   OH226614   7.790   5.930   2.472
 8894TIP3    H126615   7.777   5.950   2.377
 8894TIP3    H226616   7.829   6.014   2.505
 8895TIP3   OH226617   7.324   7.079   2.177
 8895TIP3    H126618   7.239   7.084   2.227
 8895TIP3    H226619   7.301   7.146   2.109
 8896TIP3   OH226620   7.477   6.116   2.570
 8896TIP3    H126621   7.541   6.188   2.554
 8896TIP3    H226622   7.482   6.106   2.668
 8897TIP3   OH226623   7.750   6.431   3.374
 8897TIP3    H126624   7.773   6.486   3.452
 8897TIP3    H226625   7.804   6.352   3.389
 8898TIP3   OH226626   7.619   5.835   2.670
 8898TIP3    H126627   7.611   5.914   2.727
 8898TIP3    H226628   7.681   5.868   2.602
 8899TIP3   OH226629   7.051   7.124   2.227
 8899TIP3    H126630   7.012   7.191   2.166
 8899TIP3    H226631   7.031   7.166   2.313
 8900TIP3   OH226632   7.134   5.840   2.460
 8900TIP3    H126633   7.132   5.931   2.498
 8900TIP3    H226634   7.230   5.823   2.467
 8901TIP3   OH226635   8.387   6.355   3.338
 8901TIP3    H126636   8.290   6.350   3.349
 8901TIP3    H226637   8.403   6.278   3.282
 8902TIP3   OH226638   8.035   6.523   2.744
 8902TIP3    H126639   7.956   6.467   2.754
 8902TIP3    H226640   8.101   6.475   2.797
 8903TIP3   OH226641   6.754   6.750   2.215
 8903TIP3    H126642   6.816   6.824   2.218
 8903TIP3    H226643   6.798   6.694   2.147
 8904TIP3   OH226644   6.693   6.029   2.350
 8904TIP3    H126645   6.693   6.127   2.348
 8904TIP3    H226646   6.616   6.009   2.296
 8905TIP3   OH226647   7.082   5.750   3.220
 8905TIP3    H126648   7.053   5.717   3.132
 8905TIP3    H226649   7.072   5.671   3.276
 8906TIP3   OH226650   6.621   6.971   2.597
 8906TIP3    H126651   6.556   7.000   2.663
 8906TIP3    H226652   6.586   7.015   2.515
 8907TIP3   OH226653   6.783   7.522   3.670
 8907TIP3    H126654   6.867   7.526   3.721
 8907TIP3    H226655   6.764   7.427   3.673
 8908TIP3   OH226656   7.256   7.469   3.721
 8908TIP3    H126657   7.353   7.457   3.723
 8908TIP3    H226658   7.232   7.410   3.647
 8909TIP3   OH226659   7.243   7.044   1.845
 8909TIP3    H126660   7.186   6.970   1.877
 8909TIP3    H226661   7.313   6.994   1.798
 8910TIP3   OH226662   7.898   7.371   3.459
 8910TIP3    H126663   7.892   7.306   3.533
 8910TIP3    H226664   7.975   7.424   3.484
 8911TIP3   OH226665   6.909   6.916   3.874
 8911TIP3    H126666   6.922   6.820   3.878
 8911TIP3    H226667   6.822   6.923   3.828
 8912TIP3   OH226668   6.891   6.569   2.067
 8912TIP3    H126669   6.944   6.534   2.140
 8912TIP3    H226670   6.958   6.571   1.996
 8913TIP3   OH226671   7.517   7.006   3.649
 8913TIP3    H126672   7.473   7.031   3.565
 8913TIP3    H226673   7.544   6.913   3.633
 8914TIP3   OH226674   7.397   6.757   1.885
 8914TIP3    H126675   7.363   6.758   1.976
 8914TIP3    H226676   7.402   6.660   1.869
 8915TIP3   OH226677   8.007   7.008   3.247
 8915TIP3    H126678   8.058   7.082   3.215
 8915TIP3    H226679   7.919   7.052   3.252
 8916TIP3   OH226680   7.030   6.641   3.861
 8916TIP3    H126681   7.116   6.617   3.823
 8916TIP3    H226682   7.057   6.683   3.946
 8917TIP3   OH226683   7.101   6.475   2.290
 8917TIP3    H126684   7.066   6.436   2.372
 8917TIP3    H226685   7.133   6.397   2.242
 8918TIP3   OH226686   7.362   6.532   3.514
 8918TIP3    H126687   7.287   6.594   3.517
 8918TIP3    H226688   7.416   6.569   3.440
 8919TIP3   OH226689   7.197   6.269   2.128
 8919TIP3    H126690   7.172   6.275   2.033
 8919TIP3    H226691   7.294   6.267   2.120
 8920TIP3   OH226692   7.886   6.936   3.650
 8920TIP3    H126693   7.959   6.902   3.597
 8920TIP3    H226694   7.880   6.871   3.722
 8921TIP3   OH226695   7.486   6.326   3.642
 8921TIP3    H126696   7.490   6.248   3.583
 8921TIP3    H226697   7.443   6.394   3.585
 8922TIP3   OH226698   7.491   6.114   3.451
 8922TIP3    H126699   7.520   6.155   3.367
 8922TIP3    H226700   7.398   6.091   3.430
 8923TIP3   OH226701   7.513   6.647   3.326
 8923TIP3    H126702   7.599   6.665   3.285
 8923TIP3    H226703   7.455   6.711   3.280
 8924TIP3   OH226704   8.099   6.612   3.703
 8924TIP3    H126705   8.148   6.529   3.715
 8924TIP3    H226706   8.168   6.669   3.666
 8925TIP3   OH226707   8.111   6.869   3.456
 8925TIP3    H126708   8.060   6.920   3.389
 8925TIP3    H226709   8.200   6.877   3.414
 8926TIP3   OH226710   7.365   6.434   3.876
 8926TIP3    H126711   7.297   6.364   3.891
 8926TIP3    H226712   7.399   6.409   3.788
 8927TIP3   OH226713   7.622   5.874   3.520
 8927TIP3    H126714   7.572   5.955   3.497
 8927TIP3    H226715   7.554   5.805   3.509
 8928TIP3   OH226716   7.749   6.377   3.735
 8928TIP3    H126717   7.737   6.363   3.831
 8928TIP3    H226718   7.658   6.353   3.704
 8929TIP3   OH226719   7.986   6.327   3.590
 8929TIP3    H126720   7.913   6.329   3.655
 8929TIP3    H226721   8.062   6.298   3.645
 8930TIP3   OH226722   8.216   6.271   3.737
 8930TIP3    H126723   8.229   6.175   3.753
 8930TIP3    H226724   8.215   6.307   3.828
 8931TIP3   OH226725   7.200   6.215   3.931
 8931TIP3    H126726   7.212   6.124   3.898
 8931TIP3    H226727   7.241   6.207   4.020
 8932TIP3   OH226728   7.713   5.884   3.779
 8932TIP3    H126729   7.782   5.813   3.773
 8932TIP3    H226730   7.676   5.879   3.689
 8933TIP3   OH226731   7.782   6.099   3.936
 8933TIP3    H126732   7.762   6.028   3.872
 8933TIP3    H226733   7.703   6.157   3.929
 8934TIP3   OH226734   6.995   7.329   2.044
 8934TIP3    H126735   7.091   7.314   2.030
 8934TIP3    H226736   6.975   7.377   1.961
 8935TIP3   OH226737   6.485   6.704   2.257
 8935TIP3    H126738   6.578   6.726   2.237
 8935TIP3    H226739   6.474   6.619   2.210
 8936TIP3   OH226740   6.399   7.325   2.669
 8936TIP3    H126741   6.335   7.262   2.629
 8936TIP3    H226742   6.444   7.266   2.733
 8937TIP3   OH226743   6.534   7.171   2.855
 8937TIP3    H126744   6.524   7.100   2.921
 8937TIP3    H226745   6.593   7.231   2.904
 8938TIP3   OH226746   8.053   6.246   1.939
 8938TIP3    H126747   8.043   6.260   1.844
 8938TIP3    H226748   8.045   6.148   1.944
 8939TIP3   OH226749   8.094   6.503   2.475
 8939TIP3    H126750   8.098   6.406   2.466
 8939TIP3    H226751   8.080   6.515   2.571
 8940TIP3   OH226752   6.719   6.575   3.228
 8940TIP3    H126753   6.717   6.546   3.135
 8940TIP3    H226754   6.817   6.581   3.242
 8941TIP3   OH226755   8.340   6.908   3.317
 8941TIP3    H126756   8.428   6.873   3.339
 8941TIP3    H226757   8.362   6.967   3.242
 8942TIP3   OH226758   8.024   5.971   1.942
 8942TIP3    H126759   8.084   5.904   1.974
 8942TIP3    H226760   7.943   5.920   1.922
 8943TIP3   OH226761   8.088   6.225   2.376
 8943TIP3    H126762   8.123   6.134   2.392
 8943TIP3    H226763   8.138   6.249   2.297
 8944TIP3   OH226764   8.254   6.389   2.855
 8944TIP3    H126765   8.322   6.447   2.819
 8944TIP3    H226766   8.254   6.421   2.949
 8945TIP3   OH226767   8.293   6.522   3.084
 8945TIP3    H126768   8.228   6.564   3.144
 8945TIP3    H226769   8.359   6.593   3.074
 8946TIP3   OH226770   6.935   6.258   3.888
 8946TIP3    H126771   7.033   6.267   3.889
 8946TIP3    H226772   6.927   6.178   3.942
 8947TIP3   OH226773   8.179   5.975   2.423
 8947TIP3    H126774   8.241   5.947   2.493
 8947TIP3    H226775   8.122   5.895   2.417
 8948TIP3   OH226776   6.900   5.960   3.237
 8948TIP3    H126777   6.961   5.884   3.239
 8948TIP3    H226778   6.962   6.034   3.222
 8949TIP3   OH226779   6.704   6.232   3.306
 8949TIP3    H126780   6.751   6.225   3.220
 8949TIP3    H226781   6.724   6.323   3.331
 8950TIP3   OH226782   6.687   5.741   2.806
 8950TIP3    H126783   6.593   5.731   2.828
 8950TIP3    H226784   6.682   5.797   2.725
 8951TIP3   OH226785   6.907   5.819   3.620
 8951TIP3    H126786   6.848   5.812   3.697
 8951TIP3    H226787   6.844   5.851   3.553
 8952TIP3   OH226788   6.950   7.241   3.692
 8952TIP3    H126789   6.856   7.222   3.673
 8952TIP3    H226790   6.952   7.237   3.788
 8953TIP3   OH226791   7.579   7.534   3.373
 8953TIP3    H126792   7.617   7.528   3.463
 8953TIP3    H226793   7.645   7.593   3.330
 8954TIP3   OH226794   8.526   6.014   3.352
 8954TIP3    H126795   8.449   6.027   3.294
 8954TIP3    H226796   8.579   5.950   3.302
 8955TIP3   OH226797   6.782   7.508   3.281
 8955TIP3    H126798   6.699   7.554   3.256
 8955TIP3    H226799   6.812   7.564   3.354
 8956TIP3   OH226800   7.006   7.572   3.114
 8956TIP3    H126801   6.941   7.538   3.178
 8956TIP3    H226802   7.029   7.487   3.070
 8957TIP3   OH226803   7.486   7.524   2.882
 8957TIP3    H126804   7.406   7.569   2.855
 8957TIP3    H226805   7.503   7.565   2.969
 8958TIP3   OH226806   6.716   7.322   3.008
 8958TIP3    H126807   6.742   7.304   3.100
 8958TIP3    H226808   6.793   7.281   2.963
 8959TIP3   OH226809   6.919   7.191   2.871
 8959TIP3    H126810   6.910   7.102   2.910
 8959TIP3    H226811   6.987   7.225   2.934
 8960TIP3   OH226812   7.748   5.948   2.959
 8960TIP3    H126813   7.704   5.878   3.010
 8960TIP3    H226814   7.821   5.900   2.915
 8961TIP3   OH226815   8.275   5.831   2.859
 8961TIP3    H126816   8.305   5.882   2.782
 8961TIP3    H226817   8.178   5.845   2.856
 8962TIP3   OH226818   8.377   5.921   2.615
 8962TIP3    H126819   8.446   5.860   2.586
 8962TIP3    H226820   8.420   6.007   2.610
 8963TIP3   OH226821   6.995   5.657   2.973
 8963TIP3    H126822   6.902   5.627   2.974
 8963TIP3    H226823   7.041   5.571   2.967
 8964TIP3   OH226824   6.791   5.529   2.625
 8964TIP3    H126825   6.816   5.584   2.548
 8964TIP3    H226826   6.760   5.596   2.688
 8965TIP3   OH226827   7.443   5.688   2.855
 8965TIP3    H126828   7.498   5.735   2.791
 8965TIP3    H226829   7.470   5.729   2.939
 8966TIP3   OH226830   7.990   5.837   2.835
 8966TIP3    H126831   7.988   5.794   2.748
 8966TIP3    H226832   7.976   5.760   2.895
 8967TIP3   OH226833   8.012   5.758   2.400
 8967TIP3    H126834   7.925   5.800   2.415
 8967TIP3    H226835   7.999   5.672   2.445
 8968TIP3   OH226836   6.500   7.103   2.394
 8968TIP3    H126837   6.415   7.066   2.363
 8968TIP3    H226838   6.488   7.195   2.366
 8969TIP3   OH226839   6.902   5.683   2.386
 8969TIP3    H126840   6.948   5.621   2.326
 8969TIP3    H226841   6.976   5.737   2.419
 8970TIP3   OH226842   7.411   5.865   2.482
 8970TIP3    H126843   7.470   5.816   2.542
 8970TIP3    H226844   7.434   5.957   2.508
 8971TIP3   OH226845   7.262   7.273   1.996
 8971TIP3    H126846   7.326   7.333   1.950
 8971TIP3    H226847   7.250   7.204   1.927
 8972TIP3   OH226848   7.200   5.935   3.863
 8972TIP3    H126849   7.169   5.864   3.922
 8972TIP3    H226850   7.295   5.937   3.889
 8973TIP3   OH226851   7.451   5.935   3.980
 8973TIP3    H126852   7.538   5.914   3.942
 8973TIP3    H226853   7.442   5.865   4.048
 8974TIP3   OH226854   6.583   7.131   2.041
 8974TIP3    H126855   6.579   7.139   2.138
 8974TIP3    H226856   6.669   7.086   2.027
 8975TIP3   OH226857   8.275   6.000   3.772
 8975TIP3    H126858   8.296   5.967   3.862
 8975TIP3    H226859   8.364   5.996   3.729
 8976TIP3   OH226860   0.922   7.004   4.656
 8976TIP3    H126861   0.974   7.070   4.707
 8976TIP3    H226862   0.972   7.001   4.572
 8977TIP3   OH226863   0.385   6.892   4.270
 8977TIP3    H126864   0.445   6.910   4.346
 8977TIP3    H226865   0.423   6.951   4.203
 8978TIP3   OH226866   1.017   7.201   4.834
 8978TIP3    H126867   0.936   7.253   4.817
 8978TIP3    H226868   1.049   7.241   4.917
 8979TIP3   OH226869   0.579   6.952   4.458
 8979TIP3    H126870   0.602   6.870   4.503
 8979TIP3    H226871   0.649   7.014   4.484
 8980TIP3   OH226872   0.746   6.899   4.830
 8980TIP3    H126873   0.670   6.948   4.797
 8980TIP3    H226874   0.815   6.927   4.765
 8981TIP3   OH226875   0.678   7.937   4.799
 8981TIP3    H126876   0.660   7.842   4.789
 8981TIP3    H226877   0.677   7.965   4.706
 8982TIP3   OH226878   0.869   7.543   4.655
 8982TIP3    H126879   0.793   7.605   4.662
 8982TIP3    H226880   0.901   7.563   4.564
 8983TIP3   OH226881   0.679   6.485   3.906
 8983TIP3    H126882   0.598   6.506   3.958
 8983TIP3    H226883   0.693   6.569   3.858
 8984TIP3   OH226884   0.815   7.389   5.134
 8984TIP3    H126885   0.743   7.408   5.074
 8984TIP3    H226886   0.822   7.291   5.125
 8985TIP3   OH226887   0.646   7.705   4.645
 8985TIP3    H126888   0.673   7.749   4.561
 8985TIP3    H226889   0.564   7.661   4.620
 8986TIP3   OH226890   0.711   7.109   3.807
 8986TIP3    H126891   0.645   7.070   3.745
 8986TIP3    H226892   0.707   7.201   3.774
 8987TIP3   OH226893   0.924   7.967   4.903
 8987TIP3    H126894   0.827   7.966   4.887
 8987TIP3    H226895   0.954   7.937   4.814
 8988TIP3   OH226896   0.822   7.125   5.054
 8988TIP3    H126897   0.745   7.070   5.073
 8988TIP3    H226898   0.851   7.092   4.968
 8989TIP3   OH226899   0.477   7.299   4.432
 8989TIP3    H126900   0.429   7.217   4.444
 8989TIP3    H226901   0.563   7.277   4.473
 8990TIP3   OH226902   0.485   7.383   3.474
 8990TIP3    H126903   0.435   7.336   3.404
 8990TIP3    H226904   0.461   7.475   3.458
 8991TIP3   OH226905   0.743   7.044   5.462
 8991TIP3    H126906   0.743   6.947   5.464
 8991TIP3    H226907   0.646   7.061   5.468
 8992TIP3   OH226908   0.611   7.560   3.816
 8992TIP3    H126909   0.685   7.619   3.792
 8992TIP3    H226910   0.645   7.520   3.898
 8993TIP3   OH226911   0.739   7.437   4.020
 8993TIP3    H126912   0.677   7.389   4.080
 8993TIP3    H226913   0.807   7.470   4.082
 8994TIP3   OH226914   0.764   7.822   4.426
 8994TIP3    H126915   0.826   7.747   4.412
 8994TIP3    H226916   0.806   7.888   4.370
 8995TIP3   OH226917   0.675   7.343   3.664
 8995TIP3    H126918   0.603   7.344   3.596
 8995TIP3    H226919   0.644   7.416   3.721
 8996TIP3   OH226920   0.541   7.021   3.613
 8996TIP3    H126921   0.486   7.057   3.541
 8996TIP3    H226922   0.525   6.925   3.600
 8997TIP3   OH226923   0.572   7.289   4.171
 8997TIP3    H126924   0.554   7.196   4.148
 8997TIP3    H226925   0.537   7.294   4.262
 8998TIP3   OH226926   0.836   7.719   5.022
 8998TIP3    H126927   0.903   7.648   5.020
 8998TIP3    H226928   0.870   7.781   4.957
 8999TIP3   OH226929   1.024   7.524   5.038
 8999TIP3    H126930   0.952   7.474   5.083
 8999TIP3    H226931   1.098   7.462   5.056
 9000TIP3   OH226932   0.502   6.751   3.596
 9000TIP3    H126933   0.577   6.729   3.656
 9000TIP3    H226934   0.431   6.694   3.632
 9001TIP3   OH226935   0.553   7.018   4.079
 9001TIP3    H126936   0.591   6.929   4.089
 9001TIP3    H226937   0.589   7.044   3.993
 9002TIP3   OH226938   0.702   7.203   4.554
 9002TIP3    H126939   0.788   7.223   4.511
 9002TIP3    H226940   0.725   7.227   4.646
 9003TIP3   OH226941   0.764   7.332   4.795
 9003TIP3    H126942   0.679   7.367   4.826
 9003TIP3    H226943   0.802   7.410   4.748
 9004TIP3   OH226944   1.231   6.928   5.340
 9004TIP3    H126945   1.290   6.862   5.297
 9004TIP3    H226946   1.199   6.979   5.262
 9005TIP3   OH226947   0.662   6.760   4.092
 9005TIP3    H126948   0.705   6.750   4.179
 9005TIP3    H226949   0.596   6.688   4.096
 9006TIP3   OH226950   1.093   7.063   5.145
 9006TIP3    H126951   1.007   7.100   5.171
 9006TIP3    H226952   1.063   6.987   5.090
 9007TIP3   OH226953   0.736   6.695   3.732
 9007TIP3    H126954   0.777   6.625   3.678
 9007TIP3    H226955   0.804   6.765   3.733
 9008TIP3   OH226956   0.988   6.827   5.042
 9008TIP3    H126957   0.911   6.820   4.984
 9008TIP3    H226958   1.041   6.752   5.011
 9009TIP3   OH226959   0.740   6.600   4.543
 9009TIP3    H126960   0.778   6.656   4.471
 9009TIP3    H226961   0.647   6.631   4.541
 9010TIP3   OH226962   0.820   6.720   4.315
 9010TIP3    H126963   0.893   6.667   4.276
 9010TIP3    H226964   0.854   6.811   4.298
 9011TIP3   OH226965   0.481   6.662   4.519
 9011TIP3    H126966   0.410   6.668   4.454
 9011TIP3    H226967   0.459   6.580   4.568
 9012TIP3   OH226968   0.478   6.542   4.086
 9012TIP3    H126969   0.389   6.573   4.063
 9012TIP3    H226970   0.456   6.461   4.135
 9013TIP3   OH226971   0.731   6.771   5.450
 9013TIP3    H126972   0.740   6.732   5.540
 9013TIP3    H226973   0.824   6.767   5.417
 9014TIP3   OH226974   1.941   7.697   3.723
 9014TIP3    H126975   1.906   7.782   3.690
 9014TIP3    H226976   1.866   7.639   3.700
 9015TIP3   OH226977   1.941   7.708   4.101
 9015TIP3    H126978   1.975   7.686   4.190
 9015TIP3    H226979   1.894   7.626   4.078
 9016TIP3   OH226980   1.201   7.534   4.473
 9016TIP3    H126981   1.258   7.479   4.529
 9016TIP3    H226982   1.249   7.619   4.469
 9017TIP3   OH226983   2.162   8.010   3.783
 9017TIP3    H126984   2.153   7.938   3.849
 9017TIP3    H226985   2.208   8.077   3.835
 9018TIP3   OH226986   1.209   7.965   4.166
 9018TIP3    H126987   1.213   7.975   4.278
 9018TIP3    H226988   1.283   7.902   4.162
 9019TIP3   OH226989   0.917   7.215   3.967
 9019TIP3    H126990   0.873   7.299   3.989
 9019TIP3    H226991   0.840   7.164   3.935
 9020TIP3   OH226992   0.967   7.507   4.156
 9020TIP3    H126993   1.013   7.426   4.185
 9020TIP3    H226994   1.045   7.563   4.134
 9021TIP3   OH226995   1.752   7.932   4.124
 9021TIP3    H126996   1.798   7.850   4.101
 9021TIP3    H226997   1.827   7.983   4.160
 9022TIP3   OH226998   2.749   7.257   4.147
 9022TIP3    H126999   2.779   7.339   4.191
 9022TIP3    H227000   2.770   7.276   4.054
 9023TIP3   OH227001   2.153   7.439   4.176
 9023TIP3    H127002   2.190   7.352   4.199
 9023TIP3    H227003   2.115   7.420   4.088
 9024TIP3   OH227004   1.493   7.097   4.140
 9024TIP3    H127005   1.465   7.170   4.081
 9024TIP3    H227006   1.439   7.024   4.103
 9025TIP3   OH227007   2.182   7.187   3.764
 9025TIP3    H127008   2.251   7.171   3.833
 9025TIP3    H227009   2.237   7.224   3.693
 9026TIP3   OH227010   1.113   7.294   4.248
 9026TIP3    H127011   1.196   7.287   4.299
 9026TIP3    H227012   1.135   7.240   4.170
 9027TIP3   OH227013   1.563   7.496   4.036
 9027TIP3    H127014   1.654   7.468   4.058
 9027TIP3    H227015   1.520   7.411   4.011
 9028TIP3   OH227016   2.822   7.466   4.316
 9028TIP3    H127017   2.736   7.511   4.298
 9028TIP3    H227018   2.840   7.497   4.406
 9029TIP3   OH227019   1.492   7.079   4.574
 9029TIP3    H127020   1.422   7.124   4.523
 9029TIP3    H227021   1.436   7.020   4.631
 9030TIP3   OH227022   1.839   7.898   3.566
 9030TIP3    H127023   1.763   7.885   3.506
 9030TIP3    H227024   1.823   7.988   3.598
 9031TIP3   OH227025   1.588   7.864   4.382
 9031TIP3    H127026   1.493   7.861   4.409
 9031TIP3    H227027   1.584   7.919   4.302
 9032TIP3   OH227028   2.386   7.194   3.944
 9032TIP3    H127029   2.360   7.155   4.028
 9032TIP3    H227030   2.436   7.272   3.972
 9033TIP3   OH227031   1.352   7.197   4.361
 9033TIP3    H127032   1.415   7.267   4.389
 9033TIP3    H227033   1.404   7.155   4.290
 9034TIP3   OH227034   1.406   8.130   4.496
 9034TIP3    H127035   1.399   8.152   4.403
 9034TIP3    H227036   1.364   8.041   4.498
 9035TIP3   OH227037   0.819   7.711   3.718
 9035TIP3    H127038   0.772   7.725   3.634
 9035TIP3    H227039   0.833   7.803   3.744
 9036TIP3   OH227040   2.542   7.153   4.311
 9036TIP3    H127041   2.454   7.182   4.281
 9036TIP3    H227042   2.601   7.188   4.242
 9037TIP3   OH227043   1.839   6.799   4.299
 9037TIP3    H127044   1.816   6.705   4.313
 9037TIP3    H227045   1.763   6.842   4.345
 9038TIP3   OH227046   2.187   8.004   3.505
 9038TIP3    H127047   2.112   7.943   3.497
 9038TIP3    H227048   2.205   8.000   3.601
 9039TIP3   OH227049   2.466   8.167   4.294
 9039TIP3    H127050   2.454   8.087   4.239
 9039TIP3    H227051   2.492   8.234   4.228
 9040TIP3   OH227052   1.768   7.555   3.555
 9040TIP3    H127053   1.684   7.606   3.544
 9040TIP3    H227054   1.804   7.559   3.465
 9041TIP3   OH227055   1.725   7.348   3.263
 9041TIP3    H127056   1.790   7.399   3.313
 9041TIP3    H227057   1.783   7.285   3.216
 9042TIP3   OH227058   2.671   7.806   4.136
 9042TIP3    H127059   2.587   7.856   4.144
 9042TIP3    H227060   2.700   7.833   4.047
 9043TIP3   OH227061   2.117   7.640   3.526
 9043TIP3    H127062   2.059   7.658   3.604
 9043TIP3    H227063   2.200   7.613   3.572
 9044TIP3   OH227064   2.348   7.682   4.436
 9044TIP3    H127065   2.347   7.764   4.488
 9044TIP3    H227066   2.260   7.687   4.394
 9045TIP3   OH227067   1.362   7.642   3.919
 9045TIP3    H127068   1.315   7.580   3.859
 9045TIP3    H227069   1.433   7.586   3.956
 9046TIP3   OH227070   1.483   7.998   4.129
 9046TIP3    H127071   1.453   8.008   4.042
 9046TIP3    H227072   1.589   7.988   4.111
 9047TIP3   OH227073   1.496   7.606   4.292
 9047TIP3    H127074   1.520   7.592   4.199
 9047TIP3    H227075   1.527   7.695   4.311
 9048TIP3   OH227076   1.672   8.092   4.600
 9048TIP3    H127077   1.606   8.160   4.619
 9048TIP3    H227078   1.619   8.035   4.543
 9049TIP3   OH227079   1.956   7.499   3.347
 9049TIP3    H127080   2.011   7.562   3.399
 9049TIP3    H227081   1.989   7.516   3.255
 9050TIP3   OH227082   1.396   7.707   4.746
 9050TIP3    H127083   1.388   7.793   4.790
 9050TIP3    H227084   1.336   7.722   4.670
 9051TIP3   OH227085   2.467   6.742   3.395
 9051TIP3    H127086   2.386   6.762   3.446
 9051TIP3    H227087   2.483   6.827   3.350
 9052TIP3   OH227088   1.220   7.479   3.729
 9052TIP3    H127089   1.148   7.523   3.679
 9052TIP3    H227090   1.174   7.403   3.767
 9053TIP3   OH227091   0.983   7.872   4.655
 9053TIP3    H127092   0.969   7.835   4.566
 9053TIP3    H227093   1.031   7.798   4.697
 9054TIP3   OH227094   2.602   7.643   4.613
 9054TIP3    H127095   2.516   7.654   4.571
 9054TIP3    H227096   2.617   7.547   4.605
 9055TIP3   OH227097   1.163   8.097   4.693
 9055TIP3    H127098   1.245   8.058   4.728
 9055TIP3    H227099   1.126   8.020   4.645
 9056TIP3   OH227100   1.612   6.881   4.425
 9056TIP3    H127101   1.525   6.844   4.395
 9056TIP3    H227102   1.577   6.959   4.474
 9057TIP3   OH227103   2.130   6.988   4.619
 9057TIP3    H127104   2.197   6.963   4.685
 9057TIP3    H227105   2.046   6.971   4.666
 9058TIP3   OH227106   2.370   7.422   4.539
 9058TIP3    H127107   2.317   7.417   4.622
 9058TIP3    H227108   2.344   7.508   4.502
 9059TIP3   OH227109   2.039   7.535   3.092
 9059TIP3    H127110   2.004   7.508   3.005
 9059TIP3    H227111   2.043   7.632   3.080
 9060TIP3   OH227112   1.746   6.921   3.396
 9060TIP3    H127113   1.710   6.918   3.487
 9060TIP3    H227114   1.702   6.841   3.360
 9061TIP3   OH227115   1.535   7.388   4.449
 9061TIP3    H127116   1.486   7.405   4.532
 9061TIP3    H227117   1.515   7.470   4.397
 9062TIP3   OH227118   1.413   7.278   3.954
 9062TIP3    H127119   1.320   7.253   3.976
 9062TIP3    H227120   1.421   7.234   3.867
 9063TIP3   OH227121   1.907   7.362   3.688
 9063TIP3    H127122   1.853   7.430   3.642
 9063TIP3    H227123   1.959   7.325   3.614
 9064TIP3   OH227124   2.080   7.636   4.766
 9064TIP3    H127125   2.057   7.566   4.830
 9064TIP3    H227126   2.172   7.654   4.793
 9065TIP3   OH227127   2.063   7.389   3.921
 9065TIP3    H127128   1.997   7.416   3.855
 9065TIP3    H227129   2.096   7.308   3.876
 9066TIP3   OH227130   1.369   7.409   4.668
 9066TIP3    H127131   1.374   7.476   4.736
 9066TIP3    H227132   1.357   7.326   4.722
 9067TIP3   OH227133   1.400   6.900   3.359
 9067TIP3    H127134   1.389   6.897   3.456
 9067TIP3    H227135   1.322   6.953   3.334
 9068TIP3   OH227136   0.947   6.937   4.228
 9068TIP3    H127137   1.019   6.970   4.286
 9068TIP3    H227138   0.993   6.911   4.148
 9069TIP3   OH227139   0.910   6.921   3.747
 9069TIP3    H127140   0.957   6.961   3.671
 9069TIP3    H227141   0.848   6.995   3.769
 9070TIP3   OH227142   2.074   7.637   4.341
 9070TIP3    H127143   2.108   7.565   4.283
 9070TIP3    H227144   2.042   7.583   4.417
 9071TIP3   OH227145   1.745   7.095   4.015
 9071TIP3    H127146   1.659   7.097   4.063
 9071TIP3    H227147   1.808   7.095   4.089
 9072TIP3   OH227148   1.177   7.158   4.019
 9072TIP3    H127149   1.082   7.168   3.994
 9072TIP3    H227150   1.194   7.064   4.002
 9073TIP3   OH227151   1.441   7.147   3.715
 9073TIP3    H127152   1.533   7.167   3.689
 9073TIP3    H227153   1.390   7.170   3.634
 9074TIP3   OH227154   2.230   7.173   4.212
 9074TIP3    H127155   2.206   7.187   4.307
 9074TIP3    H227156   2.158   7.114   4.184
 9075TIP3   OH227157   1.291   7.183   3.493
 9075TIP3    H127158   1.215   7.141   3.449
 9075TIP3    H227159   1.340   7.219   3.416
 9076TIP3   OH227160   1.373   7.991   4.862
 9076TIP3    H127161   1.447   7.988   4.926
 9076TIP3    H227162   1.297   7.969   4.920
 9077TIP3   OH227163   1.822   7.430   4.120
 9077TIP3    H127164   1.894   7.382   4.078
 9077TIP3    H227165   1.819   7.390   4.209
 9078TIP3   OH227166   1.343   6.914   3.999
 9078TIP3    H127167   1.301   6.841   4.050
 9078TIP3    H227168   1.385   6.864   3.928
 9079TIP3   OH227169   1.801   7.337   4.390
 9079TIP3    H127170   1.708   7.360   4.413
 9079TIP3    H227171   1.853   7.393   4.449
 9080TIP3   OH227172   1.539   7.701   3.510
 9080TIP3    H127173   1.462   7.642   3.497
 9080TIP3    H227174   1.511   7.750   3.592
 9081TIP3   OH227175   2.436   7.947   4.128
 9081TIP3    H127176   2.462   7.996   4.048
 9081TIP3    H227177   2.351   7.905   4.101
 9082TIP3   OH227178   1.991   7.028   3.356
 9082TIP3    H127179   1.897   7.004   3.372
 9082TIP3    H227180   1.997   7.120   3.390
 9083TIP3   OH227181   1.947   8.063   4.494
 9083TIP3    H127182   1.981   8.000   4.559
 9083TIP3    H227183   1.857   8.081   4.530
 9084TIP3   OH227184   2.062   7.273   3.468
 9084TIP3    H127185   2.157   7.281   3.486
 9084TIP3    H227186   2.042   7.355   3.420
 9085TIP3   OH227187   1.199   7.654   4.150
 9085TIP3    H127188   1.257   7.666   4.074
 9085TIP3    H227189   1.254   7.675   4.225
 9086TIP3   OH227190   1.640   7.881   3.331
 9086TIP3    H127191   1.609   7.955   3.388
 9086TIP3    H227192   1.604   7.806   3.383
 9087TIP3   OH227193   1.087   7.671   4.799
 9087TIP3    H127194   1.123   7.645   4.886
 9087TIP3    H227195   1.034   7.593   4.777
 9088TIP3   OH227196   1.838   7.765   4.813
 9088TIP3    H127197   1.772   7.706   4.772
 9088TIP3    H227198   1.921   7.728   4.776
 9089TIP3   OH227199   2.499   7.359   3.303
 9089TIP3    H127200   2.438   7.320   3.237
 9089TIP3    H227201   2.513   7.446   3.260
 9090TIP3   OH227202   2.723   8.206   4.384
 9090TIP3    H127203   2.626   8.218   4.373
 9090TIP3    H227204   2.749   8.192   4.290
 9091TIP3   OH227205   2.199   7.820   4.029
 9091TIP3    H127206   2.108   7.793   4.053
 9091TIP3    H227207   2.234   7.735   3.994
 9092TIP3   OH227208   0.897   7.344   3.505
 9092TIP3    H127209   0.940   7.429   3.527
 9092TIP3    H227210   0.819   7.347   3.566
 9093TIP3   OH227211   1.468   7.825   3.741
 9093TIP3    H127212   1.414   7.892   3.784
 9093TIP3    H227213   1.450   7.752   3.804
 9094TIP3   OH227214   1.991   8.017   4.225
 9094TIP3    H127215   1.978   8.032   4.321
 9094TIP3    H227216   2.074   7.969   4.223
 9095TIP3   OH227217   1.991   7.829   3.074
 9095TIP3    H127218   2.022   7.825   3.167
 9095TIP3    H227219   1.914   7.890   3.083
 9096TIP3   OH227220   1.308   7.176   4.812
 9096TIP3    H127221   1.212   7.161   4.804
 9096TIP3    H227222   1.339   7.087   4.834
 9097TIP3   OH227223   2.122   7.804   3.311
 9097TIP3    H127224   2.112   7.744   3.388
 9097TIP3    H227225   2.204   7.850   3.335
 9098TIP3   OH227226   1.327   7.845   3.154
 9098TIP3    H127227   1.353   7.751   3.140
 9098TIP3    H227228   1.324   7.853   3.249
 9099TIP3   OH227229   1.015   7.587   3.580
 9099TIP3    H127230   0.951   7.622   3.645
 9099TIP3    H227231   1.018   7.662   3.518
 9100TIP3   OH227232   2.169   7.219   4.473
 9100TIP3    H127233   2.239   7.264   4.523
 9100TIP3    H227234   2.148   7.142   4.530
 9101TIP3   OH227235   2.046   6.972   3.646
 9101TIP3    H127236   2.027   6.998   3.554
 9101TIP3    H227237   2.082   7.055   3.684
 9102TIP3   OH227238   1.729   7.158   3.747
 9102TIP3    H127239   1.791   7.233   3.735
 9102TIP3    H227240   1.729   7.149   3.844
 9103TIP3   OH227241   2.000   7.478   4.548
 9103TIP3    H127242   2.017   7.534   4.627
 9103TIP3    H227243   2.048   7.396   4.571
 9104TIP3   OH227244   1.869   6.882   3.849
 9104TIP3    H127245   1.855   6.961   3.904
 9104TIP3    H227246   1.931   6.916   3.781
 9105TIP3   OH227247   1.384   6.884   3.634
 9105TIP3    H127248   1.378   6.973   3.676
 9105TIP3    H227249   1.480   6.868   3.644
 9106TIP3   OH227250   2.635   7.375   4.535
 9106TIP3    H127251   2.537   7.375   4.544
 9106TIP3    H227252   2.644   7.332   4.449
 9107TIP3   OH227253   2.287   7.571   3.921
 9107TIP3    H127254   2.210   7.513   3.937
 9107TIP3    H227255   2.358   7.524   3.971
 9108TIP3   OH227256   1.005   7.804   3.394
 9108TIP3    H127257   1.035   7.897   3.384
 9108TIP3    H227258   1.061   7.757   3.329
 9109TIP3   OH227259   0.945   7.075   3.519
 9109TIP3    H127260   0.946   7.173   3.523
 9109TIP3    H227261   0.853   7.058   3.493
 9110TIP3   OH227262   1.366   6.784   4.377
 9110TIP3    H127263   1.301   6.757   4.310
 9110TIP3    H227264   1.330   6.748   4.460
 9111TIP3   OH227265   1.164   7.947   5.034
 9111TIP3    H127266   1.187   7.851   5.045
 9111TIP3    H227267   1.074   7.940   4.996
 9112TIP3   OH227268   1.134   7.608   3.249
 9112TIP3    H127269   1.178   7.570   3.327
 9112TIP3    H227270   1.207   7.604   3.184
 9113TIP3   OH227271   1.769   8.028   4.848
 9113TIP3    H127272   1.745   8.040   4.754
 9113TIP3    H227273   1.808   7.938   4.845
 9114TIP3   OH227274   1.607   7.787   3.055
 9114TIP3    H127275   1.609   7.801   3.151
 9114TIP3    H227276   1.626   7.692   3.047
 9115TIP3   OH227277   2.253   8.046   4.428
 9115TIP3    H127278   2.319   8.106   4.387
 9115TIP3    H227279   2.174   8.103   4.427
 9116TIP3   OH227280   1.280   7.700   5.036
 9116TIP3    H127281   1.349   7.643   5.001
 9116TIP3    H227282   1.312   7.721   5.126
 9117TIP3   OH227283   1.336   7.517   3.464
 9117TIP3    H127284   1.305   7.481   3.549
 9117TIP3    H227285   1.373   7.438   3.420
 9118TIP3   OH227286   1.635   7.586   4.704
 9118TIP3    H127287   1.547   7.629   4.713
 9118TIP3    H227288   1.669   7.624   4.620
 9119TIP3   OH227289   1.445   7.311   3.306
 9119TIP3    H127290   1.420   7.315   3.211
 9119TIP3    H227291   1.543   7.314   3.299
 9120TIP3   OH227292   2.133   7.980   4.825
 9120TIP3    H127293   2.218   7.955   4.786
 9120TIP3    H227294   2.128   7.918   4.901
 9121TIP3   OH227295   2.290   7.661   2.964
 9121TIP3    H127296   2.261   7.593   2.899
 9121TIP3    H227297   2.238   7.736   2.928
 9122TIP3   OH227298   1.745   7.370   4.818
 9122TIP3    H127299   1.735   7.291   4.761
 9122TIP3    H227300   1.700   7.440   4.765
 9123TIP3   OH227301   1.745   7.160   4.625
 9123TIP3    H127302   1.767   7.197   4.539
 9123TIP3    H227303   1.650   7.138   4.613
 9124TIP3   OH227304   1.772   7.703   4.502
 9124TIP3    H127305   1.848   7.700   4.442
 9124TIP3    H227306   1.712   7.767   4.457
 9125TIP3   OH227307   2.344   7.659   4.879
 9125TIP3    H127308   2.398   7.579   4.887
 9125TIP3    H227309   2.409   7.726   4.855
 9126TIP3   OH227310   2.389   7.907   4.613
 9126TIP3    H127311   2.332   7.961   4.554
 9126TIP3    H227312   2.477   7.929   4.575
 9127TIP3   OH227313   1.622   7.479   5.055
 9127TIP3    H127314   1.553   7.411   5.072
 9127TIP3    H227315   1.648   7.456   4.964
 9128TIP3   OH227316   1.866   6.916   4.696
 9128TIP3    H127317   1.819   7.000   4.673
 9128TIP3    H227318   1.793   6.852   4.689
 9129TIP3   OH227319   1.998   7.421   4.911
 9129TIP3    H127320   1.977   7.405   5.006
 9129TIP3    H227321   1.910   7.398   4.873
 9130TIP3   OH227322   2.233   7.367   4.765
 9130TIP3    H127323   2.159   7.374   4.828
 9130TIP3    H227324   2.308   7.341   4.823
 9131TIP3   OH227325   2.468   7.316   4.915
 9131TIP3    H127326   2.478   7.220   4.932
 9131TIP3    H227327   2.462   7.353   5.006
 9132TIP3   OH227328   1.457   7.268   5.106
 9132TIP3    H127329   1.449   7.177   5.067
 9132TIP3    H227330   1.487   7.245   5.195
 9133TIP3   OH227331   1.967   6.929   4.953
 9133TIP3    H127332   2.030   6.854   4.944
 9133TIP3    H227333   1.922   6.925   4.866
 9134TIP3   OH227334   2.033   7.143   5.113
 9134TIP3    H127335   2.010   7.073   5.048
 9134TIP3    H227336   1.954   7.202   5.107
 9135TIP3   OH227337   0.745   7.719   3.423
 9135TIP3    H127338   0.835   7.748   3.395
 9135TIP3    H227339   0.731   7.639   3.369
 9136TIP3   OH227340   2.615   8.339   4.657
 9136TIP3    H127341   2.538   8.320   4.716
 9136TIP3    H227342   2.667   8.400   4.712
 9137TIP3   OH227343   2.411   7.840   3.301
 9137TIP3    H127344   2.477   7.913   3.303
 9137TIP3    H227345   2.438   7.792   3.383
 9138TIP3   OH227346   2.522   7.694   3.506
 9138TIP3    H127347   2.463   7.649   3.571
 9138TIP3    H227348   2.596   7.725   3.562
 9139TIP3   OH227349   2.566   8.081   3.932
 9139TIP3    H127350   2.634   8.026   3.889
 9139TIP3    H227351   2.577   8.167   3.890
 9140TIP3   OH227352   2.475   7.602   3.157
 9140TIP3    H127353   2.398   7.589   3.098
 9140TIP3    H227354   2.433   7.644   3.235
 9141TIP3   OH227355   2.339   7.276   3.097
 9141TIP3    H127356   2.281   7.305   3.026
 9141TIP3    H227357   2.323   7.179   3.094
 9142TIP3   OH227358   2.343   7.548   3.655
 9142TIP3    H127359   2.349   7.451   3.649
 9142TIP3    H227360   2.328   7.561   3.752
 9143TIP3   OH227361   0.959   7.639   4.402
 9143TIP3    H127362   0.954   7.600   4.311
 9143TIP3    H227363   1.052   7.614   4.423
 9144TIP3   OH227364   2.632   7.974   4.511
 9144TIP3    H127365   2.705   7.909   4.500
 9144TIP3    H227366   2.660   8.046   4.452
 9145TIP3   OH227367   2.817   7.777   4.517
 9145TIP3    H127368   2.743   7.730   4.561
 9145TIP3    H227369   2.890   7.714   4.537
 9146TIP3   OH227370   2.289   7.005   3.079
 9146TIP3    H127371   2.355   6.978   3.147
 9146TIP3    H227372   2.209   6.956   3.105
 9147TIP3   OH227373   2.341   7.269   3.545
 9147TIP3    H127374   2.379   7.179   3.562
 9147TIP3    H227375   2.400   7.298   3.473
 9148TIP3   OH227376   2.499   7.438   4.042
 9148TIP3    H127377   2.585   7.463   4.002
 9148TIP3    H227378   2.512   7.476   4.131
 9149TIP3   OH227379   2.570   7.584   4.271
 9149TIP3    H127380   2.495   7.618   4.323
 9149TIP3    H227381   2.603   7.667   4.229
 9150TIP3   OH227382   1.188   7.315   5.082
 9150TIP3    H127383   1.285   7.303   5.072
 9150TIP3    H227384   1.164   7.226   5.115
 9151TIP3   OH227385   3.021   7.179   4.829
 9151TIP3    H127386   3.083   7.115   4.787
 9151TIP3    H227387   2.990   7.231   4.751
 9152TIP3   OH227388   2.448   7.019   3.583
 9152TIP3    H127389   2.496   7.004   3.667
 9152TIP3    H227390   2.387   6.943   3.584
 9153TIP3   OH227391   1.148   6.998   4.407
 9153TIP3    H127392   1.199   6.940   4.466
 9153TIP3    H227393   1.211   7.071   4.393
 9154TIP3   OH227394   0.948   7.289   4.471
 9154TIP3    H127395   0.994   7.279   4.385
 9154TIP3    H227396   1.005   7.355   4.513
 9155TIP3   OH227397   2.891   7.314   4.633
 9155TIP3    H127398   2.806   7.359   4.655
 9155TIP3    H227399   2.856   7.243   4.576
 9156TIP3   OH227400   2.527   6.954   3.220
 9156TIP3    H127401   2.571   6.881   3.173
 9156TIP3    H227402   2.596   7.023   3.222
 9157TIP3   OH227403   0.933   6.771   3.972
 9157TIP3    H127404   0.843   6.771   4.008
 9157TIP3    H227405   0.926   6.837   3.899
 9158TIP3   OH227406   2.791   7.078   4.514
 9158TIP3    H127407   2.701   7.070   4.479
 9158TIP3    H227408   2.824   6.986   4.505
 9159TIP3   OH227409   2.000   6.994   4.140
 9159TIP3    H127410   1.952   6.927   4.191
 9159TIP3    H227411   2.069   6.943   4.096
 9160TIP3   OH227412   2.518   6.869   4.033
 9160TIP3    H127413   2.553   6.926   3.962
 9160TIP3    H227414   2.423   6.892   4.032
 9161TIP3   OH227415   2.613   6.974   3.799
 9161TIP3    H127416   2.689   6.924   3.762
 9161TIP3    H227417   2.647   7.066   3.786
 9162TIP3   OH227418   1.237   6.701   4.133
 9162TIP3    H127419   1.146   6.665   4.144
 9162TIP3    H227420   1.289   6.618   4.138
 9163TIP3   OH227421   1.032   6.573   3.798
 9163TIP3    H127422   1.059   6.634   3.727
 9163TIP3    H227423   1.003   6.637   3.867
 9164TIP3   OH227424   1.694   6.728   4.028
 9164TIP3    H127425   1.751   6.784   3.973
 9164TIP3    H227426   1.695   6.775   4.113
 9165TIP3   OH227427   2.236   6.882   4.011
 9165TIP3    H127428   2.228   6.842   3.924
 9165TIP3    H227429   2.223   6.804   4.070
 9166TIP3   OH227430   2.265   6.807   3.577
 9166TIP3    H127431   2.181   6.852   3.596
 9166TIP3    H227432   2.250   6.721   3.621
 9167TIP3   OH227433   1.150   6.732   3.557
 9167TIP3    H127434   1.199   6.669   3.501
 9167TIP3    H227435   1.223   6.786   3.595
 9168TIP3   OH227436   1.662   6.909   3.658
 9168TIP3    H127437   1.717   6.861   3.722
 9168TIP3    H227438   1.682   7.001   3.685
 9169TIP3   OH227439   1.453   7.002   5.059
 9169TIP3    H127440   1.414   6.914   5.066
 9169TIP3    H227441   1.545   6.986   5.089
 9170TIP3   OH227442   1.711   6.982   5.169
 9170TIP3    H127443   1.790   6.949   5.124
 9170TIP3    H227444   1.691   6.909   5.231
 9171TIP3   OH227445   2.529   7.043   4.946
 9171TIP3    H127446   2.546   7.013   5.038
 9171TIP3    H227447   2.619   7.039   4.907
 9172TIP3   OH227448   3.733   7.951   3.212
 9172TIP3    H127449   3.694   8.037   3.189
 9172TIP3    H227450   3.663   7.893   3.178
 9173TIP3   OH227451   3.734   7.966   3.589
 9173TIP3    H127452   3.769   7.945   3.677
 9173TIP3    H227453   3.693   7.882   3.563
 9174TIP3   OH227454   3.027   7.861   3.953
 9174TIP3    H127455   3.057   7.792   4.015
 9174TIP3    H227456   3.103   7.920   3.953
 9175TIP3   OH227457   3.950   8.270   3.278
 9175TIP3    H127458   3.948   8.198   3.344
 9175TIP3    H227459   4.007   8.334   3.321
 9176TIP3   OH227460   3.059   8.207   3.756
 9176TIP3    H127461   3.028   8.122   3.720
 9176TIP3    H227462   3.143   8.220   3.706
 9177TIP3   OH227463   2.713   7.468   3.452
 9177TIP3    H127464   2.674   7.553   3.478
 9177TIP3    H227465   2.634   7.417   3.428
 9178TIP3   OH227466   2.766   7.759   3.627
 9178TIP3    H127467   2.813   7.681   3.664
 9178TIP3    H227468   2.841   7.818   3.606
 9179TIP3   OH227469   3.548   8.183   3.628
 9179TIP3    H127470   3.597   8.105   3.597
 9179TIP3    H227471   3.624   8.237   3.656
 9180TIP3   OH227472   4.544   7.513   3.635
 9180TIP3    H127473   4.574   7.595   3.679
 9180TIP3    H227474   4.566   7.532   3.542
 9181TIP3   OH227475   3.941   7.694   3.664
 9181TIP3    H127476   3.985   7.610   3.687
 9181TIP3    H227477   3.910   7.675   3.574
 9182TIP3   OH227478   3.282   7.354   3.631
 9182TIP3    H127479   3.264   7.427   3.568
 9182TIP3    H227480   3.232   7.281   3.587
 9183TIP3   OH227481   3.978   7.447   3.251
 9183TIP3    H127482   4.048   7.431   3.318
 9183TIP3    H227483   4.033   7.480   3.177
 9184TIP3   OH227484   2.913   7.556   3.738
 9184TIP3    H127485   2.996   7.540   3.788
 9184TIP3    H227486   2.931   7.501   3.659
 9185TIP3   OH227487   3.354   7.753   3.534
 9185TIP3    H127488   3.448   7.730   3.546
 9185TIP3    H227489   3.316   7.668   3.502
 9186TIP3   OH227490   4.618   7.721   3.805
 9186TIP3    H127491   4.533   7.768   3.792
 9186TIP3    H227492   4.651   7.763   3.887
 9187TIP3   OH227493   3.277   7.338   4.066
 9187TIP3    H127494   3.217   7.376   3.999
 9187TIP3    H227495   3.225   7.354   4.147
 9188TIP3   OH227496   3.607   8.155   3.076
 9188TIP3    H127497   3.571   8.158   2.986
 9188TIP3    H227498   3.645   8.245   3.086
 9189TIP3   OH227499   3.381   8.119   3.859
 9189TIP3    H127500   3.317   8.185   3.891
 9189TIP3    H227501   3.414   8.162   3.778
 9190TIP3   OH227502   4.181   7.451   3.430
 9190TIP3    H127503   4.168   7.408   3.515
 9190TIP3    H227504   4.234   7.529   3.455
 9191TIP3   OH227505   3.148   7.454   3.850
 9191TIP3    H127506   3.210   7.526   3.874
 9191TIP3    H227507   3.198   7.413   3.775
 9192TIP3   OH227508   3.208   8.332   3.965
 9192TIP3    H127509   3.164   8.323   3.878
 9192TIP3    H227510   3.130   8.329   4.023
 9193TIP3   OH227511   2.603   8.015   3.196
 9193TIP3    H127512   2.598   8.043   3.103
 9193TIP3    H227513   2.600   8.099   3.243
 9194TIP3   OH227514   4.337   7.408   3.797
 9194TIP3    H127515   4.251   7.440   3.765
 9194TIP3    H227516   4.399   7.444   3.730
 9195TIP3   OH227517   3.627   7.053   3.779
 9195TIP3    H127518   3.614   6.959   3.800
 9195TIP3    H227519   3.552   7.093   3.828
 9196TIP3   OH227520   3.985   8.284   2.996
 9196TIP3    H127521   3.959   8.201   2.950
 9196TIP3    H227522   3.994   8.254   3.089
 9197TIP3   OH227523   4.260   8.424   3.780
 9197TIP3    H127524   4.250   8.345   3.723
 9197TIP3    H227525   4.293   8.491   3.717
 9198TIP3   OH227526   3.565   7.812   3.042
 9198TIP3    H127527   3.485   7.866   3.024
 9198TIP3    H227528   3.609   7.812   2.956
 9199TIP3   OH227529   3.521   7.603   2.751
 9199TIP3    H127530   3.586   7.657   2.799
 9199TIP3    H227531   3.581   7.542   2.703
 9200TIP3   OH227532   4.466   8.060   3.622
 9200TIP3    H127533   4.383   8.112   3.630
 9200TIP3    H227534   4.497   8.089   3.534
 9201TIP3   OH227535   3.912   7.892   3.012
 9201TIP3    H127536   3.858   7.913   3.092
 9201TIP3    H227537   3.997   7.868   3.055
 9202TIP3   OH227538   4.144   7.938   3.925
 9202TIP3    H127539   4.145   8.021   3.978
 9202TIP3    H227540   4.058   7.947   3.880
 9203TIP3   OH227541   3.149   7.899   3.418
 9203TIP3    H127542   3.109   7.838   3.353
 9203TIP3    H227543   3.225   7.847   3.452
 9204TIP3   OH227544   3.283   8.262   3.626
 9204TIP3    H127545   3.247   8.265   3.535
 9204TIP3    H227546   3.380   8.265   3.610
 9205TIP3   OH227547   3.272   7.876   3.775
 9205TIP3    H127548   3.311   7.850   3.689
 9205TIP3    H227549   3.319   7.960   3.795
 9206TIP3   OH227550   3.460   8.329   4.101
 9206TIP3    H127551   3.422   8.416   4.122
 9206TIP3    H227552   3.387   8.293   4.047
 9207TIP3   OH227553   3.744   7.761   2.835
 9207TIP3    H127554   3.806   7.819   2.884
 9207TIP3    H227555   3.774   7.775   2.742
 9208TIP3   OH227556   3.172   7.981   4.205
 9208TIP3    H127557   3.179   8.069   4.247
 9208TIP3    H227558   3.079   7.959   4.224
 9209TIP3   OH227559   4.267   6.999   2.884
 9209TIP3    H127560   4.185   7.022   2.932
 9209TIP3    H227561   4.282   7.081   2.832
 9210TIP3   OH227562   3.011   7.740   3.227
 9210TIP3    H127563   2.941   7.779   3.170
 9210TIP3    H227564   2.975   7.653   3.247
 9211TIP3   OH227565   2.809   8.125   4.138
 9211TIP3    H127566   2.737   8.104   4.077
 9211TIP3    H227567   2.842   8.037   4.166
 9212TIP3   OH227568   4.400   7.899   4.101
 9212TIP3    H127569   4.316   7.908   4.053
 9212TIP3    H227570   4.416   7.802   4.094
 9213TIP3   OH227571   2.994   8.331   4.141
 9213TIP3    H127572   3.049   8.292   4.211
 9213TIP3    H227573   2.923   8.263   4.132
 9214TIP3   OH227574   3.393   7.131   3.913
 9214TIP3    H127575   3.304   7.102   3.883
 9214TIP3    H227576   3.367   7.212   3.961
 9215TIP3   OH227577   3.930   7.245   4.105
 9215TIP3    H127578   4.000   7.218   4.169
 9215TIP3    H227579   3.848   7.227   4.155
 9216TIP3   OH227580   4.159   7.674   4.019
 9216TIP3    H127581   4.112   7.672   4.105
 9216TIP3    H227582   4.142   7.764   3.987
 9217TIP3   OH227583   3.827   7.786   2.580
 9217TIP3    H127584   3.794   7.766   2.491
 9217TIP3    H227585   3.890   7.857   2.561
 9218TIP3   OH227586   3.531   7.183   2.880
 9218TIP3    H127587   3.502   7.177   2.973
 9218TIP3    H227588   3.499   7.097   2.847
 9219TIP3   OH227589   3.323   7.653   3.926
 9219TIP3    H127590   3.276   7.673   4.009
 9219TIP3    H227591   3.306   7.735   3.874
 9220TIP3   OH227592   3.209   7.535   3.442
 9220TIP3    H127593   3.117   7.508   3.462
 9220TIP3    H227594   3.221   7.492   3.354
 9221TIP3   OH227595   3.701   7.614   3.172
 9221TIP3    H127596   3.650   7.684   3.126
 9221TIP3    H227597   3.758   7.581   3.099
 9222TIP3   OH227598   3.878   7.892   4.252
 9222TIP3    H127599   3.856   7.821   4.316
 9222TIP3    H227600   3.971   7.910   4.275
 9223TIP3   OH227601   3.855   7.645   3.408
 9223TIP3    H127602   3.793   7.672   3.338
 9223TIP3    H227603   3.892   7.565   3.363
 9224TIP3   OH227604   3.144   7.676   4.136
 9224TIP3    H127605   3.174   7.740   4.202
 9224TIP3    H227606   3.134   7.595   4.189
 9225TIP3   OH227607   3.185   7.147   2.847
 9225TIP3    H127608   3.184   7.150   2.944
 9225TIP3    H227609   3.116   7.214   2.826
 9226TIP3   OH227610   2.740   7.197   3.713
 9226TIP3    H127611   2.810   7.231   3.772
 9226TIP3    H227612   2.790   7.164   3.637
 9227TIP3   OH227613   2.705   7.174   3.236
 9227TIP3    H127614   2.752   7.209   3.157
 9227TIP3    H227615   2.647   7.250   3.257
 9228TIP3   OH227616   3.862   7.892   3.829
 9228TIP3    H127617   3.898   7.821   3.770
 9228TIP3    H227618   3.834   7.838   3.906
 9229TIP3   OH227619   3.539   7.357   3.503
 9229TIP3    H127620   3.461   7.355   3.560
 9229TIP3    H227621   3.612   7.348   3.567
 9230TIP3   OH227622   2.973   7.412   3.511
 9230TIP3    H127623   2.880   7.419   3.480
 9230TIP3    H227624   2.998   7.321   3.489
 9231TIP3   OH227625   3.235   7.405   3.202
 9231TIP3    H127626   3.331   7.420   3.185
 9231TIP3    H227627   3.193   7.428   3.116
 9232TIP3   OH227628   4.029   7.433   3.705
 9232TIP3    H127629   3.998   7.446   3.798
 9232TIP3    H227630   3.961   7.372   3.671
 9233TIP3   OH227631   3.084   7.443   2.975
 9233TIP3    H127632   3.017   7.398   2.921
 9233TIP3    H227633   3.138   7.485   2.905
 9234TIP3   OH227634   3.161   8.229   4.343
 9234TIP3    H127635   3.239   8.256   4.395
 9234TIP3    H227636   3.096   8.217   4.416
 9235TIP3   OH227637   3.618   7.686   3.600
 9235TIP3    H127638   3.693   7.648   3.552
 9235TIP3    H227639   3.624   7.642   3.686
 9236TIP3   OH227640   3.136   7.172   3.483
 9236TIP3    H127641   3.101   7.095   3.533
 9236TIP3    H227642   3.193   7.129   3.417
 9237TIP3   OH227643   3.594   7.585   3.891
 9237TIP3    H127644   3.505   7.622   3.905
 9237TIP3    H227645   3.653   7.645   3.940
 9238TIP3   OH227646   3.332   7.954   2.991
 9238TIP3    H127647   3.253   7.899   2.976
 9238TIP3    H227648   3.308   8.000   3.075
 9239TIP3   OH227649   4.232   8.204   3.615
 9239TIP3    H127650   4.260   8.253   3.535
 9239TIP3    H227651   4.148   8.162   3.587
 9240TIP3   OH227652   3.788   7.279   2.857
 9240TIP3    H127653   3.691   7.265   2.860
 9240TIP3    H227654   3.798   7.375   2.877
 9241TIP3   OH227655   3.741   8.313   3.982
 9241TIP3    H127656   3.777   8.263   4.056
 9241TIP3    H227657   3.658   8.347   4.021
 9242TIP3   OH227658   3.859   7.532   2.954
 9242TIP3    H127659   3.956   7.537   2.969
 9242TIP3    H227660   3.842   7.613   2.901
 9243TIP3   OH227661   2.999   7.940   3.649
 9243TIP3    H127662   3.055   7.937   3.567
 9243TIP3    H227663   3.062   7.908   3.716
 9244TIP3   OH227664   3.443   8.146   2.830
 9244TIP3    H127665   3.399   8.215   2.885
 9244TIP3    H227666   3.408   8.066   2.875
 9245TIP3   OH227667   2.911   7.906   4.276
 9245TIP3    H127668   2.925   7.891   4.372
 9245TIP3    H227669   2.839   7.842   4.259
 9246TIP3   OH227670   3.639   8.019   4.299
 9246TIP3    H127671   3.576   7.967   4.247
 9246TIP3    H227672   3.725   7.984   4.267
 9247TIP3   OH227673   4.298   7.627   2.789
 9247TIP3    H127674   4.237   7.582   2.725
 9247TIP3    H227675   4.295   7.716   2.748
 9248TIP3   OH227676   4.518   8.458   3.871
 9248TIP3    H127677   4.422   8.474   3.861
 9248TIP3    H227678   4.543   8.446   3.777
 9249TIP3   OH227679   3.996   8.077   3.517
 9249TIP3    H127680   3.905   8.051   3.540
 9249TIP3    H227681   4.030   7.992   3.481
 9250TIP3   OH227682   2.701   7.597   2.993
 9250TIP3    H127683   2.748   7.681   3.011
 9250TIP3    H227684   2.628   7.602   3.059
 9251TIP3   OH227685   3.256   8.073   3.227
 9251TIP3    H127686   3.234   8.157   3.269
 9251TIP3    H227687   3.231   8.011   3.298
 9252TIP3   OH227688   3.787   8.273   3.713
 9252TIP3    H127689   3.775   8.286   3.809
 9252TIP3    H227690   3.875   8.232   3.709
 9253TIP3   OH227691   3.793   8.102   2.568
 9253TIP3    H127692   3.824   8.091   2.660
 9253TIP3    H227693   3.714   8.159   2.580
 9254TIP3   OH227694   3.115   7.418   4.280
 9254TIP3    H127695   3.019   7.422   4.295
 9254TIP3    H227696   3.145   7.365   4.355
 9255TIP3   OH227697   3.917   8.079   2.817
 9255TIP3    H127698   3.913   8.007   2.883
 9255TIP3    H227699   4.013   8.080   2.796
 9256TIP3   OH227700   3.101   8.093   2.652
 9256TIP3    H127701   3.146   8.011   2.624
 9256TIP3    H227702   3.155   8.120   2.727
 9257TIP3   OH227703   2.800   7.844   3.071
 9257TIP3    H127704   2.743   7.897   3.129
 9257TIP3    H227705   2.819   7.910   3.001
 9258TIP3   OH227706   3.956   7.482   3.965
 9258TIP3    H127707   4.035   7.524   4.001
 9258TIP3    H227708   3.946   7.402   4.021
 9259TIP3   OH227709   3.834   7.232   3.135
 9259TIP3    H127710   3.823   7.253   3.040
 9259TIP3    H227711   3.875   7.315   3.170
 9260TIP3   OH227712   3.516   7.418   3.234
 9260TIP3    H127713   3.582   7.488   3.216
 9260TIP3    H227714   3.526   7.407   3.331
 9261TIP3   OH227715   3.793   7.731   4.038
 9261TIP3    H127716   3.819   7.784   4.116
 9261TIP3    H227717   3.847   7.651   4.049
 9262TIP3   OH227718   3.664   7.135   3.331
 9262TIP3    H127719   3.665   7.209   3.394
 9262TIP3    H227720   3.726   7.169   3.263
 9263TIP3   OH227721   3.180   7.143   3.122
 9263TIP3    H127722   3.179   7.232   3.162
 9263TIP3    H227723   3.275   7.123   3.131
 9264TIP3   OH227724   4.428   7.633   4.026
 9264TIP3    H127725   4.330   7.628   4.026
 9264TIP3    H227726   4.448   7.597   3.938
 9265TIP3   OH227727   4.083   7.828   3.410
 9265TIP3    H127728   4.007   7.768   3.423
 9265TIP3    H227729   4.155   7.781   3.458
 9266TIP3   OH227730   2.817   8.068   2.893
 9266TIP3    H127731   2.837   8.161   2.871
 9266TIP3    H227732   2.866   8.021   2.823
 9267TIP3   OH227733   2.733   7.323   3.005
 9267TIP3    H127734   2.748   7.419   3.002
 9267TIP3    H227735   2.645   7.316   2.966
 9268TIP3   OH227736   3.127   7.052   3.883
 9268TIP3    H127737   3.098   7.016   3.796
 9268TIP3    H227738   3.118   6.974   3.941
 9269TIP3   OH227739   2.956   8.199   4.523
 9269TIP3    H127740   2.977   8.104   4.533
 9269TIP3    H227741   2.866   8.195   4.484
 9270TIP3   OH227742   2.925   7.856   2.741
 9270TIP3    H127743   2.981   7.826   2.815
 9270TIP3    H227744   2.994   7.868   2.673
 9271TIP3   OH227745   3.579   8.282   4.342
 9271TIP3    H127746   3.545   8.295   4.251
 9271TIP3    H227747   3.614   8.191   4.335
 9272TIP3   OH227748   3.370   8.036   2.559
 9272TIP3    H127749   3.420   8.058   2.638
 9272TIP3    H227750   3.406   7.947   2.537
 9273TIP3   OH227751   4.050   8.306   3.914
 9273TIP3    H127752   4.121   8.359   3.872
 9273TIP3    H227753   3.976   8.369   3.909
 9274TIP3   OH227754   3.080   7.950   4.522
 9274TIP3    H127755   3.158   7.898   4.498
 9274TIP3    H227756   3.107   7.984   4.610
 9275TIP3   OH227757   3.123   7.771   2.946
 9275TIP3    H127758   3.111   7.729   3.032
 9275TIP3    H227759   3.170   7.702   2.895
 9276TIP3   OH227760   3.407   7.835   4.177
 9276TIP3    H127761   3.331   7.897   4.179
 9276TIP3    H227762   3.461   7.872   4.103
 9277TIP3   OH227763   3.244   7.570   2.795
 9277TIP3    H127764   3.221   7.573   2.700
 9277TIP3    H227765   3.342   7.571   2.789
 9278TIP3   OH227766   3.932   8.230   4.312
 9278TIP3    H127767   4.015   8.209   4.269
 9278TIP3    H227768   3.930   8.167   4.386
 9279TIP3   OH227769   4.060   7.906   2.455
 9279TIP3    H127770   4.037   7.854   2.376
 9279TIP3    H227771   4.039   7.996   2.422
 9280TIP3   OH227772   3.532   7.628   4.305
 9280TIP3    H127773   3.534   7.549   4.247
 9280TIP3    H227774   3.488   7.695   4.248
 9281TIP3   OH227775   3.535   7.414   4.115
 9281TIP3    H127776   3.564   7.456   4.032
 9281TIP3    H227777   3.442   7.392   4.095
 9282TIP3   OH227778   3.556   7.950   3.987
 9282TIP3    H127779   3.642   7.961   3.943
 9282TIP3    H227780   3.501   8.017   3.941
 9283TIP3   OH227781   4.143   7.914   4.366
 9283TIP3    H127782   4.195   7.833   4.374
 9283TIP3    H227783   4.211   7.977   4.336
 9284TIP3   OH227784   4.183   8.165   4.102
 9284TIP3    H127785   4.127   8.219   4.043
 9284TIP3    H227786   4.272   8.186   4.065
 9285TIP3   OH227787   3.410   7.735   4.539
 9285TIP3    H127788   3.343   7.665   4.555
 9285TIP3    H227789   3.444   7.709   4.451
 9286TIP3   OH227790   3.667   7.175   4.184
 9286TIP3    H127791   3.617   7.256   4.161
 9286TIP3    H227792   3.598   7.106   4.173
 9287TIP3   OH227793   3.793   7.678   4.399
 9287TIP3    H127794   3.781   7.663   4.494
 9287TIP3    H227795   3.704   7.655   4.367
 9288TIP3   OH227796   4.030   7.629   4.252
 9288TIP3    H127797   3.957   7.631   4.317
 9288TIP3    H227798   4.106   7.600   4.308
 9289TIP3   OH227799   4.254   7.570   4.403
 9289TIP3    H127800   4.271   7.475   4.419
 9289TIP3    H227801   4.255   7.606   4.494
 9290TIP3   OH227802   3.250   7.514   4.593
 9290TIP3    H127803   3.255   7.422   4.562
 9290TIP3    H227804   3.287   7.504   4.683
 9291TIP3   OH227805   3.759   7.185   4.442
 9291TIP3    H127806   3.827   7.114   4.436
 9291TIP3    H227807   3.721   7.180   4.353
 9292TIP3   OH227808   3.827   7.401   4.600
 9292TIP3    H127809   3.806   7.329   4.536
 9292TIP3    H227810   3.749   7.458   4.593
 9293TIP3   OH227811   2.543   7.975   2.927
 9293TIP3    H127812   2.596   8.050   2.892
 9293TIP3    H227813   2.546   7.914   2.850
 9294TIP3   OH227814   4.408   8.596   4.143
 9294TIP3    H127815   4.335   8.577   4.206
 9294TIP3    H227816   4.461   8.659   4.194
 9295TIP3   OH227817   4.188   8.076   2.797
 9295TIP3    H127818   4.258   8.135   2.762
 9295TIP3    H227819   4.236   8.037   2.874
 9296TIP3   OH227820   4.324   7.948   2.995
 9296TIP3    H127821   4.262   7.906   3.058
 9296TIP3    H227822   4.394   7.983   3.054
 9297TIP3   OH227823   4.363   8.338   3.420
 9297TIP3    H127824   4.429   8.281   3.376
 9297TIP3    H227825   4.372   8.422   3.373
 9298TIP3   OH227826   4.261   7.860   2.637
 9298TIP3    H127827   4.191   7.864   2.569
 9298TIP3    H227828   4.232   7.934   2.694
 9299TIP3   OH227829   4.133   7.533   2.595
 9299TIP3    H127830   4.089   7.568   2.516
 9299TIP3    H227831   4.110   7.438   2.588
 9300TIP3   OH227832   4.139   7.808   3.143
 9300TIP3    H127833   4.148   7.712   3.132
 9300TIP3    H227834   4.125   7.818   3.240
 9301TIP3   OH227835   2.764   7.890   3.886
 9301TIP3    H127836   2.765   7.856   3.795
 9301TIP3    H227837   2.861   7.888   3.906
 9302TIP3   OH227838   4.427   8.229   4.000
 9302TIP3    H127839   4.500   8.164   3.989
 9302TIP3    H227840   4.456   8.301   3.941
 9303TIP3   OH227841   4.614   8.035   4.005
 9303TIP3    H127842   4.542   7.983   4.047
 9303TIP3    H227843   4.690   7.976   4.025
 9304TIP3   OH227844   4.076   7.268   2.582
 9304TIP3    H127845   4.152   7.234   2.633
 9304TIP3    H227846   4.006   7.204   2.599
 9305TIP3   OH227847   4.137   7.526   3.031
 9305TIP3    H127848   4.177   7.437   3.046
 9305TIP3    H227849   4.195   7.558   2.959
 9306TIP3   OH227850   4.295   7.696   3.529
 9306TIP3    H127851   4.381   7.720   3.488
 9306TIP3    H227852   4.310   7.733   3.618
 9307TIP3   OH227853   4.366   7.842   3.760
 9307TIP3    H127854   4.290   7.877   3.809
 9307TIP3    H227855   4.401   7.922   3.715
 9308TIP3   OH227856   2.984   7.565   4.558
 9308TIP3    H127857   3.081   7.561   4.565
 9308TIP3    H227858   2.960   7.480   4.599
 9309TIP3   OH227859   4.810   7.429   4.316
 9309TIP3    H127860   4.877   7.368   4.276
 9309TIP3    H227861   4.784   7.484   4.240
 9310TIP3   OH227862   4.243   7.277   3.073
 9310TIP3    H127863   4.292   7.260   3.156
 9310TIP3    H227864   4.183   7.199   3.071
 9311TIP3   OH227865   2.943   7.261   3.889
 9311TIP3    H127866   3.004   7.186   3.900
 9311TIP3    H227867   3.006   7.335   3.882
 9312TIP3   OH227868   2.744   7.533   3.962
 9312TIP3    H127869   2.796   7.534   3.880
 9312TIP3    H227870   2.774   7.613   4.007
 9313TIP3   OH227871   4.686   7.570   4.121
 9313TIP3    H127872   4.603   7.616   4.142
 9313TIP3    H227873   4.652   7.498   4.064
 9314TIP3   OH227874   4.323   7.206   2.706
 9314TIP3    H127875   4.361   7.136   2.649
 9314TIP3    H227876   4.391   7.276   2.702
 9315TIP3   OH227877   2.730   7.029   3.462
 9315TIP3    H127878   2.639   7.030   3.497
 9315TIP3    H227879   2.725   7.092   3.388
 9316TIP3   OH227880   2.950   7.114   4.278
 9316TIP3    H127881   2.901   7.113   4.361
 9316TIP3    H227882   2.884   7.155   4.218
 9317TIP3   OH227883   4.588   7.334   4.000
 9317TIP3    H127884   4.498   7.325   3.965
 9317TIP3    H227885   4.621   7.242   3.991
 9318TIP3   OH227886   3.787   7.247   3.615
 9318TIP3    H127887   3.749   7.176   3.669
 9318TIP3    H227888   3.866   7.205   3.576
 9319TIP3   OH227889   4.311   7.130   3.524
 9319TIP3    H127890   4.349   7.182   3.449
 9319TIP3    H227891   4.217   7.152   3.519
 9320TIP3   OH227892   4.408   7.229   3.289
 9320TIP3    H127893   4.482   7.177   3.251
 9320TIP3    H227894   4.442   7.321   3.275
 9321TIP3   OH227895   3.040   6.958   3.634
 9321TIP3    H127896   2.948   6.924   3.640
 9321TIP3    H227897   3.089   6.873   3.631
 9322TIP3   OH227898   2.817   6.830   3.283
 9322TIP3    H127899   2.857   6.889   3.217
 9322TIP3    H227900   2.796   6.894   3.355
 9323TIP3   OH227901   3.484   6.992   3.519
 9323TIP3    H127902   3.540   7.037   3.454
 9323TIP3    H227903   3.517   7.030   3.603
 9324TIP3   OH227904   4.024   7.139   3.501
 9324TIP3    H127905   4.034   7.097   3.414
 9324TIP3    H227906   4.015   7.059   3.559
 9325TIP3   OH227907   4.061   7.063   3.064
 9325TIP3    H127908   3.974   7.105   3.079
 9325TIP3    H227909   4.048   6.977   3.109
 9326TIP3   OH227910   2.947   6.992   3.049
 9326TIP3    H127911   2.992   6.926   2.993
 9326TIP3    H227912   3.022   7.046   3.081
 9327TIP3   OH227913   3.456   7.166   3.146
 9327TIP3    H127914   3.517   7.119   3.206
 9327TIP3    H227915   3.478   7.258   3.172
 9328TIP3   OH227916   3.248   7.238   4.525
 9328TIP3    H127917   3.211   7.169   4.583
 9328TIP3    H227918   3.342   7.238   4.555
 9329TIP3   OH227919   3.498   7.236   4.646
 9329TIP3    H127920   3.584   7.213   4.607
 9329TIP3    H227921   3.487   7.166   4.713
 9330TIP3   OH227922   4.325   7.301   4.433
 9330TIP3    H127923   4.344   7.269   4.524
 9330TIP3    H227924   4.415   7.297   4.393
 9331TIP3   OH227925   5.529   8.205   2.701
 9331TIP3    H127926   5.494   8.292   2.674
 9331TIP3    H227927   5.459   8.148   2.663
 9332TIP3   OH227928   5.536   8.233   3.071
 9332TIP3    H127929   5.565   8.206   3.161
 9332TIP3    H227930   5.495   8.154   3.035
 9333TIP3   OH227931   4.825   8.117   3.437
 9333TIP3    H127932   4.855   8.047   3.498
 9333TIP3    H227933   4.897   8.181   3.449
 9334TIP3   OH227934   5.747   8.523   2.764
 9334TIP3    H127935   5.745   8.451   2.829
 9334TIP3    H227936   5.801   8.589   2.810
 9335TIP3   OH227937   4.852   8.470   3.237
 9335TIP3    H127938   4.826   8.380   3.209
 9335TIP3    H227939   4.938   8.480   3.191
 9336TIP3   OH227940   4.507   7.727   2.943
 9336TIP3    H127941   4.462   7.811   2.962
 9336TIP3    H227942   4.434   7.678   2.900
 9337TIP3   OH227943   4.558   8.018   3.124
 9337TIP3    H127944   4.608   7.939   3.155
 9337TIP3    H227945   4.628   8.071   3.082
 9338TIP3   OH227946   5.344   8.443   3.112
 9338TIP3    H127947   5.395   8.367   3.079
 9338TIP3    H227948   5.419   8.497   3.144
 9339TIP3   OH227949   6.336   7.771   3.119
 9339TIP3    H127950   6.369   7.852   3.162
 9339TIP3    H227951   6.367   7.783   3.027
 9340TIP3   OH227952   5.716   7.943   3.153
 9340TIP3    H127953   5.771   7.865   3.173
 9340TIP3    H227954   5.701   7.930   3.057
 9341TIP3   OH227955   5.086   7.609   3.115
 9341TIP3    H127956   5.060   7.683   3.055
 9341TIP3    H227957   5.034   7.536   3.073
 9342TIP3   OH227958   5.772   7.709   2.740
 9342TIP3    H127959   5.843   7.693   2.807
 9342TIP3    H227960   5.827   7.738   2.665
 9343TIP3   OH227961   4.709   7.813   3.225
 9343TIP3    H127962   4.791   7.793   3.274
 9343TIP3    H227963   4.724   7.757   3.146
 9344TIP3   OH227964   5.154   8.004   3.018
 9344TIP3    H127965   5.244   7.969   3.031
 9344TIP3    H227966   5.106   7.924   2.986
 9345TIP3   OH227967   6.412   7.978   3.289
 9345TIP3    H127968   6.326   8.023   3.276
 9345TIP3    H227969   6.431   8.001   3.381
 9346TIP3   OH227970   5.072   7.595   3.559
 9346TIP3    H127971   5.011   7.635   3.493
 9346TIP3    H227972   5.019   7.609   3.641
 9347TIP3   OH227973   5.415   8.407   2.556
 9347TIP3    H127974   5.361   8.407   2.475
 9347TIP3    H227975   5.433   8.502   2.570
 9348TIP3   OH227976   5.175   8.374   3.346
 9348TIP3    H127977   5.112   8.439   3.382
 9348TIP3    H227978   5.206   8.422   3.265
 9349TIP3   OH227979   5.980   7.711   2.911
 9349TIP3    H127980   5.999   7.645   2.978
 9349TIP3    H227981   6.032   7.787   2.943
 9350TIP3   OH227982   4.944   7.703   3.336
 9350TIP3    H127983   5.004   7.778   3.361
 9350TIP3    H227984   4.995   7.666   3.261
 9351TIP3   OH227985   5.005   8.585   3.452
 9351TIP3    H127986   4.958   8.580   3.365
 9351TIP3    H227987   4.927   8.584   3.511
 9352TIP3   OH227988   4.398   8.217   2.688
 9352TIP3    H127989   4.366   8.230   2.596
 9352TIP3    H227990   4.414   8.310   2.712
 9353TIP3   OH227991   6.134   7.669   3.282
 9353TIP3    H127992   6.053   7.709   3.248
 9353TIP3    H227993   6.201   7.700   3.217
 9354TIP3   OH227994   5.433   7.347   3.315
 9354TIP3    H127995   5.435   7.253   3.285
 9354TIP3    H227996   5.337   7.355   3.336
 9355TIP3   OH227997   5.779   8.541   2.481
 9355TIP3    H127998   5.751   8.458   2.435
 9355TIP3    H227999   5.788   8.512   2.574
 9356TIP3   OH228000   6.060   8.683   3.265
 9356TIP3    H128001   6.049   8.601   3.213
 9356TIP3    H228002   6.084   8.748   3.196
 9357TIP3   OH228003   5.362   8.070   2.529
 9357TIP3    H128004   5.281   8.122   2.513
 9357TIP3    H228005   5.403   8.068   2.441
 9358TIP3   OH228006   5.317   7.860   2.238
 9358TIP3    H128007   5.385   7.914   2.283
 9358TIP3    H228008   5.375   7.796   2.191
 9359TIP3   OH228009   6.260   8.317   3.110
 9359TIP3    H128010   6.176   8.368   3.117
 9359TIP3    H228011   6.288   8.343   3.020
 9360TIP3   OH228012   5.708   8.151   2.500
 9360TIP3    H128013   5.653   8.170   2.579
 9360TIP3    H228014   5.793   8.126   2.543
 9361TIP3   OH228015   5.941   8.195   3.416
 9361TIP3    H128016   5.943   8.276   3.471
 9361TIP3    H228017   5.856   8.207   3.370
 9362TIP3   OH228018   4.945   8.153   2.905
 9362TIP3    H128019   4.902   8.095   2.839
 9362TIP3    H228020   5.022   8.099   2.934
 9363TIP3   OH228021   5.079   8.517   3.108
 9363TIP3    H128022   5.040   8.521   3.018
 9363TIP3    H228023   5.175   8.514   3.090
 9364TIP3   OH228024   5.081   8.123   3.266
 9364TIP3    H128025   5.111   8.106   3.175
 9364TIP3    H228026   5.119   8.212   3.285
 9365TIP3   OH228027   5.258   8.585   3.585
 9365TIP3    H128028   5.221   8.672   3.608
 9365TIP3    H228029   5.184   8.550   3.533
 9366TIP3   OH228030   5.541   8.017   2.322
 9366TIP3    H128031   5.601   8.077   2.371
 9366TIP3    H228032   5.572   8.031   2.229
 9367TIP3   OH228033   4.968   8.239   3.687
 9367TIP3    H128034   4.978   8.324   3.734
 9367TIP3    H228035   4.876   8.216   3.710
 9368TIP3   OH228036   6.063   7.257   2.371
 9368TIP3    H128037   5.980   7.278   2.419
 9368TIP3    H228038   6.076   7.338   2.317
 9369TIP3   OH228039   4.808   7.996   2.716
 9369TIP3    H128040   4.741   8.040   2.659
 9369TIP3    H228041   4.766   7.910   2.730
 9370TIP3   OH228042   4.604   8.381   3.625
 9370TIP3    H128043   4.535   8.359   3.560
 9370TIP3    H228044   4.638   8.294   3.652
 9371TIP3   OH228045   6.198   8.159   3.587
 9371TIP3    H128046   6.112   8.169   3.544
 9371TIP3    H228047   6.213   8.063   3.579
 9372TIP3   OH228048   4.791   8.586   3.626
 9372TIP3    H128049   4.846   8.548   3.699
 9372TIP3    H228050   4.720   8.518   3.619
 9373TIP3   OH228051   5.182   7.400   3.402
 9373TIP3    H128052   5.098   7.364   3.365
 9373TIP3    H228053   5.143   7.470   3.459
 9374TIP3   OH228054   5.723   7.488   3.597
 9374TIP3    H128055   5.806   7.471   3.649
 9374TIP3    H228056   5.656   7.472   3.666
 9375TIP3   OH228057   5.935   7.920   3.494
 9375TIP3    H128058   5.899   7.917   3.585
 9375TIP3    H228059   5.931   8.015   3.473
 9376TIP3   OH228060   5.627   8.045   2.069
 9376TIP3    H128061   5.590   8.024   1.981
 9376TIP3    H228062   5.686   8.119   2.047
 9377TIP3   OH228063   5.333   7.437   2.368
 9377TIP3    H128064   5.296   7.431   2.458
 9377TIP3    H228065   5.296   7.355   2.330
 9378TIP3   OH228066   5.120   7.895   3.418
 9378TIP3    H128067   5.070   7.925   3.497
 9378TIP3    H228068   5.117   7.976   3.363
 9379TIP3   OH228069   5.005   7.791   2.930
 9379TIP3    H128070   4.912   7.765   2.949
 9379TIP3    H228071   5.016   7.752   2.840
 9380TIP3   OH228072   5.498   7.873   2.660
 9380TIP3    H128073   5.447   7.942   2.613
 9380TIP3    H228074   5.554   7.838   2.588
 9381TIP3   OH228075   5.674   8.154   3.743
 9381TIP3    H128076   5.653   8.082   3.807
 9381TIP3    H228077   5.767   8.170   3.766
 9382TIP3   OH228078   5.644   7.904   2.892
 9382TIP3    H128079   5.587   7.928   2.816
 9382TIP3    H228080   5.686   7.825   2.851
 9383TIP3   OH228081   4.940   7.931   3.625
 9383TIP3    H128082   4.966   7.998   3.690
 9383TIP3    H228083   4.928   7.852   3.680
 9384TIP3   OH228084   4.991   7.413   2.334
 9384TIP3    H128085   4.980   7.410   2.430
 9384TIP3    H228086   4.912   7.465   2.307
 9385TIP3   OH228087   4.532   7.453   3.206
 9385TIP3    H128088   4.608   7.484   3.259
 9385TIP3    H228089   4.572   7.424   3.123
 9386TIP3   OH228090   4.500   7.434   2.725
 9386TIP3    H128091   4.546   7.470   2.646
 9386TIP3    H228092   4.439   7.509   2.743
 9387TIP3   OH228093   5.651   8.149   3.314
 9387TIP3    H128094   5.688   8.077   3.258
 9387TIP3    H228095   5.632   8.098   3.396
 9388TIP3   OH228096   5.338   7.615   2.988
 9388TIP3    H128097   5.253   7.593   3.028
 9388TIP3    H228098   5.360   7.698   3.037
 9389TIP3   OH228099   4.767   7.670   2.998
 9389TIP3    H128100   4.673   7.679   2.969
 9389TIP3    H228101   4.788   7.577   2.975
 9390TIP3   OH228102   5.032   7.666   2.688
 9390TIP3    H128103   5.125   7.677   2.661
 9390TIP3    H228104   4.982   7.686   2.605
 9391TIP3   OH228105   5.839   7.693   3.185
 9391TIP3    H128106   5.799   7.686   3.273
 9391TIP3    H228107   5.829   7.604   3.148
 9392TIP3   OH228108   4.882   7.699   2.465
 9392TIP3    H128109   4.811   7.653   2.416
 9392TIP3    H228110   4.934   7.736   2.390
 9393TIP3   OH228111   4.958   8.487   3.830
 9393TIP3    H128112   5.036   8.514   3.883
 9393TIP3    H228113   4.894   8.473   3.902
 9394TIP3   OH228114   5.425   7.905   3.077
 9394TIP3    H128115   5.499   7.902   3.014
 9394TIP3    H228116   5.470   7.930   3.159
 9395TIP3   OH228117   4.941   7.426   2.973
 9395TIP3    H128118   4.901   7.351   3.021
 9395TIP3    H228119   4.977   7.382   2.894
 9396TIP3   OH228120   5.131   8.213   2.482
 9396TIP3    H128121   5.054   8.154   2.467
 9396TIP3    H228122   5.104   8.259   2.565
 9397TIP3   OH228123   6.027   8.460   3.105
 9397TIP3    H128124   6.053   8.509   3.023
 9397TIP3    H228125   5.942   8.418   3.077
 9398TIP3   OH228126   5.586   7.535   2.347
 9398TIP3    H128127   5.490   7.515   2.349
 9398TIP3    H228128   5.590   7.631   2.366
 9399TIP3   OH228129   5.538   8.571   3.470
 9399TIP3    H128130   5.575   8.520   3.543
 9399TIP3    H228131   5.454   8.601   3.508
 9400TIP3   OH228132   5.654   7.791   2.445
 9400TIP3    H128133   5.751   7.794   2.456
 9400TIP3    H228134   5.636   7.869   2.390
 9401TIP3   OH228135   4.804   8.209   3.138
 9401TIP3    H128136   4.855   8.196   3.055
 9401TIP3    H228137   4.858   8.162   3.203
 9402TIP3   OH228138   5.237   8.398   2.312
 9402TIP3    H128139   5.197   8.470   2.367
 9402TIP3    H228140   5.203   8.320   2.360
 9403TIP3   OH228141   4.710   8.163   3.762
 9403TIP3    H128142   4.730   8.156   3.858
 9403TIP3    H228143   4.639   8.098   3.753
 9404TIP3   OH228144   5.434   8.279   3.782
 9404TIP3    H128145   5.373   8.223   3.732
 9404TIP3    H228146   5.521   8.244   3.753
 9405TIP3   OH228147   6.094   7.882   2.273
 9405TIP3    H128148   6.034   7.837   2.210
 9405TIP3    H228149   6.088   7.972   2.235
 9406TIP3   OH228150   6.317   8.719   3.357
 9406TIP3    H128151   6.220   8.729   3.345
 9406TIP3    H228152   6.344   8.704   3.263
 9407TIP3   OH228153   5.795   8.334   3.003
 9407TIP3    H128154   5.702   8.311   3.026
 9407TIP3    H228155   5.826   8.249   2.966
 9408TIP3   OH228156   4.489   7.857   2.480
 9408TIP3    H128157   4.533   7.942   2.499
 9408TIP3    H228158   4.411   7.863   2.539
 9409TIP3   OH228159   5.054   8.335   2.719
 9409TIP3    H128160   5.008   8.411   2.758
 9409TIP3    H228161   5.031   8.269   2.786
 9410TIP3   OH228162   5.584   8.531   3.201
 9410TIP3    H128163   5.570   8.544   3.297
 9410TIP3    H228164   5.671   8.490   3.199
 9411TIP3   OH228165   5.590   8.362   2.054
 9411TIP3    H128166   5.619   8.349   2.146
 9411TIP3    H228167   5.508   8.414   2.066
 9412TIP3   OH228168   4.915   7.671   3.771
 9412TIP3    H128169   4.819   7.678   3.789
 9412TIP3    H228170   4.946   7.624   3.851
 9413TIP3   OH228171   5.713   8.335   2.302
 9413TIP3    H128172   5.707   8.265   2.370
 9413TIP3    H228173   5.810   8.335   2.283
 9414TIP3   OH228174   4.910   8.357   2.130
 9414TIP3    H128175   4.944   8.267   2.109
 9414TIP3    H228176   4.929   8.364   2.224
 9415TIP3   OH228177   4.607   8.099   2.557
 9415TIP3    H128178   4.539   8.134   2.617
 9415TIP3    H228179   4.610   8.172   2.491
 9416TIP3   OH228180   5.733   7.709   3.437
 9416TIP3    H128181   5.795   7.783   3.456
 9416TIP3    H228182   5.753   7.649   3.512
 9417TIP3   OH228183   5.625   7.492   2.624
 9417TIP3    H128184   5.616   7.507   2.528
 9417TIP3    H228185   5.668   7.575   2.654
 9418TIP3   OH228186   5.318   7.672   2.717
 9418TIP3    H128187   5.382   7.744   2.697
 9418TIP3    H228188   5.327   7.665   2.814
 9419TIP3   OH228189   5.614   7.995   3.533
 9419TIP3    H128190   5.619   8.061   3.605
 9419TIP3    H228191   5.656   7.920   3.576
 9420TIP3   OH228192   5.454   7.393   2.819
 9420TIP3    H128193   5.439   7.474   2.871
 9420TIP3    H228194   5.519   7.426   2.752
 9421TIP3   OH228195   4.973   7.398   2.611
 9421TIP3    H128196   4.973   7.489   2.648
 9421TIP3    H228197   5.069   7.379   2.616
 9422TIP3   OH228198   6.213   7.896   3.505
 9422TIP3    H128199   6.116   7.885   3.505
 9422TIP3    H228200   6.237   7.842   3.428
 9423TIP3   OH228201   5.877   8.085   2.896
 9423TIP3    H128202   5.804   8.021   2.905
 9423TIP3    H228203   5.951   8.038   2.943
 9424TIP3   OH228204   4.597   8.314   2.371
 9424TIP3    H128205   4.622   8.407   2.358
 9424TIP3    H228206   4.652   8.267   2.305
 9425TIP3   OH228207   4.535   7.587   2.502
 9425TIP3    H128208   4.535   7.685   2.499
 9425TIP3    H228209   4.459   7.567   2.446
 9426TIP3   OH228210   4.928   7.307   3.368
 9426TIP3    H128211   4.895   7.272   3.282
 9426TIP3    H228212   4.916   7.230   3.427
 9427TIP3   OH228213   4.752   8.459   4.008
 9427TIP3    H128214   4.778   8.365   4.021
 9427TIP3    H228215   4.663   8.449   3.968
 9428TIP3   OH228216   4.725   8.118   2.224
 9428TIP3    H128217   4.774   8.082   2.300
 9428TIP3    H228218   4.797   8.119   2.157
 9429TIP3   OH228219   5.375   8.541   3.828
 9429TIP3    H128220   5.342   8.553   3.737
 9429TIP3    H228221   5.411   8.450   3.822
 9430TIP3   OH228222   5.185   8.299   2.033
 9430TIP3    H128223   5.208   8.313   2.126
 9430TIP3    H228224   5.214   8.206   2.019
 9431TIP3   OH228225   5.847   8.561   3.398
 9431TIP3    H128226   5.915   8.619   3.358
 9431TIP3    H228227   5.771   8.621   3.401
 9432TIP3   OH228228   4.873   8.210   4.006
 9432TIP3    H128229   4.922   8.127   4.011
 9432TIP3    H228230   4.895   8.246   4.095
 9433TIP3   OH228231   4.928   8.029   2.435
 9433TIP3    H128232   4.901   7.985   2.518
 9433TIP3    H228233   4.969   7.955   2.385
 9434TIP3   OH228234   5.204   8.089   3.661
 9434TIP3    H128235   5.128   8.151   3.664
 9434TIP3    H228236   5.257   8.128   3.587
 9435TIP3   OH228237   5.039   7.827   2.281
 9435TIP3    H128238   5.015   7.828   2.186
 9435TIP3    H228239   5.137   7.826   2.274
 9436TIP3   OH228240   5.726   8.484   3.799
 9436TIP3    H128241   5.813   8.465   3.761
 9436TIP3    H228242   5.723   8.424   3.875
 9437TIP3   OH228243   5.859   8.166   1.939
 9437TIP3    H128244   5.834   8.111   1.862
 9437TIP3    H228245   5.834   8.254   1.905
 9438TIP3   OH228246   5.333   7.893   3.794
 9438TIP3    H128247   5.300   7.811   3.757
 9438TIP3    H228248   5.287   7.962   3.740
 9439TIP3   OH228249   5.327   7.678   3.528
 9439TIP3    H128250   5.309   7.776   3.517
 9439TIP3    H228251   5.234   7.648   3.537
 9440TIP3   OH228252   5.355   8.210   3.474
 9440TIP3    H128253   5.439   8.223   3.429
 9440TIP3    H228254   5.297   8.275   3.429
 9441TIP3   OH228255   5.936   8.168   3.850
 9441TIP3    H128256   5.986   8.091   3.883
 9441TIP3    H228257   6.007   8.228   3.823
 9442TIP3   OH228258   5.982   8.420   3.585
 9442TIP3    H128259   5.924   8.475   3.527
 9442TIP3    H228260   6.070   8.444   3.548
 9443TIP3   OH228261   5.211   7.995   4.032
 9443TIP3    H128262   5.135   7.937   4.049
 9443TIP3    H228263   5.242   7.963   3.945
 9444TIP3   OH228264   5.447   7.436   3.642
 9444TIP3    H128265   5.384   7.503   3.671
 9444TIP3    H228266   5.391   7.354   3.649
 9445TIP3   OH228267   5.595   7.937   3.887
 9445TIP3    H128268   5.587   7.922   3.983
 9445TIP3    H228269   5.502   7.918   3.861
 9446TIP3   OH228270   5.819   7.873   3.733
 9446TIP3    H128271   5.752   7.886   3.804
 9446TIP3    H228272   5.898   7.851   3.787
 9447TIP3   OH228273   6.045   7.822   3.882
 9447TIP3    H128274   6.066   7.729   3.903
 9447TIP3    H228275   6.046   7.865   3.970
 9448TIP3   OH228276   5.048   7.768   4.070
 9448TIP3    H128277   5.049   7.673   4.047
 9448TIP3    H228278   5.080   7.762   4.163
 9449TIP3   OH228279   5.561   7.447   3.913
 9449TIP3    H128280   5.629   7.377   3.923
 9449TIP3    H228281   5.513   7.416   3.835
 9450TIP3   OH228282   5.625   7.659   4.084
 9450TIP3    H128283   5.602   7.589   4.019
 9450TIP3    H228284   5.546   7.717   4.082
 9451TIP3   OH228285   4.335   8.218   2.415
 9451TIP3    H128286   4.414   8.262   2.378
 9451TIP3    H228287   4.320   8.146   2.351
 9452TIP3   OH228288   6.203   8.854   3.630
 9452TIP3    H128289   6.131   8.835   3.693
 9452TIP3    H228290   6.260   8.913   3.681
 9453TIP3   OH228291   5.987   8.332   2.286
 9453TIP3    H128292   6.056   8.393   2.254
 9453TIP3    H228293   6.032   8.293   2.364
 9454TIP3   OH228294   6.123   8.207   2.487
 9454TIP3    H128295   6.057   8.163   2.546
 9454TIP3    H228296   6.188   8.243   2.550
 9455TIP3   OH228297   6.151   8.588   2.903
 9455TIP3    H128298   6.221   8.531   2.865
 9455TIP3    H228299   6.167   8.674   2.863
 9456TIP3   OH228300   6.053   8.116   2.126
 9456TIP3    H128301   5.982   8.121   2.057
 9456TIP3    H228302   6.025   8.191   2.183
 9457TIP3   OH228303   5.933   7.790   2.076
 9457TIP3    H128304   5.879   7.819   2.002
 9457TIP3    H228305   5.911   7.694   2.077
 9458TIP3   OH228306   5.936   8.064   2.628
 9458TIP3    H128307   5.944   7.968   2.617
 9458TIP3    H228308   5.922   8.073   2.725
 9459TIP3   OH228309   4.560   8.145   3.375
 9459TIP3    H128310   4.557   8.109   3.284
 9459TIP3    H228311   4.658   8.143   3.390
 9460TIP3   OH228312   6.225   8.488   3.484
 9460TIP3    H128313   6.299   8.423   3.476
 9460TIP3    H228314   6.256   8.560   3.426
 9461TIP3   OH228315   6.414   8.295   3.498
 9461TIP3    H128316   6.339   8.246   3.538
 9461TIP3    H228317   6.486   8.229   3.514
 9462TIP3   OH228318   5.871   7.526   2.070
 9462TIP3    H128319   5.945   7.488   2.121
 9462TIP3    H228320   5.801   7.460   2.080
 9463TIP3   OH228321   5.934   7.783   2.519
 9463TIP3    H128322   5.972   7.694   2.536
 9463TIP3    H228323   5.992   7.812   2.446
 9464TIP3   OH228324   6.089   7.957   3.015
 9464TIP3    H128325   6.176   7.979   2.974
 9464TIP3    H228326   6.107   7.991   3.105
 9465TIP3   OH228327   6.161   8.098   3.246
 9465TIP3    H128328   6.087   8.134   3.298
 9465TIP3    H228329   6.195   8.178   3.201
 9466TIP3   OH228330   4.777   7.816   4.026
 9466TIP3    H128331   4.872   7.829   4.049
 9466TIP3    H228332   4.759   7.734   4.077
 9467TIP3   OH228333   6.594   7.685   3.794
 9467TIP3    H128334   6.669   7.626   3.769
 9467TIP3    H228335   6.589   7.745   3.719
 9468TIP3   OH228336   6.037   7.534   2.561
 9468TIP3    H128337   6.088   7.515   2.643
 9468TIP3    H228338   5.978   7.455   2.558
 9469TIP3   OH228339   4.740   7.514   3.378
 9469TIP3    H128340   4.802   7.439   3.387
 9469TIP3    H228341   4.802   7.588   3.370
 9470TIP3   OH228342   4.540   7.789   3.449
 9470TIP3    H128343   4.591   7.790   3.366
 9470TIP3    H228344   4.568   7.871   3.491
 9471TIP3   OH228345   6.483   7.838   3.591
 9471TIP3    H128346   6.402   7.873   3.632
 9471TIP3    H228347   6.450   7.757   3.549
 9472TIP3   OH228348   6.120   7.464   2.192
 9472TIP3    H128349   6.154   7.390   2.136
 9472TIP3    H228350   6.191   7.530   2.185
 9473TIP3   OH228351   4.529   7.296   2.955
 9473TIP3    H128352   4.435   7.288   2.980
 9473TIP3    H228353   4.522   7.354   2.875
 9474TIP3   OH228354   4.746   7.368   3.763
 9474TIP3    H128355   4.699   7.369   3.847
 9474TIP3    H228356   4.680   7.409   3.704
 9475TIP3   OH228357   6.383   7.590   3.490
 9475TIP3    H128358   6.294   7.574   3.456
 9475TIP3    H228359   6.423   7.500   3.482
 9476TIP3   OH228360   6.114   7.394   3.016
 9476TIP3    H128361   6.148   7.439   2.936
 9476TIP3    H228362   6.017   7.400   3.003
 9477TIP3   OH228363   6.204   7.489   2.777
 9477TIP3    H128364   6.277   7.435   2.740
 9477TIP3    H228365   6.239   7.580   2.761
 9478TIP3   OH228366   4.836   7.215   3.122
 9478TIP3    H128367   4.742   7.184   3.126
 9478TIP3    H228368   4.882   7.129   3.118
 9479TIP3   OH228369   4.627   7.087   2.775
 9479TIP3    H128370   4.656   7.141   2.699
 9479TIP3    H228371   4.600   7.155   2.840
 9480TIP3   OH228372   5.284   7.244   2.999
 9480TIP3    H128373   5.339   7.288   2.933
 9480TIP3    H228374   5.300   7.297   3.078
 9481TIP3   OH228375   5.838   7.405   2.999
 9481TIP3    H128376   5.819   7.371   2.911
 9481TIP3    H228377   5.813   7.328   3.055
 9482TIP3   OH228378   5.857   7.319   2.551
 9482TIP3    H128379   5.768   7.355   2.560
 9482TIP3    H228380   5.847   7.233   2.597
 9483TIP3   OH228381   4.743   7.242   2.534
 9483TIP3    H128382   4.789   7.178   2.476
 9483TIP3    H228383   4.818   7.295   2.568
 9484TIP3   OH228384   5.248   7.422   2.631
 9484TIP3    H128385   5.309   7.371   2.686
 9484TIP3    H228386   5.276   7.513   2.655
 9485TIP3   OH228387   5.046   7.491   4.007
 9485TIP3    H128388   5.007   7.427   4.070
 9485TIP3    H228389   5.140   7.491   4.040
 9486TIP3   OH228390   5.298   7.477   4.115
 9486TIP3    H128391   5.392   7.455   4.102
 9486TIP3    H228392   5.278   7.423   4.195
 9487TIP3   OH228393   6.119   7.555   3.919
 9487TIP3    H128394   6.137   7.525   4.011
 9487TIP3    H228395   6.209   7.552   3.880
 9488TIP3   OH228396   6.613   8.364   2.913
 9488TIP3    H128397   6.666   8.323   2.983
 9488TIP3    H228398   6.682   8.403   2.855
 9489TIP3   OH228399   6.298   7.990   2.427
 9489TIP3    H128400   6.246   8.070   2.447
 9489TIP3    H228401   6.228   7.934   2.388
 9490TIP3   OH228402   6.362   8.277   2.612
 9490TIP3    H128403   6.407   8.197   2.650
 9490TIP3    H228404   6.423   8.299   2.541
 9491TIP3   OH228405   6.826   7.866   2.613
 9491TIP3    H128406   6.809   7.927   2.540
 9491TIP3    H228407   6.794   7.783   2.572
 9492TIP3   OH228408   6.503   8.068   2.711
 9492TIP3    H128409   6.583   8.051   2.765
 9492TIP3    H228410   6.517   8.006   2.637
 9493TIP3   OH228411   6.860   7.849   3.049
 9493TIP3    H128412   6.801   7.880   2.978
 9493TIP3    H228413   6.803   7.860   3.127
 9494TIP3   OH228414   6.724   7.969   2.840
 9494TIP3    H128415   6.792   8.036   2.862
 9494TIP3    H228416   6.768   7.926   2.762
 9495TIP3   OH228417   6.201   8.477   2.189
 9495TIP3    H128418   6.174   8.494   2.097
 9495TIP3    H228419   6.231   8.566   2.214
 9496TIP3   OH228420   7.223   7.578   2.770
 9496TIP3    H128421   7.218   7.486   2.799
 9496TIP3    H228422   7.136   7.613   2.801
 9497TIP3   OH228423   6.725   8.508   3.182
 9497TIP3    H128424   6.709   8.580   3.244
 9497TIP3    H228425   6.638   8.463   3.188
 9498TIP3   OH228426   6.582   8.239   2.147
 9498TIP3    H128427   6.552   8.320   2.192
 9498TIP3    H228428   6.547   8.170   2.204
 9499TIP3   OH228429   6.388   8.632   3.113
 9499TIP3    H128430   6.324   8.608   3.045
 9499TIP3    H228431   6.424   8.546   3.142
 9500TIP3   OH228432   6.972   7.666   2.842
 9500TIP3    H128433   6.882   7.629   2.835
 9500TIP3    H228434   6.967   7.698   2.934
 9501TIP3   OH228435   7.502   7.710   3.102
 9501TIP3    H128436   7.540   7.734   3.189
 9501TIP3    H228437   7.408   7.711   3.121
 9502TIP3   OH228438   6.914   8.151   2.909
 9502TIP3    H128439   6.863   8.188   2.984
 9502TIP3    H228440   6.936   8.229   2.856
 9503TIP3   OH228441   6.777   8.030   2.394
 9503TIP3    H128442   6.690   8.000   2.429
 9503TIP3    H228443   6.751   8.061   2.306
 9504TIP3   OH228444   6.750   8.198   3.123
 9504TIP3    H128445   6.737   8.254   3.200
 9504TIP3    H228446   6.738   8.109   3.163
 9505TIP3   OH228447   6.771   7.642   1.815
 9505TIP3    H128448   6.769   7.637   1.913
 9505TIP3    H228449   6.685   7.680   1.796
 9506TIP3   OH228450   6.327   7.714   2.691
 9506TIP3    H128451   6.404   7.740   2.745
 9506TIP3    H228452   6.366   7.675   2.611
 9507TIP3   OH228453   6.300   7.692   2.209
 9507TIP3    H128454   6.347   7.724   2.129
 9507TIP3    H228455   6.239   7.766   2.224
 9508TIP3   OH228456   7.084   7.809   2.535
 9508TIP3    H128457   7.000   7.809   2.585
 9508TIP3    H228458   7.140   7.863   2.594
 9509TIP3   OH228459   6.551   7.915   2.487
 9509TIP3    H128460   6.456   7.927   2.462
 9509TIP3    H228461   6.567   7.821   2.468
 9510TIP3   OH228462   6.619   7.946   1.991
 9510TIP3    H128463   6.552   7.894   1.942
 9510TIP3    H228464   6.629   8.024   1.934
 9511TIP3   OH228465   6.731   7.674   2.448
 9511TIP3    H128466   6.693   7.599   2.499
 9511TIP3    H228467   6.799   7.629   2.395
 9512TIP3   OH228468   6.482   8.412   3.256
 9512TIP3    H128469   6.490   8.391   3.352
 9512TIP3    H228470   6.409   8.353   3.231
 9513TIP3   OH228471   6.273   8.106   1.968
 9513TIP3    H128472   6.311   8.192   1.987
 9513TIP3    H228473   6.193   8.107   2.025
 9514TIP3   OH228474   6.707   7.936   3.258
 9514TIP3    H128475   6.611   7.931   3.271
 9514TIP3    H228476   6.740   7.879   3.330
 9515TIP3   OH228477   6.740   7.650   2.088
 9515TIP3    H128478   6.721   7.737   2.125
 9515TIP3    H228479   6.832   7.637   2.118
 9516TIP3   OH228480   6.325   7.838   1.973
 9516TIP3    H128481   6.317   7.935   1.979
 9516TIP3    H228482   6.236   7.812   1.943
 9517TIP3   OH228483   6.712   7.563   2.858
 9517TIP3    H128484   6.686   7.523   2.772
 9517TIP3    H228485   6.712   7.486   2.918
 9518TIP3   OH228486   6.560   8.716   3.479
 9518TIP3    H128487   6.592   8.624   3.481
 9518TIP3    H228488   6.471   8.706   3.441
 9519TIP3   OH228489   6.684   8.469   3.486
 9519TIP3    H128490   6.741   8.391   3.484
 9519TIP3    H228491   6.697   8.498   3.579
 9520TIP3   OH228492   7.084   8.150   3.282
 9520TIP3    H128493   7.128   8.065   3.267
 9520TIP3    H228494   7.049   8.170   3.195
 9521TIP3   OH228495   7.107   7.952   3.060
 9521TIP3    H128496   7.067   7.986   2.978
 9521TIP3    H228497   7.027   7.902   3.090
 9522TIP3   OH228498   6.993   8.252   3.519
 9522TIP3    H128499   6.928   8.180   3.534
 9522TIP3    H228500   7.031   8.224   3.432
 9523TIP3   OH228501   7.236   7.709   3.163
 9523TIP3    H128502   7.184   7.789   3.141
 9523TIP3    H228503   7.165   7.641   3.152
 9524TIP3   OH228504   6.843   8.026   3.564
 9524TIP3    H128505   6.845   7.933   3.533
 9524TIP3    H228506   6.879   8.014   3.655
 9525TIP3   OH228507   7.353   7.689   3.411
 9525TIP3    H128508   7.425   7.624   3.400
 9525TIP3    H228509   7.308   7.683   3.325
 9526TIP3   OH228510   7.404   7.891   3.589
 9526TIP3    H128511   7.391   7.829   3.515
 9526TIP3    H228512   7.344   7.965   3.566
 9527TIP3   OH228513   6.120   8.480   1.886
 9527TIP3    H128514   6.195   8.522   1.842
 9527TIP3    H228515   6.104   8.404   1.826
 9528TIP3   OH228516   6.352   8.408   2.859
 9528TIP3    H128517   6.351   8.365   2.770
 9528TIP3    H228518   6.448   8.400   2.880
 9529TIP3   OH228519   6.582   8.087   3.533
 9529TIP3    H128520   6.679   8.078   3.540
 9529TIP3    H228521   6.554   7.999   3.565
 9530TIP3   OH228522   6.530   7.771   2.869
 9530TIP3    H128523   6.592   7.695   2.876
 9530TIP3    H228524   6.594   7.845   2.866
 9531TIP3   OH228525   6.333   8.048   2.933
 9531TIP3    H128526   6.386   8.044   2.851
 9531TIP3    H228527   6.374   8.122   2.979
 9532TIP3   OH228528   6.324   7.561   2.444
 9532TIP3    H128529   6.230   7.545   2.466
 9532TIP3    H228530   6.317   7.613   2.362
 9533TIP3   OH228531   6.543   7.642   3.256
 9533TIP3    H128532   6.493   7.630   3.338
 9533TIP3    H228533   6.473   7.669   3.194
 9534TIP3   OH228534   6.633   7.470   2.606
 9534TIP3    H128535   6.541   7.437   2.611
 9534TIP3    H228536   6.682   7.385   2.605
 9535TIP3   OH228537   6.426   7.345   2.263
 9535TIP3    H128538   6.451   7.398   2.186
 9535TIP3    H228539   6.400   7.412   2.328
 9536TIP3   OH228540   7.060   7.497   2.522
 9536TIP3    H128541   7.129   7.548   2.479
 9536TIP3    H228542   7.061   7.535   2.611
 9537TIP3   OH228543   6.525   7.494   2.016
 9537TIP3    H128544   6.573   7.428   1.962
 9537TIP3    H228545   6.600   7.548   2.051
 9538TIP3   OH228546   7.002   7.670   2.159
 9538TIP3    H128547   7.053   7.597   2.119
 9538TIP3    H228548   7.062   7.744   2.143
 9539TIP3   OH228549   6.839   7.754   3.498
 9539TIP3    H128550   6.802   7.682   3.552
 9539TIP3    H228551   6.933   7.751   3.528
 9540TIP3   OH228552   7.088   7.750   3.618
 9540TIP3    H128553   7.179   7.735   3.586
 9540TIP3    H228554   7.078   7.678   3.683
 9541TIP3   OH228555   2.269   0.952   7.518
 9541TIP3    H128556   2.267   0.876   7.576
 9541TIP3    H228557   2.308   1.020   7.574
 9542TIP3   OH228558   1.932   1.400   7.543
 9542TIP3    H128559   2.000   1.345   7.498
 9542TIP3    H228560   1.933   1.362   7.631
 9543TIP3   OH228561   1.973   0.879   7.297
 9543TIP3    H128562   1.898   0.822   7.273
 9543TIP3    H228563   1.924   0.953   7.337
 9544TIP3   OH228564   2.110   1.254   7.397
 9544TIP3    H128565   2.148   1.167   7.376
 9544TIP3    H228566   2.081   1.280   7.309
 9545TIP3   OH228567   2.206   1.028   7.261
 9545TIP3    H128568   2.138   0.961   7.240
 9545TIP3    H228569   2.239   0.990   7.345
 9546TIP3   OH228570   2.207   0.599   7.272
 9546TIP3    H128571   2.147   0.588   7.347
 9546TIP3    H228572   2.288   0.555   7.302
 9547TIP3   OH228573   1.843   1.172   7.311
 9547TIP3    H128574   1.847   1.184   7.407
 9547TIP3    H228575   1.755   1.133   7.300
 9548TIP3   OH228576   2.371   1.044   6.698
 9548TIP3    H128577   2.382   1.138   6.676
 9548TIP3    H228578   2.461   1.009   6.680
 9549TIP3   OH228579   1.687   1.386   7.144
 9549TIP3    H128580   1.633   1.362   7.067
 9549TIP3    H228581   1.637   1.458   7.185
 9550TIP3   OH228582   1.899   1.268   6.807
 9550TIP3    H128583   1.951   1.194   6.769
 9550TIP3    H228584   1.918   1.261   6.902
 9551TIP3   OH228585   1.936   1.302   7.092
 9551TIP3    H128586   1.846   1.339   7.114
 9551TIP3    H228587   1.930   1.226   7.154
 9552TIP3   OH228588   2.116   0.497   6.821
 9552TIP3    H128589   2.096   0.449   6.739
 9552TIP3    H228590   2.207   0.527   6.806
 9553TIP3   OH228591   1.837   0.860   6.995
 9553TIP3    H128592   1.774   0.930   7.020
 9553TIP3    H228593   1.822   0.796   7.067
 9554TIP3   OH228594   2.620   0.308   7.030
 9554TIP3    H128595   2.556   0.251   6.982
 9554TIP3    H228596   2.593   0.395   6.993
 9555TIP3   OH228597   2.298   1.155   6.961
 9555TIP3    H128598   2.280   1.086   7.027
 9555TIP3    H228599   2.316   1.099   6.883
 9556TIP3   OH228600   2.065   0.854   6.849
 9556TIP3    H128601   2.122   0.817   6.920
 9556TIP3    H228602   1.980   0.854   6.899
 9557TIP3   OH228603   2.401   1.318   6.673
 9557TIP3    H128604   2.427   1.386   6.609
 9557TIP3    H228605   2.321   1.360   6.710
 9558TIP3   OH228606   2.225   0.777   7.055
 9558TIP3    H128607   2.203   0.719   7.131
 9558TIP3    H228608   2.323   0.770   7.055
 9559TIP3   OH228609   1.650   1.045   7.071
 9559TIP3    H128610   1.568   1.039   7.121
 9559TIP3    H228611   1.640   1.132   7.026
 9560TIP3   OH228612   2.351   1.471   7.634
 9560TIP3    H128613   2.309   1.496   7.550
 9560TIP3    H228614   2.445   1.487   7.613
 9561TIP3   OH228615   1.589   0.997   6.776
 9561TIP3    H128616   1.602   0.954   6.864
 9561TIP3    H228617   1.665   0.960   6.727
 9562TIP3   OH228618   2.031   1.065   6.676
 9562TIP3    H128619   2.061   0.994   6.737
 9562TIP3    H228620   2.090   1.054   6.599
 9563TIP3   OH228621   2.364   0.569   6.707
 9563TIP3    H128622   2.354   0.533   6.617
 9563TIP3    H228623   2.327   0.659   6.692
 9564TIP3   OH228624   1.348   1.332   6.906
 9564TIP3    H128625   1.445   1.334   6.908
 9564TIP3    H228626   1.333   1.404   6.842
 9565TIP3   OH228627   2.620   1.549   7.584
 9565TIP3    H128628   2.642   1.613   7.653
 9565TIP3    H228629   2.679   1.575   7.511
 9566TIP3   OH228630   2.504   0.759   7.044
 9566TIP3    H128631   2.573   0.823   7.016
 9566TIP3    H228632   2.546   0.719   7.123
 9567TIP3   OH228633   2.626   0.625   7.246
 9567TIP3    H128634   2.559   0.587   7.306
 9567TIP3    H228635   2.690   0.666   7.307
 9568TIP3   OH228636   2.655   1.022   7.666
 9568TIP3    H128637   2.724   0.953   7.651
 9568TIP3    H228638   2.676   1.086   7.596
 9569TIP3   OH228639   2.560   0.537   6.892
 9569TIP3    H128640   2.490   0.541   6.823
 9569TIP3    H228641   2.530   0.611   6.949
 9570TIP3   OH228642   2.446   0.197   6.845
 9570TIP3    H128643   2.404   0.268   6.794
 9570TIP3    H228644   2.385   0.123   6.832
 9571TIP3   OH228645   2.440   0.485   7.400
 9571TIP3    H128646   2.457   0.390   7.390
 9571TIP3    H228647   2.439   0.496   7.496
 9572TIP3   OH228648   1.627   1.260   6.899
 9572TIP3    H128649   1.709   1.283   6.852
 9572TIP3    H228650   1.587   1.196   6.837
 9573TIP3   OH228651   3.832   0.898   6.947
 9573TIP3    H128652   3.802   0.989   6.926
 9573TIP3    H228653   3.757   0.847   6.911
 9574TIP3   OH228654   3.830   0.902   7.332
 9574TIP3    H128655   3.862   0.875   7.420
 9574TIP3    H228656   3.794   0.819   7.297
 9575TIP3   OH228657   3.128   0.810   7.668
 9575TIP3    H128658   3.113   0.783   7.761
 9575TIP3    H228659   3.224   0.806   7.658
 9576TIP3   OH228660   4.076   1.206   7.010
 9576TIP3    H128661   4.060   1.135   7.073
 9576TIP3    H228662   4.107   1.278   7.068
 9577TIP3   OH228663   3.101   1.208   7.420
 9577TIP3    H128664   3.092   1.110   7.414
 9577TIP3    H228665   3.197   1.216   7.411
 9578TIP3   OH228666   2.798   0.411   7.214
 9578TIP3    H128667   2.749   0.493   7.227
 9578TIP3    H228668   2.734   0.361   7.159
 9579TIP3   OH228669   2.854   0.707   7.372
 9579TIP3    H128670   2.891   0.624   7.413
 9579TIP3    H228671   2.926   0.733   7.314
 9580TIP3   OH228672   3.725   1.661   7.027
 9580TIP3    H128673   3.769   1.589   6.979
 9580TIP3    H228674   3.714   1.624   7.116
 9581TIP3   OH228675   3.630   1.123   7.379
 9581TIP3    H128676   3.670   1.044   7.338
 9581TIP3    H228677   3.713   1.170   7.403
 9582TIP3   OH228678   4.040   0.622   7.425
 9582TIP3    H128679   4.082   0.536   7.429
 9582TIP3    H228680   4.005   0.623   7.333
 9583TIP3   OH228681   3.362   0.260   7.357
 9583TIP3    H128682   3.341   0.338   7.303
 9583TIP3    H228683   3.285   0.204   7.343
 9584TIP3   OH228684   4.030   0.412   7.053
 9584TIP3    H128685   4.053   0.327   7.099
 9584TIP3    H228686   4.017   0.374   6.965
 9585TIP3   OH228687   2.979   0.491   7.469
 9585TIP3    H128688   3.060   0.488   7.523
 9585TIP3    H228689   3.001   0.423   7.404
 9586TIP3   OH228690   3.448   0.684   7.278
 9586TIP3    H128691   3.542   0.662   7.292
 9586TIP3    H228692   3.412   0.598   7.248
 9587TIP3   OH228693   4.691   0.623   7.550
 9587TIP3    H128694   4.613   0.680   7.538
 9587TIP3    H228695   4.747   0.674   7.611
 9588TIP3   OH228696   3.726   1.122   6.813
 9588TIP3    H128697   3.677   1.101   6.732
 9588TIP3    H228698   3.678   1.203   6.842
 9589TIP3   OH228699   3.493   1.055   7.606
 9589TIP3    H128700   3.426   1.122   7.632
 9589TIP3    H228701   3.534   1.098   7.527
 9590TIP3   OH228702   3.232   0.442   7.547
 9590TIP3    H128703   3.307   0.488   7.588
 9590TIP3    H228704   3.273   0.358   7.521
 9591TIP3   OH228705   3.303   1.229   7.705
 9591TIP3    H128706   3.271   1.306   7.652
 9591TIP3    H228707   3.238   1.227   7.778
 9592TIP3   OH228708   2.706   0.929   6.936
 9592TIP3    H128709   2.661   0.957   6.855
 9592TIP3    H228710   2.738   1.014   6.973
 9593TIP3   OH228711   4.145   1.446   7.174
 9593TIP3    H128712   4.055   1.436   7.214
 9593TIP3    H228713   4.135   1.533   7.130
 9594TIP3   OH228714   3.845   1.486   6.849
 9594TIP3    H128715   3.896   1.404   6.831
 9594TIP3    H228716   3.908   1.552   6.809
 9595TIP3   OH228717   3.993   1.273   6.756
 9595TIP3    H128718   3.942   1.195   6.730
 9595TIP3    H228719   4.031   1.243   6.841
 9596TIP3   OH228720   4.367   1.355   7.521
 9596TIP3    H128721   4.356   1.277   7.463
 9596TIP3    H228722   4.350   1.429   7.460
 9597TIP3   OH228723   3.664   0.755   6.778
 9597TIP3    H128724   3.583   0.806   6.756
 9597TIP3    H228725   3.706   0.746   6.691
 9598TIP3   OH228726   3.618   0.532   6.496
 9598TIP3    H128727   3.688   0.585   6.537
 9598TIP3    H228728   3.670   0.462   6.454
 9599TIP3   OH228729   4.564   0.995   7.368
 9599TIP3    H128730   4.480   1.045   7.372
 9599TIP3    H228731   4.593   1.016   7.277
 9600TIP3   OH228732   4.009   0.835   6.746
 9600TIP3    H128733   3.955   0.856   6.826
 9600TIP3    H228734   4.094   0.811   6.788
 9601TIP3   OH228735   4.243   0.868   7.673
 9601TIP3    H128736   4.240   0.949   7.728
 9601TIP3    H228737   4.157   0.875   7.627
 9602TIP3   OH228738   3.244   0.825   7.162
 9602TIP3    H128739   3.206   0.765   7.095
 9602TIP3    H228740   3.319   0.773   7.197
 9603TIP3   OH228741   3.373   1.242   7.315
 9603TIP3    H128742   3.350   1.204   7.229
 9603TIP3    H228743   3.462   1.203   7.331
 9604TIP3   OH228744   3.388   0.810   7.522
 9604TIP3    H128745   3.406   0.785   7.429
 9604TIP3    H228746   3.424   0.901   7.527
 9605TIP3   OH228747   3.905   1.439   7.296
 9605TIP3    H128748   3.888   1.520   7.348
 9605TIP3    H228749   3.886   1.367   7.359
 9606TIP3   OH228750   3.517   1.384   7.796
 9606TIP3    H128751   3.459   1.453   7.834
 9606TIP3    H228752   3.451   1.317   7.767
 9607TIP3   OH228753   3.846   0.692   6.575
 9607TIP3    H128754   3.905   0.752   6.625
 9607TIP3    H228755   3.875   0.711   6.483
 9608TIP3   OH228756   3.596   1.366   6.850
 9608TIP3    H128757   3.677   1.419   6.861
 9608TIP3    H228758   3.534   1.431   6.814
 9609TIP3   OH228759   3.308   1.565   7.846
 9609TIP3    H128760   3.310   1.577   7.749
 9609TIP3    H228761   3.226   1.516   7.855
 9610TIP3   OH228762   3.112   0.666   6.959
 9610TIP3    H128763   3.043   0.713   6.909
 9610TIP3    H228764   3.061   0.592   6.995
 9611TIP3   OH228765   4.169   1.313   6.132
 9611TIP3    H128766   4.190   1.391   6.187
 9611TIP3    H228767   4.254   1.264   6.136
 9612TIP3   OH228768   2.743   1.254   7.500
 9612TIP3    H128769   2.839   1.243   7.496
 9612TIP3    H228770   2.732   1.330   7.559
 9613TIP3   OH228771   4.606   1.699   7.573
 9613TIP3    H128772   4.606   1.603   7.588
 9613TIP3    H228773   4.522   1.725   7.617
 9614TIP3   OH228774   3.737   1.486   7.691
 9614TIP3    H128775   3.723   1.581   7.713
 9614TIP3    H228776   3.656   1.447   7.730
 9615TIP3   OH228777   3.478   1.616   6.655
 9615TIP3    H128778   3.425   1.602   6.575
 9615TIP3    H228779   3.446   1.703   6.687
 9616TIP3   OH228780   2.916   1.461   7.040
 9616TIP3    H128781   2.963   1.454   7.127
 9616TIP3    H228782   2.861   1.381   7.043
 9617TIP3   OH228783   3.688   1.503   6.296
 9617TIP3    H128784   3.725   1.415   6.306
 9617TIP3    H228785   3.710   1.540   6.385
 9618TIP3   OH228786   3.726   1.566   6.560
 9618TIP3    H128787   3.637   1.576   6.601
 9618TIP3    H228788   3.777   1.530   6.634
 9619TIP3   OH228789   4.492   0.821   7.828
 9619TIP3    H128790   4.412   0.852   7.782
 9619TIP3    H228791   4.491   0.726   7.810
 9620TIP3   OH228792   4.260   0.602   7.795
 9620TIP3    H128793   4.252   0.652   7.878
 9620TIP3    H228794   4.247   0.671   7.729
 9621TIP3   OH228795   3.930   0.731   6.322
 9621TIP3    H128796   3.890   0.710   6.236
 9621TIP3    H228797   4.011   0.778   6.295
 9622TIP3   OH228798   3.444   0.583   7.657
 9622TIP3    H128799   3.424   0.620   7.745
 9622TIP3    H228800   3.429   0.661   7.600
 9623TIP3   OH228801   3.305   0.463   7.182
 9623TIP3    H128802   3.211   0.441   7.198
 9623TIP3    H228803   3.318   0.430   7.091
 9624TIP3   OH228804   3.792   0.554   6.915
 9624TIP3    H128805   3.747   0.625   6.865
 9624TIP3    H228806   3.859   0.523   6.851
 9625TIP3   OH228807   3.934   0.626   7.172
 9625TIP3    H128808   3.876   0.659   7.100
 9625TIP3    H228809   3.968   0.545   7.128
 9626TIP3   OH228810   2.884   0.223   7.006
 9626TIP3    H128811   2.879   0.186   6.917
 9626TIP3    H228812   2.792   0.256   7.017
 9627TIP3   OH228813   3.959   0.827   7.576
 9627TIP3    H128814   3.995   0.754   7.521
 9627TIP3    H228815   3.939   0.778   7.658
 9628TIP3   OH228816   3.058   0.342   7.235
 9628TIP3    H128817   2.968   0.379   7.221
 9628TIP3    H228818   3.041   0.253   7.202
 9629TIP3   OH228819   3.351   0.351   6.931
 9629TIP3    H128820   3.447   0.336   6.948
 9629TIP3    H228821   3.354   0.397   6.846
 9630TIP3   OH228822   4.304   2.051   7.664
 9630TIP3    H128823   4.302   2.083   7.572
 9630TIP3    H228824   4.380   2.101   7.700
 9631TIP3   OH228825   3.705   0.620   7.344
 9631TIP3    H128826   3.788   0.595   7.299
 9631TIP3    H228827   3.717   0.583   7.433
 9632TIP3   OH228828   3.722   0.526   7.600
 9632TIP3    H128829   3.631   0.522   7.634
 9632TIP3    H228830   3.770   0.567   7.674
 9633TIP3   OH228831   3.431   0.904   6.725
 9633TIP3    H128832   3.361   0.837   6.713
 9633TIP3    H228833   3.411   0.936   6.816
 9634TIP3   OH228834   4.329   1.139   7.355
 9634TIP3    H128835   4.353   1.190   7.275
 9634TIP3    H228836   4.246   1.095   7.328
 9635TIP3   OH228837   3.858   0.290   6.544
 9635TIP3    H128838   3.802   0.235   6.602
 9635TIP3    H228839   3.899   0.350   6.610
 9636TIP3   OH228840   3.837   1.222   7.717
 9636TIP3    H128841   3.829   1.182   7.803
 9636TIP3    H228842   3.795   1.309   7.728
 9637TIP3   OH228843   3.967   0.477   6.713
 9637TIP3    H128844   4.064   0.486   6.726
 9637TIP3    H228845   3.946   0.556   6.659
 9638TIP3   OH228846   3.128   0.938   7.393
 9638TIP3    H128847   3.167   0.893   7.315
 9638TIP3    H228848   3.140   0.875   7.465
 9639TIP3   OH228849   3.576   1.052   6.548
 9639TIP3    H128850   3.527   1.138   6.552
 9639TIP3    H228851   3.523   0.997   6.609
 9640TIP3   OH228852   4.003   1.480   7.630
 9640TIP3    H128853   3.906   1.464   7.634
 9640TIP3    H228854   4.009   1.560   7.684
 9641TIP3   OH228855   4.401   0.553   6.516
 9641TIP3    H128856   4.339   0.503   6.458
 9641TIP3    H228857   4.385   0.643   6.481
 9642TIP3   OH228858   4.619   1.411   7.608
 9642TIP3    H128859   4.521   1.403   7.600
 9642TIP3    H228860   4.645   1.381   7.518
 9643TIP3   OH228861   4.102   1.365   6.428
 9643TIP3    H128862   4.075   1.325   6.513
 9643TIP3    H228863   4.094   1.289   6.369
 9644TIP3   OH228864   4.096   1.003   7.273
 9644TIP3    H128865   4.003   0.977   7.284
 9644TIP3    H228866   4.132   0.924   7.228
 9645TIP3   OH228867   3.227   1.230   7.028
 9645TIP3    H128868   3.220   1.311   6.973
 9645TIP3    H228869   3.135   1.211   7.046
 9646TIP3   OH228870   2.794   0.526   6.749
 9646TIP3    H128871   2.833   0.614   6.767
 9646TIP3    H228872   2.713   0.530   6.805
 9647TIP3   OH228873   3.359   0.993   6.969
 9647TIP3    H128874   3.325   1.082   6.989
 9647TIP3    H228875   3.325   0.941   7.044
 9648TIP3   OH228876   3.499   1.576   7.483
 9648TIP3    H128877   3.540   1.652   7.436
 9648TIP3    H228878   3.574   1.545   7.536
 9649TIP3   OH228879   3.144   1.468   6.879
 9649TIP3    H128880   3.059   1.477   6.928
 9649TIP3    H228881   3.176   1.561   6.883
 9650TIP3   OH228882   3.883   1.207   7.452
 9650TIP3    H128883   3.875   1.205   7.550
 9650TIP3    H228884   3.960   1.149   7.438
 9651TIP3   OH228885   3.848   1.098   6.342
 9651TIP3    H128886   3.907   1.073   6.417
 9651TIP3    H228887   3.764   1.065   6.376
 9652TIP3   OH228888   4.127   1.737   7.505
 9652TIP3    H128889   4.044   1.688   7.486
 9652TIP3    H228890   4.122   1.806   7.434
 9653TIP3   OH228891   4.198   1.590   6.155
 9653TIP3    H128892   4.251   1.670   6.131
 9653TIP3    H228893   4.122   1.635   6.197
 9654TIP3   OH228894   4.021   1.030   6.548
 9654TIP3    H128895   4.007   0.967   6.622
 9654TIP3    H228896   4.118   1.027   6.541
 9655TIP3   OH228897   2.948   1.448   7.643
 9655TIP3    H128898   2.977   1.360   7.666
 9655TIP3    H228899   2.889   1.469   7.719
 9656TIP3   OH228900   3.219   1.080   6.339
 9656TIP3    H128901   3.237   0.988   6.314
 9656TIP3    H228902   3.201   1.070   6.434
 9657TIP3   OH228903   3.167   1.086   6.611
 9657TIP3    H128904   3.239   1.056   6.668
 9657TIP3    H228905   3.171   1.183   6.621
 9658TIP3   OH228906   2.904   0.780   6.817
 9658TIP3    H128907   2.837   0.823   6.874
 9658TIP3    H228908   2.914   0.848   6.748
 9659TIP3   OH228909   3.435   1.283   6.558
 9659TIP3    H128910   3.348   1.302   6.598
 9659TIP3    H228911   3.448   1.365   6.507
 9660TIP3   OH228912   3.620   0.348   6.977
 9660TIP3    H128913   3.676   0.427   6.960
 9660TIP3    H228914   3.681   0.292   7.027
 9661TIP3   OH228915   3.911   0.690   7.804
 9661TIP3    H128916   3.926   0.747   7.883
 9661TIP3    H228917   3.959   0.611   7.831
 9662TIP3   OH228918   3.181   1.357   6.631
 9662TIP3    H128919   3.150   1.427   6.569
 9662TIP3    H228920   3.164   1.399   6.718
 9663TIP3   OH228921   4.186   0.764   7.153
 9663TIP3    H128922   4.106   0.708   7.164
 9663TIP3    H228923   4.254   0.711   7.200
 9664TIP3   OH228924   2.898   0.983   6.619
 9664TIP3    H128925   2.969   1.048   6.630
 9664TIP3    H228926   2.941   0.924   6.554
 9665TIP3   OH228927   2.865   0.262   6.685
 9665TIP3    H128928   2.847   0.352   6.720
 9665TIP3    H228929   2.783   0.214   6.705
 9666TIP3   OH228930   4.153   1.715   7.098
 9666TIP3    H128931   4.110   1.760   7.022
 9666TIP3    H228932   4.247   1.733   7.077
 9667TIP3   OH228933   2.763   1.198   7.002
 9667TIP3    H128934   2.712   1.233   7.076
 9667TIP3    H228935   2.726   1.247   6.926
 9668TIP3   OH228936   3.385   1.281   6.247
 9668TIP3    H128937   3.330   1.210   6.287
 9668TIP3    H228938   3.462   1.229   6.216
 9669TIP3   OH228939   4.055   1.600   7.891
 9669TIP3    H128940   4.104   1.526   7.852
 9669TIP3    H228941   4.127   1.663   7.908
 9670TIP3   OH228942   3.037   0.799   6.478
 9670TIP3    H128943   3.093   0.768   6.551
 9670TIP3    H228944   3.103   0.802   6.406
 9671TIP3   OH228945   3.535   0.994   6.283
 9671TIP3    H128946   3.542   1.008   6.379
 9671TIP3    H228947   3.545   0.897   6.277
 9672TIP3   OH228948   4.158   1.248   7.669
 9672TIP3    H128949   4.234   1.286   7.620
 9672TIP3    H228950   4.089   1.312   7.647
 9673TIP3   OH228951   3.238   0.707   6.693
 9673TIP3    H128952   3.208   0.673   6.779
 9673TIP3    H228953   3.273   0.627   6.649
 9674TIP3   OH228954   3.342   0.497   6.544
 9674TIP3    H128955   3.315   0.504   6.450
 9674TIP3    H228956   3.439   0.498   6.536
 9675TIP3   OH228957   4.158   0.831   6.199
 9675TIP3    H128958   4.139   0.788   6.113
 9675TIP3    H228959   4.121   0.921   6.181
 9676TIP3   OH228960   3.661   0.896   7.754
 9676TIP3    H128961   3.745   0.878   7.710
 9676TIP3    H228962   3.616   0.955   7.690
 9677TIP3   OH228963   4.291   1.097   7.849
 9677TIP3    H128964   4.231   1.150   7.793
 9677TIP3    H228965   4.378   1.118   7.807
 9678TIP3   OH228966   3.150   1.558   6.441
 9678TIP3    H128967   3.245   1.550   6.421
 9678TIP3    H228968   3.123   1.613   6.365
 9679TIP3   OH228969   2.626   0.943   6.651
 9679TIP3    H128970   2.721   0.961   6.639
 9679TIP3    H228971   2.617   0.854   6.613
 9680TIP3   OH228972   2.684   1.394   7.244
 9680TIP3    H128973   2.663   1.332   7.316
 9680TIP3    H228974   2.726   1.466   7.294
 9681TIP3   OH228975   4.411   1.797   7.061
 9681TIP3    H128976   4.429   1.836   7.149
 9681TIP3    H228977   4.465   1.852   7.003
 9682TIP3   OH228978   4.431   1.823   7.342
 9682TIP3    H128979   4.392   1.733   7.338
 9682TIP3    H228980   4.509   1.806   7.397
 9683TIP3   OH228981   4.485   1.506   7.896
 9683TIP3    H128982   4.413   1.510   7.959
 9683TIP3    H228983   4.528   1.593   7.905
 9684TIP3   OH228984   4.299   1.015   6.531
 9684TIP3    H128985   4.367   1.079   6.502
 9684TIP3    H228986   4.342   0.978   6.612
 9685TIP3   OH228987   4.423   0.890   6.739
 9685TIP3    H128988   4.355   0.845   6.795
 9685TIP3    H228989   4.484   0.927   6.805
 9686TIP3   OH228990   4.480   1.276   7.169
 9686TIP3    H128991   4.534   1.207   7.125
 9686TIP3    H228992   4.477   1.346   7.101
 9687TIP3   OH228993   4.308   1.574   7.361
 9687TIP3    H128994   4.235   1.615   7.411
 9687TIP3    H228995   4.261   1.528   7.289
 9688TIP3   OH228996   4.355   0.790   6.381
 9688TIP3    H128997   4.286   0.799   6.312
 9688TIP3    H228998   4.331   0.865   6.439
 9689TIP3   OH228999   4.225   0.450   6.326
 9689TIP3    H129000   4.207   0.522   6.265
 9689TIP3    H229001   4.178   0.376   6.283
 9690TIP3   OH229002   4.236   0.751   6.878
 9690TIP3    H129003   4.237   0.655   6.855
 9690TIP3    H229004   4.225   0.749   6.976
 9691TIP3   OH229005   2.864   0.858   7.606
 9691TIP3    H129006   2.854   0.811   7.522
 9691TIP3    H229007   2.956   0.833   7.630
 9692TIP3   OH229008   4.528   1.163   7.730
 9692TIP3    H129009   4.598   1.094   7.722
 9692TIP3    H229010   4.562   1.232   7.670
 9693TIP3   OH229011   4.709   0.966   7.745
 9693TIP3    H129012   4.639   0.919   7.794
 9693TIP3    H229013   4.784   0.906   7.764
 9694TIP3   OH229014   4.238   0.496   6.754
 9694TIP3    H129015   4.259   0.416   6.807
 9694TIP3    H229016   4.303   0.490   6.681
 9695TIP3   OH229017   4.390   0.629   7.284
 9695TIP3    H129018   4.472   0.654   7.235
 9695TIP3    H229019   4.411   0.669   7.371
 9696TIP3   OH229020   4.461   0.779   7.507
 9696TIP3    H129021   4.384   0.819   7.552
 9696TIP3    H229022   4.500   0.857   7.462
 9697TIP3   OH229023   3.988   1.670   6.711
 9697TIP3    H129024   4.046   1.667   6.632
 9697TIP3    H229025   4.031   1.738   6.766
 9698TIP3   OH229026   3.268   1.478   7.589
 9698TIP3    H129027   3.209   1.549   7.556
 9698TIP3    H229028   3.352   1.507   7.548
 9699TIP3   OH229029   3.698   1.749   7.752
 9699TIP3    H129030   3.724   1.757   7.845
 9699TIP3    H229031   3.765   1.806   7.707
 9700TIP3   OH229032   3.892   1.901   7.639
 9700TIP3    H129033   3.966   1.866   7.588
 9700TIP3    H229034   3.940   1.963   7.699
 9701TIP3   OH229035   2.943   1.778   7.653
 9701TIP3    H129036   2.856   1.818   7.633
 9701TIP3    H229037   2.950   1.796   7.747
 9702TIP3   OH229038   3.183   1.737   7.524
 9702TIP3    H129039   3.096   1.751   7.569
 9702TIP3    H229040   3.164   1.776   7.437
 9703TIP3   OH229041   3.609   1.772   7.324
 9703TIP3    H129042   3.537   1.791   7.261
 9703TIP3    H229043   3.620   1.859   7.369
 9704TIP3   OH229044   3.877   1.707   7.380
 9704TIP3    H129045   3.783   1.728   7.361
 9704TIP3    H229046   3.922   1.782   7.337
 9705TIP3   OH229047   4.080   1.898   7.293
 9705TIP3    H129048   4.068   1.985   7.247
 9705TIP3    H229049   4.108   1.841   7.219
 9706TIP3   OH229050   2.854   1.559   7.409
 9706TIP3    H129051   2.892   1.542   7.499
 9706TIP3    H229052   2.923   1.512   7.356
 9707TIP3   OH229053   3.052   1.431   7.273
 9707TIP3    H129054   3.065   1.349   7.327
 9707TIP3    H229055   3.143   1.466   7.270
 9708TIP3   OH229056   3.318   1.521   7.275
 9708TIP3    H129057   3.347   1.429   7.268
 9708TIP3    H229058   3.370   1.550   7.352
 9709TIP3   OH229059   2.642   1.344   6.807
 9709TIP3    H129060   2.560   1.303   6.773
 9709TIP3    H229061   2.635   1.431   6.764
 9710TIP3   OH229062   3.418   1.514   6.386
 9710TIP3    H129063   3.502   1.542   6.347
 9710TIP3    H229064   3.396   1.438   6.327
 9711TIP3   OH229065   4.138   1.636   6.479
 9711TIP3    H129066   4.128   1.539   6.466
 9711TIP3    H229067   4.084   1.670   6.406
 9712TIP3   OH229068   2.721   1.355   6.443
 9712TIP3    H129069   2.723   1.378   6.537
 9712TIP3    H229070   2.809   1.313   6.429
 9713TIP3   OH229071   4.353   1.782   7.669
 9713TIP3    H129072   4.279   1.757   7.610
 9713TIP3    H229073   4.342   1.880   7.670
 9714TIP3   OH229074   5.624   1.149   6.434
 9714TIP3    H129075   5.594   1.240   6.419
 9714TIP3    H229076   5.553   1.100   6.389
 9715TIP3   OH229077   5.613   1.154   6.825
 9715TIP3    H129078   5.655   1.134   6.911
 9715TIP3    H229079   5.584   1.065   6.797
 9716TIP3   OH229080   4.926   1.055   7.172
 9716TIP3    H129081   4.944   0.977   7.229
 9716TIP3    H229082   5.008   1.105   7.190
 9717TIP3   OH229083   5.870   1.457   6.502
 9717TIP3    H129084   5.864   1.389   6.570
 9717TIP3    H229085   5.903   1.533   6.552
 9718TIP3   OH229086   4.942   1.453   6.890
 9718TIP3    H129087   4.916   1.360   6.887
 9718TIP3    H229088   4.966   1.464   6.985
 9719TIP3   OH229089   4.594   0.677   6.701
 9719TIP3    H129090   4.532   0.751   6.712
 9719TIP3    H229091   4.540   0.615   6.649
 9720TIP3   OH229092   4.664   0.960   6.862
 9720TIP3    H129093   4.699   0.875   6.898
 9720TIP3    H229094   4.705   0.962   6.775
 9721TIP3   OH229095   5.519   1.917   6.516
 9721TIP3    H129096   5.559   1.846   6.461
 9721TIP3    H229097   5.529   1.880   6.605
 9722TIP3   OH229098   5.419   1.360   6.834
 9722TIP3    H129099   5.478   1.281   6.824
 9722TIP3    H229100   5.490   1.422   6.860
 9723TIP3   OH229101   5.843   0.883   6.911
 9723TIP3    H129102   5.867   0.794   6.941
 9723TIP3    H229103   5.807   0.867   6.821
 9724TIP3   OH229104   5.168   0.498   6.820
 9724TIP3    H129105   5.141   0.590   6.801
 9724TIP3    H229106   5.084   0.451   6.811
 9725TIP3   OH229107   5.831   0.653   6.534
 9725TIP3    H129108   5.890   0.608   6.599
 9725TIP3    H229109   5.890   0.654   6.457
 9726TIP3   OH229110   4.787   0.741   6.958
 9726TIP3    H129111   4.880   0.744   6.991
 9726TIP3    H229112   4.800   0.678   6.885
 9727TIP3   OH229113   5.249   0.962   6.768
 9727TIP3    H129114   5.340   0.926   6.779
 9727TIP3    H229115   5.203   0.882   6.734
 9728TIP3   OH229116   6.472   0.890   7.063
 9728TIP3    H129117   6.400   0.946   7.030
 9728TIP3    H229118   6.535   0.955   7.101
 9729TIP3   OH229119   5.488   1.363   6.311
 9729TIP3    H129120   5.484   1.365   6.214
 9729TIP3    H229121   5.462   1.454   6.333
 9730TIP3   OH229122   5.279   1.304   7.083
 9730TIP3    H129123   5.216   1.367   7.123
 9730TIP3    H229124   5.330   1.360   7.023
 9731TIP3   OH229125   5.044   0.710   7.025
 9731TIP3    H129126   5.114   0.756   7.075
 9731TIP3    H229127   5.065   0.618   7.049
 9732TIP3   OH229128   5.089   1.495   7.164
 9732TIP3    H129129   5.078   1.592   7.152
 9732TIP3    H229130   5.021   1.478   7.232
 9733TIP3   OH229131   4.499   1.186   6.424
 9733TIP3    H129132   4.460   1.216   6.340
 9733TIP3    H229133   4.533   1.270   6.461
 9734TIP3   OH229134   5.936   1.702   6.663
 9734TIP3    H129135   5.846   1.693   6.700
 9734TIP3    H229136   5.930   1.789   6.618
 9735TIP3   OH229137   5.633   1.743   6.330
 9735TIP3    H129138   5.682   1.659   6.311
 9735TIP3    H229139   5.700   1.808   6.296
 9736TIP3   OH229140   5.769   1.519   6.252
 9736TIP3    H129141   5.781   1.443   6.193
 9736TIP3    H229142   5.811   1.488   6.335
 9737TIP3   OH229143   6.164   1.611   7.008
 9737TIP3    H129144   6.154   1.534   6.948
 9737TIP3    H229145   6.148   1.686   6.947
 9738TIP3   OH229146   5.459   1.014   6.258
 9738TIP3    H129147   5.381   1.061   6.223
 9738TIP3    H229148   5.512   1.001   6.177
 9739TIP3   OH229149   5.415   0.789   5.983
 9739TIP3    H129150   5.487   0.842   6.022
 9739TIP3    H229151   5.465   0.721   5.936
 9740TIP3   OH229152   6.362   1.254   6.854
 9740TIP3    H129153   6.278   1.305   6.857
 9740TIP3    H229154   6.393   1.276   6.764
 9741TIP3   OH229155   5.805   1.089   6.235
 9741TIP3    H129156   5.753   1.110   6.316
 9741TIP3    H229157   5.892   1.067   6.276
 9742TIP3   OH229158   6.039   1.127   7.159
 9742TIP3    H129159   6.036   1.208   7.214
 9742TIP3    H229160   5.954   1.134   7.112
 9743TIP3   OH229161   5.184   1.051   7.019
 9743TIP3    H129162   5.210   1.022   6.929
 9743TIP3    H229163   5.231   1.136   7.029
 9744TIP3   OH229164   5.693   1.695   6.784
 9744TIP3    H129165   5.687   1.776   6.837
 9744TIP3    H229166   5.681   1.624   6.851
 9745TIP3   OH229167   5.312   1.614   7.328
 9745TIP3    H129168   5.254   1.675   7.379
 9745TIP3    H229169   5.245   1.557   7.285
 9746TIP3   OH229170   5.643   0.948   6.063
 9746TIP3    H129171   5.704   1.009   6.111
 9746TIP3    H229172   5.670   0.966   5.970
 9747TIP3   OH229173   5.058   1.187   7.420
 9747TIP3    H129174   5.066   1.265   7.477
 9747TIP3    H229175   4.969   1.155   7.447
 9748TIP3   OH229176   5.382   1.632   6.352
 9748TIP3    H129177   5.469   1.676   6.351
 9748TIP3    H229178   5.331   1.690   6.294
 9749TIP3   OH229179   5.106   1.776   7.421
 9749TIP3    H129180   5.068   1.787   7.332
 9749TIP3    H229181   5.027   1.758   7.476
 9750TIP3   OH229182   4.904   0.927   6.443
 9750TIP3    H129183   4.827   0.966   6.395
 9750TIP3    H229184   4.871   0.841   6.469
 9751TIP3   OH229185   5.962   1.554   5.663
 9751TIP3    H129186   5.969   1.650   5.643
 9751TIP3    H229187   6.054   1.525   5.650
 9752TIP3   OH229188   4.686   1.313   7.365
 9752TIP3    H129189   4.618   1.288   7.300
 9752TIP3    H229190   4.724   1.226   7.390
 9753TIP3   OH229191   4.536   1.512   6.997
 9753TIP3    H129192   4.632   1.518   7.004
 9753TIP3    H229193   4.508   1.587   7.050
 9754TIP3   OH229194   6.404   1.959   7.057
 9754TIP3    H129195   6.403   1.863   7.072
 9754TIP3    H229196   6.321   1.984   7.102
 9755TIP3   OH229197   5.506   1.745   7.185
 9755TIP3    H129198   5.505   1.837   7.221
 9755TIP3    H229199   5.438   1.702   7.242
 9756TIP3   OH229200   5.272   1.863   6.145
 9756TIP3    H129201   5.233   1.849   6.056
 9756TIP3    H229202   5.243   1.953   6.167
 9757TIP3   OH229203   4.707   1.720   6.529
 9757TIP3    H129204   4.758   1.713   6.613
 9757TIP3    H229205   4.650   1.642   6.536
 9758TIP3   OH229206   5.461   1.752   5.801
 9758TIP3    H129207   5.520   1.704   5.740
 9758TIP3    H229208   5.518   1.769   5.878
 9759TIP3   OH229209   5.531   1.829   6.063
 9759TIP3    H129210   5.439   1.833   6.098
 9759TIP3    H229211   5.578   1.792   6.140
 9760TIP3   OH229212   6.292   1.074   7.311
 9760TIP3    H129213   6.206   1.096   7.271
 9760TIP3    H229214   6.286   0.978   7.321
 9761TIP3   OH229215   4.890   1.495   7.349
 9761TIP3    H129216   4.941   1.483   7.432
 9761TIP3    H229217   4.818   1.430   7.360
 9762TIP3   OH229218   6.051   0.866   7.274
 9762TIP3    H129219   6.039   0.903   7.362
 9762TIP3    H229220   6.043   0.943   7.216
 9763TIP3   OH229221   5.725   0.983   5.809
 9763TIP3    H129222   5.685   0.965   5.722
 9763TIP3    H229223   5.804   1.034   5.783
 9764TIP3   OH229224   5.237   0.839   7.179
 9764TIP3    H129225   5.176   0.861   7.252
 9764TIP3    H229226   5.227   0.918   7.122
 9765TIP3   OH229227   5.104   0.733   6.681
 9765TIP3    H129228   5.011   0.705   6.692
 9765TIP3    H229229   5.123   0.699   6.590
 9766TIP3   OH229230   5.588   0.813   6.400
 9766TIP3    H129231   5.542   0.884   6.351
 9766TIP3    H229232   5.655   0.783   6.335
 9767TIP3   OH229233   5.781   1.114   7.471
 9767TIP3    H129234   5.757   1.034   7.523
 9767TIP3    H229235   5.875   1.123   7.495
 9768TIP3   OH229236   5.733   0.874   6.658
 9768TIP3    H129237   5.677   0.919   6.591
 9768TIP3    H229238   5.755   0.793   6.607
 9769TIP3   OH229239   5.031   0.869   7.366
 9769TIP3    H129240   5.064   0.925   7.437
 9769TIP3    H229241   5.018   0.784   7.410
 9770TIP3   OH229242   4.674   0.481   6.505
 9770TIP3    H129243   4.693   0.476   6.409
 9770TIP3    H229244   4.579   0.500   6.503
 9771TIP3   OH229245   5.749   1.085   7.058
 9771TIP3    H129246   5.791   1.015   7.003
 9771TIP3    H229247   5.730   1.032   7.138
 9772TIP3   OH229248   4.853   0.599   6.721
 9772TIP3    H129249   4.761   0.632   6.705
 9772TIP3    H229250   4.848   0.517   6.671
 9773TIP3   OH229251   5.145   0.622   6.432
 9773TIP3    H129252   5.236   0.604   6.404
 9773TIP3    H229253   5.092   0.608   6.351
 9774TIP3   OH229254   4.980   0.600   6.203
 9774TIP3    H129255   4.905   0.586   6.142
 9774TIP3    H229256   5.041   0.648   6.142
 9775TIP3   OH229257   6.098   2.307   7.156
 9775TIP3    H129258   6.096   2.333   7.062
 9775TIP3    H229259   6.177   2.355   7.187
 9776TIP3   OH229260   5.054   1.424   7.574
 9776TIP3    H129261   5.134   1.447   7.624
 9776TIP3    H229262   4.990   1.416   7.647
 9777TIP3   OH229263   5.501   0.874   6.829
 9777TIP3    H129264   5.586   0.842   6.793
 9777TIP3    H229265   5.504   0.841   6.921
 9778TIP3   OH229266   5.512   0.808   7.090
 9778TIP3    H129267   5.424   0.796   7.131
 9778TIP3    H229268   5.564   0.847   7.162
 9779TIP3   OH229269   5.216   1.162   6.204
 9779TIP3    H129270   5.149   1.092   6.186
 9779TIP3    H229271   5.212   1.167   6.300
 9780TIP3   OH229272   6.127   1.397   6.841
 9780TIP3    H129273   6.153   1.447   6.761
 9780TIP3    H229274   6.044   1.353   6.813
 9781TIP3   OH229275   5.661   0.542   6.035
 9781TIP3    H129276   5.604   0.490   6.096
 9781TIP3    H229277   5.699   0.607   6.098
 9782TIP3   OH229278   5.615   1.473   7.213
 9782TIP3    H129279   5.663   1.455   7.295
 9782TIP3    H229280   5.591   1.567   7.223
 9783TIP3   OH229281   5.763   0.735   6.199
 9783TIP3    H129282   5.860   0.744   6.208
 9783TIP3    H229283   5.740   0.813   6.144
 9784TIP3   OH229284   4.948   1.175   6.881
 9784TIP3    H129285   4.941   1.090   6.834
 9784TIP3    H229286   4.964   1.141   6.971
 9785TIP3   OH229287   5.379   1.311   6.037
 9785TIP3    H129288   5.331   1.397   6.039
 9785TIP3    H229289   5.322   1.258   6.096
 9786TIP3   OH229290   4.804   1.103   7.503
 9786TIP3    H129291   4.827   1.093   7.598
 9786TIP3    H229292   4.736   1.034   7.493
 9787TIP3   OH229293   5.530   1.222   7.526
 9787TIP3    H129294   5.469   1.162   7.479
 9787TIP3    H229295   5.618   1.191   7.493
 9788TIP3   OH229296   5.783   1.733   7.110
 9788TIP3    H129297   5.687   1.738   7.124
 9788TIP3    H229298   5.815   1.786   7.187
 9789TIP3   OH229299   6.195   0.810   6.004
 9789TIP3    H129300   6.134   0.761   5.943
 9789TIP3    H229301   6.182   0.900   5.968
 9790TIP3   OH229302   6.415   1.668   7.096
 9790TIP3    H129303   6.317   1.662   7.088
 9790TIP3    H229304   6.441   1.638   7.006
 9791TIP3   OH229305   5.901   1.628   5.926
 9791TIP3    H129306   5.872   1.554   5.980
 9791TIP3    H229307   5.914   1.587   5.838
 9792TIP3   OH229308   5.893   1.262   6.755
 9792TIP3    H129309   5.801   1.235   6.771
 9792TIP3    H229310   5.930   1.181   6.713
 9793TIP3   OH229311   5.034   1.469   6.550
 9793TIP3    H129312   5.049   1.541   6.485
 9793TIP3    H229313   4.938   1.460   6.538
 9794TIP3   OH229314   4.582   0.788   6.223
 9794TIP3    H129315   4.629   0.872   6.243
 9794TIP3    H229316   4.507   0.793   6.286
 9795TIP3   OH229317   5.294   1.825   6.979
 9795TIP3    H129318   5.335   1.901   6.933
 9795TIP3    H229319   5.370   1.793   7.032
 9796TIP3   OH229320   4.947   1.718   6.376
 9796TIP3    H129321   4.860   1.730   6.417
 9796TIP3    H229322   4.981   1.810   6.376
 9797TIP3   OH229323   5.668   1.460   6.943
 9797TIP3    H129324   5.657   1.458   7.041
 9797TIP3    H229325   5.753   1.416   6.934
 9798TIP3   OH229326   5.660   1.349   5.830
 9798TIP3    H129327   5.709   1.328   5.912
 9798TIP3    H229328   5.569   1.331   5.857
 9799TIP3   OH229329   5.926   1.994   6.992
 9799TIP3    H129330   5.845   1.940   6.984
 9799TIP3    H229331   5.912   2.059   6.920
 9800TIP3   OH229332   5.992   1.830   5.640
 9800TIP3    H129333   6.021   1.900   5.580
 9800TIP3    H229334   5.914   1.874   5.680
 9801TIP3   OH229335   5.819   1.299   6.056
 9801TIP3    H129336   5.808   1.225   6.120
 9801TIP3    H229337   5.915   1.289   6.035
 9802TIP3   OH229338   4.737   1.682   7.144
 9802TIP3    H129339   4.784   1.623   7.205
 9802TIP3    H229340   4.750   1.768   7.188
 9803TIP3   OH229341   5.017   1.333   5.828
 9803TIP3    H129342   5.034   1.241   5.800
 9803TIP3    H229343   4.992   1.321   5.921
 9804TIP3   OH229344   4.960   1.341   6.102
 9804TIP3    H129345   5.048   1.317   6.136
 9804TIP3    H229346   4.963   1.439   6.107
 9805TIP3   OH229347   4.692   1.033   6.299
 9805TIP3    H129348   4.629   1.081   6.357
 9805TIP3    H229349   4.709   1.101   6.232
 9806TIP3   OH229350   5.232   1.536   6.049
 9806TIP3    H129351   5.144   1.567   6.079
 9806TIP3    H229352   5.253   1.606   5.985
 9807TIP3   OH229353   5.430   0.591   6.421
 9807TIP3    H129354   5.482   0.675   6.419
 9807TIP3    H229355   5.444   0.562   6.512
 9808TIP3   OH229356   5.703   0.924   7.271
 9808TIP3    H129357   5.701   0.981   7.350
 9808TIP3    H229358   5.758   0.851   7.304
 9809TIP3   OH229359   4.975   1.612   6.117
 9809TIP3    H129360   4.948   1.683   6.054
 9809TIP3    H229361   4.962   1.657   6.203
 9810TIP3   OH229362   5.980   1.020   6.640
 9810TIP3    H129363   5.902   0.965   6.662
 9810TIP3    H229364   6.052   0.973   6.687
 9811TIP3   OH229365   4.688   1.241   6.103
 9811TIP3    H129366   4.760   1.306   6.115
 9811TIP3    H229367   4.733   1.181   6.039
 9812TIP3   OH229368   4.638   0.518   6.227
 9812TIP3    H129369   4.628   0.615   6.222
 9812TIP3    H229370   4.548   0.486   6.214
 9813TIP3   OH229371   5.948   1.971   6.585
 9813TIP3    H129372   5.906   2.019   6.510
 9813TIP3    H229373   6.042   1.990   6.564
 9814TIP3   OH229374   4.560   1.448   6.492
 9814TIP3    H129375   4.500   1.483   6.559
 9814TIP3    H229376   4.528   1.495   6.411
 9815TIP3   OH229377   4.724   2.003   7.567
 9815TIP3    H129378   4.810   2.009   7.614
 9815TIP3    H229379   4.711   1.907   7.564
 9816TIP3   OH229380   5.196   1.961   7.612
 9816TIP3    H129381   5.292   1.948   7.621
 9816TIP3    H229382   5.176   1.898   7.540
 9817TIP3   OH229383   5.178   1.539   5.738
 9817TIP3    H129384   5.128   1.462   5.772
 9817TIP3    H229385   5.258   1.496   5.702
 9818TIP3   OH229386   5.841   1.869   7.342
 9818TIP3    H129387   5.833   1.801   7.413
 9818TIP3    H229388   5.917   1.922   7.373
 9819TIP3   OH229389   5.616   1.578   5.646
 9819TIP3    H129390   5.670   1.522   5.704
 9819TIP3    H229391   5.668   1.579   5.563
 9820TIP3   OH229392   4.850   1.408   7.762
 9820TIP3    H129393   4.868   1.313   7.777
 9820TIP3    H229394   4.764   1.405   7.716
 9821TIP3   OH229395   4.825   1.054   5.962
 9821TIP3    H129396   4.883   1.020   6.033
 9821TIP3    H229397   4.891   1.060   5.889
 9822TIP3   OH229398   5.457   1.494   7.541
 9822TIP3    H129399   5.421   1.510   7.452
 9822TIP3    H229400   5.489   1.402   7.535
 9823TIP3   OH229401   5.340   1.256   5.770
 9823TIP3    H129402   5.347   1.268   5.867
 9823TIP3    H229403   5.345   1.158   5.764
 9824TIP3   OH229404   5.946   1.506   7.145
 9824TIP3    H129405   6.026   1.543   7.103
 9824TIP3    H229406   5.882   1.578   7.129
 9825TIP3   OH229407   4.972   1.146   7.740
 9825TIP3    H129408   5.039   1.077   7.732
 9825TIP3    H229409   4.995   1.180   7.829
 9826TIP3   OH229410   5.035   0.959   6.184
 9826TIP3    H129411   5.008   0.921   6.269
 9826TIP3    H229412   5.072   0.882   6.136
 9827TIP3   OH229413   5.300   1.055   7.408
 9827TIP3    H129414   5.219   1.109   7.399
 9827TIP3    H229415   5.352   1.080   7.328
 9828TIP3   OH229416   5.135   0.755   6.028
 9828TIP3    H129417   5.110   0.762   5.933
 9828TIP3    H229418   5.233   0.755   6.020
 9829TIP3   OH229419   5.825   1.430   7.542
 9829TIP3    H129420   5.902   1.396   7.495
 9829TIP3    H229421   5.812   1.362   7.610
 9830TIP3   OH229422   5.956   1.080   5.688
 9830TIP3    H129423   5.936   1.040   5.601
 9830TIP3    H229424   5.924   1.172   5.670
 9831TIP3   OH229425   5.391   0.831   7.527
 9831TIP3    H129426   5.342   0.773   7.466
 9831TIP3    H229427   5.364   0.919   7.491
 9832TIP3   OH229428   5.463   1.138   7.210
 9832TIP3    H129429   5.549   1.141   7.166
 9832TIP3    H229430   5.411   1.204   7.161
 9833TIP3   OH229431   6.036   1.111   7.573
 9833TIP3    H129432   6.064   1.044   7.641
 9833TIP3    H229433   6.120   1.150   7.549
 9834TIP3   OH229434   6.079   1.356   7.328
 9834TIP3    H129435   6.021   1.412   7.271
 9834TIP3    H229436   6.167   1.378   7.290
 9835TIP3   OH229437   5.274   0.959   7.752
 9835TIP3    H129438   5.223   0.893   7.801
 9835TIP3    H229439   5.330   0.906   7.693
 9836TIP3   OH229440   5.670   0.889   7.566
 9836TIP3    H129441   5.700   0.849   7.650
 9836TIP3    H229442   5.574   0.875   7.572
 9837TIP3   OH229443   4.941   1.810   5.930
 9837TIP3    H129444   5.038   1.805   5.914
 9837TIP3    H229445   4.917   1.865   5.852
 9838TIP3   OH229446   4.418   1.199   6.142
 9838TIP3    H129447   4.513   1.222   6.128
 9838TIP3    H229448   4.415   1.109   6.105
 9839TIP3   OH229449   4.344   1.807   6.558
 9839TIP3    H129450   4.276   1.747   6.520
 9839TIP3    H229451   4.387   1.748   6.624
 9840TIP3   OH229452   4.478   1.653   6.744
 9840TIP3    H129453   4.463   1.587   6.814
 9840TIP3    H229454   4.529   1.719   6.794
 9841TIP3   OH229455   6.203   2.059   6.547
 9841TIP3    H129456   6.230   2.093   6.635
 9841TIP3    H229457   6.267   2.102   6.488
 9842TIP3   OH229458   6.230   2.081   6.830
 9842TIP3    H129459   6.187   1.993   6.824
 9842TIP3    H229460   6.306   2.058   6.886
 9843TIP3   OH229461   6.276   1.760   7.400
 9843TIP3    H129462   6.203   1.770   7.464
 9843TIP3    H229463   6.319   1.847   7.405
 9844TIP3   OH229464   6.093   1.270   6.017
 9844TIP3    H129465   6.158   1.336   5.986
 9844TIP3    H229466   6.139   1.235   6.096
 9845TIP3   OH229467   6.220   1.144   6.222
 9845TIP3    H129468   6.154   1.105   6.284
 9845TIP3    H229469   6.287   1.181   6.282
 9846TIP3   OH229470   6.276   1.532   6.653
 9846TIP3    H129471   6.330   1.463   6.609
 9846TIP3    H229472   6.277   1.604   6.587
 9847TIP3   OH229473   6.105   1.831   6.848
 9847TIP3    H129474   6.034   1.874   6.899
 9847TIP3    H229475   6.056   1.785   6.777
 9848TIP3   OH229476   6.153   1.045   5.870
 9848TIP3    H129477   6.084   1.054   5.800
 9848TIP3    H229478   6.128   1.122   5.926
 9849TIP3   OH229479   6.021   0.706   5.811
 9849TIP3    H129480   6.002   0.785   5.759
 9849TIP3    H229481   5.975   0.637   5.760
 9850TIP3   OH229482   6.032   1.010   6.367
 9850TIP3    H129483   6.038   0.915   6.344
 9850TIP3    H229484   6.021   1.009   6.465
 9851TIP3   OH229485   4.660   1.075   7.115
 9851TIP3    H129486   4.658   1.039   7.024
 9851TIP3    H229487   4.756   1.072   7.134
 9852TIP3   OH229488   6.323   1.421   7.220
 9852TIP3    H129489   6.395   1.354   7.216
 9852TIP3    H229490   6.355   1.490   7.159
 9853TIP3   OH229491   6.507   1.227   7.246
 9853TIP3    H129492   6.432   1.170   7.276
 9853TIP3    H229493   6.581   1.164   7.260
 9854TIP3   OH229494   6.034   0.758   6.235
 9854TIP3    H129495   6.063   0.681   6.288
 9854TIP3    H229496   6.098   0.758   6.161
 9855TIP3   OH229497   6.187   0.891   6.764
 9855TIP3    H129498   6.273   0.912   6.723
 9855TIP3    H229499   6.204   0.926   6.854
 9856TIP3   OH229500   6.254   1.039   6.989
 9856TIP3    H129501   6.179   1.076   7.039
 9856TIP3    H229502   6.291   1.119   6.944
 9857TIP3   OH229503   4.867   0.741   7.781
 9857TIP3    H129504   4.960   0.766   7.774
 9857TIP3    H229505   4.864   0.702   7.870
 9858TIP3   OH229506   4.627   0.724   7.186
 9858TIP3    H129507   4.680   0.727   7.103
 9858TIP3    H229508   4.676   0.786   7.242
 9859TIP3   OH229509   5.791   1.925   6.208
 9859TIP3    H129510   5.837   1.916   6.121
 9859TIP3    H229511   5.841   1.996   6.249
 9860TIP3   OH229512   4.885   1.734   7.581
 9860TIP3    H129513   4.792   1.707   7.573
 9860TIP3    H229514   4.903   1.713   7.674
 9861TIP3   OH229515   5.068   1.766   7.130
 9861TIP3    H129516   5.019   1.842   7.093
 9861TIP3    H229517   5.155   1.783   7.088
 9862TIP3   OH229518   5.506   2.010   7.269
 9862TIP3    H129519   5.548   2.008   7.358
 9862TIP3    H229520   5.573   2.061   7.219
 9863TIP3   OH229521   5.688   2.163   7.133
 9863TIP3    H129522   5.760   2.114   7.091
 9863TIP3    H229523   5.738   2.220   7.194
 9864TIP3   OH229524   4.739   2.016   7.164
 9864TIP3    H129525   4.648   2.047   7.141
 9864TIP3    H229526   4.758   2.075   7.238
 9865TIP3   OH229527   4.974   1.996   7.016
 9865TIP3    H129528   4.888   2.010   7.060
 9865TIP3    H229529   4.957   2.034   6.927
 9866TIP3   OH229530   5.400   2.027   6.816
 9866TIP3    H129531   5.335   2.051   6.747
 9866TIP3    H229532   5.415   2.114   6.859
 9867TIP3   OH229533   5.672   1.964   6.865
 9867TIP3    H129534   5.579   1.987   6.847
 9867TIP3    H229535   5.719   2.039   6.823
 9868TIP3   OH229536   5.874   2.156   6.778
 9868TIP3    H129537   5.862   2.241   6.731
 9868TIP3    H229538   5.903   2.097   6.705
 9869TIP3   OH229539   4.652   1.814   6.898
 9869TIP3    H129540   4.677   1.790   6.989
 9869TIP3    H229541   4.725   1.770   6.849
 9870TIP3   OH229542   4.850   1.684   6.762
 9870TIP3    H129543   4.875   1.600   6.806
 9870TIP3    H229544   4.937   1.728   6.758
 9871TIP3   OH229545   5.111   1.784   6.768
 9871TIP3    H129546   5.185   1.741   6.723
 9871TIP3    H229547   5.152   1.807   6.854
 9872TIP3   OH229548   4.440   1.591   6.297
 9872TIP3    H129549   4.354   1.563   6.262
 9872TIP3    H229550   4.435   1.686   6.278
 9873TIP3   OH229551   5.206   1.774   5.880
 9873TIP3    H129552   5.298   1.792   5.847
 9873TIP3    H229553   5.184   1.702   5.816
 9874TIP3   OH229554   5.930   1.896   5.971
 9874TIP3    H129555   5.924   1.798   5.959
 9874TIP3    H229556   5.884   1.928   5.891
 9875TIP3   OH229557   4.512   1.603   5.934
 9875TIP3    H129558   4.533   1.641   6.021
 9875TIP3    H229559   4.598   1.561   5.910
 9876TIP3   OH229560   6.155   2.038   7.155
 9876TIP3    H129561   6.077   2.008   7.104
 9876TIP3    H229562   6.137   2.133   7.162
 9877TIP3   OH229563   7.425   1.411   5.919
 9877TIP3    H129564   7.396   1.502   5.899
 9877TIP3    H229565   7.349   1.361   5.886
 9878TIP3   OH229566   7.410   1.419   6.290
 9878TIP3    H129567   7.437   1.398   6.382
 9878TIP3    H229568   7.373   1.334   6.263
 9879TIP3   OH229569   6.718   1.303   6.666
 9879TIP3    H129570   6.748   1.234   6.728
 9879TIP3    H229571   6.798   1.356   6.659
 9880TIP3   OH229572   7.671   1.717   5.984
 9880TIP3    H129573   7.648   1.649   6.048
 9880TIP3    H229574   7.700   1.791   6.041
 9881TIP3   OH229575   6.695   1.715   6.390
 9881TIP3    H129576   6.687   1.618   6.391
 9881TIP3    H229577   6.792   1.725   6.385
 9882TIP3   OH229578   6.389   0.927   6.190
 9882TIP3    H129579   6.334   1.007   6.200
 9882TIP3    H229580   6.332   0.873   6.133
 9883TIP3   OH229581   6.451   1.215   6.349
 9883TIP3    H129582   6.492   1.131   6.380
 9883TIP3    H229583   6.520   1.248   6.289
 9884TIP3   OH229584   7.320   2.175   6.002
 9884TIP3    H129585   7.362   2.104   5.951
 9884TIP3    H229586   7.308   2.134   6.088
 9885TIP3   OH229587   7.220   1.636   6.352
 9885TIP3    H129588   7.260   1.559   6.308
 9885TIP3    H229589   7.303   1.683   6.377
 9886TIP3   OH229590   7.631   1.141   6.403
 9886TIP3    H129591   7.662   1.054   6.429
 9886TIP3    H229592   7.603   1.128   6.310
 9887TIP3   OH229593   6.970   0.752   6.304
 9887TIP3    H129594   6.938   0.843   6.287
 9887TIP3    H229595   6.887   0.702   6.303
 9888TIP3   OH229596   7.631   0.914   6.025
 9888TIP3    H129597   7.685   0.864   6.089
 9888TIP3    H229598   7.688   0.908   5.946
 9889TIP3   OH229599   6.583   0.998   6.444
 9889TIP3    H129600   6.676   1.005   6.477
 9889TIP3    H229601   6.597   0.936   6.371
 9890TIP3   OH229602   7.041   1.200   6.255
 9890TIP3    H129603   7.135   1.174   6.268
 9890TIP3    H229604   7.001   1.114   6.228
 9891TIP3   OH229605   7.317   1.635   5.786
 9891TIP3    H129606   7.270   1.616   5.704
 9891TIP3    H229607   7.270   1.715   5.816
 9892TIP3   OH229608   7.080   1.555   6.576
 9892TIP3    H129609   7.018   1.621   6.612
 9892TIP3    H229610   7.118   1.602   6.499
 9893TIP3   OH229611   6.841   0.968   6.512
 9893TIP3    H129612   6.913   1.016   6.555
 9893TIP3    H229613   6.856   0.879   6.548
 9894TIP3   OH229614   6.906   1.751   6.674
 9894TIP3    H129615   6.879   1.839   6.638
 9894TIP3    H229616   6.827   1.732   6.729
 9895TIP3   OH229617   6.293   1.442   5.910
 9895TIP3    H129618   6.255   1.471   5.825
 9895TIP3    H229619   6.326   1.526   5.946
 9896TIP3   OH229620   7.737   1.959   6.148
 9896TIP3    H129621   7.648   1.949   6.190
 9896TIP3    H229622   7.727   2.046   6.105
 9897TIP3   OH229623   7.437   2.001   5.822
 9897TIP3    H129624   7.487   1.918   5.804
 9897TIP3    H229625   7.500   2.066   5.783
 9898TIP3   OH229626   7.583   1.786   5.733
 9898TIP3    H129627   7.532   1.708   5.705
 9898TIP3    H229628   7.623   1.754   5.817
 9899TIP3   OH229629   7.938   1.858   6.491
 9899TIP3    H129630   7.939   1.788   6.423
 9899TIP3    H229631   7.944   1.939   6.438
 9900TIP3   OH229632   7.255   1.268   5.750
 9900TIP3    H129633   7.173   1.318   5.731
 9900TIP3    H229634   7.296   1.262   5.663
 9901TIP3   OH229635   7.210   1.048   5.467
 9901TIP3    H129636   7.282   1.099   5.509
 9901TIP3    H229637   7.260   0.974   5.429
 9902TIP3   OH229638   8.190   1.507   6.339
 9902TIP3    H129639   8.095   1.529   6.350
 9902TIP3    H229640   8.204   1.533   6.247
 9903TIP3   OH229641   7.602   1.347   5.720
 9903TIP3    H129642   7.547   1.369   5.799
 9903TIP3    H229643   7.687   1.325   5.764
 9904TIP3   OH229644   7.872   1.372   6.506
 9904TIP3    H129645   7.909   1.438   6.566
 9904TIP3    H229646   7.801   1.422   6.461
 9905TIP3   OH229647   6.835   1.343   6.140
 9905TIP3    H129648   6.795   1.283   6.074
 9905TIP3    H229649   6.911   1.289   6.173
 9906TIP3   OH229650   6.965   1.755   6.288
 9906TIP3    H129651   6.944   1.718   6.201
 9906TIP3    H229652   7.054   1.716   6.306
 9907TIP3   OH229653   6.972   1.309   6.504
 9907TIP3    H129654   7.000   1.280   6.414
 9907TIP3    H229655   7.017   1.395   6.514
 9908TIP3   OH229656   7.497   1.951   6.272
 9908TIP3    H129657   7.486   2.032   6.325
 9908TIP3    H229658   7.480   1.880   6.337
 9909TIP3   OH229659   7.106   1.869   6.819
 9909TIP3    H129660   7.044   1.930   6.864
 9909TIP3    H229661   7.042   1.816   6.767
 9910TIP3   OH229662   7.441   1.202   5.549
 9910TIP3    H129663   7.498   1.265   5.598
 9910TIP3    H229664   7.469   1.222   5.456
 9911TIP3   OH229665   6.848   1.446   6.910
 9911TIP3    H129666   6.853   1.526   6.967
 9911TIP3    H229667   6.756   1.415   6.933
 9912TIP3   OH229668   7.188   1.879   5.825
 9912TIP3    H129669   7.269   1.933   5.835
 9912TIP3    H229670   7.127   1.941   5.784
 9913TIP3   OH229671   6.903   2.036   6.908
 9913TIP3    H129672   6.867   2.040   6.817
 9913TIP3    H229673   6.823   2.014   6.961
 9914TIP3   OH229674   6.702   1.186   5.942
 9914TIP3    H129675   6.631   1.228   5.890
 9914TIP3    H229676   6.666   1.098   5.957
 9915TIP3   OH229677   7.750   1.812   5.144
 9915TIP3    H129678   7.762   1.909   5.134
 9915TIP3    H229679   7.843   1.780   5.135
 9916TIP3   OH229680   6.481   1.570   6.853
 9916TIP3    H129681   6.416   1.547   6.784
 9916TIP3    H229682   6.520   1.483   6.876
 9917TIP3   OH229683   6.336   1.761   6.486
 9917TIP3    H129684   6.432   1.756   6.476
 9917TIP3    H229685   6.327   1.840   6.541
 9918TIP3   OH229686   8.182   2.226   6.532
 9918TIP3    H129687   8.199   2.131   6.543
 9918TIP3    H229688   8.102   2.236   6.588
 9919TIP3   OH229689   7.302   1.995   6.675
 9919TIP3    H129690   7.303   2.087   6.708
 9919TIP3    H229691   7.230   1.957   6.731
 9920TIP3   OH229692   7.071   2.128   5.628
 9920TIP3    H129693   7.021   2.112   5.546
 9920TIP3    H229694   7.037   2.214   5.658
 9921TIP3   OH229695   6.506   1.976   6.015
 9921TIP3    H129696   6.553   1.967   6.101
 9921TIP3    H229697   6.452   1.895   6.014
 9922TIP3   OH229698   7.268   2.030   5.266
 9922TIP3    H129699   7.327   1.960   5.232
 9922TIP3    H229700   7.302   2.041   5.358
 9923TIP3   OH229701   7.320   2.077   5.535
 9923TIP3    H129702   7.232   2.088   5.576
 9923TIP3    H229703   7.370   2.040   5.609
 9924TIP3   OH229704   6.686   1.754   6.838
 9924TIP3    H129705   6.735   1.737   6.920
 9924TIP3    H229706   6.612   1.689   6.845
 9925TIP3   OH229707   7.521   1.241   5.294
 9925TIP3    H129708   7.482   1.221   5.206
 9925TIP3    H229709   7.601   1.291   5.269
 9926TIP3   OH229710   7.037   1.099   6.668
 9926TIP3    H129711   6.971   1.117   6.738
 9926TIP3    H229712   7.024   1.177   6.610
 9927TIP3   OH229713   6.898   0.984   6.165
 9927TIP3    H129714   6.805   0.957   6.178
 9927TIP3    H229715   6.916   0.950   6.075
 9928TIP3   OH229716   7.386   1.070   5.890
 9928TIP3    H129717   7.339   1.140   5.841
 9928TIP3    H229718   7.452   1.040   5.824
 9929TIP3   OH229719   7.530   1.135   6.146
 9929TIP3    H129720   7.470   1.176   6.082
 9929TIP3    H229721   7.554   1.053   6.096
 9930TIP3   OH229722   6.835   1.126   6.855
 9930TIP3    H129723   6.855   1.185   6.929
 9930TIP3    H229724   6.820   1.041   6.899
 9931TIP3   OH229725   6.470   0.736   5.989
 9931TIP3    H129726   6.488   0.733   5.893
 9931TIP3    H229727   6.374   0.756   5.987
 9932TIP3   OH229728   7.502   1.342   6.533
 9932TIP3    H129729   7.543   1.264   6.489
 9932TIP3    H229730   7.564   1.349   6.610
 9933TIP3   OH229731   6.649   0.856   6.209
 9933TIP3    H129732   6.557   0.888   6.192
 9933TIP3    H229733   6.644   0.771   6.163
 9934TIP3   OH229734   6.942   0.878   5.917
 9934TIP3    H129735   7.033   0.859   5.886
 9934TIP3    H229736   6.888   0.863   5.836
 9935TIP3   OH229737   6.777   0.854   5.689
 9935TIP3    H129738   6.700   0.844   5.630
 9935TIP3    H229739   6.837   0.903   5.629
 9936TIP3   OH229740   7.892   2.566   6.639
 9936TIP3    H129741   7.892   2.591   6.544
 9936TIP3    H229742   7.952   2.632   6.677
 9937TIP3   OH229743   6.847   1.681   7.062
 9937TIP3    H129744   6.927   1.709   7.110
 9937TIP3    H229745   6.783   1.675   7.136
 9938TIP3   OH229746   7.296   1.131   6.316
 9938TIP3    H129747   7.383   1.103   6.282
 9938TIP3    H229748   7.300   1.102   6.409
 9939TIP3   OH229749   7.309   1.065   6.575
 9939TIP3    H129750   7.220   1.053   6.615
 9939TIP3    H229751   7.363   1.092   6.651
 9940TIP3   OH229752   7.023   1.415   5.700
 9940TIP3    H129753   6.951   1.350   5.689
 9940TIP3    H229754   7.003   1.449   5.791
 9941TIP3   OH229755   7.935   1.636   6.327
 9941TIP3    H129756   7.959   1.690   6.249
 9941TIP3    H229757   7.849   1.597   6.301
 9942TIP3   OH229758   7.455   0.801   5.521
 9942TIP3    H129759   7.398   0.747   5.579
 9942TIP3    H229760   7.493   0.864   5.587
 9943TIP3   OH229761   7.436   1.747   6.703
 9943TIP3    H129762   7.398   1.699   6.777
 9943TIP3    H229763   7.386   1.831   6.703
 9944TIP3   OH229764   7.560   0.992   5.687
 9944TIP3    H129765   7.658   1.002   5.695
 9944TIP3    H229766   7.536   1.070   5.633
 9945TIP3   OH229767   6.720   1.438   6.375
 9945TIP3    H129768   6.758   1.408   6.290
 9945TIP3    H229769   6.762   1.377   6.438
 9946TIP3   OH229770   7.169   1.565   5.524
 9946TIP3    H129771   7.120   1.650   5.527
 9946TIP3    H229772   7.114   1.510   5.585
 9947TIP3   OH229773   6.598   1.359   6.991
 9947TIP3    H129774   6.626   1.347   7.084
 9947TIP3    H229775   6.528   1.292   6.981
 9948TIP3   OH229776   7.317   1.484   7.008
 9948TIP3    H129777   7.244   1.437   6.965
 9948TIP3    H229778   7.384   1.416   7.007
 9949TIP3   OH229779   7.577   1.997   6.584
 9949TIP3    H129780   7.481   1.984   6.594
 9949TIP3    H229781   7.596   2.044   6.667
 9950TIP3   OH229782   7.995   1.064   5.489
 9950TIP3    H129783   7.933   1.016   5.429
 9950TIP3    H229784   7.981   1.155   5.456
 9951TIP3   OH229785   7.697   1.885   5.414
 9951TIP3    H129786   7.665   1.820   5.479
 9951TIP3    H229787   7.703   1.834   5.332
 9952TIP3   OH229788   7.687   1.510   6.261
 9952TIP3    H129789   7.592   1.488   6.260
 9952TIP3    H229790   7.722   1.435   6.209
 9953TIP3   OH229791   6.820   1.744   6.003
 9953TIP3    H129792   6.815   1.824   5.948
 9953TIP3    H229793   6.726   1.724   6.016
 9954TIP3   OH229794   6.379   1.046   5.709
 9954TIP3    H129795   6.426   1.129   5.729
 9954TIP3    H229796   6.304   1.051   5.772
 9955TIP3   OH229797   6.951   1.506   5.943
 9955TIP3    H129798   6.917   1.595   5.964
 9955TIP3    H229799   6.918   1.454   6.019
 9956TIP3   OH229800   7.088   2.085   6.470
 9956TIP3    H129801   7.131   2.158   6.420
 9956TIP3    H229802   7.165   2.048   6.517
 9957TIP3   OH229803   6.736   1.981   5.854
 9957TIP3    H129804   6.651   1.991   5.900
 9957TIP3    H229805   6.770   2.073   5.856
 9958TIP3   OH229806   7.473   1.719   6.433
 9958TIP3    H129807   7.470   1.717   6.531
 9958TIP3    H229808   7.550   1.663   6.415
 9959TIP3   OH229809   7.452   1.615   5.313
 9959TIP3    H129810   7.506   1.588   5.391
 9959TIP3    H229811   7.364   1.586   5.340
 9960TIP3   OH229812   7.720   2.251   6.480
 9960TIP3    H129813   7.642   2.194   6.472
 9960TIP3    H229814   7.705   2.314   6.406
 9961TIP3   OH229815   7.789   2.089   5.131
 9961TIP3    H129816   7.820   2.167   5.083
 9961TIP3    H229817   7.707   2.126   5.169
 9962TIP3   OH229818   7.613   1.542   5.523
 9962TIP3    H129819   7.602   1.480   5.598
 9962TIP3    H229820   7.711   1.541   5.514
 9963TIP3   OH229821   6.526   1.945   6.629
 9963TIP3    H129822   6.580   1.873   6.666
 9963TIP3    H229823   6.552   2.019   6.686
 9964TIP3   OH229824   6.815   1.592   5.313
 9964TIP3    H129825   6.828   1.499   5.288
 9964TIP3    H229826   6.795   1.583   5.409
 9965TIP3   OH229827   6.760   1.598   5.584
 9965TIP3    H129828   6.833   1.571   5.642
 9965TIP3    H229829   6.763   1.696   5.593
 9966TIP3   OH229830   6.491   1.289   5.790
 9966TIP3    H129831   6.426   1.336   5.847
 9966TIP3    H229832   6.506   1.358   5.722
 9967TIP3   OH229833   7.028   1.795   5.532
 9967TIP3    H129834   6.941   1.817   5.570
 9967TIP3    H229835   7.042   1.873   5.477
 9968TIP3   OH229836   7.230   0.845   5.907
 9968TIP3    H129837   7.281   0.930   5.909
 9968TIP3    H229838   7.233   0.819   6.000
 9969TIP3   OH229839   7.484   1.126   6.776
 9969TIP3    H129840   7.520   1.219   6.790
 9969TIP3    H229841   7.572   1.080   6.766
 9970TIP3   OH229842   6.774   1.870   5.604
 9970TIP3    H129843   6.743   1.939   5.542
 9970TIP3    H229844   6.757   1.912   5.691
 9971TIP3   OH229845   7.772   1.281   6.122
 9971TIP3    H129846   7.694   1.227   6.145
 9971TIP3    H229847   7.844   1.237   6.173
 9972TIP3   OH229848   6.489   1.495   5.594
 9972TIP3    H129849   6.557   1.564   5.603
 9972TIP3    H229850   6.534   1.438   5.527
 9973TIP3   OH229851   6.435   0.776   5.712
 9973TIP3    H129852   6.424   0.873   5.707
 9973TIP3    H229853   6.345   0.744   5.701
 9974TIP3   OH229854   7.744   2.229   6.072
 9974TIP3    H129855   7.701   2.275   5.997
 9974TIP3    H229856   7.838   2.248   6.052
 9975TIP3   OH229857   6.354   1.710   5.976
 9975TIP3    H129858   6.292   1.743   6.042
 9975TIP3    H229859   6.320   1.755   5.895
 9976TIP3   OH229860   6.518   2.261   7.053
 9976TIP3    H129861   6.605   2.261   7.100
 9976TIP3    H229862   6.499   2.165   7.051
 9977TIP3   OH229863   6.993   2.220   7.096
 9977TIP3    H129864   7.088   2.203   7.102
 9977TIP3    H229865   6.968   2.158   7.025
 9978TIP3   OH229866   6.978   1.794   5.222
 9978TIP3    H129867   6.920   1.724   5.261
 9978TIP3    H229868   7.054   1.740   5.195
 9979TIP3   OH229869   7.598   2.119   6.830
 9979TIP3    H129870   7.594   2.049   6.900
 9979TIP3    H229871   7.680   2.167   6.853
 9980TIP3   OH229872   7.415   1.833   5.138
 9980TIP3    H129873   7.452   1.767   5.201
 9980TIP3    H229874   7.478   1.829   5.064
 9981TIP3   OH229875   6.646   1.667   7.252
 9981TIP3    H129876   6.660   1.572   7.268
 9981TIP3    H229877   6.559   1.666   7.205
 9982TIP3   OH229878   6.626   1.310   5.449
 9982TIP3    H129879   6.682   1.280   5.523
 9982TIP3    H229880   6.693   1.316   5.377
 9983TIP3   OH229881   7.260   1.756   7.012
 9983TIP3    H129882   7.204   1.780   6.934
 9983TIP3    H229883   7.275   1.661   7.000
 9984TIP3   OH229884   7.141   1.515   5.255
 9984TIP3    H129885   7.141   1.526   5.352
 9984TIP3    H229886   7.142   1.417   5.248
 9985TIP3   OH229887   7.748   1.761   6.659
 9985TIP3    H129888   7.817   1.798   6.600
 9985TIP3    H229889   7.671   1.813   6.630
 9986TIP3   OH229890   6.774   1.391   7.218
 9986TIP3    H129891   6.849   1.330   7.216
 9986TIP3    H229892   6.777   1.415   7.313
 9987TIP3   OH229893   6.828   1.220   5.668
 9987TIP3    H129894   6.806   1.182   5.754
 9987TIP3    H229895   6.867   1.143   5.620
 9988TIP3   OH229896   7.093   1.336   6.887
 9988TIP3    H129897   7.007   1.380   6.881
 9988TIP3    H229898   7.138   1.362   6.802
 9989TIP3   OH229899   6.931   1.012   5.515
 9989TIP3    H129900   6.905   1.019   5.421
 9989TIP3    H229901   7.028   1.013   5.507
 9990TIP3   OH229902   7.752   1.339   5.173
 9990TIP3    H129903   7.732   1.297   5.087
 9990TIP3    H229904   7.718   1.430   5.154
 9991TIP3   OH229905   7.203   1.102   6.975
 9991TIP3    H129906   7.188   1.044   6.889
 9991TIP3    H229907   7.177   1.193   6.930
 9992TIP3   OH229908   7.278   1.408   6.698
 9992TIP3    H129909   7.349   1.383   6.636
 9992TIP3    H229910   7.221   1.466   6.642
 9993TIP3   OH229911   7.042   1.190   7.186
 9993TIP3    H129912   6.989   1.109   7.184
 9993TIP3    H229913   7.090   1.186   7.102
 9994TIP3   OH229914   6.742   2.073   5.416
 9994TIP3    H129915   6.837   2.064   5.395
 9994TIP3    H229916   6.713   2.125   5.339
 9995TIP3   OH229917   6.220   1.455   5.630
 9995TIP3    H129918   6.315   1.476   5.615
 9995TIP3    H229919   6.214   1.366   5.588
 9996TIP3   OH229920   6.138   2.067   6.047
 9996TIP3    H129921   6.072   2.006   6.006
 9996TIP3    H229922   6.181   2.006   6.110
 9997TIP3   OH229923   6.273   1.911   6.232
 9997TIP3    H129924   6.259   1.843   6.299
 9997TIP3    H229925   6.325   1.976   6.283
 9998TIP3   OH229926   8.000   2.311   6.035
 9998TIP3    H129927   8.024   2.351   6.120
 9998TIP3    H229928   8.062   2.355   5.974
 9999TIP3   OH229929   8.026   2.340   6.316
 9999TIP3    H129930   7.980   2.253   6.307
 9999TIP3    H229931   8.097   2.313   6.376
10000TIP3   OH229932   7.891   1.530   5.502
10000TIP3    H129933   7.959   1.595   5.474
10000TIP3    H229934   7.932   1.494   5.584
10001TIP3   OH229935   8.010   1.411   5.714
10001TIP3    H129936   7.941   1.363   5.767
10001TIP3    H229937   8.068   1.445   5.784
10002TIP3   OH229938   8.069   1.793   6.140
10002TIP3    H129939   8.121   1.723   6.094
10002TIP3    H229940   8.064   1.863   6.073
10003TIP3   OH229941   7.905   2.091   6.331
10003TIP3    H129942   7.831   2.125   6.385
10003TIP3    H229943   7.857   2.043   6.260
10004TIP3   OH229944   7.947   1.302   5.357
10004TIP3    H129945   7.878   1.309   5.287
10004TIP3    H229946   7.923   1.379   5.412
10005TIP3   OH229947   7.819   0.963   5.300
10005TIP3    H129948   7.796   1.039   5.244
10005TIP3    H229949   7.772   0.891   5.254
10006TIP3   OH229950   7.830   1.265   5.852
10006TIP3    H129951   7.832   1.170   5.827
10006TIP3    H229952   7.814   1.263   5.949
10007TIP3   OH229953   6.454   1.328   6.603
10007TIP3    H129954   6.452   1.296   6.511
10007TIP3    H229955   6.552   1.327   6.620
10008TIP3   OH229956   7.833   1.015   5.723
10008TIP3    H129957   7.858   0.936   5.775
10008TIP3    H229958   7.898   1.012   5.649
10009TIP3   OH229959   7.986   1.167   6.252
10009TIP3    H129960   8.080   1.155   6.234
10009TIP3    H229961   7.985   1.182   6.348
10010TIP3   OH229962   6.662   1.003   7.263
10010TIP3    H129963   6.757   1.002   7.282
10010TIP3    H229964   6.633   0.922   7.309
10011TIP3   OH229965   6.432   0.977   6.678
10011TIP3    H129966   6.480   0.980   6.592
10011TIP3    H229967   6.466   1.055   6.722
10012TIP3   OH229968   7.583   2.185   5.687
10012TIP3    H129969   7.637   2.177   5.605
10012TIP3    H229970   7.632   2.253   5.737
10013TIP3   OH229971   6.683   1.994   7.073
10013TIP3    H129972   6.591   1.966   7.058
10013TIP3    H229973   6.697   1.969   7.165
10014TIP3   OH229974   6.863   2.024   6.621
10014TIP3    H129975   6.815   2.100   6.581
10014TIP3    H229976   6.949   2.038   6.575
10015TIP3   OH229977   7.299   2.263   6.755
10015TIP3    H129978   7.340   2.267   6.844
10015TIP3    H229979   7.366   2.314   6.702
10016TIP3   OH229980   7.478   2.416   6.615
10016TIP3    H129981   7.548   2.366   6.569
10016TIP3    H229982   7.531   2.478   6.669
10017TIP3   OH229983   6.536   2.278   6.645
10017TIP3    H129984   6.446   2.310   6.622
10017TIP3    H229985   6.549   2.323   6.730
10018TIP3   OH229986   6.773   2.258   6.504
10018TIP3    H129987   6.686   2.270   6.547
10018TIP3    H229988   6.755   2.289   6.413
10019TIP3   OH229989   7.199   2.284   6.301
10019TIP3    H129990   7.129   2.301   6.236
10019TIP3    H229991   7.209   2.373   6.342
10020TIP3   OH229992   7.468   2.222   6.353
10020TIP3    H129993   7.374   2.241   6.334
10020TIP3    H229994   7.513   2.295   6.307
10021TIP3   OH229995   7.674   2.413   6.266
10021TIP3    H129996   7.661   2.498   6.218
10021TIP3    H229997   7.701   2.353   6.193
10022TIP3   OH229998   6.447   2.070   6.389
10022TIP3    H129999   6.474   2.043   6.479
10022TIP3    H230000   6.520   2.027   6.337
10023TIP3   OH230001   6.643   1.944   6.249
10023TIP3    H130002   6.659   1.860   6.298
10023TIP3    H230003   6.735   1.979   6.243
10024TIP3   OH230004   6.911   2.035   6.253
10024TIP3    H130005   6.941   1.943   6.242
10024TIP3    H230006   6.958   2.058   6.335
10025TIP3   OH230007   6.234   1.849   5.778
10025TIP3    H130008   6.148   1.818   5.744
10025TIP3    H230009   6.230   1.942   5.748
10026TIP3   OH230010   7.009   2.028   5.362
10026TIP3    H130011   7.097   2.052   5.326
10026TIP3    H230012   6.987   1.954   5.301
10027TIP3   OH230013   7.731   2.153   5.455
10027TIP3    H130014   7.723   2.055   5.446
10027TIP3    H230015   7.681   2.182   5.377
10028TIP3   OH230016   6.310   1.866   5.415
10028TIP3    H130017   6.310   1.894   5.508
10028TIP3    H230018   6.400   1.826   5.405
10029TIP3   OH230019   7.937   2.295   6.643
10029TIP3    H130020   7.865   2.269   6.582
10029TIP3    H230021   7.925   2.392   6.643
10030TIP3   OH230022   8.471   1.962   5.923
10030TIP3    H130023   8.430   1.883   5.885
10030TIP3    H230024   8.561   1.956   5.887
10031TIP3   OH230025   8.199   1.209   5.692
10031TIP3    H130026   8.123   1.268   5.679
10031TIP3    H230027   8.175   1.132   5.639
10032TIP3   OH230028   8.278   1.456   5.835
10032TIP3    H130029   8.280   1.359   5.821
10032TIP3    H230030   8.314   1.487   5.751
10033TIP3   OH230031   8.095   1.695   5.396
10033TIP3    H130032   8.046   1.727   5.318
10033TIP3    H230033   8.121   1.781   5.437
10034TIP3   OH230034   8.296   1.810   6.301
10034TIP3    H130035   8.218   1.818   6.243
10034TIP3    H230036   8.255   1.767   6.378
10035TIP3   OH230037   8.134   2.022   5.971
10035TIP3    H130038   8.230   2.031   5.973
10035TIP3    H230039   8.108   2.099   6.023
10036TIP3   OH230040   8.271   2.226   5.496
10036TIP3    H130041   8.354   2.238   5.545
10036TIP3    H230042   8.230   2.156   5.549
10037TIP3   OH230043   8.262   0.988   5.461
10037TIP3    H130044   8.274   0.999   5.366
10037TIP3    H230045   8.166   1.006   5.471
10038TIP3   OH230046   8.170   1.293   5.195
10038TIP3    H130047   8.219   1.376   5.215
10038TIP3    H230048   8.096   1.301   5.260
10039TIP3   OH230049   8.318   2.205   6.114
10039TIP3    H130050   8.375   2.133   6.146
10039TIP3    H230051   8.346   2.279   6.170
10040TIP3   OH230052   8.272   1.537   5.260
10040TIP3    H130053   8.212   1.582   5.323
10040TIP3    H230054   8.281   1.604   5.190
10041TIP3   OH230055   8.276   1.735   5.062
10041TIP3    H130056   8.345   1.797   5.094
10041TIP3    H230057   8.303   1.724   4.968
10042TIP3   OH230058   8.237   1.031   5.180
10042TIP3    H130059   8.219   1.127   5.187
10042TIP3    H230060   8.149   0.992   5.184
10043TIP3   OH230061   8.134   1.952   5.466
10043TIP3    H130062   8.078   1.996   5.531
10043TIP3    H230063   8.122   2.009   5.387
10044TIP3   OH230064   8.277   2.481   6.510
10044TIP3    H130065   8.362   2.476   6.556
10044TIP3    H230066   8.247   2.387   6.515
10045TIP3   OH230067   8.005   1.711   5.113
10045TIP3    H130068   8.101   1.725   5.099
10045TIP3    H230069   7.996   1.619   5.079
10046TIP3   OH230070   7.936   2.322   5.532
10046TIP3    H130071   7.868   2.263   5.494
10046TIP3    H230072   7.981   2.262   5.594
10047TIP3   OH230073   8.072   2.164   5.715
10047TIP3    H130074   8.056   2.099   5.786
10047TIP3    H230075   8.122   2.232   5.765
10048TIP3   OH230076   8.249   1.592   6.073
10048TIP3    H130077   8.254   1.542   5.988
10048TIP3    H230078   8.342   1.605   6.093
10049TIP3   OH230079   8.326   2.532   6.139
10049TIP3    H130080   8.242   2.568   6.102
10049TIP3    H230081   8.311   2.552   6.232
10050TIP3   OH230082   8.588   2.525   6.022
10050TIP3    H130083   8.496   2.524   6.053
10050TIP3    H230084   8.577   2.564   5.933
10051TIP3   OH230085   8.237   2.330   5.875
10051TIP3    H130086   8.265   2.306   5.966
10051TIP3    H230087   8.310   2.289   5.824
10052TIP3   OH230088   8.425   2.195   5.734
10052TIP3    H130089   8.434   2.103   5.765
10052TIP3    H230090   8.516   2.212   5.701
10053TIP3   OH230091   8.042   2.099   5.251
10053TIP3    H130092   7.951   2.073   5.225
10053TIP3    H230093   8.034   2.195   5.252
10054TIP3   OH230094   8.107   2.135   4.921
10054TIP3    H130095   8.069   2.173   5.002
10054TIP3    H230096   8.173   2.074   4.956
10055TIP3   OH230097   1.676   2.455   7.093
10055TIP3    H130098   1.647   2.547   7.078
10055TIP3    H230099   1.597   2.406   7.066
10056TIP3   OH230100   1.650   2.462   7.463
10056TIP3    H130101   1.704   2.448   7.543
10056TIP3    H230102   1.613   2.373   7.449
10057TIP3   OH230103   1.917   2.759   7.164
10057TIP3    H130104   1.902   2.691   7.232
10057TIP3    H230105   1.950   2.834   7.217
10058TIP3   OH230106   0.946   2.765   7.564
10058TIP3    H130107   0.932   2.668   7.563
10058TIP3    H230108   1.043   2.768   7.568
10059TIP3   OH230109   0.691   2.237   7.499
10059TIP3    H130110   0.741   2.190   7.566
10059TIP3    H230111   0.760   2.286   7.453
10060TIP3   OH230112   1.568   3.220   7.179
10060TIP3    H130113   1.611   3.149   7.127
10060TIP3    H230114   1.560   3.179   7.266
10061TIP3   OH230115   1.472   2.682   7.513
10061TIP3    H130116   1.514   2.601   7.476
10061TIP3    H230117   1.552   2.724   7.549
10062TIP3   OH230118   2.477   2.004   7.515
10062TIP3    H130119   2.494   2.082   7.572
10062TIP3    H230120   2.497   2.040   7.427
10063TIP3   OH230121   1.873   2.164   7.561
10063TIP3    H130122   1.920   2.081   7.580
10063TIP3    H230123   1.850   2.151   7.467
10064TIP3   OH230124   1.255   1.840   7.520
10064TIP3    H130125   1.208   1.918   7.484
10064TIP3    H230126   1.195   1.769   7.494
10065TIP3   OH230127   1.923   1.936   7.148
10065TIP3    H130128   1.994   1.919   7.213
10065TIP3    H230129   1.975   1.973   7.074
10066TIP3   OH230130   1.296   2.245   7.431
10066TIP3    H130131   1.391   2.219   7.437
10066TIP3    H230132   1.256   2.162   7.397
10067TIP3   OH230133   2.536   2.197   7.695
10067TIP3    H130134   2.451   2.243   7.695
10067TIP3    H230135   2.591   2.256   7.752
10068TIP3   OH230136   1.565   2.679   6.963
10068TIP3    H130137   1.518   2.660   6.881
10068TIP3    H230138   1.519   2.759   6.993
10069TIP3   OH230139   2.131   1.924   7.325
10069TIP3    H130140   2.098   1.900   7.413
10069TIP3    H230141   2.185   2.002   7.346
10070TIP3   OH230142   0.560   2.483   7.083
10070TIP3    H130143   0.506   2.510   7.008
10070TIP3    H230144   0.580   2.567   7.128
10071TIP3   OH230145   1.985   3.003   7.323
10071TIP3    H130146   1.896   2.992   7.364
10071TIP3    H230147   1.975   3.090   7.280
10072TIP3   OH230148   2.275   1.885   7.689
10072TIP3    H130149   2.192   1.926   7.665
10072TIP3    H230150   2.339   1.927   7.628
10073TIP3   OH230151   1.685   3.046   6.998
10073TIP3    H130152   1.735   2.964   6.981
10073TIP3    H230153   1.748   3.111   6.959
10074TIP3   OH230154   1.831   2.831   6.913
10074TIP3    H130155   1.782   2.753   6.882
10074TIP3    H230156   1.869   2.798   6.997
10075TIP3   OH230157   2.208   2.913   7.669
10075TIP3    H130158   2.197   2.834   7.611
10075TIP3    H230159   2.191   2.986   7.606
10076TIP3   OH230160   1.502   2.306   6.931
10076TIP3    H130161   1.421   2.358   6.912
10076TIP3    H230162   1.545   2.304   6.844
10077TIP3   OH230163   1.461   2.096   6.640
10077TIP3    H130164   1.528   2.148   6.688
10077TIP3    H230165   1.518   2.032   6.593
10078TIP3   OH230166   2.405   2.545   7.515
10078TIP3    H130167   2.323   2.599   7.524
10078TIP3    H230168   2.436   2.576   7.427
10079TIP3   OH230169   1.853   2.390   6.897
10079TIP3    H130170   1.797   2.413   6.974
10079TIP3    H230171   1.937   2.369   6.942
10080TIP3   OH230172   2.076   2.457   7.782
10080TIP3    H130173   2.073   2.552   7.802
10080TIP3    H230174   1.993   2.448   7.731
10081TIP3   OH230175   1.086   2.390   7.315
10081TIP3    H130176   1.045   2.329   7.250
10081TIP3    H230177   1.160   2.337   7.350
10082TIP3   OH230178   1.222   2.806   7.461
10082TIP3    H130179   1.198   2.760   7.380
10082TIP3    H230180   1.309   2.765   7.482
10083TIP3   OH230181   1.201   2.382   7.651
10083TIP3    H130182   1.233   2.321   7.581
10083TIP3    H230183   1.281   2.433   7.670
10084TIP3   OH230184   1.746   2.992   7.447
10084TIP3    H130185   1.731   3.076   7.494
10084TIP3    H230186   1.724   2.924   7.513
10085TIP3   OH230187   1.692   2.245   6.727
10085TIP3    H130188   1.749   2.307   6.777
10085TIP3    H230189   1.718   2.266   6.634
10086TIP3   OH230190   1.437   2.924   6.999
10086TIP3    H130191   1.519   2.975   7.011
10086TIP3    H230192   1.376   2.989   6.962
10087TIP3   OH230193   2.213   1.491   6.790
10087TIP3    H130194   2.118   1.508   6.798
10087TIP3    H230195   2.238   1.568   6.733
10088TIP3   OH230196   0.953   2.233   7.120
10088TIP3    H130197   0.880   2.267   7.065
10088TIP3    H230198   0.925   2.142   7.138
10089TIP3   OH230199   2.007   2.854   6.324
10089TIP3    H130200   2.015   2.950   6.309
10089TIP3    H230201   2.100   2.824   6.312
10090TIP3   OH230202   2.444   3.261   7.710
10090TIP3    H130203   2.449   3.165   7.729
10090TIP3    H230204   2.368   3.283   7.768
10091TIP3   OH230205   1.575   3.059   7.873
10091TIP3    H130206   1.515   3.130   7.899
10091TIP3    H230207   1.512   2.983   7.867
10092TIP3   OH230208   1.317   3.171   6.805
10092TIP3    H130209   1.271   3.155   6.721
10092TIP3    H230210   1.284   3.259   6.832
10093TIP3   OH230211   0.754   3.022   7.192
10093TIP3    H130212   0.804   3.014   7.276
10093TIP3    H230213   0.710   2.935   7.188
10094TIP3   OH230214   1.516   3.074   6.443
10094TIP3    H130215   1.575   3.005   6.408
10094TIP3    H230216   1.551   3.085   6.534
10095TIP3   OH230217   1.568   3.122   6.713
10095TIP3    H130218   1.480   3.131   6.755
10095TIP3    H230219   1.620   3.084   6.786
10096TIP3   OH230220   1.768   2.288   6.472
10096TIP3    H130221   1.732   2.268   6.383
10096TIP3    H230222   1.850   2.336   6.447
10097TIP3   OH230223   1.162   2.032   7.334
10097TIP3    H130224   1.074   1.990   7.347
10097TIP3    H230225   1.179   2.001   7.242
10098TIP3   OH230226   1.646   2.113   7.064
10098TIP3    H130227   1.591   2.183   7.022
10098TIP3    H230228   1.694   2.077   6.987
10099TIP3   OH230229   1.795   2.133   7.300
10099TIP3    H130230   1.735   2.168   7.230
10099TIP3    H230231   1.828   2.054   7.251
10100TIP3   OH230232   1.817   2.408   7.671
10100TIP3    H130233   1.839   2.315   7.646
10100TIP3    H230234   1.789   2.401   7.764
10101TIP3   OH230235   1.491   1.839   7.391
10101TIP3    H130236   1.400   1.839   7.429
10101TIP3    H230237   1.542   1.866   7.469
10102TIP3   OH230238   0.944   1.882   7.377
10102TIP3    H130239   0.854   1.895   7.414
10102TIP3    H230240   0.959   1.787   7.391
10103TIP3   OH230241   1.191   1.927   7.088
10103TIP3    H130242   1.279   1.908   7.052
10103TIP3    H230243   1.134   1.927   7.008
10104TIP3   OH230244   1.969   1.911   7.611
10104TIP3    H130245   1.947   1.919   7.706
10104TIP3    H230246   1.895   1.853   7.580
10105TIP3   OH230247   1.025   1.925   6.875
10105TIP3    H130248   0.937   1.895   6.843
10105TIP3    H230249   1.067   1.958   6.793
10106TIP3   OH230250   2.158   3.605   7.801
10106TIP3    H130251   2.159   3.622   7.705
10106TIP3    H230252   2.239   3.653   7.829
10107TIP3   OH230253   1.564   2.176   7.476
10107TIP3    H130254   1.640   2.142   7.426
10107TIP3    H230255   1.586   2.152   7.567
10108TIP3   OH230256   1.113   1.640   7.387
10108TIP3    H130257   1.040   1.589   7.342
10108TIP3    H230258   1.175   1.647   7.314
10109TIP3   OH230259   1.272   2.458   6.876
10109TIP3    H130260   1.200   2.392   6.866
10109TIP3    H230261   1.252   2.492   6.967
10110TIP3   OH230262   2.175   2.696   7.503
10110TIP3    H130263   2.199   2.748   7.424
10110TIP3    H230264   2.089   2.656   7.478
10111TIP3   OH230265   1.710   1.767   6.755
10111TIP3    H130266   1.613   1.753   6.749
10111TIP3    H230267   1.720   1.862   6.772
10112TIP3   OH230268   1.799   2.018   6.844
10112TIP3    H130269   1.895   2.027   6.857
10112TIP3    H230270   1.776   2.098   6.793
10113TIP3   OH230271   0.967   2.490   7.546
10113TIP3    H130272   1.002   2.459   7.461
10113TIP3    H230273   1.033   2.452   7.607
10114TIP3   OH230274   1.417   2.608   6.700
10114TIP3    H130275   1.368   2.693   6.704
10114TIP3    H230276   1.363   2.553   6.761
10115TIP3   OH230277   1.839   3.029   7.795
10115TIP3    H130278   1.744   3.043   7.812
10115TIP3    H230279   1.879   3.086   7.862
10116TIP3   OH230280   2.237   2.114   6.683
10116TIP3    H130281   2.178   2.070   6.617
10116TIP3    H230282   2.235   2.204   6.644
10117TIP3   OH230283   2.452   2.973   7.761
10117TIP3    H130284   2.355   2.963   7.750
10117TIP3    H230285   2.481   2.937   7.675
10118TIP3   OH230286   1.943   2.930   6.590
10118TIP3    H130287   1.915   2.861   6.652
10118TIP3    H230288   1.955   2.881   6.507
10119TIP3   OH230289   1.939   2.568   7.411
10119TIP3    H130290   1.849   2.540   7.435
10119TIP3    H230291   1.973   2.485   7.371
10120TIP3   OH230292   1.068   2.787   7.174
10120TIP3    H130293   1.061   2.868   7.121
10120TIP3    H230294   0.975   2.768   7.194
10121TIP3   OH230295   0.607   2.091   6.907
10121TIP3    H130296   0.673   2.164   6.901
10121TIP3    H230297   0.559   2.121   6.986
10122TIP3   OH230298   1.201   2.550   7.117
10122TIP3    H130299   1.168   2.639   7.140
10122TIP3    H230300   1.169   2.498   7.194
10123TIP3   OH230301   1.333   3.132   7.628
10123TIP3    H130302   1.381   3.207   7.587
10123TIP3    H230303   1.405   3.080   7.665
10124TIP3   OH230304   0.982   3.029   7.028
10124TIP3    H130305   0.898   3.038   7.078
10124TIP3    H230306   1.016   3.121   7.032
10125TIP3   OH230307   1.726   2.762   7.612
10125TIP3    H130308   1.759   2.770   7.703
10125TIP3    H230309   1.803   2.720   7.571
10126TIP3   OH230310   1.700   2.659   6.491
10126TIP3    H130311   1.755   2.633   6.568
10126TIP3    H230312   1.613   2.630   6.520
10127TIP3   OH230313   1.961   3.295   7.656
10127TIP3    H130314   1.881   3.242   7.640
10127TIP3    H230315   1.953   3.361   7.584
10128TIP3   OH230316   2.038   3.130   6.309
10128TIP3    H130317   2.075   3.203   6.258
10128TIP3    H230318   1.958   3.174   6.343
10129TIP3   OH230319   1.862   2.587   6.701
10129TIP3    H130320   1.851   2.525   6.775
10129TIP3    H230321   1.960   2.585   6.692
10130TIP3   OH230322   1.061   2.637   6.490
10130TIP3    H130323   1.077   2.544   6.465
10130TIP3    H230324   1.043   2.627   6.586
10131TIP3   OH230325   1.007   2.643   6.762
10131TIP3    H130326   1.081   2.613   6.818
10131TIP3    H230327   1.013   2.741   6.772
10132TIP3   OH230328   0.746   2.328   6.958
10132TIP3    H130329   0.681   2.374   7.016
10132TIP3    H230330   0.765   2.399   6.895
10133TIP3   OH230331   1.794   1.714   7.024
10133TIP3    H130332   1.757   1.729   6.935
10133TIP3    H230333   1.818   1.805   7.052
10134TIP3   OH230334   1.275   2.837   6.708
10134TIP3    H130335   1.189   2.862   6.747
10134TIP3    H230336   1.292   2.915   6.653
10135TIP3   OH230337   1.481   1.900   7.121
10135TIP3    H130338   1.534   1.981   7.108
10135TIP3    H230339   1.470   1.898   7.217
10136TIP3   OH230340   1.624   1.643   7.246
10136TIP3    H130341   1.587   1.727   7.280
10136TIP3    H230342   1.680   1.675   7.172
10137TIP3   OH230343   1.022   2.915   6.780
10137TIP3    H130344   0.991   2.986   6.719
10137TIP3    H230345   1.006   2.958   6.867
10138TIP3   OH230346   1.127   1.629   7.063
10138TIP3    H130347   1.132   1.712   7.015
10138TIP3    H230348   1.220   1.598   7.054
10139TIP3   OH230349   2.023   2.316   7.301
10139TIP3    H130350   1.946   2.258   7.316
10139TIP3    H230351   2.094   2.270   7.351
10140TIP3   OH230352   0.743   2.544   6.765
10140TIP3    H130353   0.817   2.607   6.777
10140TIP3    H230354   0.786   2.483   6.700
10141TIP3   OH230355   0.748   1.855   6.836
10141TIP3    H130356   0.709   1.934   6.876
10141TIP3    H230357   0.691   1.785   6.871
10142TIP3   OH230358   1.993   3.274   7.248
10142TIP3    H130359   1.950   3.322   7.173
10142TIP3    H230360   2.087   3.293   7.228
10143TIP3   OH230361   0.609   2.775   7.160
10143TIP3    H130362   0.528   2.799   7.206
10143TIP3    H230363   0.586   2.806   7.070
10144TIP3   OH230364   1.225   2.838   6.399
10144TIP3    H130365   1.170   2.767   6.438
10144TIP3    H230366   1.303   2.787   6.370
10145TIP3   OH230367   1.662   2.878   6.315
10145TIP3    H130368   1.703   2.814   6.375
10145TIP3    H230369   1.720   2.874   6.236
10146TIP3   OH230370   0.874   2.352   6.626
10146TIP3    H130371   0.930   2.320   6.699
10146TIP3    H230372   0.942   2.358   6.555
10147TIP3   OH230373   1.385   2.558   6.431
10147TIP3    H130374   1.389   2.569   6.529
10147TIP3    H230375   1.389   2.460   6.424
10148TIP3   OH230376   1.978   2.780   7.766
10148TIP3    H130377   2.071   2.808   7.757
10148TIP3    H230378   1.937   2.866   7.788
10149TIP3   OH230379   1.075   2.264   6.843
10149TIP3    H130380   1.054   2.225   6.929
10149TIP3    H230381   1.115   2.188   6.795
10150TIP3   OH230382   1.179   2.060   6.685
10150TIP3    H130383   1.156   2.060   6.591
10150TIP3    H230384   1.277   2.057   6.680
10151TIP3   OH230385   2.002   2.384   6.352
10151TIP3    H130386   1.981   2.341   6.266
10151TIP3    H230387   1.969   2.475   6.332
10152TIP3   OH230388   0.991   3.120   6.593
10152TIP3    H130389   1.086   3.108   6.574
10152TIP3    H230390   0.965   3.171   6.514
10153TIP3   OH230391   0.479   2.492   6.804
10153TIP3    H130392   0.573   2.516   6.793
10153TIP3    H230393   0.475   2.404   6.763
10154TIP3   OH230394   0.368   3.114   7.224
10154TIP3    H130395   0.324   3.046   7.173
10154TIP3    H230396   0.413   3.061   7.294
10155TIP3   OH230397   0.506   2.972   7.412
10155TIP3    H130398   0.532   2.887   7.448
10155TIP3    H230399   0.563   3.033   7.463
10156TIP3   OH230400   2.247   3.364   7.211
10156TIP3    H130401   2.275   3.391   7.300
10156TIP3    H230402   2.316   3.403   7.155
10157TIP3   OH230403   2.278   3.381   7.493
10157TIP3    H130404   2.232   3.294   7.487
10157TIP3    H230405   2.349   3.356   7.555
10158TIP3   OH230406   2.141   2.570   6.682
10158TIP3    H130407   2.206   2.637   6.652
10158TIP3    H230408   2.186   2.534   6.761
10159TIP3   OH230409   2.268   2.437   6.886
10159TIP3    H130410   2.201   2.399   6.946
10159TIP3    H230411   2.334   2.475   6.948
10160TIP3   OH230412   2.324   2.835   7.317
10160TIP3    H130413   2.376   2.767   7.271
10160TIP3    H230414   2.320   2.907   7.251
10161TIP3   OH230415   2.148   3.135   7.508
10161TIP3    H130416   2.076   3.169   7.563
10161TIP3    H230417   2.100   3.087   7.437
10162TIP3   OH230418   2.204   2.346   6.532
10162TIP3    H130419   2.133   2.349   6.465
10162TIP3    H230420   2.176   2.422   6.588
10163TIP3   OH230421   2.079   2.017   6.484
10163TIP3    H130422   2.029   2.058   6.412
10163TIP3    H230423   2.054   1.923   6.473
10164TIP3   OH230424   2.080   2.300   7.033
10164TIP3    H130425   2.090   2.204   7.029
10164TIP3    H230426   2.064   2.315   7.129
10165TIP3   OH230427   2.340   2.697   7.866
10165TIP3    H130428   2.429   2.658   7.879
10165TIP3    H230429   2.361   2.789   7.847
10166TIP3   OH230430   2.544   2.519   7.902
10166TIP3    H130431   2.478   2.470   7.952
10166TIP3    H230432   2.613   2.452   7.890
10167TIP3   OH230433   2.020   1.750   6.465
10167TIP3    H130434   2.083   1.716   6.531
10167TIP3    H230435   1.938   1.700   6.485
10168TIP3   OH230436   2.085   2.013   6.923
10168TIP3    H130437   2.135   1.929   6.930
10168TIP3    H230438   2.134   2.057   6.851
10169TIP3   OH230439   2.233   2.184   7.424
10169TIP3    H130440   2.320   2.208   7.384
10169TIP3    H230441   2.246   2.222   7.513
10170TIP3   OH230442   2.300   2.332   7.659
10170TIP3    H130443   2.226   2.372   7.710
10170TIP3    H230444   2.335   2.412   7.614
10171TIP3   OH230445   2.200   1.754   6.985
10171TIP3    H130446   2.207   1.786   7.077
10171TIP3    H230447   2.124   1.693   6.989
10172TIP3   OH230448   2.265   1.687   6.607
10172TIP3    H130449   2.302   1.625   6.541
10172TIP3    H230450   2.326   1.763   6.601
10173TIP3   OH230451   1.829   3.232   6.863
10173TIP3    H130452   1.882   3.222   6.781
10173TIP3    H230453   1.883   3.295   6.914
10174TIP3   OH230454   1.090   3.076   7.785
10174TIP3    H130455   1.082   3.165   7.744
10174TIP3    H230456   1.184   3.060   7.772
10175TIP3   OH230457   1.726   3.468   7.757
10175TIP3    H130458   1.807   3.417   7.745
10175TIP3    H230459   1.732   3.493   7.851
10176TIP3   OH230460   1.017   3.317   7.672
10176TIP3    H130461   0.937   3.351   7.714
10176TIP3    H230462   1.001   3.336   7.577
10177TIP3   OH230463   1.451   3.332   7.472
10177TIP3    H130464   1.377   3.347   7.410
10177TIP3    H230465   1.461   3.421   7.512
10178TIP3   OH230466   1.717   3.260   7.521
10178TIP3    H130467   1.623   3.283   7.505
10178TIP3    H230468   1.762   3.340   7.491
10179TIP3   OH230469   1.925   3.459   7.442
10179TIP3    H130470   1.909   3.542   7.394
10179TIP3    H230471   1.950   3.398   7.370
10180TIP3   OH230472   0.697   3.113   7.554
10180TIP3    H130473   0.715   3.098   7.648
10180TIP3    H230474   0.773   3.067   7.512
10181TIP3   OH230475   0.896   2.988   7.421
10181TIP3    H130476   0.911   2.903   7.470
10181TIP3    H230477   0.988   3.023   7.418
10182TIP3   OH230478   1.159   3.077   7.426
10182TIP3    H130479   1.188   2.984   7.419
10182TIP3    H230480   1.211   3.102   7.506
10183TIP3   OH230481   1.759   1.753   7.527
10183TIP3    H130482   1.705   1.683   7.564
10183TIP3    H230483   1.803   1.708   7.453
10184TIP3   OH230484   2.262   1.609   7.375
10184TIP3    H130485   2.293   1.700   7.391
10184TIP3    H230486   2.166   1.619   7.384
10185TIP3   OH230487   1.422   1.489   7.377
10185TIP3    H130488   1.490   1.551   7.346
10185TIP3    H230489   1.412   1.512   7.469
10186TIP3   OH230490   1.977   1.616   7.382
10186TIP3    H130491   1.931   1.585   7.304
10186TIP3    H230492   1.961   1.543   7.446
10187TIP3   OH230493   2.010   1.544   6.986
10187TIP3    H130494   1.929   1.600   6.989
10187TIP3    H230495   1.971   1.459   7.016
10188TIP3   OH230496   0.472   2.891   6.957
10188TIP3    H130497   0.404   2.841   6.911
10188TIP3    H230498   0.463   2.979   6.915
10189TIP3   OH230499   1.400   1.637   7.084
10189TIP3    H130500   1.472   1.608   7.141
10189TIP3    H230501   1.429   1.727   7.062
10190TIP3   OH230502   1.257   3.073   6.539
10190TIP3    H130503   1.345   3.096   6.503
10190TIP3    H230504   1.235   2.998   6.478
10191TIP3   OH230505   1.977   3.197   6.633
10191TIP3    H130506   1.970   3.099   6.623
10191TIP3    H230507   1.931   3.227   6.552
10192TIP3   OH230508   0.562   2.914   6.593
10192TIP3    H130509   0.564   2.944   6.685
10192TIP3    H230510   0.650   2.871   6.582
10193TIP3   OH230511   2.188   3.330   7.809
10193TIP3    H130512   2.111   3.313   7.751
10193TIP3    H230513   2.179   3.425   7.825
10194TIP3   OH230514   3.470   2.711   6.581
10194TIP3    H130515   3.441   2.803   6.563
10194TIP3    H230516   3.391   2.662   6.552
10195TIP3   OH230517   3.470   2.711   6.968
10195TIP3    H130518   3.505   2.692   7.058
10195TIP3    H230519   3.426   2.627   6.946
10196TIP3   OH230520   2.766   2.605   7.328
10196TIP3    H130521   2.793   2.536   7.392
10196TIP3    H230522   2.841   2.665   7.335
10197TIP3   OH230523   3.714   3.015   6.651
10197TIP3    H130524   3.698   2.949   6.720
10197TIP3    H230525   3.744   3.092   6.703
10198TIP3   OH230526   2.738   3.016   7.050
10198TIP3    H130527   2.730   2.918   7.053
10198TIP3    H230528   2.834   3.027   7.051
10199TIP3   OH230529   2.447   2.215   6.834
10199TIP3    H130530   2.403   2.299   6.858
10199TIP3    H230531   2.373   2.168   6.793
10200TIP3   OH230532   2.503   2.506   7.014
10200TIP3    H130533   2.553   2.429   7.049
10200TIP3    H230534   2.568   2.549   6.958
10201TIP3   OH230535   3.365   3.478   6.666
10201TIP3    H130536   3.406   3.405   6.615
10201TIP3    H230537   3.355   3.438   6.753
10202TIP3   OH230538   3.266   2.939   7.014
10202TIP3    H130539   3.309   2.863   6.971
10202TIP3    H230540   3.348   2.986   7.042
10203TIP3   OH230541   4.284   2.258   7.015
10203TIP3    H130542   4.311   2.341   7.060
10203TIP3    H230543   4.303   2.280   6.922
10204TIP3   OH230544   3.679   2.437   7.045
10204TIP3    H130545   3.722   2.353   7.067
10204TIP3    H230546   3.647   2.419   6.954
10205TIP3   OH230547   3.021   2.098   7.010
10205TIP3    H130548   3.001   2.172   6.949
10205TIP3    H230549   2.969   2.027   6.966
10206TIP3   OH230550   3.716   2.188   6.632
10206TIP3    H130551   3.786   2.175   6.699
10206TIP3    H230552   3.769   2.226   6.559
10207TIP3   OH230553   2.651   2.301   7.118
10207TIP3    H130554   2.733   2.284   7.168
10207TIP3    H230555   2.667   2.245   7.040
10208TIP3   OH230556   3.092   2.497   6.911
10208TIP3    H130557   3.186   2.472   6.924
10208TIP3    H230558   3.054   2.413   6.879
10209TIP3   OH230559   4.352   2.466   7.187
10209TIP3    H130560   4.269   2.515   7.168
10209TIP3    H230561   4.380   2.507   7.270
10210TIP3   OH230562   3.016   2.081   7.441
10210TIP3    H130563   2.956   2.119   7.374
10210TIP3    H230564   2.963   2.100   7.522
10211TIP3   OH230565   3.358   2.933   6.451
10211TIP3    H130566   3.316   2.921   6.365
10211TIP3    H230567   3.314   3.015   6.482
10212TIP3   OH230568   3.120   2.858   7.238
10212TIP3    H130569   3.060   2.926   7.276
10212TIP3    H230570   3.164   2.907   7.166
10213TIP3   OH230571   3.920   2.193   6.813
10213TIP3    H130572   3.892   2.162   6.900
10213TIP3    H230573   3.970   2.273   6.836
10214TIP3   OH230574   2.885   2.197   7.229
10214TIP3    H130575   2.945   2.271   7.254
10214TIP3    H230576   2.936   2.158   7.154
10215TIP3   OH230577   2.948   3.053   7.335
10215TIP3    H130578   2.924   3.142   7.302
10215TIP3    H230579   2.869   3.036   7.391
10216TIP3   OH230580   2.340   2.743   6.573
10216TIP3    H130581   2.300   2.773   6.490
10216TIP3    H230582   2.373   2.828   6.610
10217TIP3   OH230583   3.780   3.259   6.811
10217TIP3    H130584   3.691   3.250   6.853
10217TIP3    H230585   3.771   3.347   6.768
10218TIP3   OH230586   4.076   2.148   7.175
10218TIP3    H130587   3.990   2.184   7.148
10218TIP3    H230588   4.136   2.187   7.108
10219TIP3   OH230589   3.367   1.798   7.162
10219TIP3    H130590   3.349   1.703   7.179
10219TIP3    H230591   3.291   1.839   7.209
10220TIP3   OH230592   3.480   3.302   6.484
10220TIP3    H130593   3.531   3.220   6.467
10220TIP3    H230594   3.544   3.368   6.446
10221TIP3   OH230595   3.626   3.087   6.400
10221TIP3    H130596   3.585   3.008   6.364
10221TIP3    H230597   3.665   3.054   6.484
10222TIP3   OH230598   4.006   3.170   7.158
10222TIP3    H130599   3.994   3.092   7.099
10222TIP3    H230600   3.989   3.244   7.097
10223TIP3   OH230601   3.298   2.561   6.417
10223TIP3    H130602   3.219   2.616   6.399
10223TIP3    H230603   3.344   2.564   6.332
10224TIP3   OH230604   3.258   2.350   6.128
10224TIP3    H130605   3.321   2.403   6.179
10224TIP3    H230606   3.319   2.289   6.081
10225TIP3   OH230607   4.202   2.805   7.003
10225TIP3    H130608   4.119   2.857   7.008
10225TIP3    H230609   4.233   2.833   6.914
10226TIP3   OH230610   3.648   2.645   6.385
10226TIP3    H130611   3.593   2.669   6.464
10226TIP3    H230612   3.733   2.624   6.429
10227TIP3   OH230613   3.880   2.682   7.304
10227TIP3    H130614   3.883   2.762   7.360
10227TIP3    H230615   3.795   2.694   7.259
10228TIP3   OH230616   2.880   2.642   6.805
10228TIP3    H130617   2.841   2.584   6.737
10228TIP3    H230618   2.957   2.589   6.835
10229TIP3   OH230619   3.011   3.057   6.952
10229TIP3    H130620   2.991   3.020   6.865
10229TIP3    H230621   3.100   3.021   6.971
10230TIP3   OH230622   3.017   2.615   7.157
10230TIP3    H130623   3.051   2.593   7.068
10230TIP3    H230624   3.059   2.701   7.176
10231TIP3   OH230625   3.541   3.252   6.937
10231TIP3    H130626   3.529   3.333   6.989
10231TIP3    H230627   3.523   3.181   7.001
10232TIP3   OH230628   3.155   3.172   7.478
10232TIP3    H130629   3.096   3.232   7.530
10232TIP3    H230630   3.088   3.119   7.431
10233TIP3   OH230631   3.487   2.504   6.213
10233TIP3    H130632   3.545   2.565   6.263
10233TIP3    H230633   3.513   2.524   6.120
10234TIP3   OH230634   2.913   2.723   7.582
10234TIP3    H130635   2.921   2.813   7.620
10234TIP3    H230636   2.817   2.706   7.597
10235TIP3   OH230637   3.233   3.180   6.489
10235TIP3    H130638   3.315   3.233   6.498
10235TIP3    H230639   3.172   3.243   6.448
10236TIP3   OH230640   2.946   3.335   7.571
10236TIP3    H130641   2.909   3.338   7.481
10236TIP3    H230642   2.867   3.316   7.626
10237TIP3   OH230643   4.000   1.745   6.264
10237TIP3    H130644   3.919   1.768   6.313
10237TIP3    H230645   4.016   1.827   6.213
10238TIP3   OH230646   2.749   2.485   6.603
10238TIP3    H130647   2.679   2.531   6.551
10238TIP3    H230648   2.705   2.402   6.623
10239TIP3   OH230649   3.803   3.110   5.812
10239TIP3    H130650   3.811   3.207   5.796
10239TIP3    H230651   3.896   3.081   5.799
10240TIP3   OH230652   2.524   2.873   7.520
10240TIP3    H130653   2.456   2.852   7.453
10240TIP3    H230654   2.564   2.786   7.540
10241TIP3   OH230655   2.382   3.066   7.145
10241TIP3    H130656   2.478   3.058   7.140
10241TIP3    H230657   2.372   3.140   7.206
10242TIP3   OH230658   4.246   3.517   7.206
10242TIP3    H130659   4.245   3.421   7.224
10242TIP3    H230660   4.163   3.544   7.251
10243TIP3   OH230661   3.348   3.302   7.337
10243TIP3    H130662   3.347   3.393   7.374
10243TIP3    H230663   3.279   3.259   7.391
10244TIP3   OH230664   3.115   3.428   6.292
10244TIP3    H130665   3.068   3.412   6.209
10244TIP3    H230666   3.081   3.515   6.320
10245TIP3   OH230667   2.550   3.277   6.679
10245TIP3    H130668   2.599   3.270   6.764
10245TIP3    H230669   2.498   3.196   6.681
10246TIP3   OH230670   3.313   3.331   5.930
10246TIP3    H130671   3.372   3.261   5.894
10246TIP3    H230672   3.348   3.342   6.021
10247TIP3   OH230673   3.365   3.379   6.200
10247TIP3    H130674   3.277   3.389   6.241
10247TIP3    H230675   3.416   3.342   6.274
10248TIP3   OH230676   4.139   2.643   7.480
10248TIP3    H130677   4.050   2.657   7.444
10248TIP3    H230678   4.149   2.546   7.475
10249TIP3   OH230679   2.729   3.055   7.499
10249TIP3    H130680   2.782   3.040   7.580
10249TIP3    H230681   2.654   2.993   7.512
10250TIP3   OH230682   3.132   1.877   7.291
10250TIP3    H130683   3.042   1.847   7.264
10250TIP3    H230684   3.106   1.958   7.339
10251TIP3   OH230685   3.664   1.989   7.483
10251TIP3    H130686   3.732   1.969   7.550
10251TIP3    H230687   3.580   1.974   7.533
10252TIP3   OH230688   3.901   2.422   7.400
10252TIP3    H130689   3.852   2.417   7.485
10252TIP3    H230690   3.879   2.511   7.368
10253TIP3   OH230691   3.563   2.543   5.957
10253TIP3    H130692   3.528   2.524   5.868
10253TIP3    H230693   3.645   2.591   5.935
10254TIP3   OH230694   3.276   1.921   6.263
10254TIP3    H130695   3.242   1.919   6.354
10254TIP3    H230696   3.232   1.841   6.227
10255TIP3   OH230697   3.061   2.393   7.307
10255TIP3    H130698   3.013   2.416   7.389
10255TIP3    H230699   3.046   2.475   7.254
10256TIP3   OH230700   2.947   2.278   6.822
10256TIP3    H130701   2.854   2.254   6.841
10256TIP3    H230702   2.957   2.236   6.733
10257TIP3   OH230703   3.436   2.362   6.550
10257TIP3    H130704   3.385   2.434   6.508
10257TIP3    H230705   3.491   2.331   6.476
10258TIP3   OH230706   3.613   2.642   7.625
10258TIP3    H130707   3.595   2.570   7.690
10258TIP3    H230708   3.703   2.668   7.653
10259TIP3   OH230709   3.592   2.389   6.789
10259TIP3    H130710   3.530   2.422   6.720
10259TIP3    H230711   3.625   2.310   6.742
10260TIP3   OH230712   2.882   2.421   7.514
10260TIP3    H130713   2.910   2.488   7.578
10260TIP3    H230714   2.874   2.341   7.570
10261TIP3   OH230715   2.932   1.898   6.227
10261TIP3    H130716   2.920   1.900   6.324
10261TIP3    H230717   2.855   1.953   6.199
10262TIP3   OH230718   2.463   1.935   7.095
10262TIP3    H130719   2.528   1.969   7.160
10262TIP3    H230720   2.520   1.902   7.025
10263TIP3   OH230721   2.441   1.922   6.624
10263TIP3    H130722   2.486   1.957   6.545
10263TIP3    H230723   2.381   1.997   6.643
10264TIP3   OH230724   3.596   2.636   7.208
10264TIP3    H130725   3.633   2.565   7.151
10264TIP3    H230726   3.570   2.582   7.286
10265TIP3   OH230727   3.276   2.093   6.881
10265TIP3    H130728   3.195   2.097   6.935
10265TIP3    H230729   3.345   2.098   6.949
10266TIP3   OH230730   2.708   2.160   6.889
10266TIP3    H130731   2.613   2.167   6.862
10266TIP3    H230732   2.730   2.067   6.866
10267TIP3   OH230733   2.974   2.148   6.581
10267TIP3    H130734   3.067   2.168   6.560
10267TIP3    H230735   2.926   2.172   6.498
10268TIP3   OH230736   3.766   2.174   7.078
10268TIP3    H130737   3.742   2.188   7.172
10268TIP3    H230738   3.692   2.117   7.050
10269TIP3   OH230739   2.825   2.183   6.357
10269TIP3    H130740   2.753   2.141   6.307
10269TIP3    H230741   2.876   2.224   6.284
10270TIP3   OH230742   3.939   3.866   7.307
10270TIP3    H130743   3.938   3.890   7.213
10270TIP3    H230744   4.019   3.912   7.338
10271TIP3   OH230745   2.912   2.974   7.709
10271TIP3    H130746   2.987   3.005   7.764
10271TIP3    H230747   2.840   2.981   7.775
10272TIP3   OH230748   3.355   2.428   6.979
10272TIP3    H130749   3.434   2.394   6.934
10272TIP3    H230750   3.362   2.387   7.067
10273TIP3   OH230751   2.876   1.919   6.860
10273TIP3    H130752   2.847   1.841   6.912
10273TIP3    H230753   2.925   1.878   6.788
10274TIP3   OH230754   3.333   2.329   7.273
10274TIP3    H130755   3.244   2.367   7.286
10274TIP3    H230756   3.390   2.392   7.321
10275TIP3   OH230757   3.070   2.714   6.365
10275TIP3    H130758   2.996   2.650   6.353
10275TIP3    H230759   3.049   2.749   6.455
10276TIP3   OH230760   3.969   2.952   6.991
10276TIP3    H130761   3.992   3.004   6.912
10276TIP3    H230762   3.884   2.910   6.965
10277TIP3   OH230763   3.526   2.027   6.229
10277TIP3    H130764   3.430   2.010   6.239
10277TIP3    H230765   3.536   2.121   6.254
10278TIP3   OH230766   3.466   3.033   7.366
10278TIP3    H130767   3.508   3.018   7.452
10278TIP3    H230768   3.429   3.123   7.375
10279TIP3   OH230769   3.596   2.275   6.332
10279TIP3    H130770   3.692   2.284   6.348
10279TIP3    H230771   3.576   2.357   6.282
10280TIP3   OH230772   2.760   2.736   7.039
10280TIP3    H130773   2.801   2.707   6.955
10280TIP3    H230774   2.806   2.682   7.105
10281TIP3   OH230775   3.214   2.865   6.188
10281TIP3    H130776   3.165   2.951   6.190
10281TIP3    H230777   3.160   2.811   6.250
10282TIP3   OH230778   2.646   2.658   7.644
10282TIP3    H130779   2.672   2.656   7.738
10282TIP3    H230780   2.568   2.599   7.643
10283TIP3   OH230781   3.374   2.775   7.671
10283TIP3    H130782   3.316   2.717   7.620
10283TIP3    H230783   3.463   2.745   7.641
10284TIP3   OH230784   3.625   3.295   7.258
10284TIP3    H130785   3.529   3.295   7.274
10284TIP3    H230786   3.656   3.347   7.335
10285TIP3   OH230787   4.034   2.371   6.169
10285TIP3    H130788   3.973   2.328   6.104
10285TIP3    H230789   4.032   2.461   6.129
10286TIP3   OH230790   4.257   3.226   7.247
10286TIP3    H130791   4.159   3.221   7.240
10286TIP3    H230792   4.282   3.196   7.157
10287TIP3   OH230793   3.741   3.187   6.077
10287TIP3    H130794   3.712   3.118   6.138
10287TIP3    H230795   3.752   3.139   5.993
10288TIP3   OH230796   3.735   2.817   6.906
10288TIP3    H130797   3.641   2.794   6.922
10288TIP3    H230798   3.766   2.736   6.863
10289TIP3   OH230799   2.865   3.043   6.663
10289TIP3    H130800   2.860   3.125   6.609
10289TIP3    H230801   2.771   3.028   6.681
10290TIP3   OH230802   2.431   2.345   6.374
10290TIP3    H130803   2.473   2.431   6.394
10290TIP3    H230804   2.352   2.349   6.433
10291TIP3   OH230805   2.995   2.805   6.607
10291TIP3    H130806   2.962   2.896   6.625
10291TIP3    H230807   2.961   2.756   6.684
10292TIP3   OH230808   3.134   3.385   7.134
10292TIP3    H130809   3.179   3.458   7.085
10292TIP3    H230810   3.209   3.348   7.184
10293TIP3   OH230811   2.781   3.283   6.517
10293TIP3    H130812   2.696   3.292   6.564
10293TIP3    H230813   2.814   3.375   6.520
10294TIP3   OH230814   3.516   3.019   7.098
10294TIP3    H130815   3.503   3.019   7.195
10294TIP3    H230816   3.601   2.973   7.090
10295TIP3   OH230817   3.497   2.915   5.978
10295TIP3    H130818   3.550   2.888   6.057
10295TIP3    H230819   3.409   2.889   6.006
10296TIP3   OH230820   3.768   3.549   7.143
10296TIP3    H130821   3.687   3.494   7.139
10296TIP3    H230822   3.750   3.614   7.071
10297TIP3   OH230823   3.834   3.386   5.795
10297TIP3    H130824   3.869   3.459   5.742
10297TIP3    H230825   3.754   3.430   5.831
10298TIP3   OH230826   2.859   2.161   7.653
10298TIP3    H130827   2.764   2.156   7.673
10298TIP3    H230828   2.897   2.108   7.725
10299TIP3   OH230829   3.658   2.844   6.191
10299TIP3    H130830   3.648   2.780   6.264
10299TIP3    H230831   3.755   2.842   6.179
10300TIP3   OH230832   2.571   3.245   7.293
10300TIP3    H130833   2.626   3.175   7.331
10300TIP3    H230834   2.592   3.319   7.351
10301TIP3   OH230835   2.861   2.894   5.977
10301TIP3    H130836   2.873   2.801   5.952
10301TIP3    H230837   2.840   2.885   6.072
10302TIP3   OH230838   2.805   2.899   6.249
10302TIP3    H130839   2.878   2.874   6.307
10302TIP3    H230840   2.807   2.997   6.256
10303TIP3   OH230841   2.538   2.591   6.454
10303TIP3    H130842   2.472   2.636   6.510
10303TIP3    H230843   2.551   2.659   6.385
10304TIP3   OH230844   3.703   2.220   7.337
10304TIP3    H130845   3.770   2.270   7.386
10304TIP3    H230846   3.684   2.145   7.397
10305TIP3   OH230847   3.581   1.974   6.512
10305TIP3    H130848   3.562   2.000   6.420
10305TIP3    H230849   3.617   2.057   6.550
10306TIP3   OH230850   3.072   3.094   6.196
10306TIP3    H130851   2.985   3.118   6.233
10306TIP3    H230852   3.088   3.171   6.138
10307TIP3   OH230853   3.258   2.160   6.612
10307TIP3    H130854   3.320   2.234   6.595
10307TIP3    H230855   3.264   2.151   6.709
10308TIP3   OH230856   3.531   2.475   7.419
10308TIP3    H130857   3.553   2.536   7.493
10308TIP3    H230858   3.585   2.398   7.442
10309TIP3   OH230859   3.402   1.881   6.712
10309TIP3    H130860   3.393   1.958   6.772
10309TIP3    H230861   3.465   1.917   6.646
10310TIP3   OH230862   2.818   3.171   6.267
10310TIP3    H130863   2.788   3.241   6.205
10310TIP3    H230864   2.801   3.213   6.354
10311TIP3   OH230865   2.916   1.886   6.503
10311TIP3    H130866   2.913   1.977   6.540
10311TIP3    H230867   3.012   1.870   6.511
10312TIP3   OH230868   4.166   2.371   7.405
10312TIP3    H130869   4.068   2.371   7.409
10312TIP3    H230870   4.181   2.350   7.312
10313TIP3   OH230871   3.821   2.571   6.788
10313TIP3    H130872   3.744   2.513   6.804
10313TIP3    H230873   3.892   2.525   6.837
10314TIP3   OH230874   2.534   2.796   6.257
10314TIP3    H130875   2.602   2.865   6.267
10314TIP3    H230876   2.578   2.740   6.190
10315TIP3   OH230877   2.472   2.073   6.395
10315TIP3    H130878   2.479   2.171   6.393
10315TIP3    H230879   2.391   2.060   6.345
10316TIP3   OH230880   3.789   3.530   6.735
10316TIP3    H130881   3.747   3.577   6.660
10316TIP3    H230882   3.884   3.549   6.715
10317TIP3   OH230883   2.867   1.799   7.264
10317TIP3    H130884   2.840   1.763   7.177
10317TIP3    H230885   2.856   1.721   7.323
10318TIP3   OH230886   2.399   3.010   6.640
10318TIP3    H130887   2.338   3.042   6.707
10318TIP3    H230888   2.366   3.056   6.559
10319TIP3   OH230889   2.564   3.564   7.719
10319TIP3    H130890   2.650   3.563   7.766
10319TIP3    H230891   2.544   3.469   7.715
10320TIP3   OH230892   3.038   3.525   7.754
10320TIP3    H130893   3.129   3.500   7.774
10320TIP3    H230894   3.015   3.459   7.686
10321TIP3   OH230895   3.023   3.096   5.886
10321TIP3    H130896   2.968   3.024   5.924
10321TIP3    H230897   3.099   3.046   5.851
10322TIP3   OH230898   3.685   3.431   7.488
10322TIP3    H130899   3.673   3.357   7.552
10322TIP3    H230900   3.761   3.479   7.526
10323TIP3   OH230901   3.459   3.135   5.801
10323TIP3    H130902   3.502   3.071   5.861
10323TIP3    H230903   3.514   3.131   5.721
10324TIP3   OH230904   2.700   2.978   7.876
10324TIP3    H130905   2.708   2.889   7.913
10324TIP3    H230906   2.606   2.980   7.849
10325TIP3   OH230907   2.670   2.611   6.112
10325TIP3    H130908   2.728   2.584   6.186
10325TIP3    H230909   2.736   2.617   6.040
10326TIP3   OH230910   3.299   3.054   7.688
10326TIP3    H130911   3.260   3.070   7.599
10326TIP3    H230912   3.332   2.962   7.681
10327TIP3   OH230913   3.185   2.813   5.919
10327TIP3    H130914   3.186   2.825   6.016
10327TIP3    H230915   3.183   2.715   5.913
10328TIP3   OH230916   3.788   3.061   7.293
10328TIP3    H130917   3.866   3.105   7.253
10328TIP3    H230918   3.720   3.131   7.281
10329TIP3   OH230919   2.806   2.688   7.877
10329TIP3    H130920   2.899   2.674   7.850
10329TIP3    H230921   2.805   2.652   7.967
10330TIP3   OH230922   2.874   2.520   6.330
10330TIP3    H130923   2.846   2.482   6.415
10330TIP3    H230924   2.912   2.443   6.283
10331TIP3   OH230925   3.146   2.575   7.557
10331TIP3    H130926   3.070   2.637   7.560
10331TIP3    H230927   3.198   2.612   7.482
10332TIP3   OH230928   2.979   2.312   6.172
10332TIP3    H130929   2.954   2.323   6.078
10332TIP3    H230930   3.077   2.316   6.164
10333TIP3   OH230931   3.660   2.975   7.687
10333TIP3    H130932   3.754   2.967   7.667
10333TIP3    H230933   3.653   2.922   7.769
10334TIP3   OH230934   3.797   2.640   5.840
10334TIP3    H130935   3.778   2.598   5.754
10334TIP3    H230936   3.764   2.731   5.820
10335TIP3   OH230937   3.273   2.372   7.684
10335TIP3    H130938   3.273   2.292   7.627
10335TIP3    H230939   3.228   2.438   7.626
10336TIP3   OH230940   3.272   2.157   7.494
10336TIP3    H130941   3.301   2.203   7.412
10336TIP3    H230942   3.178   2.137   7.474
10337TIP3   OH230943   3.295   2.689   7.365
10337TIP3    H130944   3.382   2.710   7.329
10337TIP3    H230945   3.238   2.755   7.321
10338TIP3   OH230946   3.876   2.660   7.743
10338TIP3    H130947   3.934   2.588   7.771
10338TIP3    H230948   3.940   2.731   7.724
10339TIP3   OH230949   3.924   2.905   7.467
10339TIP3    H130950   3.862   2.962   7.416
10339TIP3    H230951   4.010   2.934   7.429
10340TIP3   OH230952   3.109   2.503   7.876
10340TIP3    H130953   3.056   2.423   7.889
10340TIP3    H230954   3.168   2.475   7.804
10341TIP3   OH230955   3.400   1.919   7.561
10341TIP3    H130956   3.351   2.001   7.537
10341TIP3    H230957   3.332   1.850   7.549
10342TIP3   OH230958   3.537   2.422   7.765
10342TIP3    H130959   3.523   2.414   7.861
10342TIP3    H230960   3.448   2.399   7.734
10343TIP3   OH230961   3.765   2.359   7.623
10343TIP3    H130962   3.693   2.373   7.688
10343TIP3    H230963   3.842   2.340   7.681
10344TIP3   OH230964   3.998   2.313   7.768
10344TIP3    H130965   4.006   2.218   7.790
10344TIP3    H230966   3.991   2.355   7.857
10345TIP3   OH230967   2.973   2.269   7.936
10345TIP3    H130968   2.994   2.175   7.919
10345TIP3    H230969   3.021   2.284   8.019
10346TIP3   OH230970   3.502   1.931   7.814
10346TIP3    H130971   3.561   1.856   7.796
10346TIP3    H230972   3.453   1.934   7.729
10347TIP3   OH230973   3.577   2.151   7.968
10347TIP3    H130974   3.552   2.069   7.919
10347TIP3    H230975   3.493   2.200   7.966
10348TIP3   OH230976   2.787   3.373   6.079
10348TIP3    H130977   2.882   3.365   6.060
10348TIP3    H230978   2.759   3.425   6.001
10349TIP3   OH230979   2.265   2.757   6.292
10349TIP3    H130980   2.360   2.778   6.278
10349TIP3    H230981   2.259   2.668   6.252
10350TIP3   OH230982   2.182   3.368   6.711
10350TIP3    H130983   2.117   3.307   6.671
10350TIP3    H230984   2.226   3.308   6.775
10351TIP3   OH230985   2.317   3.213   6.896
10351TIP3    H130986   2.306   3.144   6.964
10351TIP3    H230987   2.370   3.277   6.947
10352TIP3   OH230988   4.045   3.618   6.697
10352TIP3    H130989   4.070   3.647   6.787
10352TIP3    H230990   4.111   3.662   6.641
10353TIP3   OH230991   4.073   3.638   6.978
10353TIP3    H130992   4.027   3.551   6.974
10353TIP3    H230993   4.145   3.614   7.038
10354TIP3   OH230994   4.119   3.314   7.548
10354TIP3    H130995   4.044   3.324   7.610
10354TIP3    H230996   4.162   3.402   7.556
10355TIP3   OH230997   3.936   2.827   6.169
10355TIP3    H130998   4.001   2.893   6.138
10355TIP3    H230999   3.982   2.791   6.248
10356TIP3   OH231000   4.064   2.694   6.373
10356TIP3    H131001   3.997   2.655   6.433
10356TIP3    H231002   4.130   2.732   6.436
10357TIP3   OH231003   4.120   3.091   6.805
10357TIP3    H131004   4.172   3.023   6.757
10357TIP3    H231005   4.115   3.163   6.739
10358TIP3   OH231006   3.946   3.390   6.998
10358TIP3    H131007   3.875   3.431   7.051
10358TIP3    H231008   3.895   3.344   6.928
10359TIP3   OH231009   4.000   2.603   6.019
10359TIP3    H131010   3.929   2.606   5.951
10359TIP3    H231011   3.972   2.679   6.075
10360TIP3   OH231012   3.872   2.276   5.973
10360TIP3    H131013   3.828   2.317   5.898
10360TIP3    H231014   3.847   2.182   5.960
10361TIP3   OH231015   3.875   2.556   6.520
10361TIP3    H131016   3.884   2.460   6.513
10361TIP3    H231017   3.860   2.569   6.616
10362TIP3   OH231018   2.501   2.626   7.267
10362TIP3    H131019   2.499   2.593   7.175
10362TIP3    H231020   2.598   2.627   7.284
10363TIP3   OH231021   4.169   2.980   7.372
10363TIP3    H131022   4.240   2.914   7.363
10363TIP3    H231023   4.198   3.052   7.314
10364TIP3   OH231024   4.350   2.779   7.379
10364TIP3    H131025   4.277   2.732   7.425
10364TIP3    H231026   4.424   2.717   7.399
10365TIP3   OH231027   3.814   2.010   5.956
10365TIP3    H131028   3.888   1.978   6.012
10365TIP3    H231029   3.740   1.952   5.979
10366TIP3   OH231030   3.873   2.270   6.412
10366TIP3    H131031   3.915   2.182   6.425
10366TIP3    H231032   3.930   2.306   6.341
10367TIP3   OH231033   4.032   2.437   6.909
10367TIP3    H131034   4.118   2.463   6.868
10367TIP3    H231035   4.045   2.478   6.997
10368TIP3   OH231036   4.102   2.585   7.138
10368TIP3    H131037   4.027   2.620   7.190
10368TIP3    H231038   4.135   2.667   7.095
10369TIP3   OH231039   2.712   2.307   7.871
10369TIP3    H131040   2.810   2.310   7.870
10369TIP3    H231041   2.698   2.251   7.949
10370TIP3   OH231042   4.554   2.176   7.696
10370TIP3    H131043   4.616   2.115   7.651
10370TIP3    H231044   4.522   2.230   7.620
10371TIP3   OH231045   3.984   2.020   6.449
10371TIP3    H131046   4.031   2.006   6.534
10371TIP3    H231047   3.920   1.945   6.451
10372TIP3   OH231048   2.677   2.003   7.265
10372TIP3    H131049   2.740   1.930   7.278
10372TIP3    H231050   2.737   2.079   7.259
10373TIP3   OH231051   2.481   2.272   7.344
10373TIP3    H131052   2.533   2.280   7.261
10373TIP3    H231053   2.499   2.357   7.386
10374TIP3   OH231054   4.424   2.316   7.505
10374TIP3    H131055   4.344   2.363   7.537
10374TIP3    H231056   4.382   2.252   7.444
10375TIP3   OH231057   4.061   1.950   6.085
10375TIP3    H131058   4.115   1.890   6.031
10375TIP3    H231059   4.119   2.029   6.089
10376TIP3   OH231060   2.471   1.759   6.842
10376TIP3    H131061   2.385   1.769   6.887
10376TIP3    H231062   2.465   1.827   6.772
10377TIP3   OH231063   3.627   3.487   6.351
10377TIP3    H131064   3.679   3.478   6.269
10377TIP3    H231065   3.679   3.552   6.401
10378TIP3   OH231066   2.689   1.884   7.643
10378TIP3    H131067   2.615   1.843   7.689
10378TIP3    H231068   2.638   1.937   7.578
10379TIP3   OH231069   2.724   3.296   7.736
10379TIP3    H131070   2.632   3.267   7.723
10379TIP3    H231071   2.741   3.265   7.827
10380TIP3   OH231072   2.906   3.323   7.281
10380TIP3    H131073   2.860   3.401   7.243
10380TIP3    H231074   2.994   3.337   7.239
10381TIP3   OH231075   3.350   3.567   7.426
10381TIP3    H131076   3.392   3.565   7.514
10381TIP3    H231077   3.416   3.619   7.375
10382TIP3   OH231078   3.528   3.721   7.283
10382TIP3    H131079   3.599   3.668   7.245
10382TIP3    H231080   3.579   3.778   7.344
10383TIP3   OH231081   4.324   2.082   7.379
10383TIP3    H131082   4.235   2.080   7.342
10383TIP3    H231083   4.353   1.989   7.368
10384TIP3   OH231084   2.581   3.580   7.307
10384TIP3    H131085   2.490   3.613   7.287
10384TIP3    H231086   2.596   3.622   7.392
10385TIP3   OH231087   2.818   3.559   7.167
10385TIP3    H131088   2.730   3.570   7.210
10385TIP3    H231089   2.799   3.590   7.077
10386TIP3   OH231090   3.244   3.586   6.964
10386TIP3    H131091   3.173   3.605   6.900
10386TIP3    H231092   3.255   3.673   7.007
10387TIP3   OH231093   3.513   3.523   7.015
10387TIP3    H131094   3.419   3.542   6.996
10387TIP3    H231095   3.557   3.599   6.974
10388TIP3   OH231096   3.719   3.716   6.929
10388TIP3    H131097   3.705   3.800   6.881
10388TIP3    H231098   3.746   3.655   6.857
10389TIP3   OH231099   2.493   3.372   7.052
10389TIP3    H131100   2.520   3.345   7.143
10389TIP3    H231101   2.565   3.328   7.001
10390TIP3   OH231102   2.689   3.245   6.911
10390TIP3    H131103   2.703   3.161   6.961
10390TIP3    H231104   2.780   3.281   6.908
10391TIP3   OH231105   2.956   3.337   6.918
10391TIP3    H131106   2.986   3.244   6.909
10391TIP3    H231107   3.004   3.361   6.999
10392TIP3   OH231108   3.529   1.994   7.000
10392TIP3    H131109   3.486   1.924   7.052
10392TIP3    H231110   3.606   1.948   6.960
10393TIP3   OH231111   4.048   1.866   6.898
10393TIP3    H131112   4.086   1.924   6.827
10393TIP3    H231113   3.956   1.897   6.901
10394TIP3   OH231114   4.147   1.972   6.666
10394TIP3    H131115   4.222   1.922   6.628
10394TIP3    H231116   4.180   2.064   6.654
10395TIP3   OH231117   2.790   1.704   7.013
10395TIP3    H131118   2.698   1.682   6.997
10395TIP3    H231119   2.833   1.616   7.013
10396TIP3   OH231120   2.577   1.572   6.664
10396TIP3    H131121   2.602   1.629   6.588
10396TIP3    H231122   2.542   1.639   6.727
10397TIP3   OH231123   3.224   1.733   6.898
10397TIP3    H131124   3.278   1.785   6.836
10397TIP3    H231125   3.247   1.775   6.983
10398TIP3   OH231126   3.764   1.884   6.882
10398TIP3    H131127   3.764   1.845   6.793
10398TIP3    H231128   3.752   1.803   6.938
10399TIP3   OH231129   3.797   1.808   6.442
10399TIP3    H131130   3.715   1.858   6.463
10399TIP3    H231131   3.780   1.725   6.492
10400TIP3   OH231132   2.281   3.149   6.442
10400TIP3    H131133   2.195   3.117   6.409
10400TIP3    H231134   2.273   3.243   6.417
10401TIP3   OH231135   2.684   1.728   6.429
10401TIP3    H131136   2.734   1.670   6.369
10401TIP3    H231137   2.755   1.786   6.464
10402TIP3   OH231138   3.194   1.909   6.526
10402TIP3    H131139   3.255   1.866   6.588
10402TIP3    H231140   3.212   2.003   6.550
10403TIP3   OH231141   3.054   3.330   6.027
10403TIP3    H131142   3.142   3.353   5.990
10403TIP3    H231143   3.032   3.256   5.965
10404TIP3   OH231144   3.775   3.454   6.120
10404TIP3    H131145   3.767   3.356   6.110
10404TIP3    H231146   3.727   3.484   6.040
10405TIP3   OH231147   3.028   2.004   7.871
10405TIP3    H131148   3.018   1.939   7.944
10405TIP3    H231149   3.124   2.015   7.867
10406TIP3   OH231150   2.356   3.167   6.079
10406TIP3    H131151   2.360   3.190   6.173
10406TIP3    H231152   2.444   3.124   6.064
10407TIP3   OH231153   4.061   2.044   7.793
10407TIP3    H131154   4.089   2.026   7.886
10407TIP3    H231155   4.148   2.050   7.750
10408TIP3   OH231156   3.999   3.596   7.300
10408TIP3    H131157   3.918   3.565   7.255
10408TIP3    H231158   3.977   3.690   7.314
10409TIP3   OH231159   5.266   2.969   6.070
10409TIP3    H131160   5.234   3.059   6.049
10409TIP3    H231161   5.191   2.917   6.035
10410TIP3   OH231162   5.265   2.971   6.456
10410TIP3    H131163   5.299   2.944   6.543
10410TIP3    H231164   5.225   2.889   6.424
10411TIP3   OH231165   4.562   2.861   6.818
10411TIP3    H131166   4.591   2.792   6.881
10411TIP3    H231167   4.639   2.919   6.818
10412TIP3   OH231168   5.510   3.273   6.136
10412TIP3    H131169   5.493   3.204   6.202
10412TIP3    H231170   5.541   3.347   6.192
10413TIP3   OH231171   4.535   3.273   6.539
10413TIP3    H131172   4.527   3.175   6.540
10413TIP3    H231173   4.632   3.283   6.535
10414TIP3   OH231174   4.242   2.470   6.323
10414TIP3    H131175   4.199   2.555   6.344
10414TIP3    H231176   4.168   2.424   6.279
10415TIP3   OH231177   4.299   2.762   6.502
10415TIP3    H131178   4.350   2.685   6.536
10415TIP3    H231179   4.363   2.803   6.441
10416TIP3   OH231180   5.161   3.734   6.154
10416TIP3    H131181   5.202   3.663   6.101
10416TIP3    H231182   5.152   3.691   6.240
10417TIP3   OH231183   5.062   3.196   6.502
10417TIP3    H131184   5.103   3.119   6.459
10417TIP3    H231185   5.144   3.243   6.527
10418TIP3   OH231186   6.079   2.513   6.500
10418TIP3    H131187   6.109   2.597   6.540
10418TIP3    H231188   6.100   2.528   6.407
10419TIP3   OH231189   5.473   2.693   6.532
10419TIP3    H131190   5.518   2.609   6.552
10419TIP3    H231191   5.443   2.677   6.440
10420TIP3   OH231192   4.816   2.354   6.498
10420TIP3    H131193   4.798   2.428   6.436
10420TIP3    H231194   4.766   2.283   6.453
10421TIP3   OH231195   5.511   2.451   6.120
10421TIP3    H131196   5.584   2.434   6.184
10421TIP3    H231197   5.563   2.482   6.043
10422TIP3   OH231198   4.447   2.557   6.605
10422TIP3    H131199   4.530   2.541   6.654
10422TIP3    H231200   4.464   2.502   6.526
10423TIP3   OH231201   4.887   2.754   6.401
10423TIP3    H131202   4.982   2.730   6.412
10423TIP3    H231203   4.850   2.670   6.367
10424TIP3   OH231204   6.152   2.723   6.670
10424TIP3    H131205   6.068   2.769   6.649
10424TIP3    H231206   6.169   2.756   6.760
10425TIP3   OH231207   4.809   2.337   6.933
10425TIP3    H131208   4.751   2.377   6.865
10425TIP3    H231209   4.756   2.356   7.014
10426TIP3   OH231210   5.151   3.188   5.941
10426TIP3    H131211   5.113   3.175   5.853
10426TIP3    H231212   5.107   3.271   5.968
10427TIP3   OH231213   4.917   3.115   6.724
10427TIP3    H131214   4.857   3.183   6.761
10427TIP3    H231215   4.960   3.163   6.650
10428TIP3   OH231216   5.717   2.451   6.297
10428TIP3    H131217   5.702   2.409   6.383
10428TIP3    H231218   5.769   2.530   6.322
10429TIP3   OH231219   4.682   2.454   6.716
10429TIP3    H131220   4.743   2.527   6.741
10429TIP3    H231221   4.732   2.415   6.641
10430TIP3   OH231222   4.746   3.311   6.825
10430TIP3    H131223   4.721   3.399   6.789
10430TIP3    H231224   4.667   3.293   6.880
10431TIP3   OH231225   4.136   2.999   6.060
10431TIP3    H131226   4.096   3.028   5.976
10431TIP3    H231227   4.169   3.084   6.096
10432TIP3   OH231228   5.577   3.517   6.301
10432TIP3    H131229   5.487   3.507   6.340
10432TIP3    H231230   5.568   3.603   6.255
10433TIP3   OH231231   5.871   2.411   6.665
10433TIP3    H131232   5.784   2.439   6.632
10433TIP3    H231233   5.932   2.445   6.596
10434TIP3   OH231234   5.162   2.062   6.647
10434TIP3    H131235   5.142   1.969   6.662
10434TIP3    H231236   5.087   2.104   6.694
10435TIP3   OH231237   5.275   3.560   5.971
10435TIP3    H131238   5.325   3.477   5.954
10435TIP3    H231239   5.340   3.624   5.933
10436TIP3   OH231240   5.420   3.345   5.886
10436TIP3    H131241   5.389   3.264   5.844
10436TIP3    H231242   5.459   3.311   5.970
10437TIP3   OH231243   5.803   3.425   6.645
10437TIP3    H131244   5.791   3.348   6.586
10437TIP3    H231245   5.785   3.500   6.585
10438TIP3   OH231246   5.096   2.821   5.905
10438TIP3    H131247   5.018   2.875   5.882
10438TIP3    H231248   5.143   2.816   5.819
10439TIP3   OH231249   5.052   2.607   5.615
10439TIP3    H131250   5.119   2.661   5.662
10439TIP3    H231251   5.111   2.543   5.570
10440TIP3   OH231252   5.999   3.066   6.492
10440TIP3    H131253   5.914   3.116   6.495
10440TIP3    H231254   6.029   3.090   6.402
10441TIP3   OH231255   5.444   2.904   5.871
10441TIP3    H131256   5.390   2.926   5.950
10441TIP3    H231257   5.528   2.879   5.914
10442TIP3   OH231258   5.677   2.940   6.791
10442TIP3    H131259   5.675   3.023   6.841
10442TIP3    H231260   5.591   2.945   6.744
10443TIP3   OH231261   4.676   2.899   6.293
10443TIP3    H131262   4.635   2.842   6.225
10443TIP3    H231263   4.752   2.846   6.323
10444TIP3   OH231264   4.806   3.313   6.439
10444TIP3    H131265   4.786   3.277   6.351
10444TIP3    H231266   4.895   3.276   6.456
10445TIP3   OH231267   4.811   2.871   6.645
10445TIP3    H131268   4.845   2.847   6.557
10445TIP3    H231269   4.855   2.957   6.662
10446TIP3   OH231270   5.336   3.510   6.423
10446TIP3    H131271   5.325   3.590   6.477
10446TIP3    H231272   5.320   3.437   6.486
10447TIP3   OH231273   4.951   3.428   6.970
10447TIP3    H131274   4.889   3.489   7.017
10447TIP3    H231275   4.887   3.374   6.919
10448TIP3   OH231276   5.276   2.769   5.698
10448TIP3    H131277   5.337   2.827   5.747
10448TIP3    H231278   5.304   2.787   5.605
10449TIP3   OH231279   4.706   2.981   7.073
10449TIP3    H131280   4.711   3.070   7.115
10449TIP3    H231281   4.611   2.961   7.090
10450TIP3   OH231282   5.028   3.438   5.977
10450TIP3    H131283   5.111   3.489   5.984
10450TIP3    H231284   4.969   3.501   5.934
10451TIP3   OH231285   4.743   3.593   7.058
10451TIP3    H131286   4.707   3.596   6.968
10451TIP3    H231287   4.664   3.572   7.112
10452TIP3   OH231288   5.802   1.999   5.749
10452TIP3    H131289   5.719   2.022   5.796
10452TIP3    H231290   5.817   2.080   5.697
10453TIP3   OH231291   4.542   2.743   6.095
10453TIP3    H131292   4.474   2.788   6.040
10453TIP3    H231293   4.504   2.656   6.106
10454TIP3   OH231294   5.600   3.367   5.299
10454TIP3    H131295   5.609   3.464   5.283
10454TIP3    H231296   5.692   3.337   5.286
10455TIP3   OH231297   4.322   3.127   7.004
10455TIP3    H131298   4.255   3.106   6.937
10455TIP3    H231299   4.361   3.040   7.026
10456TIP3   OH231300   4.177   3.321   6.633
10456TIP3    H131301   4.274   3.316   6.627
10456TIP3    H231302   4.166   3.398   6.691
10457TIP3   OH231303   6.041   3.774   6.695
10457TIP3    H131304   6.039   3.677   6.709
10457TIP3    H231305   5.958   3.800   6.740
10458TIP3   OH231306   5.146   3.556   6.827
10458TIP3    H131307   5.143   3.649   6.860
10458TIP3    H231308   5.075   3.515   6.881
10459TIP3   OH231309   4.910   3.684   5.779
10459TIP3    H131310   4.863   3.667   5.696
10459TIP3    H231311   4.876   3.771   5.806
10460TIP3   OH231312   4.347   3.534   6.165
10460TIP3    H131313   4.394   3.526   6.251
10460TIP3    H231314   4.295   3.452   6.165
10461TIP3   OH231315   5.108   3.587   5.417
10461TIP3    H131316   5.167   3.517   5.381
10461TIP3    H231317   5.144   3.598   5.508
10462TIP3   OH231318   5.161   3.636   5.686
10462TIP3    H131319   5.073   3.645   5.729
10462TIP3    H231320   5.213   3.598   5.759
10463TIP3   OH231321   5.930   2.901   6.968
10463TIP3    H131322   5.847   2.911   6.920
10463TIP3    H231323   5.946   2.805   6.958
10464TIP3   OH231324   4.527   3.310   6.988
10464TIP3    H131325   4.576   3.295   7.071
10464TIP3    H231326   4.452   3.248   6.997
10465TIP3   OH231327   4.927   2.132   6.781
10465TIP3    H131328   4.838   2.104   6.750
10465TIP3    H231329   4.902   2.215   6.827
10466TIP3   OH231330   5.464   2.245   6.971
10466TIP3    H131331   5.533   2.220   7.036
10466TIP3    H231332   5.381   2.229   7.021
10467TIP3   OH231333   5.696   2.677   6.889
10467TIP3    H131334   5.645   2.674   6.974
10467TIP3    H231335   5.674   2.765   6.854
10468TIP3   OH231336   5.359   2.808   5.445
10468TIP3    H131337   5.324   2.781   5.357
10468TIP3    H231338   5.445   2.848   5.419
10469TIP3   OH231339   5.061   2.190   5.739
10469TIP3    H131340   5.033   2.183   5.832
10469TIP3    H231341   5.042   2.100   5.708
10470TIP3   OH231342   4.857   2.650   6.795
10470TIP3    H131343   4.808   2.672   6.877
10470TIP3    H231344   4.842   2.731   6.742
10471TIP3   OH231345   4.744   2.535   6.309
10471TIP3    H131346   4.650   2.511   6.328
10471TIP3    H231347   4.755   2.495   6.220
10472TIP3   OH231348   5.230   2.619   6.042
10472TIP3    H131349   5.182   2.691   5.995
10472TIP3    H231350   5.290   2.587   5.971
10473TIP3   OH231351   5.407   2.895   7.120
10473TIP3    H131352   5.386   2.823   7.184
10473TIP3    H231353   5.501   2.912   7.143
10474TIP3   OH231354   5.387   2.647   6.275
10474TIP3    H131355   5.325   2.673   6.204
10474TIP3    H231356   5.425   2.568   6.230
10475TIP3   OH231357   4.677   2.677   7.003
10475TIP3    H131358   4.704   2.744   7.069
10475TIP3    H231359   4.668   2.597   7.058
10476TIP3   OH231360   4.720   2.149   5.713
10476TIP3    H131361   4.715   2.155   5.811
10476TIP3    H231362   4.648   2.211   5.688
10477TIP3   OH231363   4.275   2.193   6.584
10477TIP3    H131364   4.342   2.232   6.644
10477TIP3    H231365   4.324   2.178   6.503
10478TIP3   OH231366   4.232   2.179   6.105
10478TIP3    H131367   4.278   2.215   6.026
10478TIP3    H231368   4.174   2.255   6.124
10479TIP3   OH231369   5.398   2.892   6.696
10479TIP3    H131370   5.432   2.821   6.637
10479TIP3    H231371   5.368   2.838   6.772
10480TIP3   OH231372   5.074   2.352   6.369
10480TIP3    H131373   4.993   2.355   6.425
10480TIP3    H231374   5.144   2.354   6.436
10481TIP3   OH231375   4.504   2.415   6.377
10481TIP3    H131376   4.410   2.422   6.348
10481TIP3    H231377   4.528   2.324   6.351
10482TIP3   OH231378   4.768   2.407   6.068
10482TIP3    H131379   4.863   2.422   6.049
10482TIP3    H231380   4.724   2.430   5.983
10483TIP3   OH231381   5.563   2.433   6.573
10483TIP3    H131382   5.531   2.447   6.665
10483TIP3    H231383   5.494   2.374   6.538
10484TIP3   OH231384   4.620   2.441   5.842
10484TIP3    H131385   4.550   2.399   5.789
10484TIP3    H231386   4.673   2.483   5.770
10485TIP3   OH231387   5.735   4.122   6.793
10485TIP3    H131388   5.733   4.146   6.699
10485TIP3    H231389   5.815   4.169   6.823
10486TIP3   OH231390   4.691   3.232   7.210
10486TIP3    H131391   4.770   3.262   7.260
10486TIP3    H231392   4.625   3.228   7.282
10487TIP3   OH231393   5.151   2.685   6.465
10487TIP3    H131394   5.228   2.651   6.415
10487TIP3    H231395   5.162   2.641   6.551
10488TIP3   OH231396   4.671   2.175   6.347
10488TIP3    H131397   4.638   2.096   6.395
10488TIP3    H231398   4.718   2.137   6.272
10489TIP3   OH231399   5.128   2.583   6.761
10489TIP3    H131400   5.039   2.622   6.772
10489TIP3    H231401   5.185   2.647   6.808
10490TIP3   OH231402   4.864   2.973   5.850
10490TIP3    H131403   4.792   2.907   5.839
10490TIP3    H231404   4.844   3.007   5.941
10491TIP3   OH231405   5.764   3.209   6.478
10491TIP3    H131406   5.788   3.261   6.398
10491TIP3    H231407   5.680   3.166   6.452
10492TIP3   OH231408   5.325   2.287   5.741
10492TIP3    H131409   5.235   2.260   5.714
10492TIP3    H231410   5.321   2.383   5.745
10493TIP3   OH231411   5.263   3.291   6.850
10493TIP3    H131412   5.295   3.274   6.939
10493TIP3    H231413   5.225   3.380   6.856
10494TIP3   OH231414   5.392   2.548   5.830
10494TIP3    H131415   5.489   2.544   5.837
10494TIP3    H231416   5.377   2.624   5.771
10495TIP3   OH231417   4.557   2.994   6.527
10495TIP3    H131418   4.597   2.966   6.441
10495TIP3    H231419   4.604   2.938   6.590
10496TIP3   OH231420   5.011   3.122   5.674
10496TIP3    H131421   4.962   3.207   5.678
10496TIP3    H231422   4.957   3.067   5.736
10497TIP3   OH231423   4.443   2.914   7.140
10497TIP3    H131424   4.461   2.903   7.236
10497TIP3    H231425   4.371   2.849   7.127
10498TIP3   OH231426   5.168   3.032   7.159
10498TIP3    H131427   5.106   2.971   7.116
10498TIP3    H231428   5.254   2.995   7.130
10499TIP3   OH231429   5.423   3.551   6.746
10499TIP3    H131430   5.327   3.550   6.760
10499TIP3    H231431   5.452   3.604   6.824
10500TIP3   OH231432   5.833   2.627   5.654
10500TIP3    H131433   5.771   2.583   5.590
10500TIP3    H231434   5.829   2.717   5.614
10501TIP3   OH231435   6.054   3.484   6.734
10501TIP3    H131436   5.956   3.477   6.725
10501TIP3    H231437   6.080   3.453   6.644
10502TIP3   OH231438   5.535   3.443   5.563
10502TIP3    H131439   5.508   3.372   5.624
10502TIP3    H231440   5.549   3.396   5.479
10503TIP3   OH231441   5.531   3.072   6.396
10503TIP3    H131442   5.437   3.049   6.409
10503TIP3    H231443   5.563   2.991   6.351
10504TIP3   OH231444   4.661   3.301   6.153
10504TIP3    H131445   4.657   3.381   6.098
10504TIP3    H231446   4.568   3.282   6.166
10505TIP3   OH231447   4.227   2.602   5.860
10505TIP3    H131448   4.270   2.688   5.880
10505TIP3    H231449   4.149   2.606   5.920
10506TIP3   OH231450   4.791   3.062   6.094
10506TIP3    H131451   4.759   3.152   6.114
10506TIP3    H231452   4.757   3.012   6.171
10507TIP3   OH231453   4.930   3.643   6.620
10507TIP3    H131454   4.973   3.715   6.571
10507TIP3    H231455   5.006   3.605   6.668
10508TIP3   OH231456   4.576   3.540   6.003
10508TIP3    H131457   4.492   3.549   6.051
10508TIP3    H231458   4.609   3.633   6.006
10509TIP3   OH231459   5.314   3.277   6.582
10509TIP3    H131460   5.303   3.275   6.679
10509TIP3    H231461   5.394   3.224   6.570
10510TIP3   OH231462   5.294   3.174   5.465
10510TIP3    H131463   5.348   3.147   5.543
10510TIP3    H231464   5.207   3.142   5.492
10511TIP3   OH231465   5.564   3.808   6.630
10511TIP3    H131466   5.484   3.753   6.624
10511TIP3    H231467   5.548   3.873   6.558
10512TIP3   OH231468   5.630   3.643   5.282
10512TIP3    H131469   5.668   3.716   5.231
10512TIP3    H231470   5.550   3.687   5.317
10513TIP3   OH231471   4.649   2.418   7.147
10513TIP3    H131472   4.553   2.425   7.165
10513TIP3    H231473   4.680   2.368   7.225
10514TIP3   OH231474   5.454   3.106   5.680
10514TIP3    H131475   5.443   3.039   5.750
10514TIP3    H231476   5.551   3.100   5.667
10515TIP3   OH231477   4.367   3.502   6.779
10515TIP3    H131478   4.422   3.431   6.816
10515TIP3    H231479   4.389   3.576   6.837
10516TIP3   OH231480   4.655   3.151   5.465
10516TIP3    H131481   4.669   3.059   5.437
10516TIP3    H231482   4.634   3.140   5.560
10517TIP3   OH231483   4.600   3.156   5.737
10517TIP3    H131484   4.676   3.129   5.790
10517TIP3    H231485   4.604   3.254   5.745
10518TIP3   OH231486   4.334   2.847   5.941
10518TIP3    H131487   4.268   2.893   5.996
10518TIP3    H231488   4.348   2.915   5.872
10519TIP3   OH231489   5.490   2.483   6.832
10519TIP3    H131490   5.569   2.524   6.870
10519TIP3    H231491   5.479   2.403   6.887
10520TIP3   OH231492   5.358   2.235   6.006
10520TIP3    H131493   5.347   2.250   5.910
10520TIP3    H231494   5.401   2.318   6.034
10521TIP3   OH231495   4.868   3.351   5.684
10521TIP3    H131496   4.781   3.377   5.721
10521TIP3    H231497   4.883   3.425   5.623
10522TIP3   OH231498   5.049   2.418   6.100
10522TIP3    H131499   5.115   2.488   6.080
10522TIP3    H231500   5.060   2.409   6.197
10523TIP3   OH231501   5.326   2.732   6.904
10523TIP3    H131502   5.350   2.786   6.983
10523TIP3    H231503   5.380   2.652   6.917
10524TIP3   OH231504   5.195   2.133   6.200
10524TIP3    H131505   5.187   2.213   6.257
10524TIP3    H231506   5.257   2.168   6.131
10525TIP3   OH231507   4.614   3.429   5.753
10525TIP3    H131508   4.583   3.499   5.692
10525TIP3    H231509   4.598   3.471   5.840
10526TIP3   OH231510   4.711   2.143   5.992
10526TIP3    H131511   4.711   2.235   6.026
10526TIP3    H231512   4.808   2.125   5.997
10527TIP3   OH231513   5.964   2.634   6.889
10527TIP3    H131514   5.866   2.632   6.895
10527TIP3    H231515   5.976   2.593   6.802
10528TIP3   OH231516   5.616   2.828   6.275
10528TIP3    H131517   5.540   2.768   6.286
10528TIP3    H231518   5.687   2.780   6.323
10529TIP3   OH231519   4.331   3.053   5.744
10529TIP3    H131520   4.402   3.119   5.754
10529TIP3    H231521   4.374   2.995   5.677
10530TIP3   OH231522   4.268   2.331   5.881
10530TIP3    H131523   4.276   2.428   5.879
10530TIP3    H231524   4.191   2.318   5.825
10531TIP3   OH231525   5.586   3.787   6.222
10531TIP3    H131526   5.543   3.834   6.147
10531TIP3    H231527   5.680   3.806   6.202
10532TIP3   OH231528   4.662   2.054   6.748
10532TIP3    H131529   4.631   2.021   6.661
10532TIP3    H231530   4.650   1.976   6.806
10533TIP3   OH231531   4.196   3.268   6.127
10533TIP3    H131532   4.134   3.300   6.194
10533TIP3    H231533   4.162   3.313   6.046
10534TIP3   OH231534   4.359   3.819   7.202
10534TIP3    H131535   4.445   3.819   7.250
10534TIP3    H231536   4.338   3.724   7.203
10535TIP3   OH231537   4.837   3.776   7.247
10535TIP3    H131538   4.931   3.755   7.253
10535TIP3    H231539   4.810   3.714   7.176
10536TIP3   OH231540   4.820   3.353   5.374
10536TIP3    H131541   4.764   3.280   5.412
10536TIP3    H231542   4.896   3.302   5.341
10537TIP3   OH231543   5.477   3.685   6.982
10537TIP3    H131544   5.469   3.615   7.051
10537TIP3    H231545   5.554   3.736   7.012
10538TIP3   OH231546   5.255   3.392   5.288
10538TIP3    H131547   5.295   3.327   5.349
10538TIP3    H231548   5.312   3.387   5.210
10539TIP3   OH231549   4.489   3.223   7.401
10539TIP3    H131550   4.501   3.128   7.417
10539TIP3    H231551   4.401   3.225   7.359
10540TIP3   OH231552   4.466   2.867   5.600
10540TIP3    H131553   4.524   2.839   5.673
10540TIP3    H231554   4.532   2.873   5.527
10541TIP3   OH231555   5.095   3.308   7.177
10541TIP3    H131556   5.053   3.328   7.091
10541TIP3    H231557   5.125   3.216   7.166
10542TIP3   OH231558   4.980   3.069   5.406
10542TIP3    H131559   4.982   3.080   5.503
10542TIP3    H231560   4.981   2.971   5.399
10543TIP3   OH231561   5.587   3.318   6.785
10543TIP3    H131562   5.663   3.360   6.741
10543TIP3    H231563   5.518   3.386   6.769
10544TIP3   OH231564   4.610   2.955   7.386
10544TIP3    H131565   4.687   2.901   7.367
10544TIP3    H231566   4.634   2.990   7.475
10545TIP3   OH231567   4.669   2.777   5.816
10545TIP3    H131568   4.645   2.735   5.900
10545TIP3    H231569   4.710   2.702   5.766
10546TIP3   OH231570   4.942   2.838   7.046
10546TIP3    H131571   4.865   2.897   7.047
10546TIP3    H231572   4.994   2.874   6.970
10547TIP3   OH231573   4.775   2.571   5.659
10547TIP3    H131574   4.752   2.579   5.564
10547TIP3    H231575   4.873   2.571   5.653
10548TIP3   OH231576   5.460   3.241   7.180
10548TIP3    H131577   5.538   3.210   7.133
10548TIP3    H231578   5.453   3.177   7.253
10549TIP3   OH231579   5.593   2.898   5.326
10549TIP3    H131580   5.574   2.854   5.241
10549TIP3    H231581   5.559   2.988   5.305
10550TIP3   OH231582   5.067   2.629   7.170
10550TIP3    H131583   5.067   2.550   7.111
10550TIP3    H231584   5.022   2.696   7.114
10551TIP3   OH231585   5.069   2.412   6.981
10551TIP3    H131586   5.097   2.458   6.899
10551TIP3    H231587   4.975   2.393   6.961
10552TIP3   OH231588   5.092   2.947   6.852
10552TIP3    H131589   5.178   2.964   6.813
10552TIP3    H231590   5.035   3.013   6.807
10553TIP3   OH231591   5.674   2.914   7.231
10553TIP3    H131592   5.724   2.833   7.248
10553TIP3    H231593   5.742   2.973   7.196
10554TIP3   OH231594   5.717   3.170   6.970
10554TIP3    H131595   5.659   3.225   6.912
10554TIP3    H231596   5.805   3.192   6.931
10555TIP3   OH231597   4.946   2.735   7.405
10555TIP3    H131598   4.876   2.669   7.422
10555TIP3    H231599   4.977   2.707   7.316
10556TIP3   OH231600   5.199   2.175   7.050
10556TIP3    H131601   5.151   2.257   7.027
10556TIP3    H231602   5.129   2.108   7.039
10557TIP3   OH231603   5.327   2.678   7.265
10557TIP3    H131604   5.313   2.665   7.361
10557TIP3    H231605   5.237   2.656   7.233
10558TIP3   OH231606   5.563   2.628   7.119
10558TIP3    H131607   5.490   2.632   7.183
10558TIP3    H231608   5.639   2.601   7.175
10559TIP3   OH231609   5.794   2.572   7.267
10559TIP3    H131610   5.807   2.476   7.284
10559TIP3    H231611   5.789   2.610   7.358
10560TIP3   OH231612   4.781   2.515   7.459
10560TIP3    H131613   4.790   2.423   7.429
10560TIP3    H231614   4.818   2.509   7.549
10561TIP3   OH231615   5.292   2.186   7.309
10561TIP3    H131616   5.360   2.116   7.302
10561TIP3    H231617   5.253   2.182   7.219
10562TIP3   OH231618   5.360   2.402   7.467
10562TIP3    H131619   5.338   2.331   7.402
10562TIP3    H231620   5.282   2.461   7.461
10563TIP3   OH231621   4.583   3.636   5.565
10563TIP3    H131622   4.678   3.624   5.545
10563TIP3    H231623   4.555   3.685   5.486
10564TIP3   OH231624   4.061   3.013   5.779
10564TIP3    H131625   4.156   3.034   5.765
10564TIP3    H231626   4.055   2.924   5.739
10565TIP3   OH231627   3.979   3.625   6.197
10565TIP3    H131628   3.913   3.564   6.157
10565TIP3    H231629   4.023   3.565   6.261
10566TIP3   OH231630   4.113   3.470   6.383
10566TIP3    H131631   4.100   3.401   6.450
10566TIP3    H231632   4.165   3.534   6.435
10567TIP3   OH231633   5.840   3.876   6.183
10567TIP3    H131634   5.868   3.907   6.271
10567TIP3    H231635   5.907   3.916   6.125
10568TIP3   OH231636   5.867   3.895   6.466
10568TIP3    H131637   5.823   3.808   6.461
10568TIP3    H231638   5.944   3.872   6.521
10569TIP3   OH231639   5.915   3.572   7.039
10569TIP3    H131640   5.843   3.582   7.104
10569TIP3    H231641   5.957   3.660   7.042
10570TIP3   OH231642   5.731   3.085   5.657
10570TIP3    H131643   5.798   3.150   5.625
10570TIP3    H231644   5.777   3.048   5.735
10571TIP3   OH231645   5.860   2.952   5.861
10571TIP3    H131646   5.792   2.911   5.919
10571TIP3    H231647   5.924   2.988   5.925
10572TIP3   OH231648   5.916   3.347   6.293
10572TIP3    H131649   5.967   3.278   6.245
10572TIP3    H231650   5.913   3.419   6.227
10573TIP3   OH231651   5.743   3.646   6.487
10573TIP3    H131652   5.670   3.688   6.537
10573TIP3    H231653   5.694   3.600   6.415
10574TIP3   OH231654   5.797   2.862   5.506
10574TIP3    H131655   5.725   2.862   5.439
10574TIP3    H231656   5.767   2.937   5.561
10575TIP3   OH231657   5.667   2.533   5.459
10575TIP3    H131658   5.620   2.561   5.380
10575TIP3    H231659   5.644   2.437   5.460
10576TIP3   OH231660   5.671   2.811   6.005
10576TIP3    H131661   5.678   2.715   5.994
10576TIP3    H231662   5.657   2.821   6.102
10577TIP3   OH231663   4.297   2.882   6.754
10577TIP3    H131664   4.295   2.850   6.662
10577TIP3    H231665   4.394   2.883   6.770
10578TIP3   OH231666   5.963   3.236   6.864
10578TIP3    H131667   6.034   3.169   6.853
10578TIP3    H231668   5.987   3.303   6.799
10579TIP3   OH231669   6.145   3.035   6.872
10579TIP3    H131670   6.070   2.987   6.914
10579TIP3    H231671   6.218   2.973   6.891
10580TIP3   OH231672   5.605   2.268   5.454
10580TIP3    H131673   5.675   2.230   5.509
10580TIP3    H231674   5.538   2.196   5.450
10581TIP3   OH231675   5.672   2.528   5.899
10581TIP3    H131676   5.711   2.439   5.914
10581TIP3    H231677   5.729   2.558   5.826
10582TIP3   OH231678   5.829   2.696   6.397
10582TIP3    H131679   5.914   2.721   6.354
10582TIP3    H231680   5.844   2.735   6.485
10583TIP3   OH231681   5.902   2.844   6.626
10583TIP3    H131682   5.824   2.878   6.675
10583TIP3    H231683   5.934   2.925   6.581
10584TIP3   OH231684   4.515   2.563   7.415
10584TIP3    H131685   4.612   2.563   7.428
10584TIP3    H231686   4.491   2.481   7.463
10585TIP3   OH231687   6.351   2.438   7.182
10585TIP3    H131688   6.412   2.372   7.140
10585TIP3    H231689   6.320   2.488   7.104
10586TIP3   OH231690   5.778   2.278   5.939
10586TIP3    H131691   5.826   2.260   6.023
10586TIP3    H231692   5.717   2.201   5.936
10587TIP3   OH231693   4.477   2.263   6.758
10587TIP3    H131694   4.540   2.189   6.766
10587TIP3    H231695   4.538   2.338   6.750
10588TIP3   OH231696   4.278   2.532   6.830
10588TIP3    H131697   4.329   2.536   6.747
10588TIP3    H231698   4.300   2.616   6.871
10589TIP3   OH231699   6.219   2.572   6.986
10589TIP3    H131700   6.135   2.617   7.007
10589TIP3    H231701   6.186   2.500   6.929
10590TIP3   OH231702   5.863   2.208   5.578
10590TIP3    H131703   5.902   2.143   5.516
10590TIP3    H231704   5.925   2.283   5.570
10591TIP3   OH231705   4.263   2.023   6.323
10591TIP3    H131706   4.174   2.031   6.362
10591TIP3    H231707   4.259   2.091   6.252
10592TIP3   OH231708   5.422   3.745   5.838
10592TIP3    H131709   5.473   3.734   5.755
10592TIP3    H231710   5.476   3.809   5.886
10593TIP3   OH231711   4.482   2.108   7.141
10593TIP3    H131712   4.436   2.116   7.226
10593TIP3    H231713   4.419   2.154   7.082
10594TIP3   OH231714   4.523   3.549   7.223
10594TIP3    H131715   4.430   3.524   7.208
10594TIP3    H231716   4.534   3.526   7.317
10595TIP3   OH231717   4.704   3.582   6.770
10595TIP3    H131718   4.656   3.658   6.731
10595TIP3    H231719   4.790   3.596   6.726
10596TIP3   OH231720   5.144   3.823   6.908
10596TIP3    H131721   5.186   3.822   6.996
10596TIP3    H231722   5.209   3.875   6.857
10597TIP3   OH231723   5.324   3.978   6.770
10597TIP3    H131724   5.394   3.927   6.727
10597TIP3    H231725   5.376   4.034   6.831
10598TIP3   OH231726   6.120   2.336   6.868
10598TIP3    H131727   6.031   2.328   6.830
10598TIP3    H231728   6.154   2.244   6.858
10599TIP3   OH231729   4.377   3.837   6.794
10599TIP3    H131730   4.286   3.870   6.773
10599TIP3    H231731   4.391   3.878   6.880
10600TIP3   OH231732   4.614   3.816   6.654
10600TIP3    H131733   4.527   3.828   6.697
10600TIP3    H231734   4.596   3.847   6.564
10601TIP3   OH231735   5.040   3.842   6.452
10601TIP3    H131736   4.970   3.860   6.387
10601TIP3    H231737   5.051   3.930   6.494
10602TIP3   OH231738   5.309   3.780   6.505
10602TIP3    H131739   5.216   3.799   6.484
10602TIP3    H231740   5.355   3.854   6.460
10603TIP3   OH231741   5.514   3.972   6.416
10603TIP3    H131742   5.501   4.056   6.368
10603TIP3    H231743   5.542   3.912   6.343
10604TIP3   OH231744   4.290   3.629   6.539
10604TIP3    H131745   4.316   3.601   6.629
10604TIP3    H231746   4.362   3.585   6.488
10605TIP3   OH231747   4.485   3.502   6.398
10605TIP3    H131748   4.499   3.418   6.448
10605TIP3    H231749   4.577   3.537   6.395
10606TIP3   OH231750   4.752   3.594   6.403
10606TIP3    H131751   4.782   3.502   6.393
10606TIP3    H231752   4.800   3.617   6.486
10607TIP3   OH231753   5.328   2.255   6.490
10607TIP3    H131754   5.284   2.182   6.537
10607TIP3    H231755   5.401   2.209   6.443
10608TIP3   OH231756   5.844   2.134   6.394
10608TIP3    H131757   5.882   2.184   6.318
10608TIP3    H231758   5.749   2.154   6.385
10609TIP3   OH231759   5.942   2.228   6.157
10609TIP3    H131760   6.016   2.178   6.117
10609TIP3    H231761   5.974   2.320   6.143
10610TIP3   OH231762   4.573   1.960   6.500
10610TIP3    H131763   4.480   1.928   6.506
10610TIP3    H231764   4.621   1.875   6.496
10611TIP3   OH231765   4.347   1.826   6.144
10611TIP3    H131766   4.389   1.882   6.076
10611TIP3    H231767   4.325   1.893   6.213
10612TIP3   OH231768   5.023   1.985   6.387
10612TIP3    H131769   5.072   2.030   6.317
10612TIP3    H231770   5.046   2.039   6.464
10613TIP3   OH231771   5.559   2.139   6.367
10613TIP3    H131772   5.562   2.104   6.277
10613TIP3    H231773   5.546   2.058   6.420
10614TIP3   OH231774   5.599   2.063   5.928
10614TIP3    H131775   5.509   2.097   5.916
10614TIP3    H231776   5.581   1.980   5.979
10615TIP3   OH231777   4.077   3.406   5.927
10615TIP3    H131778   3.991   3.373   5.896
10615TIP3    H231779   4.068   3.499   5.902
10616TIP3   OH231780   4.482   1.979   5.920
10616TIP3    H131781   4.531   1.924   5.856
10616TIP3    H231782   4.552   2.039   5.951
10617TIP3   OH231783   4.989   2.166   6.013
10617TIP3    H131784   5.054   2.121   6.069
10617TIP3    H231785   5.010   2.259   6.036
10618TIP3   OH231786   4.849   3.588   5.511
10618TIP3    H131787   4.938   3.609   5.476
10618TIP3    H231788   4.827   3.512   5.451
10619TIP3   OH231789   5.569   3.709   5.607
10619TIP3    H131790   5.562   3.612   5.597
10619TIP3    H231791   5.523   3.739   5.526
10620TIP3   OH231792   4.783   2.236   7.387
10620TIP3    H131793   4.744   2.171   7.448
10620TIP3    H231794   4.876   2.237   7.419
10621TIP3   OH231795   5.031   2.235   7.511
10621TIP3    H131796   5.118   2.214   7.474
10621TIP3    H231797   5.021   2.165   7.578
10622TIP3   OH231798   4.154   3.426   5.566
10622TIP3    H131799   4.156   3.444   5.661
10622TIP3    H231800   4.242   3.383   5.551
10623TIP3   OH231801   5.858   2.301   7.300
10623TIP3    H131802   5.875   2.270   7.391
10623TIP3    H231803   5.948   2.296   7.260
10624TIP3   OH231804   5.792   3.852   6.793
10624TIP3    H131805   5.714   3.822   6.741
10624TIP3    H231806   5.773   3.948   6.799
10625TIP3   OH231807   7.056   3.224   5.566
10625TIP3    H131808   7.029   3.315   5.543
10625TIP3    H231809   6.983   3.174   5.525
10626TIP3   OH231810   7.059   3.230   5.944
10626TIP3    H131811   7.094   3.198   6.029
10626TIP3    H231812   7.021   3.149   5.906
10627TIP3   OH231813   6.358   3.119   6.307
10627TIP3    H131814   6.388   3.049   6.367
10627TIP3    H231815   6.438   3.171   6.296
10628TIP3   OH231816   7.301   3.536   5.623
10628TIP3    H131817   7.291   3.462   5.684
10628TIP3    H231818   7.332   3.608   5.682
10629TIP3   OH231819   6.333   3.531   6.027
10629TIP3    H131820   6.325   3.433   6.028
10629TIP3    H231821   6.429   3.540   6.019
10630TIP3   OH231822   6.039   2.730   5.810
10630TIP3    H131823   5.990   2.813   5.829
10630TIP3    H231824   5.968   2.678   5.768
10631TIP3   OH231825   6.095   3.019   5.991
10631TIP3    H131826   6.145   2.941   6.023
10631TIP3    H231827   6.155   3.055   5.924
10632TIP3   OH231828   6.956   3.990   5.641
10632TIP3    H131829   6.996   3.919   5.588
10632TIP3    H231830   6.950   3.948   5.728
10633TIP3   OH231831   6.858   3.452   5.990
10633TIP3    H131832   6.899   3.376   5.946
10633TIP3    H231833   6.939   3.500   6.015
10634TIP3   OH231834   7.873   2.766   5.984
10634TIP3    H131835   7.900   2.849   6.030
10634TIP3    H231836   7.897   2.787   5.892
10635TIP3   OH231837   7.267   2.948   6.021
10635TIP3    H131838   7.311   2.863   6.038
10635TIP3    H231839   7.242   2.937   5.927
10636TIP3   OH231840   6.614   2.611   5.983
10636TIP3    H131841   6.593   2.684   5.921
10636TIP3    H231842   6.565   2.538   5.940
10637TIP3   OH231843   7.306   2.703   5.606
10637TIP3    H131844   7.378   2.690   5.671
10637TIP3    H231845   7.358   2.737   5.530
10638TIP3   OH231846   6.243   2.812   6.092
10638TIP3    H131847   6.326   2.794   6.140
10638TIP3    H231848   6.257   2.757   6.012
10639TIP3   OH231849   6.682   3.010   5.890
10639TIP3    H131850   6.777   2.986   5.899
10639TIP3    H231851   6.645   2.926   5.855
10640TIP3   OH231852   7.928   2.972   6.157
10640TIP3    H131853   7.848   3.027   6.141
10640TIP3    H231854   7.972   3.021   6.228
10641TIP3   OH231855   6.606   2.596   6.420
10641TIP3    H131856   6.547   2.632   6.352
10641TIP3    H231857   6.553   2.613   6.500
10642TIP3   OH231858   6.941   3.440   5.431
10642TIP3    H131859   6.911   3.434   5.339
10642TIP3    H231860   6.902   3.525   5.458
10643TIP3   OH231861   6.713   3.371   6.211
10643TIP3    H131862   6.654   3.441   6.247
10643TIP3    H231863   6.756   3.418   6.137
10644TIP3   OH231864   7.513   2.708   5.783
10644TIP3    H131865   7.492   2.667   5.869
10644TIP3    H231866   7.564   2.787   5.810
10645TIP3   OH231867   6.479   2.710   6.202
10645TIP3    H131868   6.541   2.782   6.227
10645TIP3    H231869   6.528   2.670   6.127
10646TIP3   OH231870   6.543   3.568   6.312
10646TIP3    H131871   6.518   3.655   6.275
10646TIP3    H231872   6.463   3.551   6.366
10647TIP3   OH231873   5.932   3.256   5.547
10647TIP3    H131874   5.892   3.285   5.463
10647TIP3    H231875   5.965   3.341   5.583
10648TIP3   OH231876   7.375   3.773   5.790
10648TIP3    H131877   7.285   3.764   5.828
10648TIP3    H231878   7.367   3.858   5.742
10649TIP3   OH231879   7.667   2.666   6.151
10649TIP3    H131880   7.580   2.695   6.118
10649TIP3    H231881   7.728   2.701   6.083
10650TIP3   OH231882   6.960   2.311   6.137
10650TIP3    H131883   6.942   2.216   6.153
10650TIP3    H231884   6.883   2.351   6.183
10651TIP3   OH231885   7.070   3.816   5.459
10651TIP3    H131886   7.119   3.732   5.440
10651TIP3    H231887   7.134   3.880   5.419
10652TIP3   OH231888   7.212   3.601   5.371
10652TIP3    H131889   7.201   3.518   5.322
10652TIP3    H231890   7.253   3.570   5.454
10653TIP3   OH231891   7.600   3.680   6.133
10653TIP3    H131892   7.586   3.604   6.072
10653TIP3    H231893   7.579   3.756   6.075
10654TIP3   OH231894   6.892   3.078   5.392
10654TIP3    H131895   6.813   3.132   5.372
10654TIP3    H231896   6.939   3.077   5.307
10655TIP3   OH231897   6.848   2.865   5.101
10655TIP3    H131898   6.913   2.917   5.151
10655TIP3    H231899   6.908   2.802   5.055
10656TIP3   OH231900   7.795   3.326   5.984
10656TIP3    H131901   7.709   3.375   5.984
10656TIP3    H231902   7.826   3.348   5.893
10657TIP3   OH231903   7.224   3.158   5.356
10657TIP3    H131904   7.180   3.183   5.441
10657TIP3    H231905   7.312   3.128   5.391
10658TIP3   OH231906   7.471   3.198   6.276
10658TIP3    H131907   7.467   3.283   6.324
10658TIP3    H231908   7.385   3.199   6.231
10659TIP3   OH231909   6.471   3.155   5.780
10659TIP3    H131910   6.431   3.098   5.711
10659TIP3    H231911   6.548   3.102   5.810
10660TIP3   OH231912   6.600   3.567   5.927
10660TIP3    H131913   6.582   3.534   5.837
10660TIP3    H231914   6.690   3.530   5.944
10661TIP3   OH231915   6.606   3.128   6.134
10661TIP3    H131916   6.639   3.102   6.045
10661TIP3    H231917   6.651   3.214   6.149
10662TIP3   OH231918   7.133   3.767   5.909
10662TIP3    H131919   7.120   3.848   5.961
10662TIP3    H231920   7.115   3.695   5.973
10663TIP3   OH231921   6.747   3.684   6.459
10663TIP3    H131922   6.685   3.745   6.503
10663TIP3    H231923   6.684   3.631   6.406
10664TIP3   OH231924   7.073   3.015   5.185
10664TIP3    H131925   7.130   3.076   5.237
10664TIP3    H231926   7.103   3.037   5.093
10665TIP3   OH231927   6.503   3.237   6.564
10665TIP3    H131928   6.507   3.327   6.603
10665TIP3    H231929   6.407   3.218   6.574
10666TIP3   OH231930   6.823   3.696   5.463
10666TIP3    H131931   6.908   3.745   5.470
10666TIP3    H231932   6.766   3.761   5.421
10667TIP3   OH231933   6.540   3.850   6.544
10667TIP3    H131934   6.505   3.855   6.453
10667TIP3    H231935   6.459   3.828   6.596
10668TIP3   OH231936   7.593   2.255   5.236
10668TIP3    H131937   7.512   2.278   5.286
10668TIP3    H231938   7.610   2.340   5.190
10669TIP3   OH231939   6.339   3.000   5.581
10669TIP3    H131940   6.270   3.044   5.527
10669TIP3    H231941   6.301   2.912   5.594
10670TIP3   OH231942   7.394   3.624   4.783
10670TIP3    H131943   7.403   3.721   4.771
10670TIP3    H231944   7.485   3.595   4.761
10671TIP3   OH231945   6.118   3.384   6.491
10671TIP3    H131946   6.051   3.364   6.422
10671TIP3    H231947   6.156   3.296   6.511
10672TIP3   OH231948   5.974   3.577   6.122
10672TIP3    H131949   6.070   3.570   6.112
10672TIP3    H231950   5.966   3.655   6.178
10673TIP3   OH231951   7.839   4.031   6.185
10673TIP3    H131952   7.835   3.935   6.197
10673TIP3    H231953   7.755   4.058   6.227
10674TIP3   OH231954   6.943   3.812   6.315
10674TIP3    H131955   6.940   3.905   6.346
10674TIP3    H231956   6.872   3.772   6.369
10675TIP3   OH231957   6.706   3.940   5.267
10675TIP3    H131958   6.660   3.925   5.182
10675TIP3    H231959   6.673   4.028   5.294
10676TIP3   OH231960   6.142   3.790   5.652
10676TIP3    H131961   6.190   3.782   5.738
10676TIP3    H231962   6.092   3.707   5.652
10677TIP3   OH231963   6.905   3.844   4.903
10677TIP3    H131964   6.964   3.774   4.869
10677TIP3    H231965   6.940   3.855   4.995
10678TIP3   OH231966   6.957   3.893   5.172
10678TIP3    H131967   6.869   3.901   5.216
10678TIP3    H231968   7.010   3.856   5.244
10679TIP3   OH231969   7.725   3.157   6.455
10679TIP3    H131970   7.643   3.168   6.405
10679TIP3    H231971   7.741   3.061   6.445
10680TIP3   OH231972   6.322   3.567   6.475
10680TIP3    H131973   6.372   3.550   6.558
10680TIP3    H231974   6.248   3.504   6.483
10681TIP3   OH231975   6.723   2.389   6.265
10681TIP3    H131976   6.635   2.359   6.235
10681TIP3    H231977   6.696   2.470   6.313
10682TIP3   OH231978   7.257   2.505   6.458
10682TIP3    H131979   7.325   2.473   6.521
10682TIP3    H231980   7.174   2.485   6.505
10683TIP3   OH231981   7.495   2.934   6.377
10683TIP3    H131982   7.442   2.933   6.459
10683TIP3    H231983   7.472   3.021   6.338
10684TIP3   OH231984   7.154   3.054   4.929
10684TIP3    H131985   7.123   3.037   4.838
10684TIP3    H231986   7.235   3.106   4.912
10685TIP3   OH231987   6.869   2.436   5.236
10685TIP3    H131988   6.833   2.433   5.327
10685TIP3    H231989   6.827   2.355   5.200
10686TIP3   OH231990   6.655   2.907   6.282
10686TIP3    H131991   6.604   2.927   6.363
10686TIP3    H231992   6.639   2.988   6.229
10687TIP3   OH231993   6.538   2.792   5.796
10687TIP3    H131994   6.446   2.766   5.815
10687TIP3    H231995   6.550   2.751   5.707
10688TIP3   OH231996   7.027   2.875   5.525
10688TIP3    H131997   6.978   2.948   5.482
10688TIP3    H231998   7.085   2.845   5.452
10689TIP3   OH231999   7.204   3.153   6.609
10689TIP3    H132000   7.181   3.080   6.672
10689TIP3    H232001   7.298   3.166   6.630
10690TIP3   OH232002   7.186   2.907   5.761
10690TIP3    H132003   7.127   2.940   5.691
10690TIP3    H232004   7.219   2.827   5.715
10691TIP3   OH232005   6.475   2.934   6.490
10691TIP3    H132006   6.501   2.999   6.557
10691TIP3    H232007   6.464   2.852   6.542
10692TIP3   OH232008   6.525   2.413   5.200
10692TIP3    H132009   6.513   2.411   5.297
10692TIP3    H232010   6.446   2.466   5.174
10693TIP3   OH232011   6.065   2.453   6.076
10693TIP3    H132012   6.143   2.486   6.125
10693TIP3    H232013   6.102   2.425   5.990
10694TIP3   OH232014   6.036   2.437   5.592
10694TIP3    H132015   6.081   2.473   5.512
10694TIP3    H232016   5.974   2.511   5.609
10695TIP3   OH232017   7.198   3.148   6.185
10695TIP3    H132018   7.229   3.077   6.125
10695TIP3    H232019   7.164   3.094   6.259
10696TIP3   OH232020   6.870   2.608   5.855
10696TIP3    H132021   6.788   2.610   5.908
10696TIP3    H232022   6.938   2.611   5.924
10697TIP3   OH232023   6.300   2.671   5.864
10697TIP3    H132024   6.205   2.679   5.835
10697TIP3    H232025   6.321   2.578   5.841
10698TIP3   OH232026   6.566   2.664   5.555
10698TIP3    H132027   6.659   2.680   5.532
10698TIP3    H232028   6.518   2.686   5.472
10699TIP3   OH232029   7.359   2.688   6.059
10699TIP3    H132030   7.327   2.703   6.151
10699TIP3    H232031   7.290   2.629   6.025
10700TIP3   OH232032   6.416   2.700   5.332
10700TIP3    H132033   6.343   2.655   5.284
10700TIP3    H232034   6.466   2.737   5.256
10701TIP3   OH232035   7.529   4.378   6.280
10701TIP3    H132036   7.524   4.404   6.186
10701TIP3    H232037   7.602   4.435   6.311
10702TIP3   OH232038   6.485   3.488   6.698
10702TIP3    H132039   6.565   3.519   6.746
10702TIP3    H232040   6.420   3.487   6.771
10703TIP3   OH232041   6.947   2.940   5.952
10703TIP3    H132042   7.025   2.908   5.903
10703TIP3    H232043   6.958   2.896   6.038
10704TIP3   OH232044   6.470   2.429   5.837
10704TIP3    H132045   6.431   2.352   5.886
10704TIP3    H232046   6.511   2.385   5.761
10705TIP3   OH232047   6.924   2.840   6.246
10705TIP3    H132048   6.834   2.876   6.257
10705TIP3    H232049   6.981   2.904   6.294
10706TIP3   OH232050   6.661   3.229   5.337
10706TIP3    H132051   6.589   3.163   5.326
10706TIP3    H232052   6.641   3.263   5.428
10707TIP3   OH232053   7.560   3.465   5.966
10707TIP3    H132054   7.581   3.517   5.886
10707TIP3    H232055   7.475   3.422   5.940
10708TIP3   OH232056   7.118   2.542   5.199
10708TIP3    H132057   7.023   2.522   5.212
10708TIP3    H232058   7.127   2.635   5.229
10709TIP3   OH232059   7.058   3.546   6.337
10709TIP3    H132060   7.089   3.534   6.428
10709TIP3    H232061   7.023   3.637   6.339
10710TIP3   OH232062   7.186   2.789   5.307
10710TIP3    H132063   7.282   2.795   5.327
10710TIP3    H232064   7.169   2.872   5.258
10711TIP3   OH232065   6.355   3.253   6.013
10711TIP3    H132066   6.392   3.224   5.927
10711TIP3    H232067   6.400   3.194   6.075
10712TIP3   OH232068   6.806   3.378   5.158
10712TIP3    H132069   6.757   3.464   5.162
10712TIP3    H232070   6.753   3.324   5.222
10713TIP3   OH232071   6.237   3.170   6.628
10713TIP3    H132072   6.252   3.156   6.723
10713TIP3    H232073   6.167   3.106   6.610
10714TIP3   OH232074   6.962   3.287   6.648
10714TIP3    H132075   6.900   3.229   6.602
10714TIP3    H232076   7.048   3.251   6.617
10715TIP3   OH232077   7.220   3.802   6.238
10715TIP3    H132078   7.124   3.806   6.247
10715TIP3    H232079   7.248   3.859   6.312
10716TIP3   OH232080   7.635   2.884   5.139
10716TIP3    H132081   7.572   2.840   5.077
10716TIP3    H232082   7.628   2.975   5.102
10717TIP3   OH232083   7.850   3.738   6.220
10717TIP3    H132084   7.753   3.733   6.211
10717TIP3    H232085   7.877   3.708   6.130
10718TIP3   OH232086   7.327   3.701   5.050
10718TIP3    H132087   7.314   3.632   5.116
10718TIP3    H232088   7.344   3.649   4.969
10719TIP3   OH232089   7.326   3.333   5.890
10719TIP3    H132090   7.231   3.310   5.898
10719TIP3    H232091   7.361   3.251   5.849
10720TIP3   OH232092   6.458   3.559   5.642
10720TIP3    H132093   6.455   3.638   5.585
10720TIP3    H232094   6.364   3.539   5.651
10721TIP3   OH232095   6.021   2.859   5.346
10721TIP3    H132096   6.065   2.944   5.367
10721TIP3    H232097   5.944   2.863   5.407
10722TIP3   OH232098   6.585   3.319   5.580
10722TIP3    H132099   6.555   3.409   5.600
10722TIP3    H232100   6.552   3.269   5.657
10723TIP3   OH232101   6.726   3.899   6.107
10723TIP3    H132102   6.767   3.972   6.056
10723TIP3    H232103   6.803   3.862   6.153
10724TIP3   OH232104   6.373   3.796   5.490
10724TIP3    H132105   6.288   3.806   5.538
10724TIP3    H232106   6.406   3.889   5.494
10725TIP3   OH232107   7.109   3.534   6.068
10725TIP3    H132108   7.100   3.530   6.166
10725TIP3    H232109   7.188   3.480   6.053
10726TIP3   OH232110   7.096   3.424   4.956
10726TIP3    H132111   7.151   3.403   5.035
10726TIP3    H232112   7.008   3.400   4.989
10727TIP3   OH232113   7.361   4.063   6.116
10727TIP3    H132114   7.279   4.012   6.107
10727TIP3    H232115   7.348   4.130   6.045
10728TIP3   OH232116   7.426   3.901   4.768
10728TIP3    H132117   7.464   3.979   4.724
10728TIP3    H232118   7.344   3.942   4.804
10729TIP3   OH232119   6.444   2.677   6.634
10729TIP3    H132120   6.347   2.679   6.645
10729TIP3    H232121   6.471   2.620   6.707
10730TIP3   OH232122   7.253   3.367   5.179
10730TIP3    H132123   7.234   3.293   5.241
10730TIP3    H232124   7.351   3.364   5.183
10731TIP3   OH232125   6.162   3.760   6.266
10731TIP3    H132126   6.218   3.689   6.302
10731TIP3    H232127   6.190   3.835   6.320
10732TIP3   OH232128   6.452   3.407   4.951
10732TIP3    H132129   6.466   3.314   4.925
10732TIP3    H232130   6.431   3.398   5.046
10733TIP3   OH232131   6.396   3.413   5.223
10733TIP3    H132132   6.472   3.386   5.277
10733TIP3    H232133   6.400   3.510   5.231
10734TIP3   OH232134   6.131   3.104   5.428
10734TIP3    H132135   6.064   3.149   5.483
10734TIP3    H232136   6.144   3.172   5.359
10735TIP3   OH232137   7.286   2.742   6.320
10735TIP3    H132138   7.368   2.779   6.357
10735TIP3    H232139   7.273   2.661   6.374
10736TIP3   OH232140   7.170   2.489   5.486
10736TIP3    H132141   7.154   2.514   5.394
10736TIP3    H232142   7.207   2.572   5.524
10737TIP3   OH232143   6.664   3.608   5.169
10737TIP3    H132144   6.577   3.632   5.207
10737TIP3    H232145   6.681   3.686   5.114
10738TIP3   OH232146   6.850   2.673   5.586
10738TIP3    H132147   6.913   2.746   5.568
10738TIP3    H232148   6.857   2.665   5.683
10739TIP3   OH232149   7.121   2.989   6.391
10739TIP3    H132150   7.146   3.040   6.470
10739TIP3    H232151   7.174   2.908   6.401
10740TIP3   OH232152   6.994   2.395   5.686
10740TIP3    H132153   6.982   2.474   5.742
10740TIP3    H232154   7.057   2.430   5.619
10741TIP3   OH232155   6.410   3.684   5.240
10741TIP3    H132156   6.380   3.755   5.179
10741TIP3    H232157   6.394   3.727   5.328
10742TIP3   OH232158   6.509   2.400   5.477
10742TIP3    H132159   6.506   2.490   5.514
10742TIP3    H232160   6.605   2.383   5.484
10743TIP3   OH232161   7.763   2.889   6.385
10743TIP3    H132162   7.664   2.884   6.383
10743TIP3    H232163   7.783   2.864   6.294
10744TIP3   OH232164   7.416   3.095   5.778
10744TIP3    H132165   7.342   3.033   5.765
10744TIP3    H232166   7.485   3.039   5.817
10745TIP3   OH232167   6.127   3.310   5.230
10745TIP3    H132168   6.197   3.377   5.240
10745TIP3    H232169   6.170   3.252   5.164
10746TIP3   OH232170   6.067   2.589   5.365
10746TIP3    H132171   6.068   2.687   5.363
10746TIP3    H232172   5.985   2.568   5.319
10747TIP3   OH232173   7.383   4.041   5.708
10747TIP3    H132174   7.340   4.087   5.632
10747TIP3    H232175   7.478   4.060   5.686
10748TIP3   OH232176   6.458   2.310   6.236
10748TIP3    H132177   6.428   2.275   6.149
10748TIP3    H232178   6.447   2.231   6.293
10749TIP3   OH232179   5.993   3.526   5.614
10749TIP3    H132180   5.929   3.557   5.679
10749TIP3    H232181   5.960   3.570   5.532
10750TIP3   OH232182   6.155   4.075   6.691
10750TIP3    H132183   6.242   4.076   6.737
10750TIP3    H232184   6.137   3.980   6.689
10751TIP3   OH232185   6.631   4.029   6.738
10751TIP3    H132186   6.727   4.017   6.740
10751TIP3    H232187   6.606   3.969   6.665
10752TIP3   OH232188   6.615   3.609   4.859
10752TIP3    H132189   6.559   3.538   4.898
10752TIP3    H232190   6.691   3.557   4.829
10753TIP3   OH232191   7.271   3.943   6.470
10753TIP3    H132192   7.266   3.873   6.540
10753TIP3    H232193   7.348   3.996   6.499
10754TIP3   OH232194   7.052   3.646   4.776
10754TIP3    H132195   7.095   3.585   4.839
10754TIP3    H232196   7.112   3.643   4.699
10755TIP3   OH232197   6.284   3.478   6.890
10755TIP3    H132198   6.299   3.381   6.897
10755TIP3    H232199   6.197   3.481   6.844
10756TIP3   OH232200   6.262   3.124   5.086
10756TIP3    H132201   6.319   3.095   5.160
10756TIP3    H232202   6.329   3.130   5.014
10757TIP3   OH232203   6.890   3.564   6.665
10757TIP3    H132204   6.849   3.586   6.578
10757TIP3    H232205   6.919   3.472   6.652
10758TIP3   OH232206   6.774   3.326   4.890
10758TIP3    H132207   6.778   3.338   4.988
10758TIP3    H232208   6.774   3.228   4.885
10759TIP3   OH232209   7.384   3.575   6.275
10759TIP3    H132210   7.460   3.616   6.229
10759TIP3    H232211   7.315   3.642   6.257
10760TIP3   OH232212   6.403   3.215   6.875
10760TIP3    H132213   6.480   3.164   6.846
10760TIP3    H232214   6.433   3.247   6.963
10761TIP3   OH232215   6.466   3.033   5.303
10761TIP3    H132216   6.440   2.993   5.388
10761TIP3    H232217   6.505   2.957   5.255
10762TIP3   OH232218   6.740   3.096   6.536
10762TIP3    H132219   6.661   3.154   6.534
10762TIP3    H232220   6.791   3.131   6.458
10763TIP3   OH232221   6.571   2.827   5.145
10763TIP3    H132222   6.547   2.836   5.051
10763TIP3    H232223   6.669   2.829   5.138
10764TIP3   OH232224   7.257   3.499   6.669
10764TIP3    H132225   7.330   3.466   6.614
10764TIP3    H232226   7.250   3.430   6.738
10765TIP3   OH232227   7.390   3.157   4.815
10765TIP3    H132228   7.370   3.113   4.730
10765TIP3    H232229   7.357   3.247   4.795
10766TIP3   OH232230   6.864   2.886   6.657
10766TIP3    H132231   6.863   2.807   6.599
10766TIP3    H232232   6.819   2.953   6.601
10767TIP3   OH232233   6.865   2.672   6.470
10767TIP3    H132234   6.893   2.714   6.386
10767TIP3    H232235   6.771   2.649   6.450
10768TIP3   OH232236   6.889   3.206   6.342
10768TIP3    H132237   6.974   3.221   6.299
10768TIP3    H232238   6.831   3.271   6.295
10769TIP3   OH232239   7.474   3.171   6.721
10769TIP3    H132240   7.522   3.087   6.721
10769TIP3    H232241   7.538   3.231   6.681
10770TIP3   OH232242   7.511   3.428   6.460
10770TIP3    H132243   7.454   3.482   6.401
10770TIP3    H232244   7.599   3.448   6.421
10771TIP3   OH232245   6.743   2.990   6.894
10771TIP3    H132246   6.674   2.922   6.909
10771TIP3    H232247   6.773   2.968   6.804
10772TIP3   OH232248   6.996   2.433   6.537
10772TIP3    H132249   6.946   2.514   6.514
10772TIP3    H232250   6.928   2.364   6.526
10773TIP3   OH232251   7.122   2.934   6.752
10773TIP3    H132252   7.103   2.920   6.846
10773TIP3    H232253   7.034   2.913   6.715
10774TIP3   OH232254   7.361   2.891   6.608
10774TIP3    H132255   7.285   2.890   6.670
10774TIP3    H232256   7.435   2.861   6.664
10775TIP3   OH232257   7.595   2.839   6.755
10775TIP3    H132258   7.604   2.741   6.763
10775TIP3    H232259   7.589   2.868   6.848
10776TIP3   OH232260   6.579   2.772   6.946
10776TIP3    H132261   6.582   2.680   6.913
10776TIP3    H232262   6.616   2.760   7.036
10777TIP3   OH232263   7.090   2.443   6.795
10777TIP3    H132264   7.155   2.370   6.787
10777TIP3    H232265   7.049   2.440   6.706
10778TIP3   OH232266   7.157   2.659   6.950
10778TIP3    H132267   7.136   2.587   6.887
10778TIP3    H232268   7.078   2.717   6.943
10779TIP3   OH232269   6.379   3.888   5.053
10779TIP3    H132270   6.475   3.878   5.034
10779TIP3    H232271   6.352   3.939   4.974
10780TIP3   OH232272   5.857   3.270   5.266
10780TIP3    H132273   5.952   3.291   5.251
10780TIP3    H232274   5.851   3.181   5.226
10781TIP3   OH232275   5.774   3.881   5.684
10781TIP3    H132276   5.709   3.820   5.644
10781TIP3    H232277   5.818   3.821   5.748
10782TIP3   OH232278   5.908   3.727   5.870
10782TIP3    H132279   5.896   3.657   5.936
10782TIP3    H232280   5.962   3.790   5.921
10783TIP3   OH232281   7.640   4.125   5.670
10783TIP3    H132282   7.659   4.160   5.759
10783TIP3    H232283   7.696   4.181   5.614
10784TIP3   OH232284   7.661   4.147   5.947
10784TIP3    H132285   7.621   4.058   5.946
10784TIP3    H232286   7.736   4.131   6.007
10785TIP3   OH232287   7.714   3.827   6.528
10785TIP3    H132288   7.640   3.838   6.590
10785TIP3    H232289   7.754   3.916   6.528
10786TIP3   OH232290   7.715   3.605   5.782
10786TIP3    H132291   7.756   3.537   5.726
10786TIP3    H232292   7.707   3.680   5.720
10787TIP3   OH232293   7.539   3.899   5.977
10787TIP3    H132294   7.468   3.946   6.024
10787TIP3    H232295   7.490   3.856   5.903
10788TIP3   OH232296   7.600   3.110   4.993
10788TIP3    H132297   7.522   3.133   4.939
10788TIP3    H232298   7.589   3.177   5.066
10789TIP3   OH232299   7.472   2.784   4.942
10789TIP3    H132300   7.417   2.831   4.879
10789TIP3    H232301   7.444   2.691   4.929
10790TIP3   OH232302   7.431   3.044   5.495
10790TIP3    H132303   7.481   2.962   5.504
10790TIP3    H232304   7.456   3.094   5.574
10791TIP3   OH232305   6.093   3.138   6.243
10791TIP3    H132306   6.090   3.105   6.150
10791TIP3    H232307   6.190   3.140   6.258
10792TIP3   OH232308   7.758   3.492   6.354
10792TIP3    H132309   7.829   3.426   6.340
10792TIP3    H232310   7.779   3.560   6.287
10793TIP3   OH232311   7.941   3.291   6.359
10793TIP3    H132312   7.867   3.242   6.400
10793TIP3    H232313   8.015   3.230   6.378
10794TIP3   OH232314   7.411   2.516   4.920
10794TIP3    H132315   7.479   2.493   4.986
10794TIP3    H232316   7.332   2.466   4.948
10795TIP3   OH232317   7.461   2.767   5.383
10795TIP3    H132318   7.508   2.680   5.391
10795TIP3    H232319   7.518   2.813   5.320
10796TIP3   OH232320   7.627   2.947   5.884
10796TIP3    H132321   7.712   2.973   5.843
10796TIP3    H232322   7.639   2.988   5.972
10797TIP3   OH232323   7.690   3.105   6.112
10797TIP3    H132324   7.612   3.140   6.159
10797TIP3    H232325   7.725   3.185   6.068
10798TIP3   OH232326   6.313   2.825   6.915
10798TIP3    H132327   6.410   2.819   6.919
10798TIP3    H232328   6.289   2.738   6.953
10799TIP3   OH232329   8.184   2.698   6.656
10799TIP3    H132330   8.196   2.612   6.610
10799TIP3    H232331   8.130   2.746   6.589
10800TIP3   OH232332   7.584   2.524   5.419
10800TIP3    H132333   7.627   2.513   5.506
10800TIP3    H232334   7.517   2.453   5.422
10801TIP3   OH232335   6.274   2.519   6.247
10801TIP3    H132336   6.336   2.443   6.254
10801TIP3    H232337   6.337   2.592   6.237
10802TIP3   OH232338   6.074   2.790   6.317
10802TIP3    H132339   6.124   2.787   6.233
10802TIP3    H232340   6.102   2.876   6.352
10803TIP3   OH232341   8.012   2.824   6.486
10803TIP3    H132342   7.927   2.872   6.492
10803TIP3    H232343   7.986   2.757   6.420
10804TIP3   OH232344   7.652   2.466   5.061
10804TIP3    H132345   7.694   2.397   5.006
10804TIP3    H232346   7.718   2.538   5.060
10805TIP3   OH232347   6.060   2.300   5.823
10805TIP3    H132348   5.966   2.290   5.845
10805TIP3    H232349   6.055   2.356   5.742
10806TIP3   OH232350   7.216   3.999   5.322
10806TIP3    H132351   7.272   3.991   5.243
10806TIP3    H232352   7.265   4.063   5.376
10807TIP3   OH232353   6.281   2.374   6.633
10807TIP3    H132354   6.229   2.372   6.715
10807TIP3    H232355   6.216   2.413   6.571
10808TIP3   OH232356   6.319   3.805   6.708
10808TIP3    H132357   6.226   3.780   6.692
10808TIP3    H232358   6.329   3.786   6.802
10809TIP3   OH232359   6.500   3.839   6.257
10809TIP3    H132360   6.453   3.915   6.217
10809TIP3    H232361   6.586   3.852   6.212
10810TIP3   OH232362   6.939   4.079   6.395
10810TIP3    H132363   6.982   4.081   6.483
10810TIP3    H232364   7.003   4.131   6.342
10811TIP3   OH232365   7.117   4.233   6.256
10811TIP3    H132366   7.188   4.187   6.209
10811TIP3    H232367   7.169   4.289   6.317
10812TIP3   OH232368   7.916   2.593   6.356
10812TIP3    H132369   7.827   2.585   6.316
10812TIP3    H232370   7.950   2.501   6.344
10813TIP3   OH232371   6.172   4.092   6.283
10813TIP3    H132372   6.082   4.124   6.261
10813TIP3    H232373   6.188   4.140   6.365
10814TIP3   OH232374   6.409   4.071   6.141
10814TIP3    H132375   6.321   4.083   6.183
10814TIP3    H232376   6.392   4.103   6.050
10815TIP3   OH232377   6.835   4.095   5.939
10815TIP3    H132378   6.768   4.116   5.872
10815TIP3    H232379   6.848   4.182   5.981
10816TIP3   OH232380   7.106   4.035   5.993
10816TIP3    H132381   7.013   4.056   5.971
10816TIP3    H232382   7.153   4.109   5.949
10817TIP3   OH232383   7.307   4.222   5.903
10817TIP3    H132384   7.298   4.309   5.857
10817TIP3    H232385   7.337   4.165   5.829
10818TIP3   OH232386   6.085   3.885   6.026
10818TIP3    H132387   6.112   3.858   6.116
10818TIP3    H232388   6.157   3.842   5.974
10819TIP3   OH232389   6.281   3.759   5.886
10819TIP3    H132390   6.296   3.675   5.935
10819TIP3    H232391   6.372   3.794   5.881
10820TIP3   OH232392   6.547   3.850   5.891
10820TIP3    H132393   6.579   3.759   5.879
10820TIP3    H232394   6.596   3.874   5.972
10821TIP3   OH232395   7.125   2.509   5.979
10821TIP3    H132396   7.079   2.438   6.027
10821TIP3    H232397   7.197   2.462   5.933
10822TIP3   OH232398   7.641   2.386   5.876
10822TIP3    H132399   7.678   2.440   5.803
10822TIP3    H232400   7.546   2.409   5.872
10823TIP3   OH232401   7.740   2.486   5.642
10823TIP3    H132402   7.815   2.436   5.604
10823TIP3    H232403   7.772   2.578   5.629
10824TIP3   OH232404   6.370   2.217   5.989
10824TIP3    H132405   6.276   2.186   5.991
10824TIP3    H232406   6.416   2.130   5.983
10825TIP3   OH232407   6.174   2.088   5.647
10825TIP3    H132408   6.186   2.140   5.566
10825TIP3    H232409   6.135   2.153   5.708
10826TIP3   OH232410   6.818   2.246   5.871
10826TIP3    H132411   6.872   2.296   5.808
10826TIP3    H232412   6.839   2.290   5.955
10827TIP3   OH232413   7.358   2.397   5.854
10827TIP3    H132414   7.356   2.358   5.766
10827TIP3    H232415   7.346   2.317   5.911
10828TIP3   OH232416   7.390   2.321   5.417
10828TIP3    H132417   7.306   2.367   5.435
10828TIP3    H232418   7.374   2.235   5.462
10829TIP3   OH232419   5.873   3.663   5.415
10829TIP3    H132420   5.787   3.629   5.383
10829TIP3    H232421   5.864   3.756   5.390
10830TIP3   OH232422   6.276   2.247   5.398
10830TIP3    H132423   6.323   2.183   5.341
10830TIP3    H232424   6.351   2.299   5.435
10831TIP3   OH232425   6.786   2.423   5.499
10831TIP3    H132426   6.846   2.376   5.560
10831TIP3    H232427   6.807   2.516   5.524
10832TIP3   OH232428   6.646   3.843   5.000
10832TIP3    H132429   6.734   3.866   4.964
10832TIP3    H232430   6.624   3.769   4.939
10833TIP3   OH232431   7.367   3.967   5.092
10833TIP3    H132432   7.357   3.869   5.083
10833TIP3    H232433   7.319   3.997   5.012
10834TIP3   OH232434   6.577   2.498   6.882
10834TIP3    H132435   6.541   2.427   6.937
10834TIP3    H232436   6.671   2.496   6.910
10835TIP3   OH232437   6.828   2.496   7.001
10835TIP3    H132438   6.912   2.467   6.961
10835TIP3    H232439   6.814   2.426   7.068
10836TIP3   OH232440   5.949   3.681   5.053
10836TIP3    H132441   5.953   3.702   5.147
10836TIP3    H232442   6.036   3.638   5.037
10837TIP3   OH232443   7.647   2.567   6.769
10837TIP3    H132444   7.658   2.533   6.861
10837TIP3    H232445   7.738   2.559   6.734
10838TIP3   OH232446   7.589   4.109   6.280
10838TIP3    H132447   7.511   4.079   6.227
10838TIP3    H232448   7.571   4.205   6.283
10839TIP3   OH232449   8.174   3.372   5.802
10839TIP3    H132450   8.177   3.395   5.896
10839TIP3    H232451   8.226   3.444   5.763
10840TIP3   OH232452   8.129   3.789   5.516
10840TIP3    H132453   8.127   3.691   5.522
10840TIP3    H232454   8.224   3.804   5.508
10841TIP3   OH232455   7.824   3.009   5.307
10841TIP3    H132456   7.771   3.087   5.326
10841TIP3    H232457   7.758   2.954   5.260
10842TIP3   OH232458   7.951   3.302   5.483
10842TIP3    H132459   7.973   3.209   5.504
10842TIP3    H232460   7.900   3.294   5.400
10843TIP3   OH232461   8.761   4.206   5.105
10843TIP3    H132462   8.857   4.184   5.109
10843TIP3    H232463   8.743   4.220   5.198
10844TIP3   OH232464   8.666   3.689   5.479
10844TIP3    H132465   8.668   3.667   5.385
10844TIP3    H232466   8.741   3.751   5.489
10845TIP3   OH232467   8.390   2.863   5.487
10845TIP3    H132468   8.395   2.933   5.419
10845TIP3    H232469   8.348   2.792   5.435
10846TIP3   OH232470   8.036   3.060   5.579
10846TIP3    H132471   8.116   3.036   5.631
10846TIP3    H232472   8.053   3.008   5.498
10847TIP3   OH232473   8.463   3.268   5.359
10847TIP3    H132474   8.554   3.236   5.378
10847TIP3    H232475   8.421   3.184   5.332
10848TIP3   OH232476   8.514   3.626   5.717
10848TIP3    H132477   8.450   3.695   5.748
10848TIP3    H232478   8.556   3.671   5.642
10849TIP3   OH232479   8.260   2.960   5.702
10849TIP3    H132480   8.320   3.033   5.728
10849TIP3    H232481   8.311   2.919   5.629
10850TIP3   OH232482   8.340   3.823   5.798
10850TIP3    H132483   8.315   3.911   5.762
10850TIP3    H232484   8.260   3.806   5.852
10851TIP3   OH232485   7.758   3.527   5.011
10851TIP3    H132486   7.665   3.500   5.011
10851TIP3    H232487   7.766   3.562   5.101
10852TIP3   OH232488   8.256   3.418   5.258
10852TIP3    H132489   8.216   3.359   5.192
10852TIP3    H232490   8.331   3.364   5.290
10853TIP3   OH232491   8.388   3.831   5.408
10853TIP3    H132492   8.362   3.796   5.321
10853TIP3    H232493   8.470   3.783   5.427
10854TIP3   OH232494   8.457   3.372   5.617
10854TIP3    H132495   8.440   3.363   5.521
10854TIP3    H232496   8.457   3.468   5.631
10855TIP3   OH232497   8.539   3.935   5.955
10855TIP3    H132498   8.478   4.000   5.995
10855TIP3    H232499   8.476   3.885   5.900
10856TIP3   OH232500   8.285   3.502   6.039
10856TIP3    H132501   8.299   3.589   6.080
10856TIP3    H232502   8.199   3.477   6.080
10857TIP3   OH232503   8.634   3.992   4.979
10857TIP3    H132504   8.660   4.080   5.012
10857TIP3    H232505   8.570   4.014   4.910
10858TIP3   OH232506   8.336   4.106   6.032
10858TIP3    H132507   8.300   4.112   5.941
10858TIP3    H232508   8.256   4.084   6.084
10859TIP3   OH232509   8.138   3.253   5.060
10859TIP3    H132510   8.070   3.299   5.006
10859TIP3    H232511   8.087   3.177   5.093
10860TIP3   OH232512   7.914   3.640   5.976
10860TIP3    H132513   7.844   3.626   5.909
10860TIP3    H232514   7.946   3.549   5.993
10861TIP3   OH232515   7.768   3.834   5.613
10861TIP3    H132516   7.864   3.836   5.603
10861TIP3    H232517   7.752   3.917   5.661
10862TIP3   OH232518   8.728   4.048   5.793
10862TIP3    H132519   8.735   4.141   5.825
10862TIP3    H232520   8.657   4.015   5.853
10863TIP3   OH232521   8.505   4.196   4.749
10863TIP3    H132522   8.454   4.185   4.666
10863TIP3    H232523   8.471   4.282   4.782
10864TIP3   OH232524   7.945   4.052   5.136
10864TIP3    H132525   7.984   4.041   5.225
10864TIP3    H232526   7.895   3.967   5.129
10865TIP3   OH232527   8.769   4.158   4.680
10865TIP3    H132528   8.679   4.174   4.711
10865TIP3    H232529   8.783   4.065   4.708
10866TIP3   OH232530   8.121   3.819   5.960
10866TIP3    H132531   8.167   3.807   6.045
10866TIP3    H232532   8.045   3.759   5.969
10867TIP3   OH232533   8.494   2.677   5.790
10867TIP3    H132534   8.409   2.635   5.767
10867TIP3    H232535   8.519   2.716   5.705
10868TIP3   OH232536   8.407   3.171   5.782
10868TIP3    H132537   8.343   3.240   5.809
10868TIP3    H232538   8.448   3.223   5.708
10869TIP3   OH232539   8.337   3.041   5.282
10869TIP3    H132540   8.244   3.016   5.302
10869TIP3    H232541   8.348   3.002   5.193
10870TIP3   OH232542   8.297   2.618   4.673
10870TIP3    H132543   8.301   2.646   4.765
10870TIP3    H232544   8.247   2.692   4.633
10871TIP3   OH232545   7.865   2.709   5.556
10871TIP3    H132546   7.934   2.745   5.615
10871TIP3    H232547   7.913   2.679   5.478
10872TIP3   OH232548   7.830   2.694   5.075
10872TIP3    H132549   7.875   2.733   4.997
10872TIP3    H232550   7.769   2.767   5.097
10873TIP3   OH232551   8.091   2.932   5.342
10873TIP3    H132552   7.996   2.941   5.320
10873TIP3    H232553   8.110   2.838   5.328
10874TIP3   OH232554   8.374   2.927   5.033
10874TIP3    H132555   8.454   2.947   4.983
10874TIP3    H232556   8.306   2.940   4.962
10875TIP3   OH232557   8.215   2.944   4.819
10875TIP3    H132558   8.142   2.905   4.768
10875TIP3    H232559   8.267   2.985   4.747
10876TIP3   OH232560   8.285   3.744   6.185
10876TIP3    H132561   8.363   3.774   6.235
10876TIP3    H232562   8.218   3.742   6.257
10877TIP3   OH232563   8.257   2.686   5.321
10877TIP3    H132564   8.224   2.613   5.379
10877TIP3    H232565   8.299   2.636   5.250
10878TIP3   OH232566   8.685   3.093   5.857
10878TIP3    H132567   8.641   3.074   5.773
10878TIP3    H232568   8.759   3.149   5.826
10879TIP3   OH232569   8.430   3.511   4.827
10879TIP3    H132570   8.380   3.427   4.822
10879TIP3    H232571   8.434   3.528   4.923
10880TIP3   OH232572   8.819   3.772   5.862
10880TIP3    H132573   8.857   3.779   5.951
10880TIP3    H232574   8.793   3.863   5.844
10881TIP3   OH232575   8.183   3.513   5.513
10881TIP3    H132576   8.194   3.491   5.418
10881TIP3    H232577   8.138   3.434   5.544
10882TIP3   OH232578   8.561   3.630   4.618
10882TIP3    H132579   8.537   3.721   4.645
10882TIP3    H232580   8.535   3.580   4.698
10883TIP3   OH232581   8.034   3.418   6.111
10883TIP3    H132582   8.050   3.405   6.206
10883TIP3    H232583   7.957   3.361   6.095
10884TIP3   OH232584   8.763   3.542   6.131
10884TIP3    H132585   8.727   3.511   6.045
10884TIP3    H232586   8.857   3.519   6.124
10885TIP3   OH232587   8.252   3.813   5.129
10885TIP3    H132588   8.246   3.893   5.073
10885TIP3    H232589   8.158   3.791   5.139
10886TIP3   OH232590   7.818   3.116   4.833
10886TIP3    H132591   7.861   3.202   4.853
10886TIP3    H232592   7.740   3.119   4.894
10887TIP3   OH232593   8.403   3.581   5.090
10887TIP3    H132594   8.359   3.668   5.095
10887TIP3    H232595   8.349   3.528   5.152
10888TIP3   OH232596   8.520   4.153   5.595
10888TIP3    H132597   8.555   4.230   5.546
10888TIP3    H232598   8.599   4.124   5.644
10889TIP3   OH232599   8.170   4.052   4.977
10889TIP3    H132600   8.086   4.061   5.026
10889TIP3    H232601   8.203   4.144   4.981
10890TIP3   OH232602   7.962   4.017   5.750
10890TIP3    H132603   8.015   3.948   5.792
10890TIP3    H232604   7.980   4.093   5.807
10891TIP3   OH232605   8.243   3.663   4.437
10891TIP3    H132606   8.250   3.569   4.414
10891TIP3    H232607   8.228   3.658   4.534
10892TIP3   OH232608   8.200   3.667   4.706
10892TIP3    H132609   8.278   3.633   4.754
10892TIP3    H232610   8.203   3.763   4.724
10893TIP3   OH232611   7.938   3.359   4.903
10893TIP3    H132612   7.873   3.409   4.957
10893TIP3    H232613   7.948   3.424   4.831
10894TIP3   OH232614   8.462   3.878   4.662
10894TIP3    H132615   8.372   3.898   4.695
10894TIP3    H232616   8.486   3.962   4.621
10895TIP3   OH232617   8.203   3.942   4.728
10895TIP3    H132618   8.168   4.014   4.671
10895TIP3    H232619   8.188   3.980   4.817
10896TIP3   OH232620   8.315   2.662   4.958
10896TIP3    H132621   8.296   2.744   5.008
10896TIP3    H232622   8.398   2.690   4.914
10897TIP3   OH232623   7.925   3.564   4.713
10897TIP3    H132624   7.992   3.632   4.734
10897TIP3    H232625   7.972   3.515   4.643
10898TIP3   OH232626   7.863   2.846   4.847
10898TIP3    H132627   7.868   2.944   4.849
10898TIP3    H232628   7.772   2.833   4.819
10899TIP3   OH232629   8.245   2.566   5.722
10899TIP3    H132630   8.226   2.529   5.633
10899TIP3    H232631   8.236   2.487   5.779
10900TIP3   OH232632   7.805   3.817   5.115
10900TIP3    H132633   7.728   3.822   5.172
10900TIP3    H232634   7.764   3.827   5.026
10901TIP3   OH232635   7.951   4.331   6.178
10901TIP3    H132636   8.038   4.332   6.224
10901TIP3    H232637   7.931   4.236   6.176
10902TIP3   OH232638   8.427   4.285   6.225
10902TIP3    H132639   8.523   4.271   6.227
10902TIP3    H232640   8.400   4.226   6.152
10903TIP3   OH232641   8.407   3.862   4.349
10903TIP3    H132642   8.345   3.794   4.382
10903TIP3    H232643   8.491   3.826   4.380
10904TIP3   OH232644   8.080   3.735   6.376
10904TIP3    H132645   8.094   3.640   6.388
10904TIP3    H232646   7.994   3.738   6.330
10905TIP3   OH232647   8.067   3.381   4.566
10905TIP3    H132648   8.116   3.354   4.646
10905TIP3    H232649   8.140   3.387   4.502
10906TIP3   OH232650   8.701   3.822   6.148
10906TIP3    H132651   8.648   3.843   6.068
10906TIP3    H232652   8.710   3.724   6.142
10907TIP3   OH232653   8.554   3.561   4.362
10907TIP3    H132654   8.572   3.595   4.452
10907TIP3    H232655   8.476   3.507   4.382
10908TIP3   OH232656   8.209   3.464   6.351
10908TIP3    H132657   8.289   3.415   6.326
10908TIP3    H232658   8.233   3.496   6.441
10909TIP3   OH232659   8.263   3.287   4.790
10909TIP3    H132660   8.230   3.251   4.874
10909TIP3    H232661   8.305   3.210   4.747
10910TIP3   OH232662   8.484   3.310   6.019
10910TIP3    H132663   8.419   3.378   6.046
10910TIP3    H232664   8.552   3.368   5.974
10911TIP3   OH232665   8.369   3.074   4.632
10911TIP3    H132666   8.333   3.088   4.543
10911TIP3    H232667   8.462   3.052   4.608
10912TIP3   OH232668   8.660   3.463   5.884
10912TIP3    H132669   8.722   3.451   5.811
10912TIP3    H232670   8.596   3.523   5.841
10913TIP3   OH232671   8.447   3.286   6.309
10913TIP3    H132672   8.425   3.203   6.351
10913TIP3    H232673   8.540   3.303   6.341
10914TIP3   OH232674   8.384   3.031   6.407
10914TIP3    H132675   8.377   2.935   6.391
10914TIP3    H232676   8.417   3.029   6.501
10915TIP3   OH232677   8.165   4.157   4.546
10915TIP3    H132678   8.259   4.142   4.524
10915TIP3    H232679   8.127   4.179   4.461
10916TIP3   OH232680   7.645   3.538   4.709
10916TIP3    H132681   7.735   3.555   4.743
10916TIP3    H232682   7.648   3.441   4.694
10917TIP3   OH232683   7.572   4.138   5.168
10917TIP3    H132684   7.505   4.077   5.131
10917TIP3    H232685   7.615   4.081   5.234
10918TIP3   OH232686   7.698   3.990   5.361
10918TIP3    H132687   7.688   3.916   5.422
10918TIP3    H232688   7.753   4.050   5.414
10919TIP3   OH232689   7.900   3.384   5.737
10919TIP3    H132690   7.897   3.361   5.642
10919TIP3    H232691   7.996   3.381   5.752
10920TIP3   OH232692   8.109   3.079   6.405
10920TIP3    H132693   8.206   3.075   6.400
10920TIP3    H232694   8.088   2.992   6.444
10921TIP3   OH232695   8.063   2.774   5.734
10921TIP3    H132696   8.124   2.697   5.738
10921TIP3    H232697   8.128   2.847   5.735
10922TIP3   OH232698   7.868   3.049   5.803
10922TIP3    H132699   7.920   3.041   5.720
10922TIP3    H232700   7.888   3.139   5.829
10923TIP3   OH232701   7.856   2.542   5.298
10923TIP3    H132702   7.766   2.541   5.334
10923TIP3    H232703   7.848   2.608   5.225
10924TIP3   OH232704   8.070   2.624   6.116
10924TIP3    H132705   8.020   2.629   6.199
10924TIP3    H232706   8.008   2.668   6.054
10925TIP3   OH232707   8.117   4.056   6.193
10925TIP3    H132708   8.023   4.036   6.179
10925TIP3    H232709   8.126   4.045   6.289
10926TIP3   OH232710   8.297   4.092   5.744
10926TIP3    H132711   8.246   4.166   5.706
10926TIP3    H232712   8.382   4.109   5.698
10927TIP3   OH232713   8.728   4.317   5.884
10927TIP3    H132714   8.774   4.328   5.970
10927TIP3    H232715   8.776   4.380   5.827
10928TIP3   OH232716   8.870   4.488   5.707
10928TIP3    H132717   8.916   4.485   5.623
10928TIP3    H232718   8.905   4.570   5.746
10929TIP3   OH232719   7.970   4.349   5.772
10929TIP3    H132720   7.880   4.377   5.747
10929TIP3    H232721   7.982   4.402   5.852
10930TIP3   OH232722   8.204   4.324   5.627
10930TIP3    H132723   8.117   4.338   5.672
10930TIP3    H232724   8.185   4.359   5.538
10931TIP3   OH232725   8.603   4.362   5.429
10931TIP3    H132726   8.528   4.376   5.366
10931TIP3    H232727   8.615   4.453   5.463
10932TIP3   OH232728   8.853   4.259   5.406
10932TIP3    H132729   8.764   4.297   5.413
10932TIP3    H232730   8.909   4.335   5.434
10933TIP3   OH232731   7.882   4.144   5.511
10933TIP3    H132732   7.907   4.116   5.602
10933TIP3    H232733   7.954   4.099   5.460
10934TIP3   OH232734   8.076   4.016   5.373
10934TIP3    H132735   8.091   3.933   5.423
10934TIP3    H232736   8.167   4.052   5.368
10935TIP3   OH232737   8.342   4.109   5.375
10935TIP3    H132738   8.371   4.016   5.366
10935TIP3    H232739   8.389   4.132   5.457
10936TIP3   OH232740   8.166   2.473   5.467
10936TIP3    H132741   8.075   2.438   5.476
10936TIP3    H232742   8.215   2.388   5.462
10937TIP3   OH232743   7.955   2.346   5.115
10937TIP3    H132744   7.980   2.410   5.046
10937TIP3    H232745   7.926   2.406   5.187
10938TIP3   OH232746   7.672   3.912   4.895
10938TIP3    H132747   7.585   3.880   4.865
10938TIP3    H232748   7.659   4.007   4.885
10939TIP3   OH232749   8.070   2.504   4.888
10939TIP3    H132750   8.114   2.449   4.821
10939TIP3    H232751   8.143   2.560   4.920
10940TIP3   OH232752   8.427   4.104   4.485
10940TIP3    H132753   8.521   4.114   4.458
10940TIP3    H232754   8.406   4.025   4.431
10941TIP3   OH232755   8.395   2.757   6.391
10941TIP3    H132756   8.346   2.688   6.440
10941TIP3    H232757   8.482   2.717   6.382
10942TIP3   OH232758   7.747   3.949   4.540
10942TIP3    H132759   7.736   3.957   4.636
10942TIP3    H232760   7.832   3.901   4.532
10943TIP3   OH232761   1.310   4.270   6.733
10943TIP3    H132762   1.279   4.361   6.712
10943TIP3    H232763   1.234   4.218   6.701
10944TIP3   OH232764   1.307   4.272   7.121
10944TIP3    H132765   1.344   4.246   7.207
10944TIP3    H232766   1.268   4.189   7.090
10945TIP3   OH232767   0.631   4.158   7.442
10945TIP3    H132768   0.622   4.096   7.515
10945TIP3    H232769   0.713   4.204   7.464
10946TIP3   OH232770   1.554   4.573   6.801
10946TIP3    H132771   1.539   4.504   6.866
10946TIP3    H232772   1.586   4.647   6.855
10947TIP3   OH232773   0.596   4.575   7.199
10947TIP3    H132774   0.579   4.478   7.195
10947TIP3    H232775   0.690   4.577   7.174
10948TIP3   OH232776   0.354   4.062   7.130
10948TIP3    H132777   0.398   4.008   7.197
10948TIP3    H232778   0.422   4.126   7.107
10949TIP3   OH232779   1.204   5.026   6.824
10949TIP3    H132780   1.245   4.960   6.763
10949TIP3    H232781   1.209   4.979   6.908
10950TIP3   OH232782   1.108   4.497   7.165
10950TIP3    H132783   1.149   4.418   7.125
10950TIP3    H232784   1.191   4.544   7.190
10951TIP3   OH232785   2.122   3.815   7.163
10951TIP3    H132786   2.153   3.898   7.205
10951TIP3    H232787   2.147   3.831   7.070
10952TIP3   OH232788   1.519   3.997   7.194
10952TIP3    H132789   1.563   3.913   7.217
10952TIP3    H232790   1.488   3.978   7.103
10953TIP3   OH232791   0.863   3.656   7.161
10953TIP3    H132792   0.843   3.728   7.097
10953TIP3    H232793   0.816   3.582   7.117
10954TIP3   OH232794   1.555   3.749   6.781
10954TIP3    H132795   1.625   3.734   6.848
10954TIP3    H232796   1.610   3.783   6.707
10955TIP3   OH232797   0.498   3.863   7.267
10955TIP3    H132798   0.577   3.850   7.322
10955TIP3    H232799   0.523   3.814   7.187
10956TIP3   OH232800   0.935   4.054   7.054
10956TIP3    H132801   1.029   4.030   7.071
10956TIP3    H232802   0.897   3.969   7.027
10957TIP3   OH232803   2.197   4.024   7.332
10957TIP3    H132804   2.111   4.069   7.315
10957TIP3    H232805   2.214   4.054   7.423
10958TIP3   OH232806   0.854   3.628   7.591
10958TIP3    H132807   0.798   3.677   7.527
10958TIP3    H232808   0.806   3.639   7.673
10959TIP3   OH232809   1.194   4.489   6.605
10959TIP3    H132810   1.158   4.479   6.516
10959TIP3    H232811   1.152   4.573   6.633
10960TIP3   OH232812   0.965   4.420   7.389
10960TIP3    H132813   0.907   4.487   7.430
10960TIP3    H232814   1.006   4.469   7.314
10961TIP3   OH232815   1.759   3.754   6.959
10961TIP3    H132816   1.747   3.708   7.043
10961TIP3    H232817   1.812   3.831   6.985
10962TIP3   OH232818   0.733   3.754   7.380
10962TIP3    H132819   0.793   3.829   7.404
10962TIP3    H232820   0.783   3.717   7.304
10963TIP3   OH232821   0.789   4.603   7.504
10963TIP3    H132822   0.757   4.671   7.444
10963TIP3    H232823   0.707   4.570   7.543
10964TIP3   OH232824   1.621   4.820   6.965
10964TIP3    H132825   1.531   4.809   7.003
10964TIP3    H232826   1.611   4.905   6.918
10965TIP3   OH232827   1.915   3.714   7.328
10965TIP3    H132828   1.829   3.742   7.295
10965TIP3    H232829   1.977   3.748   7.259
10966TIP3   OH232830   1.209   3.351   7.309
10966TIP3    H132831   1.195   3.257   7.330
10966TIP3    H232832   1.133   3.391   7.355
10967TIP3   OH232833   1.321   4.859   6.636
10967TIP3    H132834   1.370   4.777   6.617
10967TIP3    H232835   1.384   4.925   6.596
10968TIP3   OH232836   1.465   4.645   6.550
10968TIP3    H132837   1.434   4.564   6.507
10968TIP3    H232838   1.503   4.611   6.634
10969TIP3   OH232839   1.847   4.726   7.309
10969TIP3    H132840   1.835   4.649   7.249
10969TIP3    H232841   1.830   4.801   7.248
10970TIP3   OH232842   1.141   4.121   6.568
10970TIP3    H132843   1.062   4.176   6.546
10970TIP3    H232844   1.188   4.119   6.482
10971TIP3   OH232845   1.098   3.909   6.278
10971TIP3    H132846   1.164   3.961   6.327
10971TIP3    H232847   1.158   3.846   6.232
10972TIP3   OH232848   2.042   4.367   7.155
10972TIP3    H132849   1.958   4.418   7.158
10972TIP3    H232850   2.074   4.391   7.065
10973TIP3   OH232851   1.489   4.204   6.536
10973TIP3    H132852   1.435   4.227   6.615
10973TIP3    H232853   1.574   4.180   6.579
10974TIP3   OH232854   1.722   4.242   7.453
10974TIP3    H132855   1.719   4.325   7.504
10974TIP3    H232856   1.635   4.246   7.408
10975TIP3   OH232857   0.723   4.198   6.956
10975TIP3    H132858   0.682   4.139   6.889
10975TIP3    H232859   0.801   4.145   6.984
10976TIP3   OH232860   0.857   4.611   7.100
10976TIP3    H132861   0.841   4.580   7.009
10976TIP3    H232862   0.946   4.576   7.118
10977TIP3   OH232863   0.892   4.167   7.308
10977TIP3    H132864   0.908   4.150   7.213
10977TIP3    H232865   0.919   4.260   7.319
10978TIP3   OH232866   1.379   4.812   7.086
10978TIP3    H132867   1.372   4.890   7.143
10978TIP3    H232868   1.365   4.738   7.149
10979TIP3   OH232869   1.001   4.726   7.632
10979TIP3    H132870   0.940   4.788   7.677
10979TIP3    H232871   0.935   4.668   7.588
10980TIP3   OH232872   1.325   4.065   6.363
10980TIP3    H132873   1.385   4.124   6.413
10980TIP3    H232874   1.352   4.084   6.270
10981TIP3   OH232875   0.734   4.260   7.717
10981TIP3    H132876   0.740   4.348   7.762
10981TIP3    H232877   0.639   4.257   7.699
10982TIP3   OH232878   1.071   4.742   6.641
10982TIP3    H132879   1.155   4.791   6.648
10982TIP3    H232880   1.015   4.805   6.595
10983TIP3   OH232881   0.790   4.888   7.697
10983TIP3    H132882   0.755   4.899   7.606
10983TIP3    H232883   0.710   4.890   7.751
10984TIP3   OH232884   1.844   3.301   6.413
10984TIP3    H132885   1.762   3.324   6.462
10984TIP3    H232886   1.859   3.384   6.363
10985TIP3   OH232887   0.598   4.037   6.759
10985TIP3    H132888   0.533   4.078   6.698
10985TIP3    H232889   0.558   3.952   6.777
10986TIP3   OH232890   1.644   4.668   5.962
10986TIP3    H132891   1.653   4.765   5.946
10986TIP3    H232892   1.737   4.638   5.949
10987TIP3   OH232893   2.083   5.074   7.357
10987TIP3    H132894   2.084   4.978   7.371
10987TIP3    H232895   2.000   5.098   7.404
10988TIP3   OH232896   1.191   4.858   7.486
10988TIP3    H132897   1.188   4.951   7.520
10988TIP3    H232898   1.122   4.816   7.542
10989TIP3   OH232899   0.955   4.983   6.445
10989TIP3    H132900   0.909   4.974   6.359
10989TIP3    H232901   0.927   5.072   6.474
10990TIP3   OH232902   1.154   4.889   6.079
10990TIP3    H132903   1.214   4.819   6.044
10990TIP3    H232904   1.189   4.901   6.170
10991TIP3   OH232905   1.204   4.937   6.348
10991TIP3    H132906   1.117   4.947   6.392
10991TIP3    H232907   1.259   4.905   6.422
10992TIP3   OH232908   1.973   4.201   7.631
10992TIP3    H132909   1.891   4.210   7.580
10992TIP3    H232910   1.992   4.106   7.622
10993TIP3   OH232911   0.973   3.433   7.431
10993TIP3    H132912   0.884   3.401   7.403
10993TIP3    H232913   0.946   3.514   7.479
10994TIP3   OH232914   1.510   3.556   7.618
10994TIP3    H132915   1.582   3.520   7.675
10994TIP3    H232916   1.428   3.533   7.667
10995TIP3   OH232917   1.741   3.978   7.548
10995TIP3    H132918   1.695   3.974   7.635
10995TIP3    H232919   1.718   4.067   7.515
10996TIP3   OH232920   1.402   4.105   6.108
10996TIP3    H132921   1.369   4.083   6.019
10996TIP3    H232922   1.488   4.148   6.085
10997TIP3   OH232923   1.114   3.483   6.412
10997TIP3    H132924   1.081   3.478   6.504
10997TIP3    H232925   1.077   3.400   6.376
10998TIP3   OH232926   0.906   3.947   7.460
10998TIP3    H132927   0.856   3.971   7.541
10998TIP3    H232928   0.899   4.029   7.406
10999TIP3   OH232929   0.785   3.834   6.973
10999TIP3    H132930   0.690   3.812   6.986
10999TIP3    H232931   0.799   3.795   6.883
11000TIP3   OH232932   1.277   3.920   6.702
11000TIP3    H132933   1.228   3.992   6.657
11000TIP3    H232934   1.334   3.887   6.629
11001TIP3   OH232935   1.464   4.210   7.780
11001TIP3    H132936   1.439   4.129   7.828
11001TIP3    H232937   1.559   4.216   7.801
11002TIP3   OH232938   1.433   3.948   6.938
11002TIP3    H132939   1.370   3.975   6.867
11002TIP3    H232940   1.470   3.868   6.893
11003TIP3   OH232941   0.731   3.977   7.671
11003TIP3    H132942   0.760   4.058   7.717
11003TIP3    H232943   0.658   3.948   7.728
11004TIP3   OH232944   0.771   3.454   6.375
11004TIP3    H132945   0.763   3.456   6.473
11004TIP3    H232946   0.691   3.503   6.349
11005TIP3   OH232947   0.345   3.541   7.225
11005TIP3    H132948   0.415   3.532   7.292
11005TIP3    H232949   0.350   3.457   7.177
11006TIP3   OH232950   0.307   3.534   6.800
11006TIP3    H132951   0.334   3.543   6.707
11006TIP3    H232952   0.305   3.628   6.826
11007TIP3   OH232953   1.445   4.196   7.358
11007TIP3    H132954   1.478   4.124   7.298
11007TIP3    H232955   1.414   4.141   7.433
11008TIP3   OH232956   1.119   3.661   7.033
11008TIP3    H132957   1.040   3.658   7.090
11008TIP3    H232958   1.192   3.649   7.097
11009TIP3   OH232959   0.544   3.701   7.039
11009TIP3    H132960   0.456   3.665   7.054
11009TIP3    H232961   0.596   3.619   7.023
11010TIP3   OH232962   0.813   3.709   6.731
11010TIP3    H132963   0.908   3.723   6.712
11010TIP3    H232964   0.769   3.732   6.645
11011TIP3   OH232965   1.607   3.736   7.237
11011TIP3    H132966   1.573   3.750   7.329
11011TIP3    H232967   1.541   3.674   7.202
11012TIP3   OH232968   0.661   3.748   6.504
11012TIP3    H132969   0.596   3.702   6.447
11012TIP3    H232970   0.718   3.788   6.435
11013TIP3   OH232971   1.780   5.425   7.457
11013TIP3    H132972   1.774   5.447   7.362
11013TIP3    H232973   1.862   5.471   7.482
11014TIP3   OH232974   0.718   4.511   7.838
11014TIP3    H132975   0.802   4.556   7.859
11014TIP3    H232976   0.664   4.543   7.912
11015TIP3   OH232977   1.196   3.988   7.130
11015TIP3    H132978   1.270   3.949   7.082
11015TIP3    H232979   1.201   3.943   7.217
11016TIP3   OH232980   0.713   3.477   7.015
11016TIP3    H132981   0.677   3.399   7.062
11016TIP3    H232982   0.763   3.435   6.944
11017TIP3   OH232983   1.174   3.889   7.414
11017TIP3    H132984   1.085   3.925   7.431
11017TIP3    H232985   1.232   3.949   7.465
11018TIP3   OH232986   0.909   4.274   6.513
11018TIP3    H132987   0.837   4.208   6.502
11018TIP3    H232988   0.890   4.307   6.604
11019TIP3   OH232989   1.808   4.511   7.142
11019TIP3    H132990   1.833   4.562   7.062
11019TIP3    H232991   1.725   4.467   7.114
11020TIP3   OH232992   1.367   3.583   6.383
11020TIP3    H132993   1.271   3.565   6.390
11020TIP3    H232994   1.375   3.678   6.407
11021TIP3   OH232995   1.305   4.592   7.513
11021TIP3    H132996   1.341   4.574   7.601
11021TIP3    H232997   1.273   4.683   7.520
11022TIP3   OH232998   1.436   3.835   6.484
11022TIP3    H132999   1.532   3.840   6.499
11022TIP3    H233000   1.419   3.916   6.432
11023TIP3   OH233001   0.600   4.297   7.192
11023TIP3    H133002   0.650   4.253   7.120
11023TIP3    H233003   0.614   4.237   7.268
11024TIP3   OH233004   1.054   4.424   6.336
11024TIP3    H133005   1.005   4.509   6.339
11024TIP3    H233006   1.001   4.370   6.399
11025TIP3   OH233007   1.214   4.334   7.806
11025TIP3    H133008   1.153   4.271   7.765
11025TIP3    H233009   1.301   4.296   7.779
11026TIP3   OH233010   1.467   4.852   7.408
11026TIP3    H133011   1.371   4.852   7.422
11026TIP3    H233012   1.497   4.907   7.483
11027TIP3   OH233013   1.875   3.928   6.319
11027TIP3    H133014   1.814   3.885   6.256
11027TIP3    H233015   1.874   4.018   6.278
11028TIP3   OH233016   2.098   4.786   7.396
11028TIP3    H133017   2.000   4.778   7.388
11028TIP3    H233018   2.125   4.754   7.307
11029TIP3   OH233019   1.580   4.745   6.227
11029TIP3    H133020   1.553   4.676   6.288
11029TIP3    H233021   1.594   4.698   6.143
11030TIP3   OH233022   1.575   4.374   7.059
11030TIP3    H133023   1.481   4.349   7.072
11030TIP3    H233024   1.609   4.293   7.015
11031TIP3   OH233025   0.711   4.605   6.820
11031TIP3    H133026   0.705   4.682   6.761
11031TIP3    H233027   0.619   4.595   6.847
11032TIP3   OH233028   0.273   3.913   6.531
11032TIP3    H133029   0.331   3.990   6.548
11032TIP3    H233030   0.188   3.949   6.555
11033TIP3   OH233031   0.835   4.362   6.756
11033TIP3    H133032   0.804   4.453   6.777
11033TIP3    H233033   0.803   4.312   6.834
11034TIP3   OH233034   0.982   4.944   7.286
11034TIP3    H133035   1.024   5.016   7.233
11034TIP3    H233036   1.059   4.908   7.332
11035TIP3   OH233037   0.620   4.843   6.673
11035TIP3    H133038   0.539   4.871   6.717
11035TIP3    H233039   0.668   4.929   6.670
11036TIP3   OH233040   1.359   4.579   7.245
11036TIP3    H133041   1.348   4.575   7.342
11036TIP3    H233042   1.438   4.524   7.232
11037TIP3   OH233043   1.339   4.474   6.129
11037TIP3    H133044   1.393   4.447   6.207
11037TIP3    H233045   1.251   4.445   6.159
11038TIP3   OH233046   1.608   5.116   7.287
11038TIP3    H133047   1.527   5.062   7.280
11038TIP3    H233048   1.593   5.182   7.216
11039TIP3   OH233049   1.675   4.944   5.946
11039TIP3    H133050   1.713   5.019   5.897
11039TIP3    H233051   1.594   4.988   5.981
11040TIP3   OH233052   1.499   4.406   6.344
11040TIP3    H133053   1.489   4.338   6.415
11040TIP3    H233054   1.596   4.401   6.331
11041TIP3   OH233055   0.701   4.449   6.124
11041TIP3    H133056   0.716   4.356   6.102
11041TIP3    H233057   0.680   4.443   6.220
11042TIP3   OH233058   0.650   4.458   6.400
11042TIP3    H133059   0.729   4.432   6.450
11042TIP3    H233060   0.655   4.556   6.406
11043TIP3   OH233061   0.398   4.142   6.607
11043TIP3    H133062   0.350   4.193   6.673
11043TIP3    H233063   0.409   4.211   6.537
11044TIP3   OH233064   1.531   3.797   7.496
11044TIP3    H133065   1.617   3.831   7.527
11044TIP3    H233066   1.523   3.712   7.546
11045TIP3   OH233067   1.414   3.534   6.664
11045TIP3    H133068   1.402   3.556   6.570
11045TIP3    H233069   1.454   3.617   6.699
11046TIP3   OH233070   0.912   4.654   6.346
11046TIP3    H133071   0.826   4.680   6.384
11046TIP3    H233072   0.931   4.732   6.293
11047TIP3   OH233073   1.094   3.721   6.764
11047TIP3    H133074   1.160   3.792   6.746
11047TIP3    H233075   1.104   3.710   6.861
11048TIP3   OH233076   1.369   4.031   7.561
11048TIP3    H133077   1.390   4.074   7.645
11048TIP3    H233078   1.422   3.949   7.565
11049TIP3   OH233079   1.242   3.438   6.861
11049TIP3    H133080   1.243   3.513   6.924
11049TIP3    H233081   1.304   3.472   6.793
11050TIP3   OH233082   0.658   4.729   6.420
11050TIP3    H133083   0.630   4.797   6.354
11050TIP3    H233084   0.641   4.775   6.504
11051TIP3   OH233085   0.757   3.445   6.653
11051TIP3    H133086   0.757   3.535   6.691
11051TIP3    H233087   0.853   3.425   6.661
11052TIP3   OH233088   2.007   3.937   7.550
11052TIP3    H133089   1.909   3.935   7.555
11052TIP3    H233090   2.022   3.888   7.468
11053TIP3   OH233091   1.660   4.130   6.939
11053TIP3    H133092   1.585   4.070   6.951
11053TIP3    H233093   1.733   4.084   6.987
11054TIP3   OH233094   0.382   4.359   6.443
11054TIP3    H133095   0.461   4.417   6.435
11054TIP3    H233096   0.394   4.307   6.361
11055TIP3   OH233097   0.298   3.636   6.547
11055TIP3    H133098   0.304   3.733   6.545
11055TIP3    H233099   0.270   3.617   6.455
11056TIP3   OH233100   1.627   5.092   6.887
11056TIP3    H133101   1.584   5.134   6.809
11056TIP3    H233102   1.722   5.108   6.865
11057TIP3   OH233103   0.708   3.350   7.411
11057TIP3    H133104   0.680   3.317   7.323
11057TIP3    H233105   0.696   3.270   7.466
11058TIP3   OH233106   0.857   5.089   7.884
11058TIP3    H133107   0.937   5.099   7.938
11058TIP3    H233108   0.882   5.018   7.823
11059TIP3   OH233109   0.863   4.653   6.035
11059TIP3    H133110   0.807   4.581   6.073
11059TIP3    H233111   0.940   4.602   6.006
11060TIP3   OH233112   1.523   4.993   7.638
11060TIP3    H133113   1.510   4.916   7.698
11060TIP3    H233114   1.601   5.038   7.676
11061TIP3   OH233115   1.299   4.691   5.951
11061TIP3    H133116   1.341   4.628   6.012
11061TIP3    H233117   1.358   4.688   5.873
11062TIP3   OH233118   0.508   4.172   6.268
11062TIP3    H133119   0.569   4.146   6.339
11062TIP3    H233120   0.571   4.176   6.193
11063TIP3   OH233121   1.149   4.606   7.832
11063TIP3    H133122   1.115   4.631   7.744
11063TIP3    H233123   1.178   4.513   7.817
11064TIP3   OH233124   1.023   4.370   6.068
11064TIP3    H133125   1.026   4.382   6.165
11064TIP3    H233126   1.024   4.273   6.062
11065TIP3   OH233127   1.631   4.622   7.449
11065TIP3    H133128   1.709   4.661   7.404
11065TIP3    H233129   1.563   4.690   7.430
11066TIP3   OH233130   0.714   4.077   6.480
11066TIP3    H133131   0.697   4.034   6.565
11066TIP3    H233132   0.754   4.005   6.428
11067TIP3   OH233133   0.990   4.142   7.711
11067TIP3    H133134   0.909   4.196   7.706
11067TIP3    H233135   1.041   4.173   7.633
11068TIP3   OH233136   0.821   3.874   6.323
11068TIP3    H133137   0.797   3.881   6.228
11068TIP3    H233138   0.919   3.873   6.316
11069TIP3   OH233139   1.508   4.536   7.845
11069TIP3    H133140   1.582   4.509   7.789
11069TIP3    H233141   1.504   4.464   7.910
11070TIP3   OH233142   1.636   4.198   5.991
11070TIP3    H133143   1.620   4.155   5.904
11070TIP3    H233144   1.602   4.288   5.969
11071TIP3   OH233145   1.103   3.922   7.835
11071TIP3    H133146   1.096   3.847   7.772
11071TIP3    H233147   1.049   3.992   7.793
11072TIP3   OH233148   1.105   3.726   7.637
11072TIP3    H133149   1.134   3.771   7.555
11072TIP3    H233150   1.013   3.701   7.615
11073TIP3   OH233151   1.139   4.250   7.516
11073TIP3    H133152   1.224   4.261   7.472
11073TIP3    H233153   1.083   4.315   7.468
11074TIP3   OH233154   1.731   4.208   7.890
11074TIP3    H133155   1.767   4.119   7.905
11074TIP3    H233156   1.807   4.253   7.851
11075TIP3   OH233157   1.760   4.472   7.632
11075TIP3    H133158   1.703   4.528   7.573
11075TIP3    H233159   1.848   4.492   7.595
11076TIP3   OH233160   1.246   3.485   7.670
11076TIP3    H133161   1.197   3.571   7.660
11076TIP3    H233162   1.174   3.421   7.658
11077TIP3   OH233163   1.361   3.979   7.883
11077TIP3    H133164   1.342   4.020   7.969
11077TIP3    H233165   1.270   3.948   7.859
11078TIP3   OH233166   1.620   3.938   7.785
11078TIP3    H133167   1.534   3.930   7.831
11078TIP3    H233168   1.684   3.913   7.855
11079TIP3   OH233169   1.825   3.901   7.972
11079TIP3    H133170   1.858   3.809   7.963
11079TIP3    H233171   1.819   3.908   8.070
11080TIP3   OH233172   1.266   3.326   7.902
11080TIP3    H133173   1.314   3.375   7.973
11080TIP3    H233174   1.268   3.390   7.830
11081TIP3   OH233175   0.629   4.921   6.225
11081TIP3    H133176   0.725   4.922   6.206
11081TIP3    H233177   0.597   4.983   6.158
11082TIP3   OH233178   1.884   5.173   6.848
11082TIP3    H133179   1.913   5.207   6.935
11082TIP3    H233180   1.945   5.218   6.787
11083TIP3   OH233181   1.915   5.194   7.131
11083TIP3    H133182   1.869   5.107   7.124
11083TIP3    H233183   1.990   5.168   7.186
11084TIP3   OH233184   1.957   4.878   7.702
11084TIP3    H133185   1.885   4.885   7.768
11084TIP3    H233186   2.001   4.964   7.709
11085TIP3   OH233187   1.776   4.386   6.320
11085TIP3    H133188   1.842   4.451   6.288
11085TIP3    H233189   1.822   4.349   6.399
11086TIP3   OH233190   1.904   4.254   6.525
11086TIP3    H133191   1.837   4.213   6.584
11086TIP3    H233192   1.970   4.289   6.588
11087TIP3   OH233193   1.960   4.648   6.956
11087TIP3    H133194   2.012   4.579   6.910
11087TIP3    H233195   1.958   4.720   6.890
11088TIP3   OH233196   1.787   4.946   7.150
11088TIP3    H133197   1.714   4.989   7.199
11088TIP3    H233198   1.740   4.900   7.077
11089TIP3   OH233199   1.841   4.162   6.169
11089TIP3    H133200   1.770   4.163   6.102
11089TIP3    H233201   1.812   4.238   6.224
11090TIP3   OH233202   1.709   3.836   6.125
11090TIP3    H133203   1.671   3.870   6.043
11090TIP3    H233204   1.687   3.741   6.118
11091TIP3   OH233205   1.715   4.113   6.670
11091TIP3    H133206   1.725   4.017   6.661
11091TIP3    H233207   1.701   4.124   6.766
11092TIP3   OH233208   2.007   4.537   7.529
11092TIP3    H133209   2.077   4.469   7.519
11092TIP3    H233210   2.033   4.603   7.462
11093TIP3   OH233211   2.189   4.338   7.538
11093TIP3    H133212   2.115   4.286   7.577
11093TIP3    H233213   2.263   4.276   7.555
11094TIP3   OH233214   1.655   3.570   6.109
11094TIP3    H133215   1.730   3.537   6.163
11094TIP3    H233216   1.583   3.508   6.129
11095TIP3   OH233217   1.714   3.828   6.561
11095TIP3    H133218   1.755   3.739   6.576
11095TIP3    H233219   1.772   3.861   6.490
11096TIP3   OH233220   1.873   3.999   7.059
11096TIP3    H133221   1.959   4.023   7.017
11096TIP3    H233222   1.889   4.035   7.148
11097TIP3   OH233223   1.946   4.145   7.289
11097TIP3    H133224   1.868   4.179   7.337
11097TIP3    H233225   1.979   4.226   7.245
11098TIP3   OH233226   2.391   3.737   7.843
11098TIP3    H133227   2.460   3.680   7.801
11098TIP3    H233228   2.367   3.797   7.769
11099TIP3   OH233229   1.821   3.579   6.602
11099TIP3    H133230   1.871   3.562   6.685
11099TIP3    H233231   1.761   3.501   6.601
11100TIP3   OH233232   0.535   3.562   7.428
11100TIP3    H133233   0.596   3.485   7.429
11100TIP3    H233234   0.597   3.634   7.407
11101TIP3   OH233235   2.266   3.876   7.642
11101TIP3    H133236   2.180   3.917   7.666
11101TIP3    H233237   2.233   3.803   7.586
11102TIP3   OH233238   1.900   3.509   6.236
11102TIP3    H133239   1.940   3.439   6.181
11102TIP3    H233240   1.968   3.580   6.234
11103TIP3   OH233241   0.331   3.357   7.007
11103TIP3    H133242   0.238   3.349   7.031
11103TIP3    H233243   0.328   3.420   6.932
11104TIP3   OH233244   1.464   5.045   6.502
11104TIP3    H133245   1.521   5.041   6.423
11104TIP3    H233246   1.505   5.118   6.552
11105TIP3   OH233247   0.740   4.895   7.415
11105TIP3    H133248   0.714   4.977   7.369
11105TIP3    H233249   0.833   4.891   7.384
11106TIP3   OH233250   1.187   5.122   7.567
11106TIP3    H133251   1.228   5.122   7.657
11106TIP3    H233252   1.253   5.175   7.518
11107TIP3   OH233253   1.368   5.278   7.434
11107TIP3    H133254   1.439   5.227   7.391
11107TIP3    H233255   1.421   5.335   7.495
11108TIP3   OH233256   2.167   3.635   7.523
11108TIP3    H133257   2.076   3.623   7.492
11108TIP3    H233258   2.202   3.543   7.514
11109TIP3   OH233259   0.656   5.140   7.299
11109TIP3    H133260   0.629   5.234   7.319
11109TIP3    H233261   0.607   5.123   7.219
11110TIP3   OH233262   1.086   5.139   7.120
11110TIP3    H133263   1.038   5.159   7.038
11110TIP3    H233264   1.100   5.229   7.158
11111TIP3   OH233265   1.356   5.085   7.168
11111TIP3    H133266   1.260   5.098   7.151
11111TIP3    H233267   1.394   5.158   7.117
11112TIP3   OH233268   1.563   5.287   7.069
11112TIP3    H133269   1.521   5.351   7.009
11112TIP3    H233270   1.592   5.218   7.005
11113TIP3   OH233271   0.532   4.799   7.054
11113TIP3    H133272   0.543   4.717   7.106
11113TIP3    H233273   0.622   4.835   7.054
11114TIP3   OH233274   0.806   4.902   7.070
11114TIP3    H133275   0.832   4.811   7.046
11114TIP3    H233276   0.861   4.914   7.149
11115TIP3   OH233277   1.364   3.549   7.145
11115TIP3    H133278   1.327   3.478   7.200
11115TIP3    H233279   1.443   3.507   7.107
11116TIP3   OH233280   1.889   3.433   7.053
11116TIP3    H133281   1.926   3.484   6.978
11116TIP3    H233282   1.794   3.453   7.047
11117TIP3   OH233283   1.986   3.532   6.818
11117TIP3    H133284   2.060   3.480   6.780
11117TIP3    H233285   2.021   3.623   6.804
11118TIP3   OH233286   0.615   3.262   7.166
11118TIP3    H133287   0.521   3.233   7.163
11118TIP3    H233288   0.661   3.175   7.161
11119TIP3   OH233289   0.433   3.125   6.825
11119TIP3    H133290   0.449   3.182   6.748
11119TIP3    H233291   0.384   3.184   6.884
11120TIP3   OH233292   1.063   3.296   7.050
11120TIP3    H133293   1.118   3.341   6.985
11120TIP3    H233294   1.099   3.329   7.134
11121TIP3   OH233295   1.603   3.442   7.031
11121TIP3    H133296   1.611   3.399   6.944
11121TIP3    H233297   1.593   3.363   7.089
11122TIP3   OH233298   1.639   3.365   6.594
11122TIP3    H133299   1.552   3.408   6.610
11122TIP3    H233300   1.626   3.279   6.639
11123TIP3   OH233301   0.526   3.288   6.585
11123TIP3    H133302   0.571   3.224   6.527
11123TIP3    H233303   0.602   3.341   6.618
11124TIP3   OH233304   1.033   3.469   6.676
11124TIP3    H133305   1.094   3.421   6.736
11124TIP3    H233306   1.056   3.561   6.702
11125TIP3   OH233307   0.897   4.887   6.176
11125TIP3    H133308   0.986   4.910   6.140
11125TIP3    H233309   0.874   4.813   6.116
11126TIP3   OH233310   1.617   5.013   6.270
11126TIP3    H133311   1.608   4.916   6.261
11126TIP3    H233312   1.569   5.043   6.190
11127TIP3   OH233313   1.937   3.647   7.956
11127TIP3    H133314   1.969   3.583   8.023
11127TIP3    H233315   2.008   3.638   7.889
11128TIP3   OH233316   1.834   5.153   7.460
11128TIP3    H133317   1.759   5.123   7.405
11128TIP3    H233318   1.817   5.249   7.462
11129TIP3   OH233319   3.107   4.528   6.219
11129TIP3    H133320   3.075   4.618   6.197
11129TIP3    H233321   3.032   4.475   6.185
11130TIP3   OH233322   3.106   4.528   6.608
11130TIP3    H133323   3.141   4.502   6.695
11130TIP3    H233324   3.065   4.446   6.577
11131TIP3   OH233325   2.402   4.419   6.971
11131TIP3    H133326   2.431   4.349   7.032
11131TIP3    H233327   2.483   4.471   6.962
11132TIP3   OH233328   3.351   4.832   6.286
11132TIP3    H133329   3.333   4.761   6.349
11132TIP3    H233330   3.382   4.904   6.343
11133TIP3   OH233331   2.377   4.832   6.691
11133TIP3    H133332   2.369   4.734   6.691
11133TIP3    H233333   2.474   4.841   6.685
11134TIP3   OH233334   2.083   4.031   6.473
11134TIP3    H133335   2.036   4.114   6.492
11134TIP3    H233336   2.012   3.980   6.431
11135TIP3   OH233337   2.140   4.320   6.654
11135TIP3    H133338   2.189   4.242   6.687
11135TIP3    H233339   2.200   4.355   6.587
11136TIP3   OH233340   3.004   5.293   6.305
11136TIP3    H133341   3.044   5.222   6.251
11136TIP3    H233342   2.992   5.248   6.390
11137TIP3   OH233343   2.903   4.754   6.652
11137TIP3    H133344   2.943   4.676   6.610
11137TIP3    H233345   2.986   4.801   6.677
11138TIP3   OH233346   3.919   4.072   6.650
11138TIP3    H133347   3.950   4.155   6.692
11138TIP3    H233348   3.941   4.089   6.557
11139TIP3   OH233349   3.317   4.253   6.681
11139TIP3    H133350   3.359   4.168   6.703
11139TIP3    H233351   3.284   4.235   6.591
11140TIP3   OH233352   2.658   3.913   6.647
11140TIP3    H133353   2.637   3.985   6.584
11140TIP3    H233354   2.609   3.839   6.604
11141TIP3   OH233355   3.351   4.006   6.268
11141TIP3    H133356   3.422   3.990   6.335
11141TIP3    H233357   3.405   4.040   6.194
11142TIP3   OH233358   2.288   4.114   6.755
11142TIP3    H133359   2.371   4.096   6.803
11142TIP3    H233360   2.303   4.059   6.675
11143TIP3   OH233361   2.727   4.312   6.553
11143TIP3    H133362   2.822   4.288   6.564
11143TIP3    H233363   2.689   4.228   6.519
11144TIP3   OH233364   3.993   4.282   6.818
11144TIP3    H133365   3.908   4.327   6.799
11144TIP3    H233366   4.005   4.306   6.911
11145TIP3   OH233367   2.652   3.896   7.083
11145TIP3    H133368   2.591   3.933   7.015
11145TIP3    H233369   2.599   3.912   7.164
11146TIP3   OH233370   2.997   4.749   6.087
11146TIP3    H133371   2.954   4.731   6.002
11146TIP3    H233372   2.949   4.829   6.116
11147TIP3   OH233373   2.758   4.673   6.874
11147TIP3    H133374   2.698   4.741   6.911
11147TIP3    H233375   2.800   4.721   6.800
11148TIP3   OH233376   3.556   4.010   6.446
11148TIP3    H133377   3.539   3.966   6.531
11148TIP3    H233378   3.608   4.088   6.474
11149TIP3   OH233379   2.523   4.011   6.866
11149TIP3    H133380   2.585   4.083   6.891
11149TIP3    H233381   2.573   3.971   6.791
11150TIP3   OH233382   2.587   4.869   6.976
11150TIP3    H133383   2.560   4.956   6.940
11150TIP3    H233384   2.508   4.850   7.031
11151TIP3   OH233385   1.976   4.557   6.210
11151TIP3    H133386   1.938   4.586   6.125
11151TIP3    H233387   2.010   4.642   6.246
11152TIP3   OH233388   3.418   5.075   6.451
11152TIP3    H133389   3.329   5.065   6.491
11152TIP3    H233390   3.408   5.161   6.406
11153TIP3   OH233391   3.712   3.972   6.815
11153TIP3    H133392   3.624   3.999   6.782
11153TIP3    H233393   3.772   4.005   6.746
11154TIP3   OH233394   3.003   3.612   6.798
11154TIP3    H133395   2.988   3.518   6.817
11154TIP3    H233396   2.926   3.652   6.846
11155TIP3   OH233397   3.117   5.119   6.122
11155TIP3    H133398   3.166   5.035   6.106
11155TIP3    H233399   3.181   5.182   6.082
11156TIP3   OH233400   3.263   4.904   6.035
11156TIP3    H133401   3.221   4.824   6.000
11156TIP3    H233402   3.302   4.870   6.119
11157TIP3   OH233403   3.644   4.983   6.795
11157TIP3    H133404   3.631   4.906   6.737
11157TIP3    H233405   3.627   5.058   6.734
11158TIP3   OH233406   2.937   4.380   6.055
11158TIP3    H133407   2.857   4.432   6.033
11158TIP3    H233408   2.980   4.373   5.968
11159TIP3   OH233409   2.895   4.159   5.773
11159TIP3    H133410   2.963   4.216   5.814
11159TIP3    H233411   2.953   4.098   5.723
11160TIP3   OH233412   3.839   4.624   6.642
11160TIP3    H133413   3.755   4.674   6.646
11160TIP3    H233414   3.869   4.648   6.552
11161TIP3   OH233415   3.286   4.464   6.022
11161TIP3    H133416   3.231   4.486   6.100
11161TIP3    H233417   3.370   4.438   6.066
11162TIP3   OH233418   3.518   4.498   6.941
11162TIP3    H133419   3.515   4.581   6.992
11162TIP3    H233420   3.432   4.502   6.895
11163TIP3   OH233421   2.517   4.458   6.443
11163TIP3    H133422   2.475   4.400   6.376
11163TIP3    H233423   2.592   4.403   6.473
11164TIP3   OH233424   2.647   4.872   6.589
11164TIP3    H133425   2.626   4.836   6.501
11164TIP3    H233426   2.735   4.834   6.606
11165TIP3   OH233427   2.649   4.430   6.797
11165TIP3    H133428   2.683   4.403   6.709
11165TIP3    H233429   2.695   4.515   6.813
11166TIP3   OH233430   3.178   5.068   6.573
11166TIP3    H133431   3.166   5.146   6.629
11166TIP3    H233432   3.161   4.994   6.635
11167TIP3   OH233433   2.792   4.987   7.119
11167TIP3    H133434   2.730   5.047   7.166
11167TIP3    H233435   2.728   4.933   7.069
11168TIP3   OH233436   3.122   4.319   5.853
11168TIP3    H133437   3.181   4.380   5.901
11168TIP3    H233438   3.148   4.339   5.759
11169TIP3   OH233439   2.547   4.542   7.224
11169TIP3    H133440   2.551   4.630   7.267
11169TIP3    H233441   2.453   4.520   7.237
11170TIP3   OH233442   2.869   4.995   6.129
11170TIP3    H133443   2.951   5.048   6.135
11170TIP3    H233444   2.810   5.054   6.082
11171TIP3   OH233445   2.584   5.152   7.208
11171TIP3    H133446   2.549   5.154   7.117
11171TIP3    H233447   2.504   5.131   7.260
11172TIP3   OH233448   3.640   3.557   5.901
11172TIP3    H133449   3.558   3.580   5.949
11172TIP3    H233450   3.655   3.640   5.850
11173TIP3   OH233451   2.382   4.302   6.249
11173TIP3    H133452   2.314   4.345   6.192
11173TIP3    H233453   2.347   4.212   6.256
11174TIP3   OH233454   3.440   4.926   5.443
11174TIP3    H133455   3.450   5.023   5.433
11174TIP3    H233456   3.534   4.897   5.434
11175TIP3   OH233457   2.163   4.686   7.154
11175TIP3    H133458   2.097   4.663   7.085
11175TIP3    H233459   2.202   4.599   7.176
11176TIP3   OH233460   2.017   4.878   6.786
11176TIP3    H133461   2.113   4.873   6.777
11176TIP3    H233462   2.006   4.957   6.840
11177TIP3   OH233463   3.881   5.331   6.843
11177TIP3    H133464   3.881   5.235   6.858
11177TIP3    H233465   3.798   5.356   6.890
11178TIP3   OH233466   2.986   5.115   6.977
11178TIP3    H133467   2.983   5.207   7.010
11178TIP3    H233468   2.915   5.074   7.030
11179TIP3   OH233469   2.753   5.243   5.928
11179TIP3    H133470   2.703   5.223   5.847
11179TIP3    H233471   2.716   5.329   5.955
11180TIP3   OH233472   2.188   5.092   6.316
11180TIP3    H133473   2.234   5.083   6.402
11180TIP3    H233474   2.136   5.010   6.314
11181TIP3   OH233475   2.950   5.146   5.567
11181TIP3    H133476   3.009   5.076   5.532
11181TIP3    H233477   2.984   5.156   5.658
11182TIP3   OH233478   3.003   5.193   5.836
11182TIP3    H133479   2.914   5.204   5.876
11182TIP3    H233480   3.051   5.151   5.909
11183TIP3   OH233481   3.771   4.459   7.117
11183TIP3    H133482   3.687   4.468   7.070
11183TIP3    H233483   3.788   4.363   7.109
11184TIP3   OH233484   2.367   4.869   7.140
11184TIP3    H133485   2.417   4.851   7.222
11184TIP3    H233486   2.293   4.805   7.147
11185TIP3   OH233487   2.767   3.691   6.928
11185TIP3    H133488   2.678   3.661   6.899
11185TIP3    H233489   2.740   3.771   6.978
11186TIP3   OH233490   3.304   3.805   7.122
11186TIP3    H133491   3.373   3.777   7.186
11186TIP3    H233492   3.221   3.786   7.171
11187TIP3   OH233493   3.538   4.236   7.041
11187TIP3    H133494   3.487   4.232   7.125
11187TIP3    H233495   3.514   4.323   7.005
11188TIP3   OH233496   3.208   4.365   5.603
11188TIP3    H133497   3.164   4.343   5.519
11188TIP3    H233498   3.290   4.407   5.571
11189TIP3   OH233499   2.913   3.736   5.900
11189TIP3    H133500   2.877   3.733   5.991
11189TIP3    H233501   2.872   3.656   5.863
11190TIP3   OH233502   2.699   4.208   6.946
11190TIP3    H133503   2.650   4.229   7.028
11190TIP3    H233504   2.683   4.289   6.893
11191TIP3   OH233505   2.583   4.094   6.459
11191TIP3    H133506   2.491   4.068   6.478
11191TIP3    H233507   2.595   4.053   6.370
11192TIP3   OH233508   3.074   4.179   6.189
11192TIP3    H133509   3.024   4.250   6.144
11192TIP3    H233510   3.128   4.144   6.116
11193TIP3   OH233511   3.249   4.454   7.272
11193TIP3    H133512   3.226   4.382   7.334
11193TIP3    H233513   3.342   4.468   7.295
11194TIP3   OH233514   3.229   4.205   6.424
11194TIP3    H133515   3.166   4.231   6.354
11194TIP3    H233516   3.266   4.125   6.380
11195TIP3   OH233517   2.518   4.234   7.154
11195TIP3    H133518   2.553   4.295   7.221
11195TIP3    H233519   2.508   4.152   7.205
11196TIP3   OH233520   2.570   3.714   5.863
11196TIP3    H133521   2.558   3.714   5.960
11196TIP3    H233522   2.492   3.767   5.835
11197TIP3   OH233523   2.112   3.755   6.736
11197TIP3    H133524   2.186   3.789   6.790
11197TIP3    H233525   2.155   3.727   6.654
11198TIP3   OH233526   2.077   3.736   6.255
11198TIP3    H133527   2.123   3.772   6.176
11198TIP3    H233528   2.016   3.811   6.273
11199TIP3   OH233529   3.241   4.451   6.847
11199TIP3    H133530   3.274   4.379   6.787
11199TIP3    H233531   3.211   4.396   6.922
11200TIP3   OH233532   2.915   3.915   6.520
11200TIP3    H133533   2.834   3.914   6.574
11200TIP3    H233534   2.985   3.907   6.587
11201TIP3   OH233535   2.345   3.972   6.527
11201TIP3    H133536   2.251   3.979   6.498
11201TIP3    H233537   2.368   3.880   6.504
11202TIP3   OH233538   2.610   3.966   6.218
11202TIP3    H133539   2.704   3.981   6.196
11202TIP3    H233540   2.563   3.988   6.134
11203TIP3   OH233541   3.402   3.992   6.722
11203TIP3    H133542   3.372   4.004   6.815
11203TIP3    H233543   3.334   3.931   6.689
11204TIP3   OH233544   2.460   4.003   5.994
11204TIP3    H133545   2.392   3.955   5.944
11204TIP3    H233546   2.512   4.041   5.920
11205TIP3   OH233547   3.576   5.680   6.943
11205TIP3    H133548   3.574   5.704   6.849
11205TIP3    H233549   3.657   5.727   6.973
11206TIP3   OH233550   2.530   4.792   7.362
11206TIP3    H133551   2.611   4.819   7.411
11206TIP3    H233552   2.466   4.787   7.436
11207TIP3   OH233553   2.992   4.245   6.619
11207TIP3    H133554   3.065   4.205   6.570
11207TIP3    H233555   2.996   4.200   6.705
11208TIP3   OH233556   2.512   3.731   6.500
11208TIP3    H133557   2.476   3.654   6.549
11208TIP3    H233558   2.558   3.688   6.427
11209TIP3   OH233559   2.970   4.145   6.903
11209TIP3    H133560   2.879   4.179   6.921
11209TIP3    H233561   3.026   4.205   6.956
11210TIP3   OH233562   2.704   4.531   6.002
11210TIP3    H133563   2.633   4.464   5.990
11210TIP3    H233564   2.684   4.564   6.093
11211TIP3   OH233565   3.605   4.767   6.629
11211TIP3    H133566   3.628   4.818   6.548
11211TIP3    H233567   3.521   4.723   6.602
11212TIP3   OH233568   3.164   3.838   5.873
11212TIP3    H133569   3.068   3.819   5.878
11212TIP3    H233570   3.169   3.934   5.894
11213TIP3   OH233571   3.107   4.851   6.998
11213TIP3    H133572   3.135   4.828   7.088
11213TIP3    H233573   3.066   4.938   7.010
11214TIP3   OH233574   3.232   4.092   5.973
11214TIP3    H133575   3.328   4.098   5.986
11214TIP3    H233576   3.211   4.171   5.920
11215TIP3   OH233577   2.400   4.555   6.676
11215TIP3    H133578   2.437   4.526   6.591
11215TIP3    H233579   2.445   4.496   6.738
11216TIP3   OH233580   2.854   4.682   5.832
11216TIP3    H133581   2.804   4.766   5.833
11216TIP3    H233582   2.798   4.625   5.889
11217TIP3   OH233583   2.282   4.475   7.292
11217TIP3    H133584   2.302   4.461   7.387
11217TIP3    H233585   2.215   4.406   7.276
11218TIP3   OH233586   3.009   4.591   7.308
11218TIP3    H133587   2.947   4.529   7.267
11218TIP3    H233588   3.095   4.553   7.282
11219TIP3   OH233589   3.264   5.115   6.894
11219TIP3    H133590   3.168   5.108   6.909
11219TIP3    H233591   3.292   5.164   6.974
11220TIP3   OH233592   3.673   4.184   5.803
11220TIP3    H133593   3.611   4.140   5.740
11220TIP3    H233594   3.669   4.274   5.765
11221TIP3   OH233595   3.895   5.043   6.883
11221TIP3    H133596   3.797   5.035   6.876
11221TIP3    H233597   3.921   5.011   6.794
11222TIP3   OH233598   3.380   5.000   5.714
11222TIP3    H133599   3.348   4.934   5.778
11222TIP3    H233600   3.386   4.948   5.632
11223TIP3   OH233601   3.372   4.630   6.546
11223TIP3    H133602   3.278   4.606   6.560
11223TIP3    H233603   3.405   4.549   6.502
11224TIP3   OH233604   2.502   4.860   6.305
11224TIP3    H133605   2.497   4.939   6.249
11224TIP3    H233606   2.408   4.837   6.314
11225TIP3   OH233607   2.067   4.160   6.009
11225TIP3    H133608   2.111   4.245   6.030
11225TIP3    H233609   1.989   4.163   6.070
11226TIP3   OH233610   2.633   4.621   6.245
11226TIP3    H133611   2.600   4.711   6.266
11226TIP3    H233612   2.599   4.570   6.321
11227TIP3   OH233613   2.771   5.200   6.772
11227TIP3    H133614   2.815   5.272   6.722
11227TIP3    H233615   2.846   5.161   6.819
11228TIP3   OH233616   2.417   5.097   6.154
11228TIP3    H133617   2.332   5.106   6.202
11228TIP3    H233618   2.449   5.190   6.156
11229TIP3   OH233619   3.155   4.835   6.731
11229TIP3    H133620   3.144   4.834   6.829
11229TIP3    H233621   3.233   4.779   6.720
11230TIP3   OH233622   3.136   4.734   5.611
11230TIP3    H133623   3.187   4.707   5.691
11230TIP3    H233624   3.049   4.697   5.632
11231TIP3   OH233625   3.405   5.366   6.782
11231TIP3    H133626   3.326   5.309   6.778
11231TIP3    H233627   3.387   5.429   6.709
11232TIP3   OH233628   3.473   5.203   5.433
11232TIP3    H133629   3.512   5.280   5.389
11232TIP3    H233630   3.390   5.244   5.467
11233TIP3   OH233631   2.490   3.979   7.296
11233TIP3    H133632   2.394   3.979   7.310
11233TIP3    H233633   2.520   3.924   7.371
11234TIP3   OH233634   3.295   4.663   5.827
11234TIP3    H133635   3.282   4.598   5.898
11234TIP3    H233636   3.393   4.658   5.817
11235TIP3   OH233637   2.208   5.061   6.930
11235TIP3    H133638   2.262   4.987   6.964
11235TIP3    H233639   2.238   5.133   6.988
11236TIP3   OH233640   2.495   4.710   5.616
11236TIP3    H133641   2.506   4.618   5.584
11236TIP3    H233642   2.474   4.696   5.710
11237TIP3   OH233643   2.439   4.714   5.889
11237TIP3    H133644   2.516   4.685   5.940
11237TIP3    H233645   2.445   4.812   5.896
11238TIP3   OH233646   2.175   4.405   6.091
11238TIP3    H133647   2.109   4.451   6.146
11238TIP3    H233648   2.190   4.473   6.022
11239TIP3   OH233649   3.331   4.041   6.983
11239TIP3    H133650   3.411   4.080   7.023
11239TIP3    H233651   3.318   3.961   7.037
11240TIP3   OH233652   3.211   3.789   6.151
11240TIP3    H133653   3.196   3.810   6.057
11240TIP3    H233654   3.249   3.874   6.185
11241TIP3   OH233655   2.710   4.910   5.837
11241TIP3    H133656   2.623   4.935   5.873
11241TIP3    H233657   2.720   4.975   5.766
11242TIP3   OH233658   2.894   3.976   6.250
11242TIP3    H133659   2.958   4.048   6.233
11242TIP3    H233660   2.901   3.967   6.348
11243TIP3   OH233661   3.168   4.291   7.055
11243TIP3    H133662   3.192   4.342   7.134
11243TIP3    H233663   3.220   4.209   7.067
11244TIP3   OH233664   3.038   3.695   6.349
11244TIP3    H133665   3.033   3.773   6.408
11244TIP3    H233666   3.101   3.728   6.281
11245TIP3   OH233667   2.457   4.987   5.904
11245TIP3    H133668   2.425   5.057   5.842
11245TIP3    H233669   2.439   5.029   5.991
11246TIP3   OH233670   2.552   3.701   6.140
11246TIP3    H133671   2.550   3.791   6.178
11246TIP3    H233672   2.648   3.683   6.147
11247TIP3   OH233673   3.805   4.193   7.036
11247TIP3    H133674   3.707   4.193   7.046
11247TIP3    H233675   3.814   4.142   6.955
11248TIP3   OH233676   3.457   4.386   6.425
11248TIP3    H133677   3.381   4.327   6.437
11248TIP3    H233678   3.528   4.339   6.473
11249TIP3   OH233679   2.172   4.611   5.894
11249TIP3    H133680   2.245   4.675   5.903
11249TIP3    H233681   2.213   4.551   5.827
11250TIP3   OH233682   2.111   3.890   6.032
11250TIP3    H133683   2.115   3.987   6.029
11250TIP3    H233684   2.037   3.871   5.974
11251TIP3   OH233685   3.426   5.346   6.373
11251TIP3    H133686   3.383   5.394   6.298
11251TIP3    H233687   3.521   5.365   6.352
11252TIP3   OH233688   2.501   3.611   6.900
11252TIP3    H133689   2.472   3.576   6.813
11252TIP3    H233690   2.492   3.534   6.958
11253TIP3   OH233691   2.038   4.828   6.278
11253TIP3    H133692   1.974   4.859   6.343
11253TIP3    H233693   2.004   4.871   6.196
11254TIP3   OH233694   2.200   5.376   7.357
11254TIP3    H133695   2.288   5.375   7.401
11254TIP3    H233696   2.182   5.280   7.352
11255TIP3   OH233697   2.676   5.334   7.396
11255TIP3    H133698   2.770   5.313   7.405
11255TIP3    H233699   2.651   5.272   7.325
11256TIP3   OH233700   2.664   4.910   5.531
11256TIP3    H133701   2.607   4.837   5.565
11256TIP3    H233702   2.737   4.858   5.491
11257TIP3   OH233703   3.317   5.243   7.132
11257TIP3    H133704   3.309   5.173   7.201
11257TIP3    H233705   3.395   5.293   7.163
11258TIP3   OH233706   3.100   4.949   5.442
11258TIP3    H133707   3.129   4.880   5.505
11258TIP3    H233708   3.165   4.942   5.371
11259TIP3   OH233709   2.328   4.779   7.553
11259TIP3    H133710   2.345   4.684   7.564
11259TIP3    H233711   2.242   4.779   7.506
11260TIP3   OH233712   2.304   4.425   5.749
11260TIP3    H133713   2.363   4.394   5.820
11260TIP3    H233714   2.369   4.429   5.675
11261TIP3   OH233715   2.935   4.866   7.328
11261TIP3    H133716   2.894   4.884   7.241
11261TIP3    H233717   2.966   4.774   7.319
11262TIP3   OH233718   2.827   4.631   5.560
11262TIP3    H133719   2.826   4.639   5.658
11262TIP3    H233720   2.828   4.533   5.551
11263TIP3   OH233721   3.428   4.876   6.936
11263TIP3    H133722   3.504   4.919   6.892
11263TIP3    H233723   3.358   4.941   6.918
11264TIP3   OH233724   2.450   4.516   7.536
11264TIP3    H133725   2.525   4.460   7.512
11264TIP3    H233726   2.477   4.547   7.625
11265TIP3   OH233727   2.513   4.334   5.968
11265TIP3    H133728   2.487   4.289   6.050
11265TIP3    H233729   2.552   4.260   5.916
11266TIP3   OH233730   2.781   4.395   7.196
11266TIP3    H133731   2.705   4.456   7.196
11266TIP3    H233732   2.835   4.431   7.121
11267TIP3   OH233733   2.616   4.130   5.809
11267TIP3    H133734   2.591   4.135   5.714
11267TIP3    H233735   2.714   4.128   5.802
11268TIP3   OH233736   3.302   4.800   7.330
11268TIP3    H133737   3.379   4.766   7.283
11268TIP3    H233738   3.294   4.736   7.403
11269TIP3   OH233739   3.435   4.458   5.472
11269TIP3    H133740   3.413   4.411   5.390
11269TIP3    H233741   3.399   4.547   5.450
11270TIP3   OH233742   2.907   4.187   7.321
11270TIP3    H133743   2.908   4.108   7.264
11270TIP3    H233744   2.862   4.253   7.264
11271TIP3   OH233745   2.910   3.974   7.131
11271TIP3    H133746   2.938   4.013   7.047
11271TIP3    H233747   2.816   3.951   7.112
11272TIP3   OH233748   2.932   4.506   7.004
11272TIP3    H133749   3.019   4.518   6.963
11272TIP3    H233750   2.877   4.571   6.957
11273TIP3   OH233751   3.514   4.472   7.382
11273TIP3    H133752   3.561   4.388   7.401
11273TIP3    H233753   3.586   4.527   7.347
11274TIP3   OH233754   3.558   4.728   7.121
11274TIP3    H133755   3.500   4.783   7.063
11274TIP3    H233756   3.646   4.749   7.082
11275TIP3   OH233757   2.783   4.294   7.553
11275TIP3    H133758   2.716   4.225   7.571
11275TIP3    H233759   2.818   4.265   7.466
11276TIP3   OH233760   3.041   3.733   7.198
11276TIP3    H133761   2.990   3.814   7.177
11276TIP3    H233762   2.972   3.664   7.189
11277TIP3   OH233763   3.167   4.238   7.415
11277TIP3    H133764   3.154   4.221   7.510
11277TIP3    H233765   3.077   4.214   7.383
11278TIP3   OH233766   3.405   4.188   7.270
11278TIP3    H133767   3.331   4.189   7.334
11278TIP3    H233768   3.480   4.158   7.326
11279TIP3   OH233769   3.636   4.130   7.417
11279TIP3    H133770   3.649   4.034   7.434
11279TIP3    H233771   3.631   4.167   7.508
11280TIP3   OH233772   2.624   4.073   7.610
11280TIP3    H133773   2.628   3.980   7.579
11280TIP3    H233774   2.663   4.064   7.700
11281TIP3   OH233775   3.136   3.747   7.456
11281TIP3    H133776   3.201   3.673   7.454
11281TIP3    H233777   3.096   3.739   7.367
11282TIP3   OH233778   3.203   3.964   7.610
11282TIP3    H133779   3.182   3.890   7.549
11282TIP3    H233780   3.122   4.019   7.605
11283TIP3   OH233781   2.425   5.194   5.718
11283TIP3    H133782   2.520   5.182   5.697
11283TIP3    H233783   2.396   5.242   5.638
11284TIP3   OH233784   1.902   4.571   5.930
11284TIP3    H133785   1.997   4.592   5.915
11284TIP3    H233786   1.896   4.481   5.890
11285TIP3   OH233787   1.824   5.185   6.344
11285TIP3    H133788   1.755   5.127   6.307
11285TIP3    H233789   1.864   5.125   6.410
11286TIP3   OH233790   1.953   5.028   6.533
11286TIP3    H133791   1.939   4.958   6.599
11286TIP3    H233792   2.007   5.091   6.586
11287TIP3   OH233793   3.681   5.436   6.334
11287TIP3    H133794   3.709   5.464   6.422
11287TIP3    H233795   3.750   5.473   6.277
11288TIP3   OH233796   3.709   5.453   6.616
11288TIP3    H133797   3.663   5.366   6.612
11288TIP3    H233798   3.784   5.428   6.672
11289TIP3   OH233799   3.755   5.131   7.188
11289TIP3    H133800   3.683   5.140   7.255
11289TIP3    H233801   3.798   5.218   7.193
11290TIP3   OH233802   3.574   4.642   5.807
11290TIP3    H133803   3.641   4.707   5.778
11290TIP3    H233804   3.617   4.605   5.887
11291TIP3   OH233805   3.700   4.510   6.012
11291TIP3    H133806   3.633   4.468   6.070
11291TIP3    H233807   3.765   4.546   6.076
11292TIP3   OH233808   3.757   4.905   6.442
11292TIP3    H133809   3.809   4.836   6.397
11292TIP3    H233810   3.752   4.975   6.375
11293TIP3   OH233811   3.584   5.205   6.636
11293TIP3    H133812   3.511   5.244   6.688
11293TIP3    H233813   3.535   5.158   6.565
11294TIP3   OH233814   3.637   4.420   5.655
11294TIP3    H133815   3.565   4.420   5.588
11294TIP3    H233816   3.607   4.494   5.711
11295TIP3   OH233817   3.510   4.092   5.607
11295TIP3    H133818   3.460   4.123   5.531
11295TIP3    H233819   3.488   3.996   5.604
11296TIP3   OH233820   3.513   4.369   6.156
11296TIP3    H133821   3.519   4.272   6.147
11296TIP3    H233822   3.498   4.380   6.253
11297TIP3   OH233823   2.137   4.441   6.905
11297TIP3    H133824   2.135   4.407   6.813
11297TIP3    H233825   2.235   4.442   6.922
11298TIP3   OH233826   3.805   4.794   7.015
11298TIP3    H133827   3.875   4.726   7.004
11298TIP3    H233828   3.830   4.860   6.949
11299TIP3   OH233829   3.987   4.594   7.023
11299TIP3    H133830   3.912   4.545   7.063
11299TIP3    H233831   4.060   4.531   7.041
11300TIP3   OH233832   3.450   3.827   5.597
11300TIP3    H133833   3.521   3.791   5.653
11300TIP3    H233834   3.375   3.768   5.613
11301TIP3   OH233835   3.512   4.085   6.049
11301TIP3    H133836   3.551   3.996   6.065
11301TIP3    H233837   3.569   4.116   5.977
11302TIP3   OH233838   3.669   4.254   6.546
11302TIP3    H133839   3.755   4.279   6.505
11302TIP3    H233840   3.684   4.292   6.635
11303TIP3   OH233841   3.742   4.401   6.775
11303TIP3    H133842   3.665   4.435   6.825
11303TIP3    H233843   3.774   4.483   6.732
11304TIP3   OH233844   2.359   4.129   7.577
11304TIP3    H133845   2.457   4.124   7.583
11304TIP3    H233846   2.336   4.041   7.613
11305TIP3   OH233847   4.192   3.997   7.331
11305TIP3    H133848   4.253   3.931   7.292
11305TIP3    H233849   4.162   4.047   7.253
11306TIP3   OH233850   3.619   3.835   6.088
11306TIP3    H133851   3.666   3.819   6.172
11306TIP3    H233852   3.557   3.759   6.087
11307TIP3   OH233853   2.317   3.821   6.910
11307TIP3    H133854   2.378   3.744   6.918
11307TIP3    H233855   2.381   3.894   6.900
11308TIP3   OH233856   2.118   4.092   6.979
11308TIP3    H133857   2.169   4.089   6.895
11308TIP3    H233858   2.150   4.174   7.017
11309TIP3   OH233859   4.061   4.131   7.133
11309TIP3    H133860   3.976   4.173   7.156
11309TIP3    H233861   4.028   4.057   7.079
11310TIP3   OH233862   3.697   3.764   5.725
11310TIP3    H133863   3.734   3.695   5.666
11310TIP3    H233864   3.764   3.835   5.718
11311TIP3   OH233865   2.106   3.594   6.482
11311TIP3    H133866   2.013   3.590   6.511
11311TIP3    H233867   2.100   3.654   6.405
11312TIP3   OH233868   3.264   5.304   5.988
11312TIP3    H133869   3.315   5.292   5.905
11312TIP3    H233870   3.320   5.366   6.037
11313TIP3   OH233871   2.327   3.679   7.294
11313TIP3    H133872   2.275   3.672   7.376
11313TIP3    H233873   2.259   3.714   7.233
11314TIP3   OH233874   2.363   5.112   7.373
11314TIP3    H133875   2.272   5.081   7.357
11314TIP3    H233876   2.378   5.083   7.464
11315TIP3   OH233877   2.544   5.141   6.921
11315TIP3    H133878   2.497   5.217   6.881
11315TIP3    H233879   2.630   5.153   6.877
11316TIP3   OH233880   2.984   5.382   7.059
11316TIP3    H133881   3.027   5.380   7.147
11316TIP3    H233882   3.050   5.434   7.008
11317TIP3   OH233883   3.164   5.536   6.920
11317TIP3    H133884   3.233   5.484   6.877
11317TIP3    H233885   3.218   5.592   6.980
11318TIP3   OH233886   3.962   3.892   7.017
11318TIP3    H133887   3.871   3.880   6.985
11318TIP3    H233888   3.997   3.800   7.010
11319TIP3   OH233889   2.218   5.395   6.944
11319TIP3    H133890   2.127   5.426   6.922
11319TIP3    H233891   2.229   5.438   7.030
11320TIP3   OH233892   2.456   5.375   6.805
11320TIP3    H133893   2.368   5.386   6.848
11320TIP3    H233894   2.437   5.405   6.714
11321TIP3   OH233895   2.881   5.400   6.602
11321TIP3    H133896   2.810   5.417   6.537
11321TIP3    H233897   2.891   5.488   6.643
11322TIP3   OH233898   3.150   5.340   6.656
11322TIP3    H133899   3.057   5.357   6.634
11322TIP3    H233900   3.195   5.412   6.609
11323TIP3   OH233901   3.356   5.530   6.566
11323TIP3    H133902   3.343   5.614   6.517
11323TIP3    H233903   3.383   5.469   6.495
11324TIP3   OH233904   2.130   5.184   6.690
11324TIP3    H133905   2.156   5.158   6.780
11324TIP3    H233906   2.203   5.141   6.639
11325TIP3   OH233907   2.326   5.059   6.549
11325TIP3    H133908   2.341   4.975   6.599
11325TIP3    H233909   2.418   5.094   6.544
11326TIP3   OH233910   2.594   5.153   6.553
11326TIP3    H133911   2.623   5.060   6.541
11326TIP3    H233912   2.642   5.173   6.636
11327TIP3   OH233913   3.164   3.808   6.638
11327TIP3    H133914   3.123   3.737   6.689
11327TIP3    H233915   3.240   3.762   6.595
11328TIP3   OH233916   3.686   3.689   6.540
11328TIP3    H133917   3.722   3.742   6.465
11328TIP3    H233918   3.591   3.709   6.535
11329TIP3   OH233919   3.783   3.789   6.305
11329TIP3    H133920   3.857   3.738   6.267
11329TIP3    H233921   3.816   3.881   6.291
11330TIP3   OH233922   2.414   3.517   6.651
11330TIP3    H133923   2.321   3.485   6.656
11330TIP3    H233924   2.462   3.431   6.647
11331TIP3   OH233925   2.203   3.390   6.302
11331TIP3    H133926   2.233   3.446   6.228
11331TIP3    H233927   2.177   3.456   6.369
11332TIP3   OH233928   2.861   3.548   6.536
11332TIP3    H133929   2.916   3.596   6.472
11332TIP3    H233930   2.889   3.588   6.620
11333TIP3   OH233931   3.402   3.698   6.517
11333TIP3    H133932   3.404   3.657   6.430
11333TIP3    H233933   3.391   3.619   6.575
11334TIP3   OH233934   3.435   3.623   6.081
11334TIP3    H133935   3.349   3.666   6.097
11334TIP3    H233936   3.421   3.536   6.125
11335TIP3   OH233937   1.918   4.963   6.078
11335TIP3    H133938   1.832   4.930   6.045
11335TIP3    H233939   1.908   5.057   6.056
11336TIP3   OH233940   2.321   3.545   6.065
11336TIP3    H133941   2.368   3.482   6.006
11336TIP3    H233942   2.394   3.599   6.099
11337TIP3   OH233943   2.829   3.725   6.164
11337TIP3    H133944   2.890   3.678   6.223
11337TIP3    H233945   2.851   3.818   6.188
11338TIP3   OH233946   2.690   5.147   5.661
11338TIP3    H133947   2.779   5.168   5.626
11338TIP3    H233948   2.668   5.070   5.602
11339TIP3   OH233949   3.411   5.267   5.757
11339TIP3    H133950   3.405   5.169   5.747
11339TIP3    H233951   3.364   5.296   5.676
11340TIP3   OH233952   2.623   3.798   7.545
11340TIP3    H133953   2.587   3.727   7.600
11340TIP3    H233954   2.717   3.797   7.574
11341TIP3   OH233955   2.872   3.793   7.665
11341TIP3    H133956   2.958   3.766   7.628
11341TIP3    H233957   2.861   3.726   7.736
11342TIP3   OH233958   1.996   4.985   5.716
11342TIP3    H133959   1.996   5.000   5.812
11342TIP3    H233960   2.083   4.941   5.702
11343TIP3   OH233961   3.699   3.860   7.451
11343TIP3    H133962   3.715   3.827   7.542
11343TIP3    H233963   3.789   3.853   7.412
11344TIP3   OH233964   3.633   5.410   6.943
11344TIP3    H133965   3.555   5.379   6.892
11344TIP3    H233966   3.613   5.505   6.950
11345TIP3   OH233967   4.899   4.781   5.708
11345TIP3    H133968   4.870   4.872   5.683
11345TIP3    H233969   4.824   4.730   5.672
11346TIP3   OH233970   4.902   4.786   6.094
11346TIP3    H133971   4.936   4.758   6.181
11346TIP3    H233972   4.862   4.704   6.061
11347TIP3   OH233973   4.198   4.676   6.457
11347TIP3    H133974   4.227   4.606   6.518
11347TIP3    H233975   4.279   4.729   6.450
11348TIP3   OH233976   5.151   5.086   5.774
11348TIP3    H133977   5.129   5.017   5.837
11348TIP3    H233978   5.177   5.160   5.831
11349TIP3   OH233979   4.173   5.088   6.177
11349TIP3    H133980   4.165   4.990   6.178
11349TIP3    H233981   4.270   5.098   6.171
11350TIP3   OH233982   3.881   4.290   5.958
11350TIP3    H133983   3.832   4.371   5.979
11350TIP3    H233984   3.809   4.236   5.919
11351TIP3   OH233985   3.936   4.577   6.141
11351TIP3    H133986   3.985   4.498   6.175
11351TIP3    H233987   3.999   4.614   6.078
11352TIP3   OH233988   4.799   5.545   5.798
11352TIP3    H133989   4.840   5.478   5.739
11352TIP3    H233990   4.795   5.497   5.882
11353TIP3   OH233991   4.699   5.010   6.140
11353TIP3    H133992   4.740   4.934   6.096
11353TIP3    H233993   4.781   5.058   6.164
11354TIP3   OH233994   5.715   4.328   6.137
11354TIP3    H133995   5.746   4.411   6.178
11354TIP3    H233996   5.739   4.343   6.044
11355TIP3   OH233997   5.111   4.509   6.168
11355TIP3    H133998   5.155   4.425   6.190
11355TIP3    H233999   5.080   4.491   6.077
11356TIP3   OH234000   4.453   4.169   6.134
11356TIP3    H134001   4.433   4.242   6.072
11356TIP3    H234002   4.404   4.096   6.091
11357TIP3   OH234003   5.147   4.263   5.754
11357TIP3    H134004   5.218   4.247   5.821
11357TIP3    H234005   5.201   4.297   5.680
11358TIP3   OH234006   4.085   4.371   6.241
11358TIP3    H134007   4.167   4.352   6.290
11358TIP3    H234008   4.099   4.314   6.162
11359TIP3   OH234009   4.524   4.568   6.039
11359TIP3    H134010   4.619   4.545   6.050
11359TIP3    H234011   4.487   4.484   6.006
11360TIP3   OH234012   5.789   4.537   6.307
11360TIP3    H134013   5.704   4.583   6.288
11360TIP3    H234014   5.808   4.571   6.396
11361TIP3   OH234015   4.448   4.153   6.570
11361TIP3    H134016   4.387   4.190   6.503
11361TIP3    H234017   4.395   4.169   6.651
11362TIP3   OH234018   4.788   5.002   5.592
11362TIP3    H134019   4.761   4.987   5.499
11362TIP3    H234020   4.742   5.085   5.610
11363TIP3   OH234021   4.554   4.929   6.361
11363TIP3    H134022   4.495   4.998   6.398
11363TIP3    H234023   4.597   4.977   6.287
11364TIP3   OH234024   5.351   4.267   5.933
11364TIP3    H134025   5.339   4.222   6.018
11364TIP3    H234026   5.404   4.345   5.958
11365TIP3   OH234027   4.319   4.268   6.353
11365TIP3    H134028   4.381   4.340   6.378
11365TIP3    H234029   4.369   4.228   6.279
11366TIP3   OH234030   4.383   5.126   6.463
11366TIP3    H134031   4.358   5.213   6.426
11366TIP3    H234032   4.304   5.108   6.517
11367TIP3   OH234033   3.775   4.815   5.698
11367TIP3    H134034   3.732   4.847   5.617
11367TIP3    H234035   3.808   4.899   5.736
11368TIP3   OH234036   5.215   5.332   5.940
11368TIP3    H134037   5.126   5.321   5.980
11368TIP3    H234038   5.204   5.418   5.894
11369TIP3   OH234039   5.508   4.227   6.302
11369TIP3    H134040   5.421   4.255   6.268
11369TIP3    H234041   5.569   4.261   6.233
11370TIP3   OH234042   4.799   3.868   6.284
11370TIP3    H134043   4.784   3.774   6.305
11370TIP3    H234044   4.723   3.908   6.332
11371TIP3   OH234045   4.914   5.381   5.606
11371TIP3    H134046   4.960   5.295   5.588
11371TIP3    H234047   4.984   5.443   5.575
11372TIP3   OH234048   5.055   5.165   5.525
11372TIP3    H134049   5.064   5.091   5.462
11372TIP3    H234050   5.088   5.123   5.607
11373TIP3   OH234051   5.439   5.239   6.282
11373TIP3    H134052   5.427   5.162   6.223
11373TIP3    H234053   5.422   5.314   6.222
11374TIP3   OH234054   4.735   4.632   5.532
11374TIP3    H134055   4.659   4.691   5.511
11374TIP3    H234056   4.782   4.630   5.447
11375TIP3   OH234057   5.635   4.880   6.129
11375TIP3    H134058   5.551   4.930   6.133
11375TIP3    H234059   5.666   4.904   6.038
11376TIP3   OH234060   5.081   4.714   5.511
11376TIP3    H134061   5.026   4.740   5.588
11376TIP3    H234062   5.166   4.695   5.555
11377TIP3   OH234063   5.314   4.755   6.428
11377TIP3    H134064   5.312   4.838   6.479
11377TIP3    H234065   5.228   4.759   6.382
11378TIP3   OH234066   4.311   4.710   5.931
11378TIP3    H134067   4.277   4.654   5.859
11378TIP3    H234068   4.389   4.659   5.962
11379TIP3   OH234069   4.442   5.126   6.077
11379TIP3    H134070   4.423   5.093   5.988
11379TIP3    H234071   4.531   5.089   6.094
11380TIP3   OH234072   4.446   4.687   6.283
11380TIP3    H134073   4.481   4.661   6.196
11380TIP3    H234074   4.492   4.772   6.300
11381TIP3   OH234075   4.974   5.324   6.061
11381TIP3    H134076   4.963   5.403   6.116
11381TIP3    H234077   4.958   5.251   6.123
11382TIP3   OH234078   4.588   5.243   6.607
11382TIP3    H134079   4.526   5.304   6.653
11382TIP3    H234080   4.525   5.189   6.556
11383TIP3   OH234081   4.925   4.592   5.319
11383TIP3    H134082   4.985   4.646   5.375
11383TIP3    H234083   4.918   4.647   5.238
11384TIP3   OH234084   4.343   4.797   6.712
11384TIP3    H134085   4.347   4.886   6.753
11384TIP3    H234086   4.248   4.776   6.725
11385TIP3   OH234087   4.661   5.261   5.617
11385TIP3    H134088   4.747   5.307   5.623
11385TIP3    H234089   4.606   5.325   5.571
11386TIP3   OH234090   4.380   5.408   6.695
11386TIP3    H134091   4.345   5.412   6.603
11386TIP3    H234092   4.300   5.387   6.747
11387TIP3   OH234093   5.436   3.814   5.387
11387TIP3    H134094   5.355   3.837   5.436
11387TIP3    H234095   5.452   3.897   5.336
11388TIP3   OH234096   4.183   4.557   5.720
11388TIP3    H134097   4.108   4.599   5.673
11388TIP3    H234098   4.142   4.476   5.753
11389TIP3   OH234099   5.231   5.181   4.944
11389TIP3    H134100   5.243   5.276   4.923
11389TIP3    H234101   5.321   5.147   4.924
11390TIP3   OH234102   3.960   4.942   6.641
11390TIP3    H134103   3.892   4.920   6.573
11390TIP3    H234104   3.997   4.854   6.663
11391TIP3   OH234105   3.815   5.136   6.268
11391TIP3    H134106   3.911   5.126   6.261
11391TIP3    H234107   3.808   5.212   6.329
11392TIP3   OH234108   5.681   5.583   6.338
11392TIP3    H134109   5.679   5.487   6.355
11392TIP3    H234110   5.596   5.610   6.379
11393TIP3   OH234111   4.783   5.371   6.464
11393TIP3    H134112   4.780   5.464   6.497
11393TIP3    H234113   4.712   5.330   6.518
11394TIP3   OH234114   4.546   5.497   5.415
11394TIP3    H134115   4.501   5.484   5.330
11394TIP3    H234116   4.515   5.584   5.444
11395TIP3   OH234117   3.983   5.348   5.803
11395TIP3    H134118   4.032   5.340   5.889
11395TIP3    H234119   3.933   5.264   5.804
11396TIP3   OH234120   4.747   5.400   5.054
11396TIP3    H134121   4.803   5.328   5.020
11396TIP3    H234122   4.780   5.410   5.145
11397TIP3   OH234123   4.799   5.450   5.325
11397TIP3    H134124   4.711   5.462   5.367
11397TIP3    H234125   4.846   5.402   5.396
11398TIP3   OH234126   5.566   4.714   6.606
11398TIP3    H134127   5.484   4.724   6.556
11398TIP3    H234128   5.583   4.619   6.596
11399TIP3   OH234129   4.163   5.126   6.626
11399TIP3    H134130   4.213   5.108   6.708
11399TIP3    H234131   4.089   5.062   6.633
11400TIP3   OH234132   4.563   3.947   6.415
11400TIP3    H134133   4.475   3.917   6.386
11400TIP3    H234134   4.537   4.028   6.465
11401TIP3   OH234135   5.100   4.062   6.609
11401TIP3    H134136   5.169   4.033   6.672
11401TIP3    H234137   5.017   4.042   6.657
11402TIP3   OH234138   5.333   4.491   6.526
11402TIP3    H134139   5.283   4.489   6.610
11402TIP3    H234140   5.311   4.579   6.490
11403TIP3   OH234141   4.690   4.024   5.366
11403TIP3    H134142   4.669   4.018   5.462
11403TIP3    H234143   4.653   3.936   5.340
11404TIP3   OH234144   4.495   4.465   6.432
11404TIP3    H134145   4.445   4.485   6.514
11404TIP3    H234146   4.479   4.546   6.380
11405TIP3   OH234147   4.378   4.349   5.946
11405TIP3    H134148   4.286   4.322   5.968
11405TIP3    H234149   4.388   4.307   5.858
11406TIP3   OH234150   4.868   4.432   5.671
11406TIP3    H134151   4.820   4.505   5.626
11406TIP3    H234152   4.927   4.402   5.599
11407TIP3   OH234153   5.045   4.711   6.759
11407TIP3    H134154   5.023   4.638   6.822
11407TIP3    H234155   5.139   4.725   6.781
11408TIP3   OH234156   5.025   4.462   5.911
11408TIP3    H134157   4.964   4.492   5.841
11408TIP3    H234158   5.060   4.382   5.866
11409TIP3   OH234159   4.315   4.491   6.640
11409TIP3    H134160   4.346   4.553   6.707
11409TIP3    H234161   4.303   4.409   6.692
11410TIP3   OH234162   4.382   3.990   5.345
11410TIP3    H134163   4.362   3.987   5.440
11410TIP3    H234164   4.297   4.022   5.308
11411TIP3   OH234165   3.908   4.013   6.221
11411TIP3    H134166   3.983   4.044   6.275
11411TIP3    H234167   3.950   3.980   6.140
11412TIP3   OH234168   3.874   3.994   5.740
11412TIP3    H134169   3.923   4.032   5.663
11412TIP3    H234170   3.812   4.067   5.758
11413TIP3   OH234171   5.035   4.707   6.334
11413TIP3    H134172   5.069   4.636   6.274
11413TIP3    H234173   5.005   4.652   6.409
11414TIP3   OH234174   4.709   4.172   6.005
11414TIP3    H134175   4.630   4.170   6.062
11414TIP3    H234176   4.781   4.165   6.070
11415TIP3   OH234177   4.141   4.228   6.012
11415TIP3    H134178   4.046   4.236   5.985
11415TIP3    H234179   4.162   4.135   5.993
11416TIP3   OH234180   4.402   4.222   5.700
11416TIP3    H134181   4.500   4.234   5.695
11416TIP3    H234182   4.371   4.252   5.613
11417TIP3   OH234183   5.200   4.249   6.210
11417TIP3    H134184   5.167   4.261   6.302
11417TIP3    H234185   5.133   4.188   6.175
11418TIP3   OH234186   4.254   4.273   5.460
11418TIP3    H134187   4.172   4.247   5.503
11418TIP3    H234188   4.238   4.228   5.373
11419TIP3   OH234189   5.361   5.930   6.426
11419TIP3    H134190   5.359   5.955   6.332
11419TIP3    H234191   5.446   5.972   6.454
11420TIP3   OH234192   4.326   5.048   6.848
11420TIP3    H134193   4.406   5.076   6.897
11420TIP3    H234194   4.262   5.044   6.921
11421TIP3   OH234195   4.788   4.500   6.104
11421TIP3    H134196   4.863   4.464   6.055
11421TIP3    H234197   4.794   4.456   6.190
11422TIP3   OH234198   4.309   3.986   5.987
11422TIP3    H134199   4.270   3.911   6.038
11422TIP3    H234200   4.361   3.939   5.921
11423TIP3   OH234201   4.766   4.400   6.393
11423TIP3    H134202   4.676   4.435   6.408
11423TIP3    H234203   4.822   4.462   6.443
11424TIP3   OH234204   4.493   4.782   5.487
11424TIP3    H134205   4.424   4.712   5.481
11424TIP3    H234206   4.477   4.817   5.578
11425TIP3   OH234207   5.401   5.023   6.116
11425TIP3    H134208   5.423   5.074   6.035
11425TIP3    H234209   5.317   4.979   6.090
11426TIP3   OH234210   4.964   4.092   5.362
11426TIP3    H134211   4.867   4.084   5.368
11426TIP3    H234212   4.979   4.188   5.375
11427TIP3   OH234213   4.900   5.105   6.486
11427TIP3    H134214   4.934   5.088   6.575
11427TIP3    H234215   4.863   5.195   6.494
11428TIP3   OH234216   5.024   4.353   5.448
11428TIP3    H134217   5.119   4.364   5.466
11428TIP3    H234218   5.003   4.432   5.395
11429TIP3   OH234219   4.195   4.810   6.163
11429TIP3    H134220   4.233   4.780   6.078
11429TIP3    H234221   4.241   4.754   6.227
11430TIP3   OH234222   4.662   4.959   5.358
11430TIP3    H134223   4.603   5.034   5.336
11430TIP3    H234224   4.598   4.893   5.391
11431TIP3   OH234225   4.078   4.730   6.779
11431TIP3    H134226   4.094   4.715   6.874
11431TIP3    H234227   4.009   4.664   6.761
11432TIP3   OH234228   4.805   4.846   6.797
11432TIP3    H134229   4.743   4.786   6.753
11432TIP3    H234230   4.891   4.809   6.769
11433TIP3   OH234231   5.060   5.367   6.383
11433TIP3    H134232   4.964   5.365   6.398
11433TIP3    H234233   5.089   5.419   6.461
11434TIP3   OH234234   5.468   4.441   5.292
11434TIP3    H134235   5.408   4.397   5.227
11434TIP3    H234236   5.465   4.531   5.252
11435TIP3   OH234237   5.690   5.295   6.371
11435TIP3    H134238   5.592   5.289   6.363
11435TIP3    H234239   5.716   5.265   6.281
11436TIP3   OH234240   5.170   5.253   5.206
11436TIP3    H134241   5.142   5.179   5.263
11436TIP3    H234242   5.190   5.208   5.122
11437TIP3   OH234243   5.168   4.887   6.034
11437TIP3    H134244   5.074   4.863   6.047
11437TIP3    H234245   5.201   4.806   5.989
11438TIP3   OH234246   4.299   5.117   5.793
11438TIP3    H134247   4.299   5.195   5.736
11438TIP3    H234248   4.205   5.098   5.802
11439TIP3   OH234249   3.861   4.418   5.496
11439TIP3    H134250   3.904   4.503   5.518
11439TIP3    H234251   3.783   4.421   5.556
11440TIP3   OH234252   4.424   4.874   5.732
11440TIP3    H134253   4.397   4.966   5.751
11440TIP3    H234254   4.392   4.827   5.811
11441TIP3   OH234255   4.566   5.456   6.258
11441TIP3    H134256   4.609   5.529   6.208
11441TIP3    H234257   4.643   5.419   6.305
11442TIP3   OH234258   4.212   5.356   5.640
11442TIP3    H134259   4.128   5.365   5.689
11442TIP3    H234260   4.246   5.448   5.644
11443TIP3   OH234261   4.951   5.092   6.218
11443TIP3    H134262   4.940   5.089   6.316
11443TIP3    H234263   5.030   5.037   6.206
11444TIP3   OH234264   5.201   5.627   6.260
11444TIP3    H134265   5.120   5.572   6.254
11444TIP3    H234266   5.181   5.694   6.191
11445TIP3   OH234267   5.268   5.458   4.919
11445TIP3    H134268   5.305   5.532   4.869
11445TIP3    H234269   5.188   5.501   4.955
11446TIP3   OH234270   4.285   4.235   6.783
11446TIP3    H134271   4.188   4.237   6.796
11446TIP3    H234272   4.313   4.179   6.857
11447TIP3   OH234273   5.113   4.961   5.352
11447TIP3    H134274   5.075   4.880   5.389
11447TIP3    H234275   5.200   4.928   5.320
11448TIP3   OH234276   4.003   5.317   6.417
11448TIP3    H134277   4.058   5.245   6.451
11448TIP3    H234278   4.031   5.390   6.473
11449TIP3   OH234279   4.298   4.963   5.101
11449TIP3    H134280   4.304   4.868   5.078
11449TIP3    H234281   4.280   4.957   5.197
11450TIP3   OH234282   4.238   4.970   5.374
11450TIP3    H134283   4.320   4.944   5.419
11450TIP3    H234284   4.241   5.068   5.383
11451TIP3   OH234285   3.971   4.663   5.578
11451TIP3    H134286   3.904   4.708   5.634
11451TIP3    H234287   3.985   4.732   5.510
11452TIP3   OH234288   5.126   4.299   6.470
11452TIP3    H134289   5.207   4.338   6.507
11452TIP3    H234290   5.114   4.218   6.525
11453TIP3   OH234291   5.004   4.050   5.640
11453TIP3    H134292   4.997   4.071   5.545
11453TIP3    H234293   5.046   4.131   5.676
11454TIP3   OH234294   4.491   5.167   5.316
11454TIP3    H134295   4.405   5.196   5.352
11454TIP3    H234296   4.519   5.246   5.268
11455TIP3   OH234297   4.683   4.236   5.737
11455TIP3    H134298   4.749   4.306   5.718
11455TIP3    H234299   4.695   4.224   5.834
11456TIP3   OH234300   4.964   4.547   6.542
11456TIP3    H134301   4.988   4.598   6.621
11456TIP3    H234302   5.016   4.465   6.552
11457TIP3   OH234303   4.834   3.951   5.836
11457TIP3    H134304   4.835   4.026   5.899
11457TIP3    H234305   4.897   3.985   5.768
11458TIP3   OH234306   4.239   5.244   5.390
11458TIP3    H134307   4.212   5.317   5.330
11458TIP3    H234308   4.227   5.286   5.478
11459TIP3   OH234309   4.351   3.957   5.622
11459TIP3    H134310   4.353   4.044   5.667
11459TIP3    H234311   4.445   3.933   5.628
11460TIP3   OH234312   5.601   4.449   6.527
11460TIP3    H134313   5.503   4.447   6.532
11460TIP3    H234314   5.614   4.406   6.441
11461TIP3   OH234315   5.253   4.643   5.913
11461TIP3    H134316   5.177   4.583   5.924
11461TIP3    H234317   5.325   4.596   5.961
11462TIP3   OH234318   3.968   4.870   5.380
11462TIP3    H134319   4.040   4.934   5.393
11462TIP3    H234320   4.011   4.813   5.313
11463TIP3   OH234321   3.921   4.153   5.519
11463TIP3    H134322   3.905   4.249   5.514
11463TIP3    H234323   3.847   4.117   5.468
11464TIP3   OH234324   5.223   5.604   5.860
11464TIP3    H134325   5.177   5.641   5.784
11464TIP3    H234326   5.317   5.623   5.837
11465TIP3   OH234327   4.298   3.867   6.386
11465TIP3    H134328   4.268   3.832   6.300
11465TIP3    H234329   4.288   3.790   6.445
11466TIP3   OH234330   3.834   5.083   5.765
11466TIP3    H134331   3.771   5.114   5.831
11466TIP3    H234332   3.801   5.127   5.683
11467TIP3   OH234333   3.996   5.633   6.841
11467TIP3    H134334   4.083   5.633   6.887
11467TIP3    H234335   3.977   5.538   6.839
11468TIP3   OH234336   4.472   5.588   6.886
11468TIP3    H134337   4.567   5.571   6.891
11468TIP3    H234338   4.447   5.528   6.814
11469TIP3   OH234339   4.461   5.168   5.005
11469TIP3    H134340   4.409   5.097   5.050
11469TIP3    H234341   4.540   5.117   4.979
11470TIP3   OH234342   5.113   5.500   6.620
11470TIP3    H134343   5.106   5.430   6.689
11470TIP3    H234344   5.192   5.550   6.649
11471TIP3   OH234345   4.895   5.204   4.920
11471TIP3    H134346   4.956   5.158   4.978
11471TIP3    H234347   4.944   5.203   4.835
11472TIP3   OH234348   4.125   5.037   7.040
11472TIP3    H134349   4.140   4.941   7.049
11472TIP3    H234350   4.038   5.038   6.994
11473TIP3   OH234351   4.102   4.683   5.234
11473TIP3    H134352   4.159   4.658   5.308
11473TIP3    H234353   4.167   4.679   5.160
11474TIP3   OH234354   4.730   5.122   6.815
11474TIP3    H134355   4.691   5.142   6.728
11474TIP3    H234356   4.762   5.030   6.804
11475TIP3   OH234357   5.224   5.134   6.422
11475TIP3    H134358   5.301   5.174   6.379
11475TIP3    H234359   5.155   5.201   6.405
11476TIP3   OH234360   4.246   4.774   7.023
11476TIP3    H134361   4.320   4.719   6.997
11476TIP3    H234362   4.274   4.805   7.112
11477TIP3   OH234363   4.296   4.577   5.466
11477TIP3    H134364   4.269   4.573   5.560
11477TIP3    H234365   4.301   4.483   5.444
11478TIP3   OH234366   4.579   4.653   6.684
11478TIP3    H134367   4.501   4.713   6.683
11478TIP3    H234368   4.631   4.688   6.608
11479TIP3   OH234369   5.098   5.056   6.818
11479TIP3    H134370   5.175   5.025   6.769
11479TIP3    H234371   5.091   4.991   6.889
11480TIP3   OH234372   5.263   4.717   4.941
11480TIP3    H134373   5.199   4.660   4.895
11480TIP3    H234374   5.215   4.802   4.931
11481TIP3   OH234375   4.703   4.444   6.808
11481TIP3    H134376   4.704   4.365   6.751
11481TIP3    H234377   4.659   4.510   6.751
11482TIP3   OH234378   4.706   4.230   6.619
11482TIP3    H134379   4.734   4.271   6.535
11482TIP3    H234380   4.612   4.207   6.600
11483TIP3   OH234381   4.729   4.763   6.491
11483TIP3    H134382   4.815   4.776   6.450
11483TIP3    H234383   4.673   4.828   6.444
11484TIP3   OH234384   5.312   4.729   6.869
11484TIP3    H134385   5.360   4.646   6.881
11484TIP3    H234386   5.381   4.787   6.833
11485TIP3   OH234387   5.353   4.985   6.607
11485TIP3    H134388   5.296   5.040   6.549
11485TIP3    H234389   5.441   5.006   6.569
11486TIP3   OH234390   4.581   4.550   7.043
11486TIP3    H134391   4.514   4.480   7.059
11486TIP3    H234392   4.614   4.525   6.955
11487TIP3   OH234393   4.837   3.990   6.687
11487TIP3    H134394   4.787   4.072   6.665
11487TIP3    H234395   4.769   3.921   6.676
11488TIP3   OH234396   4.963   4.493   6.902
11488TIP3    H134397   4.948   4.478   6.997
11488TIP3    H234398   4.874   4.470   6.869
11489TIP3   OH234399   5.202   4.446   6.757
11489TIP3    H134400   5.128   4.447   6.821
11489TIP3    H234401   5.277   4.416   6.812
11490TIP3   OH234402   5.430   4.387   6.905
11490TIP3    H134403   5.444   4.291   6.921
11490TIP3    H234404   5.427   4.423   6.997
11491TIP3   OH234405   4.421   4.330   7.097
11491TIP3    H134406   4.423   4.238   7.065
11491TIP3    H234407   4.459   4.319   7.186
11492TIP3   OH234408   4.931   4.002   6.945
11492TIP3    H134409   4.997   3.929   6.939
11492TIP3    H234410   4.891   3.997   6.856
11493TIP3   OH234411   4.999   4.217   7.102
11493TIP3    H134412   4.978   4.145   7.039
11493TIP3    H234413   4.919   4.274   7.096
11494TIP3   OH234414   4.220   5.447   5.201
11494TIP3    H134415   4.315   5.436   5.184
11494TIP3    H234416   4.195   5.500   5.123
11495TIP3   OH234417   3.698   4.831   5.412
11495TIP3    H134418   3.793   4.851   5.402
11495TIP3    H234419   3.694   4.739   5.376
11496TIP3   OH234420   3.615   5.439   5.834
11496TIP3    H134421   3.549   5.377   5.795
11496TIP3    H234422   3.660   5.379   5.899
11497TIP3   OH234423   3.749   5.285   6.020
11497TIP3    H134424   3.738   5.215   6.087
11497TIP3    H234425   3.802   5.348   6.072
11498TIP3   OH234426   5.488   5.678   5.822
11498TIP3    H134427   5.497   5.708   5.915
11498TIP3    H234428   5.513   5.758   5.773
11499TIP3   OH234429   5.507   5.709   6.098
11499TIP3    H134430   5.468   5.619   6.107
11499TIP3    H234431   5.581   5.703   6.160
11500TIP3   OH234432   5.549   5.384   6.674
11500TIP3    H134433   5.478   5.396   6.741
11500TIP3    H234434   5.595   5.471   6.679
11501TIP3   OH234435   5.376   4.895   5.289
11501TIP3    H134436   5.443   4.959   5.261
11501TIP3    H234437   5.418   4.858   5.371
11502TIP3   OH234438   5.498   4.767   5.500
11502TIP3    H134439   5.430   4.725   5.557
11502TIP3    H234440   5.561   4.803   5.565
11503TIP3   OH234441   5.553   5.161   5.929
11503TIP3    H134442   5.605   5.090   5.886
11503TIP3    H234443   5.542   5.226   5.858
11504TIP3   OH234444   5.382   5.461   6.124
11504TIP3    H134445   5.310   5.504   6.175
11504TIP3    H234446   5.331   5.415   6.054
11505TIP3   OH234447   5.436   4.672   5.142
11505TIP3    H134448   5.371   4.677   5.068
11505TIP3    H234449   5.404   4.747   5.196
11506TIP3   OH234450   5.308   4.346   5.094
11506TIP3    H134451   5.254   4.382   5.023
11506TIP3    H234452   5.285   4.251   5.086
11507TIP3   OH234453   5.312   4.626   5.645
11507TIP3    H134454   5.317   4.530   5.635
11507TIP3    H234455   5.296   4.637   5.741
11508TIP3   OH234456   3.934   4.698   6.392
11508TIP3    H134457   3.931   4.664   6.300
11508TIP3    H234458   4.031   4.699   6.408
11509TIP3   OH234459   5.600   5.050   6.502
11509TIP3    H134460   5.670   4.982   6.491
11509TIP3    H234461   5.627   5.119   6.439
11510TIP3   OH234462   5.781   4.850   6.511
11510TIP3    H134463   5.707   4.800   6.552
11510TIP3    H234464   5.855   4.787   6.528
11511TIP3   OH234465   5.249   4.080   5.085
11511TIP3    H134466   5.326   4.050   5.138
11511TIP3    H234467   5.180   4.016   5.106
11512TIP3   OH234468   5.307   4.343   5.537
11512TIP3    H134469   5.348   4.254   5.551
11512TIP3    H234470   5.363   4.375   5.465
11513TIP3   OH234471   5.465   4.511   6.033
11513TIP3    H134472   5.551   4.536   5.991
11513TIP3    H234473   5.481   4.549   6.122
11514TIP3   OH234474   5.538   4.658   6.263
11514TIP3    H134475   5.461   4.692   6.312
11514TIP3    H234476   5.571   4.739   6.219
11515TIP3   OH234477   4.155   4.384   7.068
11515TIP3    H134478   4.253   4.377   7.071
11515TIP3    H234479   4.130   4.297   7.104
11516TIP3   OH234480   5.987   4.252   6.819
11516TIP3    H134481   6.049   4.187   6.778
11516TIP3    H234482   5.957   4.303   6.741
11517TIP3   OH234483   5.414   4.092   5.575
11517TIP3    H134484   5.464   4.076   5.659
11517TIP3    H234485   5.354   4.015   5.574
11518TIP3   OH234486   4.114   4.076   6.394
11518TIP3    H134487   4.175   4.000   6.404
11518TIP3    H234488   4.178   4.150   6.387
11519TIP3   OH234489   3.915   4.348   6.466
11519TIP3    H134490   3.965   4.346   6.382
11519TIP3    H234491   3.945   4.431   6.505
11520TIP3   OH234492   5.856   4.386   6.623
11520TIP3    H134493   5.771   4.430   6.641
11520TIP3    H234494   5.824   4.313   6.566
11521TIP3   OH234495   5.493   4.022   5.211
11521TIP3    H134496   5.533   3.953   5.154
11521TIP3    H234497   5.560   4.093   5.207
11522TIP3   OH234498   3.902   3.854   5.969
11522TIP3    H134499   3.809   3.846   5.997
11522TIP3    H234500   3.894   3.912   5.891
11523TIP3   OH234501   5.074   5.582   5.484
11523TIP3    H134502   5.111   5.544   5.402
11523TIP3    H234503   5.116   5.669   5.482
11524TIP3   OH234504   4.122   3.934   6.783
11524TIP3    H134505   4.070   3.927   6.865
11524TIP3    H234506   4.055   3.971   6.722
11525TIP3   OH234507   4.159   5.366   6.858
11525TIP3    H134508   4.067   5.338   6.843
11525TIP3    H234509   4.172   5.341   6.951
11526TIP3   OH234510   4.340   5.397   6.408
11526TIP3    H134511   4.294   5.474   6.368
11526TIP3    H234512   4.427   5.409   6.363
11527TIP3   OH234513   4.781   5.639   6.546
11527TIP3    H134514   4.824   5.638   6.634
11527TIP3    H234515   4.847   5.690   6.495
11528TIP3   OH234516   4.961   5.792   6.408
11528TIP3    H134517   5.032   5.742   6.365
11528TIP3    H234518   5.013   5.849   6.468
11529TIP3   OH234519   5.757   4.150   6.505
11529TIP3    H134520   5.667   4.139   6.469
11529TIP3    H234521   5.792   4.058   6.496
11530TIP3   OH234522   4.013   5.651   6.432
11530TIP3    H134523   3.923   5.684   6.410
11530TIP3    H234524   4.028   5.694   6.517
11531TIP3   OH234525   4.251   5.630   6.292
11531TIP3    H134526   4.163   5.642   6.334
11531TIP3    H234527   4.234   5.661   6.201
11532TIP3   OH234528   4.676   5.654   6.092
11532TIP3    H134529   4.609   5.671   6.024
11532TIP3    H234530   4.687   5.742   6.132
11533TIP3   OH234531   4.947   5.599   6.138
11533TIP3    H134532   4.852   5.614   6.121
11533TIP3    H234533   4.987   5.675   6.092
11534TIP3   OH234534   5.148   5.793   6.046
11534TIP3    H134535   5.144   5.867   5.981
11534TIP3    H234536   5.183   5.724   5.986
11535TIP3   OH234537   3.926   5.443   6.176
11535TIP3    H134538   3.953   5.415   6.267
11535TIP3    H234539   3.998   5.400   6.125
11536TIP3   OH234540   4.122   5.316   6.036
11536TIP3    H134541   4.137   5.232   6.085
11536TIP3    H234542   4.213   5.352   6.032
11537TIP3   OH234543   4.389   5.408   6.041
11537TIP3    H134544   4.419   5.316   6.029
11537TIP3    H234545   4.437   5.430   6.123
11538TIP3   OH234546   4.957   4.063   6.119
11538TIP3    H134547   4.919   3.993   6.174
11538TIP3    H234548   5.036   4.019   6.081
11539TIP3   OH234549   5.482   3.947   6.028
11539TIP3    H134550   5.519   3.998   5.953
11539TIP3    H234551   5.387   3.967   6.022
11540TIP3   OH234552   5.578   4.045   5.792
11540TIP3    H134553   5.652   3.993   5.754
11540TIP3    H234554   5.613   4.136   5.778
11541TIP3   OH234555   4.210   3.774   6.138
11541TIP3    H134556   4.118   3.742   6.142
11541TIP3    H234557   4.258   3.689   6.134
11542TIP3   OH234558   4.001   3.646   5.791
11542TIP3    H134559   4.028   3.702   5.717
11542TIP3    H234560   3.973   3.712   5.858
11543TIP3   OH234561   4.655   3.807   6.021
11543TIP3    H134562   4.712   3.854   5.958
11543TIP3    H234563   4.684   3.845   6.106
11544TIP3   OH234564   5.196   3.954   6.004
11544TIP3    H134565   5.203   3.913   5.917
11544TIP3    H234566   5.186   3.875   6.062
11545TIP3   OH234567   5.231   3.879   5.567
11545TIP3    H134568   5.144   3.921   5.584
11545TIP3    H234569   5.218   3.792   5.612
11546TIP3   OH234570   3.715   5.218   5.564
11546TIP3    H134571   3.629   5.186   5.532
11546TIP3    H234572   3.706   5.313   5.545
11547TIP3   OH234573   4.118   3.803   5.550
11547TIP3    H134574   4.163   3.737   5.493
11547TIP3    H234575   4.194   3.854   5.584
11548TIP3   OH234576   4.634   3.985   5.640
11548TIP3    H134577   4.687   3.934   5.703
11548TIP3    H234578   4.652   4.076   5.674
11549TIP3   OH234579   4.486   5.404   5.148
11549TIP3    H134580   4.575   5.425   5.113
11549TIP3    H234581   4.466   5.327   5.090
11550TIP3   OH234582   5.206   5.520   5.245
11550TIP3    H134583   5.197   5.423   5.236
11550TIP3    H234584   5.160   5.551   5.165
11551TIP3   OH234585   4.418   4.056   7.032
11551TIP3    H134586   4.381   3.985   7.087
11551TIP3    H234587   4.512   4.054   7.061
11552TIP3   OH234588   4.669   4.053   7.150
11552TIP3    H134589   4.754   4.026   7.112
11552TIP3    H234590   4.655   3.984   7.219
11553TIP3   OH234591   3.789   5.241   5.203
11553TIP3    H134592   3.792   5.258   5.298
11553TIP3    H234593   3.876   5.198   5.187
11554TIP3   OH234594   5.496   4.116   6.937
11554TIP3    H134595   5.513   4.085   7.028
11554TIP3    H234596   5.585   4.111   6.897
11555TIP3   OH234597   5.430   5.666   6.426
11555TIP3    H134598   5.351   5.638   6.377
11555TIP3    H234599   5.412   5.761   6.434
11556TIP3   OH234600   6.700   5.039   5.192
11556TIP3    H134601   6.671   5.130   5.175
11556TIP3    H234602   6.622   4.989   5.162
11557TIP3   OH234603   6.687   5.041   5.584
11557TIP3    H134604   6.727   5.022   5.671
11557TIP3    H234605   6.655   4.953   5.559
11558TIP3   OH234606   5.994   4.933   5.944
11558TIP3    H134607   6.020   4.863   6.006
11558TIP3    H234608   6.079   4.979   5.931
11559TIP3   OH234609   6.941   5.345   5.263
11559TIP3    H134610   6.932   5.275   5.330
11559TIP3    H234611   6.974   5.419   5.317
11560TIP3   OH234612   5.999   5.349   5.712
11560TIP3    H134613   5.972   5.256   5.697
11560TIP3    H234614   6.077   5.352   5.652
11561TIP3   OH234615   5.675   4.545   5.447
11561TIP3    H134616   5.626   4.627   5.466
11561TIP3    H234617   5.604   4.493   5.404
11562TIP3   OH234618   5.734   4.835   5.630
11562TIP3    H134619   5.782   4.755   5.662
11562TIP3    H234620   5.792   4.864   5.558
11563TIP3   OH234621   6.590   5.800   5.280
11563TIP3    H134622   6.631   5.730   5.225
11563TIP3    H234623   6.601   5.763   5.369
11564TIP3   OH234624   6.496   5.267   5.629
11564TIP3    H134625   6.538   5.188   5.590
11564TIP3    H234626   6.578   5.315   5.652
11565TIP3   OH234627   7.513   4.587   5.628
11565TIP3    H134628   7.539   4.668   5.675
11565TIP3    H234629   7.530   4.613   5.535
11566TIP3   OH234630   6.902   4.768   5.654
11566TIP3    H134631   6.949   4.687   5.679
11566TIP3    H234632   6.875   4.746   5.563
11567TIP3   OH234633   6.248   4.426   5.621
11567TIP3    H134634   6.230   4.499   5.558
11567TIP3    H234635   6.200   4.353   5.577
11568TIP3   OH234636   6.945   4.517   5.242
11568TIP3    H134637   7.014   4.502   5.310
11568TIP3    H234638   7.000   4.552   5.170
11569TIP3   OH234639   5.881   4.627   5.729
11569TIP3    H134640   5.964   4.608   5.777
11569TIP3    H234641   5.895   4.571   5.649
11570TIP3   OH234642   6.319   4.825   5.527
11570TIP3    H134643   6.414   4.802   5.537
11570TIP3    H234644   6.282   4.740   5.493
11571TIP3   OH234645   7.585   4.797   5.795
11571TIP3    H134646   7.500   4.841   5.775
11571TIP3    H234647   7.595   4.821   5.888
11572TIP3   OH234648   6.243   4.410   6.056
11572TIP3    H134649   6.184   4.447   5.988
11572TIP3    H234650   6.191   4.428   6.137
11573TIP3   OH234651   6.587   5.262   5.062
11573TIP3    H134652   6.544   5.246   4.977
11573TIP3    H234653   6.542   5.344   5.092
11574TIP3   OH234654   6.351   5.187   5.849
11574TIP3    H134655   6.303   5.261   5.889
11574TIP3    H234656   6.400   5.231   5.776
11575TIP3   OH234657   7.147   4.523   5.423
11575TIP3    H134658   7.127   4.486   5.510
11575TIP3    H234659   7.199   4.602   5.447
11576TIP3   OH234660   6.115   4.525   5.840
11576TIP3    H134661   6.177   4.596   5.865
11576TIP3    H234662   6.164   4.485   5.765
11577TIP3   OH234663   6.166   5.396   5.933
11577TIP3    H134664   6.105   5.360   5.863
11577TIP3    H234665   6.109   5.382   6.011
11578TIP3   OH234666   5.572   5.071   5.183
11578TIP3    H134667   5.528   5.098   5.100
11578TIP3    H234668   5.604   5.157   5.217
11579TIP3   OH234669   7.006   5.587   5.422
11579TIP3    H134670   6.917   5.578   5.461
11579TIP3    H234671   6.999   5.676   5.380
11580TIP3   OH234672   7.300   4.463   5.771
11580TIP3    H134673   7.217   4.509   5.750
11580TIP3    H234674   7.365   4.509   5.714
11581TIP3   OH234675   6.595   4.125   5.770
11581TIP3    H134676   6.580   4.031   5.790
11581TIP3    H234677   6.519   4.165   5.818
11582TIP3   OH234678   6.706   5.630   5.092
11582TIP3    H134679   6.758   5.547   5.077
11582TIP3    H234680   6.770   5.695   5.055
11583TIP3   OH234681   6.856   5.415   5.011
11583TIP3    H134682   6.813   5.335   4.979
11583TIP3    H234683   6.895   5.384   5.096
11584TIP3   OH234684   7.236   5.496   5.770
11584TIP3    H134685   7.226   5.417   5.712
11584TIP3    H234686   7.220   5.570   5.708
11585TIP3   OH234687   6.527   4.890   5.027
11585TIP3    H134688   6.449   4.944   5.005
11585TIP3    H234689   6.575   4.888   4.942
11586TIP3   OH234690   6.485   4.680   4.738
11586TIP3    H134691   6.552   4.731   4.788
11586TIP3    H234692   6.544   4.616   4.691
11587TIP3   OH234693   7.433   5.133   5.613
11587TIP3    H134694   7.349   5.182   5.624
11587TIP3    H234695   7.460   5.163   5.524
11588TIP3   OH234696   6.878   4.974   4.995
11588TIP3    H134697   6.824   4.997   5.074
11588TIP3    H234698   6.963   4.950   5.039
11589TIP3   OH234699   7.114   5.029   5.857
11589TIP3    H134700   7.146   5.022   5.950
11589TIP3    H234701   7.023   5.058   5.866
11590TIP3   OH234702   6.110   4.972   5.417
11590TIP3    H134703   6.069   4.913   5.350
11590TIP3    H234704   6.185   4.917   5.449
11591TIP3   OH234705   6.234   5.377   5.581
11591TIP3    H134706   6.221   5.361   5.485
11591TIP3    H234707   6.324   5.341   5.593
11592TIP3   OH234708   6.239   4.945   5.770
11592TIP3    H134709   6.275   4.916   5.683
11592TIP3    H234710   6.288   5.028   5.787
11593TIP3   OH234711   6.765   5.579   5.544
11593TIP3    H134712   6.759   5.661   5.597
11593TIP3    H234713   6.753   5.508   5.610
11594TIP3   OH234714   6.386   5.504   6.094
11594TIP3    H134715   6.328   5.563   6.147
11594TIP3    H234716   6.321   5.454   6.043
11595TIP3   OH234717   6.714   4.835   4.824
11595TIP3    H134718   6.775   4.894   4.874
11595TIP3    H234719   6.741   4.855   4.731
11596TIP3   OH234720   6.139   5.058   6.198
11596TIP3    H134721   6.142   5.145   6.242
11596TIP3    H234722   6.045   5.035   6.210
11597TIP3   OH234723   6.459   5.511   5.099
11597TIP3    H134724   6.544   5.558   5.108
11597TIP3    H234725   6.403   5.579   5.058
11598TIP3   OH234726   6.170   5.653   6.184
11598TIP3    H134727   6.101   5.649   6.117
11598TIP3    H234728   6.113   5.640   6.263
11599TIP3   OH234729   7.231   4.071   4.873
11599TIP3    H134730   7.150   4.093   4.923
11599TIP3    H234731   7.246   4.155   4.825
11600TIP3   OH234732   5.976   4.815   5.220
11600TIP3    H134733   5.905   4.856   5.164
11600TIP3    H234734   5.942   4.726   5.231
11601TIP3   OH234735   7.033   5.437   4.419
11601TIP3    H134736   7.043   5.534   4.408
11601TIP3    H234737   7.126   5.408   4.408
11602TIP3   OH234738   5.755   5.199   6.126
11602TIP3    H134739   5.687   5.175   6.061
11602TIP3    H234740   5.793   5.112   6.151
11603TIP3   OH234741   5.610   5.398   5.750
11603TIP3    H134742   5.704   5.389   5.771
11603TIP3    H234743   5.582   5.472   5.807
11604TIP3   OH234744   7.478   5.846   5.819
11604TIP3    H134745   7.477   5.750   5.835
11604TIP3    H234746   7.393   5.871   5.864
11605TIP3   OH234747   6.574   5.633   5.943
11605TIP3    H134748   6.576   5.725   5.979
11605TIP3    H234749   6.511   5.590   6.005
11606TIP3   OH234750   6.342   5.753   4.903
11606TIP3    H134751   6.297   5.741   4.818
11606TIP3    H234752   6.311   5.842   4.930
11607TIP3   OH234753   5.778   5.601   5.285
11607TIP3    H134754   5.816   5.570   5.368
11607TIP3    H234755   5.720   5.526   5.263
11608TIP3   OH234756   6.536   5.657   4.545
11608TIP3    H134757   6.597   5.595   4.501
11608TIP3    H234758   6.578   5.667   4.633
11609TIP3   OH234759   6.595   5.708   4.813
11609TIP3    H134760   6.507   5.716   4.856
11609TIP3    H234761   6.649   5.674   4.887
11610TIP3   OH234762   5.958   5.384   6.110
11610TIP3    H134763   6.002   5.376   6.197
11610TIP3    H234764   5.886   5.317   6.118
11611TIP3   OH234765   6.359   4.203   5.903
11611TIP3    H134766   6.271   4.174   5.873
11611TIP3    H234767   6.334   4.284   5.951
11612TIP3   OH234768   6.892   4.314   6.092
11612TIP3    H134769   6.964   4.294   6.156
11612TIP3    H234770   6.811   4.299   6.144
11613TIP3   OH234771   6.789   4.874   4.565
11613TIP3    H134772   6.758   4.852   4.476
11613TIP3    H234773   6.874   4.918   4.545
11614TIP3   OH234774   6.505   4.252   4.874
11614TIP3    H134775   6.470   4.247   4.965
11614TIP3    H234776   6.465   4.171   4.837
11615TIP3   OH234777   6.290   4.722   5.919
11615TIP3    H134778   6.242   4.744   6.001
11615TIP3    H234779   6.275   4.803   5.865
11616TIP3   OH234780   6.175   4.607   5.433
11616TIP3    H134781   6.082   4.579   5.452
11616TIP3    H234782   6.187   4.565   5.345
11617TIP3   OH234783   6.666   4.690   5.162
11617TIP3    H134784   6.616   4.762   5.117
11617TIP3    H234785   6.721   4.657   5.089
11618TIP3   OH234786   6.840   4.969   6.240
11618TIP3    H134787   6.831   4.897   6.306
11618TIP3    H234788   6.936   4.970   6.222
11619TIP3   OH234789   6.819   4.715   5.398
11619TIP3    H134790   6.758   4.744   5.327
11619TIP3    H234791   6.857   4.636   5.354
11620TIP3   OH234792   6.108   4.749   6.128
11620TIP3    H134793   6.149   4.809   6.192
11620TIP3    H234794   6.100   4.667   6.180
11621TIP3   OH234795   6.162   4.228   4.837
11621TIP3    H134796   6.151   4.226   4.934
11621TIP3    H234797   6.084   4.280   4.810
11622TIP3   OH234798   5.705   4.267   5.710
11622TIP3    H134799   5.779   4.301   5.764
11622TIP3    H234800   5.746   4.240   5.627
11623TIP3   OH234801   5.670   4.250   5.227
11623TIP3    H134802   5.717   4.286   5.149
11623TIP3    H234803   5.609   4.324   5.245
11624TIP3   OH234804   6.806   4.961   5.819
11624TIP3    H134805   6.857   4.899   5.762
11624TIP3    H234806   6.794   4.904   5.898
11625TIP3   OH234807   6.505   4.428   5.492
11625TIP3    H134808   6.426   4.427   5.550
11625TIP3    H234809   6.578   4.422   5.557
11626TIP3   OH234810   5.937   4.485   5.501
11626TIP3    H134811   5.843   4.492   5.472
11626TIP3    H234812   5.960   4.393   5.478
11627TIP3   OH234813   6.202   4.479   5.193
11627TIP3    H134814   6.296   4.493   5.172
11627TIP3    H234815   6.156   4.500   5.108
11628TIP3   OH234816   6.994   4.508   5.693
11628TIP3    H134817   6.974   4.520   5.789
11628TIP3    H234818   6.923   4.447   5.666
11629TIP3   OH234819   6.051   4.517   4.968
11629TIP3    H134820   5.981   4.470   4.920
11629TIP3    H234821   6.103   4.553   4.893
11630TIP3   OH234822   7.164   6.191   5.917
11630TIP3    H134823   7.165   6.225   5.825
11630TIP3    H234824   7.228   6.250   5.960
11631TIP3   OH234825   6.122   5.305   6.334
11631TIP3    H134826   6.202   5.334   6.383
11631TIP3    H234827   6.057   5.308   6.407
11632TIP3   OH234828   6.584   4.757   5.589
11632TIP3    H134829   6.661   4.722   5.540
11632TIP3    H234830   6.595   4.716   5.676
11633TIP3   OH234831   6.104   4.244   5.473
11633TIP3    H134832   6.068   4.167   5.522
11633TIP3    H234833   6.153   4.201   5.402
11634TIP3   OH234834   6.564   4.654   5.885
11634TIP3    H134835   6.476   4.695   5.897
11634TIP3    H234836   6.624   4.715   5.933
11635TIP3   OH234837   6.296   5.045   4.973
11635TIP3    H134838   6.226   4.977   4.962
11635TIP3    H234839   6.276   5.078   5.064
11636TIP3   OH234840   7.201   5.283   5.602
11636TIP3    H134841   7.221   5.333   5.520
11636TIP3    H234842   7.117   5.237   5.580
11637TIP3   OH234843   6.755   4.356   4.838
11637TIP3    H134844   6.659   4.335   4.851
11637TIP3    H234845   6.762   4.449   4.867
11638TIP3   OH234846   6.681   5.356   5.979
11638TIP3    H134847   6.743   5.344   6.052
11638TIP3    H234848   6.663   5.451   5.982
11639TIP3   OH234849   6.824   4.604   4.944
11639TIP3    H134850   6.920   4.609   4.962
11639TIP3    H234851   6.808   4.686   4.894
11640TIP3   OH234852   5.993   5.077   5.649
11640TIP3    H134853   6.029   5.045   5.564
11640TIP3    H234854   6.035   5.015   5.711
11641TIP3   OH234855   6.441   5.192   4.793
11641TIP3    H134856   6.393   5.278   4.798
11641TIP3    H234857   6.389   5.137   4.856
11642TIP3   OH234858   5.873   4.989   6.266
11642TIP3    H134859   5.894   4.975   6.361
11642TIP3    H234860   5.806   4.921   6.250
11643TIP3   OH234861   6.601   5.101   6.287
11643TIP3    H134862   6.544   5.043   6.234
11643TIP3    H234863   6.690   5.068   6.260
11644TIP3   OH234864   6.851   5.624   5.870
11644TIP3    H134865   6.755   5.629   5.883
11644TIP3    H234866   6.883   5.675   5.948
11645TIP3   OH234867   7.264   4.697   4.778
11645TIP3    H134868   7.202   4.654   4.715
11645TIP3    H234869   7.263   4.787   4.740
11646TIP3   OH234870   7.488   5.559   5.855
11646TIP3    H134871   7.390   5.548   5.854
11646TIP3    H234872   7.510   5.525   5.766
11647TIP3   OH234873   6.964   5.515   4.686
11647TIP3    H134874   6.942   5.447   4.752
11647TIP3    H234875   6.980   5.463   4.605
11648TIP3   OH234876   6.962   5.150   5.509
11648TIP3    H134877   6.871   5.124   5.529
11648TIP3    H234878   6.998   5.066   5.474
11649TIP3   OH234879   6.092   5.377   5.286
11649TIP3    H134880   6.091   5.453   5.225
11649TIP3    H234881   6.004   5.340   5.271
11650TIP3   OH234882   5.653   4.674   4.975
11650TIP3    H134883   5.700   4.756   5.000
11650TIP3    H234884   5.579   4.674   5.039
11651TIP3   OH234885   6.221   5.135   5.215
11651TIP3    H134886   6.196   5.225   5.244
11651TIP3    H234887   6.193   5.082   5.292
11652TIP3   OH234888   6.348   5.719   5.748
11652TIP3    H134889   6.396   5.785   5.689
11652TIP3    H234890   6.426   5.688   5.801
11653TIP3   OH234891   6.011   5.614   5.127
11653TIP3    H134892   5.925   5.626   5.171
11653TIP3    H234893   6.047   5.705   5.130
11654TIP3   OH234894   6.747   5.348   5.709
11654TIP3    H134895   6.735   5.342   5.806
11654TIP3    H234896   6.833   5.305   5.698
11655TIP3   OH234897   6.726   5.245   4.590
11655TIP3    H134898   6.783   5.218   4.666
11655TIP3    H234899   6.640   5.214   4.621
11656TIP3   OH234900   6.997   5.875   5.753
11656TIP3    H134901   6.916   5.821   5.746
11656TIP3    H234902   6.982   5.942   5.682
11657TIP3   OH234903   7.064   5.714   4.406
11657TIP3    H134904   7.103   5.790   4.359
11657TIP3    H234905   6.982   5.758   4.440
11658TIP3   OH234906   6.082   4.492   6.271
11658TIP3    H134907   5.985   4.493   6.283
11658TIP3    H234908   6.110   4.436   6.344
11659TIP3   OH234909   6.888   5.171   4.799
11659TIP3    H134910   6.877   5.108   4.873
11659TIP3    H234911   6.986   5.169   4.790
11660TIP3   OH234912   5.854   5.581   5.899
11660TIP3    H134913   5.869   5.511   5.966
11660TIP3    H234914   5.824   5.656   5.953
11661TIP3   OH234915   6.087   5.221   4.588
11661TIP3    H134916   6.102   5.128   4.562
11661TIP3    H234917   6.067   5.212   4.683
11662TIP3   OH234918   6.033   5.227   4.860
11662TIP3    H134919   6.109   5.197   4.911
11662TIP3    H234920   6.039   5.325   4.869
11663TIP3   OH234921   5.768   4.917   5.063
11663TIP3    H134922   5.701   4.962   5.119
11663TIP3    H234923   5.781   4.986   4.995
11664TIP3   OH234924   6.942   4.551   5.961
11664TIP3    H134925   6.978   4.598   6.039
11664TIP3    H234926   6.915   4.467   6.003
11665TIP3   OH234927   6.804   4.304   5.124
11665TIP3    H134928   6.792   4.328   5.031
11665TIP3    H234929   6.844   4.386   5.161
11666TIP3   OH234930   6.300   5.422   4.804
11666TIP3    H134931   6.214   5.447   4.843
11666TIP3    H234932   6.321   5.504   4.756
11667TIP3   OH234933   6.484   4.490   5.224
11667TIP3    H134934   6.549   4.562   5.208
11667TIP3    H234935   6.492   4.478   5.321
11668TIP3   OH234936   6.758   4.799   6.035
11668TIP3    H134937   6.776   4.859   6.110
11668TIP3    H234938   6.823   4.729   6.054
11669TIP3   OH234939   6.631   4.207   5.322
11669TIP3    H134940   6.631   4.281   5.385
11669TIP3    H234941   6.694   4.241   5.254
11670TIP3   OH234942   6.048   5.500   4.878
11670TIP3    H134943   6.017   5.569   4.815
11670TIP3    H234944   6.032   5.544   4.964
11671TIP3   OH234945   6.145   4.214   5.113
11671TIP3    H134946   6.143   4.304   5.152
11671TIP3    H234947   6.241   4.196   5.121
11672TIP3   OH234948   7.395   4.676   6.014
11672TIP3    H134949   7.365   4.754   6.067
11672TIP3    H234950   7.356   4.699   5.930
11673TIP3   OH234951   7.050   4.899   5.397
11673TIP3    H134952   6.974   4.841   5.416
11673TIP3    H234953   7.122   4.855   5.448
11674TIP3   OH234954   5.765   5.124   4.866
11674TIP3    H134955   5.838   5.189   4.876
11674TIP3    H234956   5.807   5.065   4.800
11675TIP3   OH234957   5.704   4.404   5.003
11675TIP3    H134958   5.704   4.502   4.998
11675TIP3    H234959   5.623   4.382   4.956
11676TIP3   OH234960   7.019   5.856   5.344
11676TIP3    H134961   6.978   5.903   5.268
11676TIP3    H234962   7.114   5.875   5.325
11677TIP3   OH234963   6.093   4.124   5.873
11677TIP3    H134964   6.064   4.089   5.786
11677TIP3    H234965   6.084   4.046   5.931
11678TIP3   OH234966   5.634   5.350   5.252
11678TIP3    H134967   5.568   5.372   5.318
11678TIP3    H234968   5.593   5.387   5.170
11679TIP3   OH234969   5.777   5.860   6.273
11679TIP3    H134970   5.830   5.901   6.345
11679TIP3    H234971   5.760   5.772   6.310
11680TIP3   OH234972   6.296   5.857   6.343
11680TIP3    H134973   6.383   5.820   6.360
11680TIP3    H234974   6.258   5.793   6.282
11681TIP3   OH234975   6.249   5.422   4.494
11681TIP3    H134976   6.192   5.353   4.535
11681TIP3    H234977   6.329   5.370   4.478
11682TIP3   OH234978   6.910   5.754   6.106
11682TIP3    H134979   6.904   5.686   6.176
11682TIP3    H234980   6.989   5.805   6.133
11683TIP3   OH234981   6.687   5.461   4.413
11683TIP3    H134982   6.724   5.400   4.479
11683TIP3    H234983   6.751   5.455   4.340
11684TIP3   OH234984   5.921   5.291   6.527
11684TIP3    H134985   5.937   5.195   6.533
11684TIP3    H234986   5.834   5.294   6.482
11685TIP3   OH234987   5.900   4.939   4.723
11685TIP3    H134988   5.955   4.906   4.796
11685TIP3    H234989   5.967   4.944   4.652
11686TIP3   OH234990   6.527   5.375   6.304
11686TIP3    H134991   6.498   5.399   6.213
11686TIP3    H234992   6.562   5.284   6.292
11687TIP3   OH234993   6.411   5.143   4.525
11687TIP3    H134994   6.415   5.154   4.622
11687TIP3    H234995   6.413   5.045   4.518
11688TIP3   OH234996   7.008   5.394   5.896
11688TIP3    H134997   7.095   5.425   5.862
11688TIP3    H234998   6.953   5.473   5.880
11689TIP3   OH234999   6.042   5.026   6.510
11689TIP3    H135000   6.121   4.979   6.482
11689TIP3    H235001   6.070   5.061   6.598
11690TIP3   OH235002   6.104   4.848   4.941
11690TIP3    H135003   6.078   4.807   5.025
11690TIP3    H235004   6.142   4.772   4.892
11691TIP3   OH235005   6.370   4.905   6.167
11691TIP3    H135006   6.297   4.970   6.168
11691TIP3    H235007   6.427   4.940   6.094
11692TIP3   OH235008   6.208   4.643   4.783
11692TIP3    H135009   6.184   4.648   4.688
11692TIP3    H235010   6.306   4.642   4.776
11693TIP3   OH235011   6.898   5.314   6.294
11693TIP3    H135012   6.976   5.289   6.240
11693TIP3    H235013   6.899   5.247   6.363
11694TIP3   OH235014   7.023   4.969   4.450
11694TIP3    H135015   7.007   4.925   4.364
11694TIP3    H235016   6.990   5.059   4.428
11695TIP3   OH235017   6.499   4.701   6.296
11695TIP3    H135018   6.502   4.621   6.239
11695TIP3    H235019   6.455   4.766   6.238
11696TIP3   OH235020   6.502   4.486   6.107
11696TIP3    H135021   6.532   4.529   6.024
11696TIP3    H235022   6.408   4.464   6.085
11697TIP3   OH235023   6.527   5.016   5.979
11697TIP3    H135024   6.615   5.023   5.938
11697TIP3    H235025   6.476   5.084   5.931
11698TIP3   OH235026   7.125   5.270   6.115
11698TIP3    H135027   7.080   5.306   6.036
11698TIP3    H235028   7.212   5.248   6.077
11699TIP3   OH235029   6.377   4.806   6.530
11699TIP3    H135030   6.310   4.737   6.545
11699TIP3    H235031   6.411   4.782   6.442
11700TIP3   OH235032   6.631   4.247   6.177
11700TIP3    H135033   6.582   4.329   6.153
11700TIP3    H235034   6.563   4.178   6.164
11701TIP3   OH235035   6.762   4.755   6.392
11701TIP3    H135036   6.746   4.738   6.487
11701TIP3    H235037   6.673   4.732   6.357
11702TIP3   OH235038   6.977   4.674   6.212
11702TIP3    H135039   6.926   4.681   6.294
11702TIP3    H235040   7.069   4.682   6.244
11703TIP3   OH235041   7.247   4.643   6.397
11703TIP3    H135042   7.244   4.547   6.414
11703TIP3    H235043   7.234   4.682   6.485
11704TIP3   OH235044   6.215   4.587   6.584
11704TIP3    H135045   6.220   4.495   6.551
11704TIP3    H235046   6.254   4.575   6.674
11705TIP3   OH235047   6.725   4.255   6.435
11705TIP3    H135048   6.792   4.185   6.426
11705TIP3    H235049   6.686   4.253   6.345
11706TIP3   OH235050   6.792   4.471   6.593
11706TIP3    H135051   6.772   4.400   6.528
11706TIP3    H235052   6.714   4.529   6.584
11707TIP3   OH235053   6.015   5.703   4.689
11707TIP3    H135054   6.111   5.694   4.671
11707TIP3    H235055   5.989   5.755   4.612
11708TIP3   OH235056   5.494   5.087   4.903
11708TIP3    H135057   5.589   5.107   4.888
11708TIP3    H235058   5.487   4.998   4.863
11709TIP3   OH235059   5.420   5.686   5.312
11709TIP3    H135060   5.351   5.626   5.277
11709TIP3    H235061   5.461   5.628   5.379
11710TIP3   OH235062   5.544   5.540   5.510
11710TIP3    H135063   5.534   5.467   5.575
11710TIP3    H235064   5.582   5.608   5.568
11711TIP3   OH235065   7.273   5.945   5.307
11711TIP3    H135066   7.294   5.974   5.398
11711TIP3    H235067   7.338   5.995   5.255
11712TIP3   OH235068   7.300   5.963   5.584
11712TIP3    H135069   7.259   5.873   5.586
11712TIP3    H235070   7.373   5.949   5.646
11713TIP3   OH235071   7.351   5.647   6.164
11713TIP3    H135072   7.276   5.654   6.226
11713TIP3    H235073   7.392   5.736   6.170
11714TIP3   OH235074   7.166   5.156   4.780
11714TIP3    H135075   7.233   5.221   4.751
11714TIP3    H235076   7.209   5.119   4.860
11715TIP3   OH235077   7.292   5.023   4.984
11715TIP3    H135078   7.226   4.982   5.045
11715TIP3    H235079   7.358   5.059   5.047
11716TIP3   OH235080   7.348   5.420   5.411
11716TIP3    H135081   7.403   5.351   5.368
11716TIP3    H235082   7.346   5.490   5.343
11717TIP3   OH235083   7.176   5.715   5.608
11717TIP3    H135084   7.106   5.758   5.662
11717TIP3    H235085   7.124   5.669   5.539
11718TIP3   OH235086   7.229   4.932   4.629
11718TIP3    H135087   7.157   4.935   4.563
11718TIP3    H235088   7.202   5.007   4.686
11719TIP3   OH235089   7.099   4.604   4.583
11719TIP3    H135090   7.056   4.637   4.503
11719TIP3    H235091   7.078   4.509   4.577
11720TIP3   OH235092   7.104   4.882   5.129
11720TIP3    H135093   7.113   4.786   5.124
11720TIP3    H235094   7.089   4.896   5.226
11721TIP3   OH235095   5.730   4.956   5.879
11721TIP3    H135096   5.728   4.920   5.787
11721TIP3    H235097   5.827   4.956   5.896
11722TIP3   OH235098   7.393   5.308   5.995
11722TIP3    H135099   7.448   5.227   5.984
11722TIP3    H235100   7.423   5.364   5.923
11723TIP3   OH235101   7.553   5.088   5.998
11723TIP3    H135102   7.476   5.042   6.039
11723TIP3    H235103   7.625   5.026   6.022
11724TIP3   OH235104   7.045   4.338   4.564
11724TIP3    H135105   7.117   4.307   4.622
11724TIP3    H235106   6.970   4.280   4.588
11725TIP3   OH235107   7.102   4.596   5.021
11725TIP3    H135108   7.142   4.507   5.036
11725TIP3    H235109   7.161   4.630   4.952
11726TIP3   OH235110   7.261   4.767   5.519
11726TIP3    H135111   7.347   4.791   5.480
11726TIP3    H235112   7.273   4.807   5.608
11727TIP3   OH235113   7.336   4.907   5.747
11727TIP3    H135114   7.260   4.940   5.800
11727TIP3    H235115   7.368   4.991   5.710
11728TIP3   OH235116   5.949   4.638   6.551
11728TIP3    H135117   6.046   4.634   6.555
11728TIP3    H235118   5.926   4.552   6.590
11729TIP3   OH235119   7.789   4.513   6.306
11729TIP3    H135120   7.846   4.447   6.260
11729TIP3    H235121   7.752   4.563   6.230
11730TIP3   OH235122   7.211   4.348   5.061
11730TIP3    H135123   7.260   4.333   5.145
11730TIP3    H235124   7.150   4.271   5.061
11731TIP3   OH235125   5.910   4.334   5.885
11731TIP3    H135126   5.971   4.258   5.892
11731TIP3    H235127   5.973   4.407   5.874
11732TIP3   OH235128   5.710   4.605   5.953
11732TIP3    H135129   5.761   4.601   5.869
11732TIP3    H235130   5.743   4.687   5.992
11733TIP3   OH235131   7.654   4.648   6.116
11733TIP3    H135132   7.578   4.693   6.159
11733TIP3    H235133   7.605   4.587   6.056
11734TIP3   OH235134   7.288   4.280   4.696
11734TIP3    H135135   7.329   4.209   4.642
11734TIP3    H235136   7.356   4.350   4.695
11735TIP3   OH235137   5.698   4.109   5.456
11735TIP3    H135138   5.605   4.104   5.484
11735TIP3    H235139   5.692   4.168   5.378
11736TIP3   OH235140   6.851   5.815   4.959
11736TIP3    H135141   6.909   5.808   4.880
11736TIP3    H235142   6.899   5.877   5.015
11737TIP3   OH235143   5.918   4.190   6.270
11737TIP3    H135144   5.866   4.185   6.352
11737TIP3    H235145   5.852   4.227   6.208
11738TIP3   OH235146   5.962   5.601   6.349
11738TIP3    H135147   5.866   5.588   6.337
11738TIP3    H235148   5.968   5.622   6.443
11739TIP3   OH235149   6.578   5.893   6.030
11739TIP3    H135150   6.620   5.896   6.119
11739TIP3    H235151   6.643   5.945   5.978
11740TIP3   OH235152   6.759   6.040   5.888
11740TIP3    H135153   6.835   5.993   5.850
11740TIP3    H235154   6.806   6.096   5.953
11741TIP3   OH235155   7.559   4.411   5.994
11741TIP3    H135156   7.470   4.430   5.960
11741TIP3    H235157   7.570   4.315   5.975
11742TIP3   OH235158   5.807   5.876   5.928
11742TIP3    H135159   5.725   5.925   5.907
11742TIP3    H235160   5.841   5.932   6.001
11743TIP3   OH235161   6.462   5.905   5.573
11743TIP3    H135162   6.422   5.948   5.498
11743TIP3    H235163   6.484   5.983   5.629
11744TIP3   OH235164   6.742   5.848   5.622
11744TIP3    H135165   6.649   5.873   5.606
11744TIP3    H235166   6.789   5.927   5.591
11745TIP3   OH235167   6.941   6.038   5.540
11745TIP3    H135168   6.933   6.125   5.494
11745TIP3    H235169   6.973   5.980   5.468
11746TIP3   OH235170   5.738   5.699   5.657
11746TIP3    H135171   5.751   5.708   5.753
11746TIP3    H235172   5.784   5.616   5.641
11747TIP3   OH235173   6.753   4.320   5.605
11747TIP3    H135174   6.715   4.248   5.659
11747TIP3    H235175   6.833   4.278   5.567
11748TIP3   OH235176   7.278   4.195   5.509
11748TIP3    H135177   7.316   4.252   5.438
11748TIP3    H235178   7.186   4.225   5.512
11749TIP3   OH235179   7.376   4.303   5.277
11749TIP3    H135180   7.450   4.251   5.240
11749TIP3    H235181   7.409   4.394   5.264
11750TIP3   OH235182   6.006   4.030   5.625
11750TIP3    H135183   5.913   3.998   5.629
11750TIP3    H235184   6.054   3.945   5.621
11751TIP3   OH235185   5.795   3.903   5.276
11751TIP3    H135186   5.825   3.959   5.202
11751TIP3    H235187   5.769   3.969   5.343
11752TIP3   OH235188   6.453   4.062   5.510
11752TIP3    H135189   6.507   4.110   5.444
11752TIP3    H235190   6.483   4.102   5.593
11753TIP3   OH235191   6.989   4.211   5.492
11753TIP3    H135192   7.001   4.169   5.405
11753TIP3    H235193   6.980   4.132   5.550
11754TIP3   OH235194   7.027   4.135   5.054
11754TIP3    H135195   6.942   4.178   5.072
11754TIP3    H235196   7.014   4.049   5.099
11755TIP3   OH235197   5.510   5.477   5.050
11755TIP3    H135198   5.425   5.442   5.017
11755TIP3    H235199   5.498   5.571   5.027
11756TIP3   OH235200   5.914   4.058   5.038
11756TIP3    H135201   5.961   3.996   4.979
11756TIP3    H235202   5.988   4.112   5.072
11757TIP3   OH235203   6.422   4.238   5.137
11757TIP3    H135204   6.483   4.192   5.197
11757TIP3    H235205   6.444   4.331   5.162
11758TIP3   OH235206   6.281   5.657   4.636
11758TIP3    H135207   6.371   5.678   4.602
11758TIP3    H235208   6.259   5.582   4.577
11759TIP3   OH235209   7.003   5.781   4.729
11759TIP3    H135210   6.994   5.683   4.720
11759TIP3    H235211   6.958   5.811   4.648
11760TIP3   OH235212   6.214   4.311   6.517
11760TIP3    H135213   6.178   4.241   6.574
11760TIP3    H235214   6.308   4.310   6.546
11761TIP3   OH235215   6.464   4.310   6.636
11761TIP3    H135216   6.550   4.288   6.595
11761TIP3    H235217   6.454   4.238   6.702
11762TIP3   OH235218   5.586   5.497   4.690
11762TIP3    H135219   5.588   5.516   4.785
11762TIP3    H235220   5.674   5.454   4.676
11763TIP3   OH235221   7.289   4.364   6.424
11763TIP3    H135222   7.310   4.337   6.516
11763TIP3    H235223   7.377   4.366   6.382
11764TIP3   OH235224   7.230   5.925   5.912
11764TIP3    H135225   7.149   5.894   5.865
11764TIP3    H235226   7.209   6.020   5.920
11765TIP3   OH235227   8.488   5.294   4.692
11765TIP3    H135228   8.461   5.386   4.674
11765TIP3    H235229   8.406   5.248   4.665
11766TIP3   OH235230   8.491   5.298   5.066
11766TIP3    H135231   8.521   5.283   5.158
11766TIP3    H235232   8.451   5.212   5.045
11767TIP3   OH235233   7.791   5.188   5.427
11767TIP3    H135234   7.818   5.118   5.490
11767TIP3    H235235   7.868   5.247   5.432
11768TIP3   OH235236   8.737   5.593   4.748
11768TIP3    H135237   8.722   5.530   4.820
11768TIP3    H235238   8.768   5.671   4.797
11769TIP3   OH235239   7.765   5.600   5.147
11769TIP3    H135240   7.757   5.503   5.150
11769TIP3    H235241   7.862   5.610   5.147
11770TIP3   OH235242   7.473   4.802   4.932
11770TIP3    H135243   7.427   4.884   4.954
11770TIP3    H235244   7.400   4.750   4.894
11771TIP3   OH235245   7.528   5.089   5.111
11771TIP3    H135246   7.577   5.012   5.147
11771TIP3    H235247   7.594   5.130   5.055
11772TIP3   OH235248   8.386   6.064   4.764
11772TIP3    H135249   8.428   5.993   4.712
11772TIP3    H235250   8.382   6.025   4.852
11773TIP3   OH235251   8.292   5.523   5.111
11773TIP3    H135252   8.334   5.445   5.071
11773TIP3    H235253   8.373   5.570   5.138
11774TIP3   OH235254   8.695   5.041   5.142
11774TIP3    H135255   8.705   4.948   5.169
11774TIP3    H235256   8.656   5.028   5.054
11775TIP3   OH235257   8.042   4.682   5.110
11775TIP3    H135258   8.027   4.755   5.047
11775TIP3    H235259   7.993   4.610   5.065
11776TIP3   OH235260   8.731   4.781   4.739
11776TIP3    H135261   8.798   4.724   4.781
11776TIP3    H235262   8.787   4.849   4.698
11777TIP3   OH235263   7.678   4.886   5.215
11777TIP3    H135264   7.759   4.868   5.265
11777TIP3    H235265   7.693   4.829   5.137
11778TIP3   OH235266   8.118   5.080   5.009
11778TIP3    H135267   8.213   5.057   5.023
11778TIP3    H235268   8.081   4.995   4.978
11779TIP3   OH235269   8.039   4.666   5.544
11779TIP3    H135270   7.980   4.705   5.477
11779TIP3    H235271   7.986   4.683   5.625
11780TIP3   OH235272   8.366   5.506   4.558
11780TIP3    H135273   8.351   5.511   4.462
11780TIP3    H235274   8.331   5.593   4.586
11781TIP3   OH235275   8.146   5.442   5.334
11781TIP3    H135276   8.086   5.511   5.371
11781TIP3    H235277   8.190   5.491   5.261
11782TIP3   OH235278   7.911   4.782   5.328
11782TIP3    H135279   7.972   4.855   5.353
11782TIP3    H235280   7.961   4.742   5.253
11783TIP3   OH235281   7.975   5.638   5.434
11783TIP3    H135282   7.949   5.726   5.400
11783TIP3    H235283   7.897   5.619   5.489
11784TIP3   OH235284   7.366   5.327   4.671
11784TIP3    H135285   7.327   5.359   4.588
11784TIP3    H235286   7.400   5.411   4.710
11785TIP3   OH235287   8.810   5.846   4.911
11785TIP3    H135288   8.724   5.829   4.956
11785TIP3    H235289   8.790   5.932   4.870
11786TIP3   OH235290   8.382   4.377   5.261
11786TIP3    H135291   8.362   4.282   5.279
11786TIP3    H235292   8.306   4.420   5.306
11787TIP3   OH235293   8.504   5.889   4.586
11787TIP3    H135294   8.549   5.804   4.566
11787TIP3    H235295   8.568   5.952   4.545
11788TIP3   OH235296   8.636   5.669   4.497
11788TIP3    H135297   8.644   5.595   4.435
11788TIP3    H235298   8.681   5.634   4.577
11789TIP3   OH235299   9.032   5.747   5.267
11789TIP3    H135300   9.038   5.671   5.205
11789TIP3    H235301   9.031   5.822   5.205
11790TIP3   OH235302   8.321   5.145   4.515
11790TIP3    H135303   8.243   5.203   4.499
11790TIP3    H235304   8.371   5.159   4.433
11791TIP3   OH235305   8.288   4.914   4.238
11791TIP3    H135306   8.344   4.977   4.288
11791TIP3    H235307   8.355   4.874   4.179
11792TIP3   OH235308   8.655   5.222   4.486
11792TIP3    H135309   8.607   5.248   4.569
11792TIP3    H235310   8.738   5.188   4.521
11793TIP3   OH235311   8.889   5.250   5.390
11793TIP3    H135312   8.895   5.330   5.444
11793TIP3    H235313   8.800   5.261   5.352
11794TIP3   OH235314   7.906   5.224   4.903
11794TIP3    H135315   7.869   5.167   4.833
11794TIP3    H235316   7.983   5.173   4.934
11795TIP3   OH235317   8.038   5.642   5.049
11795TIP3    H135318   8.017   5.604   4.962
11795TIP3    H235319   8.126   5.604   5.067
11796TIP3   OH235320   8.041   5.199   5.254
11796TIP3    H135321   8.077   5.176   5.167
11796TIP3    H235322   8.085   5.285   5.274
11797TIP3   OH235323   8.572   5.835   5.035
11797TIP3    H135324   8.552   5.919   5.081
11797TIP3    H235325   8.547   5.767   5.099
11798TIP3   OH235326   8.177   5.762   5.573
11798TIP3    H135327   8.113   5.818   5.622
11798TIP3    H235328   8.116   5.705   5.523
11799TIP3   OH235329   8.509   5.073   4.310
11799TIP3    H135330   8.563   5.138   4.361
11799TIP3    H235331   8.534   5.096   4.217
11800TIP3   OH235332   7.934   5.309   5.683
11800TIP3    H135333   7.939   5.398   5.725
11800TIP3    H235334   7.839   5.289   5.700
11801TIP3   OH235335   8.258   5.768   4.585
11801TIP3    H135336   8.341   5.818   4.595
11801TIP3    H235337   8.199   5.834   4.546
11802TIP3   OH235338   7.970   5.923   5.669
11802TIP3    H135339   7.935   5.923   5.578
11802TIP3    H235340   7.892   5.891   5.720
11803TIP3   OH235341   7.777   5.068   4.694
11803TIP3    H135342   7.704   5.113   4.646
11803TIP3    H235343   7.734   4.987   4.724
11804TIP3   OH235344   8.824   5.698   3.911
11804TIP3    H135345   8.828   5.791   3.884
11804TIP3    H235346   8.905   5.662   3.873
11805TIP3   OH235347   7.551   5.453   5.614
11805TIP3    H135348   7.483   5.431   5.548
11805TIP3    H235349   7.588   5.366   5.638
11806TIP3   OH235350   7.407   5.651   5.240
11806TIP3    H135351   7.504   5.645   5.239
11806TIP3    H235352   7.393   5.726   5.300
11807TIP3   OH235353   8.368   5.896   5.434
11807TIP3    H135354   8.406   5.945   5.509
11807TIP3    H235355   8.299   5.844   5.479
11808TIP3   OH235356   8.139   6.011   4.391
11808TIP3    H135357   8.094   5.996   4.306
11808TIP3    H235358   8.106   6.099   4.417
11809TIP3   OH235359   7.576   5.862   4.777
11809TIP3    H135360   7.625   5.855   4.862
11809TIP3    H235361   7.523   5.780   4.781
11810TIP3   OH235362   8.338   5.916   4.028
11810TIP3    H135363   8.397   5.847   3.991
11810TIP3    H235364   8.375   5.926   4.119
11811TIP3   OH235365   8.389   5.964   4.297
11811TIP3    H135366   8.303   5.971   4.342
11811TIP3    H235367   8.444   5.923   4.367
11812TIP3   OH235368   7.756   5.636   5.596
11812TIP3    H135369   7.801   5.626   5.682
11812TIP3    H235370   7.681   5.573   5.606
11813TIP3   OH235371   8.155   4.460   5.391
11813TIP3    H135372   8.066   4.431   5.361
11813TIP3    H235373   8.129   4.542   5.438
11814TIP3   OH235374   8.657   4.594   5.568
11814TIP3    H135375   8.720   4.552   5.629
11814TIP3    H235376   8.571   4.574   5.611
11815TIP3   OH235377   8.967   5.005   5.511
11815TIP3    H135378   8.904   5.008   5.586
11815TIP3    H235379   8.942   5.087   5.462
11816TIP3   OH235380   8.585   5.126   4.057
11816TIP3    H135381   8.564   5.113   3.962
11816TIP3    H235382   8.666   5.178   4.050
11817TIP3   OH235383   8.087   4.979   5.406
11817TIP3    H135384   8.036   5.000   5.487
11817TIP3    H235385   8.071   5.060   5.353
11818TIP3   OH235386   7.971   4.861   4.919
11818TIP3    H135387   7.879   4.836   4.941
11818TIP3    H235388   7.981   4.816   4.833
11819TIP3   OH235389   8.460   4.948   4.644
11819TIP3    H135390   8.404   5.019   4.606
11819TIP3    H235391   8.529   4.940   4.577
11820TIP3   OH235392   8.624   5.220   5.720
11820TIP3    H135393   8.621   5.149   5.787
11820TIP3    H235394   8.718   5.247   5.722
11821TIP3   OH235395   8.605   4.984   4.888
11821TIP3    H135396   8.548   5.007   4.813
11821TIP3    H235397   8.636   4.896   4.857
11822TIP3   OH235398   7.907   5.004   5.613
11822TIP3    H135399   7.931   5.070   5.681
11822TIP3    H235400   7.893   4.924   5.666
11823TIP3   OH235401   7.501   4.525   5.192
11823TIP3    H135402   7.573   4.559   5.249
11823TIP3    H235403   7.548   4.494   5.113
11824TIP3   OH235404   7.466   4.507   4.714
11824TIP3    H135405   7.512   4.544   4.636
11824TIP3    H235406   7.405   4.580   4.734
11825TIP3   OH235407   8.607   5.231   5.311
11825TIP3    H135408   8.647   5.164   5.252
11825TIP3    H235409   8.584   5.174   5.388
11826TIP3   OH235410   8.290   4.703   4.973
11826TIP3    H135411   8.219   4.692   5.040
11826TIP3    H235412   8.367   4.664   5.020
11827TIP3   OH235413   7.734   4.742   4.986
11827TIP3    H135414   7.639   4.750   4.959
11827TIP3    H235415   7.754   4.649   4.967
11828TIP3   OH235416   7.997   4.726   4.679
11828TIP3    H135417   8.090   4.756   4.667
11828TIP3    H235418   7.951   4.758   4.598
11829TIP3   OH235419   8.712   4.773   5.175
11829TIP3    H135420   8.702   4.783   5.271
11829TIP3    H235421   8.796   4.720   5.170
11830TIP3   OH235422   7.851   4.765   4.452
11830TIP3    H135423   7.773   4.723   4.412
11830TIP3    H235424   7.894   4.802   4.373
11831TIP3   OH235425   7.924   5.559   5.823
11831TIP3    H135426   7.998   5.594   5.875
11831TIP3    H235427   7.854   5.555   5.893
11832TIP3   OH235428   8.382   5.015   5.081
11832TIP3    H135429   8.451   4.971   5.030
11832TIP3    H235430   8.385   4.968   5.166
11833TIP3   OH235431   7.898   4.499   4.961
11833TIP3    H135432   7.860   4.425   5.013
11833TIP3    H235433   7.951   4.452   4.896
11834TIP3   OH235434   8.356   4.911   5.372
11834TIP3    H135435   8.267   4.951   5.384
11834TIP3    H235436   8.415   4.974   5.419
11835TIP3   OH235437   8.095   5.298   4.461
11835TIP3    H135438   8.023   5.233   4.450
11835TIP3    H235439   8.075   5.335   4.551
11836TIP3   OH235440   8.993   5.550   5.077
11836TIP3    H135441   9.002   5.543   4.982
11836TIP3    H235442   8.908   5.503   5.090
11837TIP3   OH235443   8.557   4.626   4.321
11837TIP3    H135444   8.471   4.653   4.354
11837TIP3    H235445   8.606   4.711   4.326
11838TIP3   OH235446   8.488   5.604   5.469
11838TIP3    H135447   8.549   5.581   5.542
11838TIP3    H235448   8.472   5.698   5.484
11839TIP3   OH235449   8.671   4.867   4.396
11839TIP3    H135450   8.742   4.924   4.429
11839TIP3    H235451   8.612   4.934   4.355
11840TIP3   OH235452   7.786   5.322   5.137
11840TIP3    H135453   7.828   5.292   5.053
11840TIP3    H235454   7.832   5.267   5.202
11841TIP3   OH235455   8.240   5.448   4.280
11841TIP3    H135456   8.192   5.534   4.285
11841TIP3    H235457   8.190   5.396   4.346
11842TIP3   OH235458   7.669   5.240   5.751
11842TIP3    H135459   7.691   5.230   5.846
11842TIP3    H235460   7.598   5.175   5.740
11843TIP3   OH235461   8.389   5.348   5.766
11843TIP3    H135462   8.329   5.289   5.717
11843TIP3    H235463   8.477   5.318   5.732
11844TIP3   OH235464   8.657   5.862   5.390
11844TIP3    H135465   8.567   5.887   5.362
11844TIP3    H235466   8.664   5.908   5.475
11845TIP3   OH235467   8.750   5.774   4.174
11845TIP3    H135468   8.764   5.717   4.251
11845TIP3    H235469   8.783   5.721   4.099
11846TIP3   OH235470   8.755   5.404   5.013
11846TIP3    H135471   8.660   5.384   5.025
11846TIP3    H235472   8.790   5.317   4.985
11847TIP3   OH235473   7.891   5.628   4.762
11847TIP3    H135474   7.887   5.709   4.707
11847TIP3    H235475   7.798   5.612   4.780
11848TIP3   OH235476   7.454   4.931   4.469
11848TIP3    H135477   7.498   5.015   4.491
11848TIP3    H235478   7.377   4.934   4.530
11849TIP3   OH235479   8.018   5.388   4.702
11849TIP3    H135480   7.987   5.479   4.722
11849TIP3    H235481   7.986   5.340   4.780
11850TIP3   OH235482   8.161   5.970   5.231
11850TIP3    H135483   8.204   6.038   5.175
11850TIP3    H235484   8.238   5.934   5.279
11851TIP3   OH235485   7.805   5.868   4.613
11851TIP3    H135486   7.721   5.877   4.662
11851TIP3    H235487   7.839   5.960   4.617
11852TIP3   OH235488   8.539   5.605   5.197
11852TIP3    H135489   8.524   5.598   5.293
11852TIP3    H235490   8.629   5.568   5.190
11853TIP3   OH235491   8.505   5.501   4.094
11853TIP3    H135492   8.560   5.487   4.174
11853TIP3    H235493   8.418   5.475   4.127
11854TIP3   OH235494   7.875   4.747   5.757
11854TIP3    H135495   7.779   4.755   5.772
11854TIP3    H235496   7.902   4.693   5.833
11855TIP3   OH235497   8.668   5.440   4.313
11855TIP3    H135498   8.648   5.373   4.382
11855TIP3    H235499   8.758   5.414   4.290
11856TIP3   OH235500   7.597   5.829   5.389
11856TIP3    H135501   7.652   5.762   5.432
11856TIP3    H235502   7.612   5.905   5.447
11857TIP3   OH235503   7.883   5.480   4.075
11857TIP3    H135504   7.901   5.387   4.049
11857TIP3    H235505   7.865   5.470   4.171
11858TIP3   OH235506   7.829   5.483   4.348
11858TIP3    H135507   7.905   5.458   4.403
11858TIP3    H235508   7.832   5.581   4.354
11859TIP3   OH235509   7.563   5.176   4.551
11859TIP3    H135510   7.497   5.221   4.608
11859TIP3    H235511   7.577   5.244   4.483
11860TIP3   OH235512   8.722   4.830   5.444
11860TIP3    H135513   8.803   4.858   5.491
11860TIP3    H235514   8.697   4.748   5.492
11861TIP3   OH235515   8.574   4.585   4.615
11861TIP3    H135516   8.598   4.597   4.522
11861TIP3    H235517   8.626   4.656   4.658
11862TIP3   OH235518   8.097   5.677   4.292
11862TIP3    H135519   8.011   5.702   4.331
11862TIP3    H235520   8.115   5.755   4.238
11863TIP3   OH235521   8.277   4.746   4.704
11863TIP3    H135522   8.345   4.815   4.691
11863TIP3    H235523   8.283   4.732   4.801
11864TIP3   OH235524   8.550   5.056   5.511
11864TIP3    H135525   8.572   5.110   5.589
11864TIP3    H235526   8.612   4.982   5.518
11865TIP3   OH235527   8.417   4.457   4.801
11865TIP3    H135528   8.449   4.501   4.884
11865TIP3    H235529   8.473   4.504   4.735
11866TIP3   OH235530   7.842   5.755   4.364
11866TIP3    H135531   7.813   5.826   4.303
11866TIP3    H235532   7.827   5.797   4.451
11867TIP3   OH235533   7.948   4.469   4.580
11867TIP3    H135534   7.931   4.554   4.626
11867TIP3    H235535   8.035   4.446   4.618
11868TIP3   OH235536   8.845   5.143   4.924
11868TIP3    H135537   8.761   5.107   4.894
11868TIP3    H235538   8.855   5.095   5.010
11869TIP3   OH235539   7.559   5.382   4.354
11869TIP3    H135540   7.629   5.448   4.366
11869TIP3    H235541   7.603   5.325   4.287
11870TIP3   OH235542   7.503   4.661   4.491
11870TIP3    H135543   7.504   4.759   4.487
11870TIP3    H235544   7.423   4.640   4.442
11871TIP3   OH235545   8.829   6.129   4.839
11871TIP3    H135546   8.778   6.174   4.768
11871TIP3    H235547   8.912   6.110   4.793
11872TIP3   OH235548   7.893   4.380   5.358
11872TIP3    H135549   7.860   4.345   5.272
11872TIP3    H235550   7.880   4.303   5.417
11873TIP3   OH235551   7.425   5.593   4.738
11873TIP3    H135552   7.366   5.626   4.806
11873TIP3    H235553   7.391   5.639   4.658
11874TIP3   OH235554   7.571   6.124   5.785
11874TIP3    H135555   7.651   6.129   5.842
11874TIP3    H235556   7.547   6.030   5.796
11875TIP3   OH235557   8.042   6.126   5.840
11875TIP3    H135558   8.111   6.171   5.789
11875TIP3    H235559   8.022   6.048   5.783
11876TIP3   OH235560   8.048   5.681   3.982
11876TIP3    H135561   7.995   5.608   4.021
11876TIP3    H235562   8.125   5.631   3.950
11877TIP3   OH235563   8.477   5.721   3.894
11877TIP3    H135564   8.523   5.661   3.956
11877TIP3    H235565   8.533   5.716   3.814
11878TIP3   OH235566   7.717   5.543   6.007
11878TIP3    H135567   7.726   5.447   6.021
11878TIP3    H235568   7.629   5.548   5.965
11879TIP3   OH235569   7.694   5.196   4.210
11879TIP3    H135570   7.752   5.167   4.283
11879TIP3    H235571   7.761   5.202   4.137
11880TIP3   OH235572   8.310   5.607   5.775
11880TIP3    H135573   8.282   5.613   5.682
11880TIP3    H235574   8.352   5.518   5.776
11881TIP3   OH235575   8.200   5.396   4.014
11881TIP3    H135576   8.206   5.408   4.111
11881TIP3    H235577   8.204   5.298   4.008
11882TIP3   OH235578   8.795   5.634   5.344
11882TIP3    H135579   8.879   5.675   5.318
11882TIP3    H235580   8.739   5.713   5.356
11883TIP3   OH235581   7.828   5.272   5.989
11883TIP3    H135582   7.907   5.221   5.967
11883TIP3    H235583   7.849   5.301   6.080
11884TIP3   OH235584   7.900   5.099   4.428
11884TIP3    H135585   7.870   5.070   4.516
11884TIP3    H235586   7.934   5.016   4.389
11885TIP3   OH235587   8.173   5.166   5.657
11885TIP3    H135588   8.094   5.224   5.656
11885TIP3    H235589   8.223   5.199   5.579
11886TIP3   OH235590   8.011   4.880   4.264
11886TIP3    H135591   7.982   4.898   4.172
11886TIP3    H235592   8.108   4.897   4.255
11887TIP3   OH235593   8.652   5.543   5.708
11887TIP3    H135594   8.747   5.535   5.690
11887TIP3    H235595   8.646   5.510   5.798
11888TIP3   OH235596   8.297   4.956   5.780
11888TIP3    H135597   8.296   4.878   5.722
11888TIP3    H235598   8.253   5.024   5.725
11889TIP3   OH235599   8.297   4.741   5.592
11889TIP3    H135600   8.326   4.786   5.510
11889TIP3    H235601   8.203   4.721   5.572
11890TIP3   OH235602   8.321   5.273   5.462
11890TIP3    H135603   8.410   5.291   5.427
11890TIP3    H235604   8.267   5.340   5.416
11891TIP3   OH235605   8.898   5.257   5.760
11891TIP3    H135606   8.931   5.171   5.793
11891TIP3    H235607   8.946   5.319   5.815
11892TIP3   OH235608   8.904   5.497   5.549
11892TIP3    H135609   8.846   5.553   5.490
11892TIP3    H235610   8.988   5.510   5.507
11893TIP3   OH235611   8.176   5.062   6.016
11893TIP3    H135612   8.107   4.995   6.033
11893TIP3    H235613   8.207   5.037   5.927
11894TIP3   OH235614   8.418   4.503   5.664
11894TIP3    H135615   8.367   4.584   5.642
11894TIP3    H235616   8.350   4.433   5.652
11895TIP3   OH235617   8.558   4.998   5.872
11895TIP3    H135618   8.541   4.987   5.967
11895TIP3    H235619   8.468   4.980   5.837
11896TIP3   OH235620   8.795   4.953   5.725
11896TIP3    H135621   8.717   4.958   5.784
11896TIP3    H235622   8.863   4.920   5.787
11897TIP3   OH235623   8.996   4.879   5.893
11897TIP3    H135624   9.046   4.816   5.946
11897TIP3    H235625   8.967   4.943   5.961
11898TIP3   OH235626   8.013   4.843   6.069
11898TIP3    H135627   8.016   4.751   6.037
11898TIP3    H235628   8.046   4.832   6.160
11899TIP3   OH235629   8.522   4.510   5.917
11899TIP3    H135630   8.578   4.431   5.912
11899TIP3    H235631   8.480   4.510   5.828
11900TIP3   OH235632   8.577   4.721   6.085
11900TIP3    H135633   8.560   4.656   6.014
11900TIP3    H235634   8.504   4.786   6.073
11901TIP3   OH235635   7.812   5.958   4.176
11901TIP3    H135636   7.908   5.948   4.158
11901TIP3    H235637   7.787   6.011   4.098
11902TIP3   OH235638   7.290   5.342   4.387
11902TIP3    H135639   7.385   5.363   4.375
11902TIP3    H235640   7.286   5.252   4.349
11903TIP3   OH235641   7.209   5.951   4.808
11903TIP3    H135642   7.143   5.890   4.770
11903TIP3    H235643   7.253   5.892   4.874
11904TIP3   OH235644   7.343   5.797   4.994
11904TIP3    H135645   7.333   5.729   5.062
11904TIP3    H235646   7.395   5.863   5.045
11905TIP3   OH235647   8.999   5.960   5.085
11905TIP3    H135648   8.935   6.003   5.143
11905TIP3    H235649   8.939   5.916   5.021
11906TIP3   OH235650   8.862   5.078   4.619
11906TIP3    H135651   8.959   5.056   4.603
11906TIP3    H235652   8.873   5.137   4.694
11907TIP3   OH235653   7.526   5.214   5.362
11907TIP3    H135654   7.524   5.179   5.271
11907TIP3    H235655   7.623   5.213   5.380
11908TIP3   OH235656   7.746   4.896   6.040
11908TIP3    H135657   7.843   4.889   6.043
11908TIP3    H235658   7.720   4.809   6.077
11909TIP3   OH235659   7.707   4.588   5.362
11909TIP3    H135660   7.769   4.514   5.375
11909TIP3    H235661   7.769   4.664   5.359
11910TIP3   OH235662   7.507   4.859   5.440
11910TIP3    H135663   7.559   4.865   5.358
11910TIP3    H235664   7.530   4.941   5.486
11911TIP3   OH235665   7.494   4.360   4.939
11911TIP3    H135666   7.403   4.359   4.973
11911TIP3    H235667   7.487   4.423   4.864
11912TIP3   OH235668   8.649   6.073   4.450
11912TIP3    H135669   8.697   6.059   4.365
11912TIP3    H235670   8.708   6.135   4.495
11913TIP3   OH235671   7.713   4.439   5.754
11913TIP3    H135672   7.668   4.442   5.840
11913TIP3    H235673   7.647   4.483   5.697
11914TIP3   OH235674   7.757   5.859   5.830
11914TIP3    H135675   7.662   5.844   5.815
11914TIP3    H235676   7.759   5.868   5.926
11915TIP3   OH235677   7.935   5.910   5.383
11915TIP3    H135678   7.885   5.984   5.343
11915TIP3    H235679   8.020   5.924   5.336
11916TIP3   OH235680   7.607   6.164   5.406
11916TIP3    H135681   7.516   6.193   5.386
11916TIP3    H235682   7.622   6.213   5.489
11917TIP3   OH235683   7.845   6.145   5.267
11917TIP3    H135684   7.757   6.155   5.310
11917TIP3    H235685   7.826   6.176   5.176
11918TIP3   OH235686   8.259   6.165   5.056
11918TIP3    H135687   8.191   6.185   4.989
11918TIP3    H235688   8.276   6.254   5.093
11919TIP3   OH235689   8.520   6.091   5.119
11919TIP3    H135690   8.432   6.121   5.090
11919TIP3    H235691   8.575   6.165   5.086
11920TIP3   OH235692   8.657   6.296   5.003
11920TIP3    H135693   8.695   6.386   5.011
11920TIP3    H235694   8.727   6.245   4.959
11921TIP3   OH235695   7.520   5.957   5.148
11921TIP3    H135696   7.544   5.929   5.238
11921TIP3    H235697   7.592   5.912   5.098
11922TIP3   OH235698   7.715   5.829   5.008
11922TIP3    H135699   7.729   5.745   5.058
11922TIP3    H235700   7.807   5.864   5.005
11923TIP3   OH235701   7.981   5.921   5.014
11923TIP3    H135702   8.012   5.829   5.005
11923TIP3    H235703   8.028   5.945   5.096
11924TIP3   OH235704   8.503   4.542   5.051
11924TIP3    H135705   8.491   4.495   5.134
11924TIP3    H235706   8.603   4.542   5.043
11925TIP3   OH235707   7.801   4.287   5.110
11925TIP3    H135708   7.709   4.254   5.116
11925TIP3    H235709   7.850   4.202   5.108
11926TIP3   OH235710   7.586   4.160   4.759
11926TIP3    H135711   7.617   4.220   4.689
11926TIP3    H235712   7.561   4.224   4.830
11927TIP3   OH235713   8.248   4.319   4.993
11927TIP3    H135714   8.302   4.368   4.929
11927TIP3    H235715   8.273   4.361   5.076
11928TIP3   OH235716   8.756   4.447   4.973
11928TIP3    H135717   8.791   4.426   4.887
11928TIP3    H235718   8.757   4.360   5.018
11929TIP3   OH235719   7.307   5.732   4.539
11929TIP3    H135720   7.221   5.701   4.505
11929TIP3    H235721   7.298   5.827   4.521
11930TIP3   OH235722   7.710   4.317   4.523
11930TIP3    H135723   7.759   4.252   4.470
11930TIP3    H235724   7.782   4.375   4.554
11931TIP3   OH235725   8.228   4.505   4.591
11931TIP3    H135726   8.278   4.448   4.652
11931TIP3    H235727   8.248   4.592   4.634
11932TIP3   OH235728   8.080   5.914   4.124
11932TIP3    H135729   8.168   5.937   4.089
11932TIP3    H235730   8.058   5.840   4.063
11933TIP3   OH235731   8.786   6.041   4.218
11933TIP3    H135732   8.785   5.942   4.210
11933TIP3    H235733   8.759   6.065   4.127
11934TIP3   OH235734   8.011   4.568   6.001
11934TIP3    H135735   7.970   4.501   6.059
11934TIP3    H235736   8.104   4.566   6.033
11935TIP3   OH235737   8.260   4.565   6.124
11935TIP3    H135738   8.347   4.544   6.087
11935TIP3    H235739   8.248   4.493   6.189
11936TIP3   OH235740   7.381   5.752   4.176
11936TIP3    H135741   7.387   5.771   4.271
11936TIP3    H235742   7.468   5.709   4.159
11937TIP3   OH235743   0.948   6.086   6.366
11937TIP3    H135744   0.914   6.176   6.378
11937TIP3    H235745   0.875   6.044   6.319
11938TIP3   OH235746   0.965   6.069   6.742
11938TIP3    H135747   0.994   6.047   6.833
11938TIP3    H235748   0.919   5.988   6.716
11939TIP3   OH235749   1.194   6.384   6.437
11939TIP3    H135750   1.180   6.319   6.508
11939TIP3    H235751   1.217   6.464   6.487
11940TIP3   OH235752   0.892   6.876   6.434
11940TIP3    H135753   0.936   6.794   6.408
11940TIP3    H235754   0.825   6.844   6.499
11941TIP3   OH235755   0.773   6.275   6.817
11941TIP3    H135756   0.810   6.203   6.764
11941TIP3    H235757   0.854   6.328   6.833
11942TIP3   OH235758   1.155   5.804   6.839
11942TIP3    H135759   1.209   5.725   6.856
11942TIP3    H235760   1.134   5.790   6.745
11943TIP3   OH235761   1.203   5.560   6.431
11943TIP3    H135762   1.268   5.559   6.506
11943TIP3    H235763   1.261   5.599   6.364
11944TIP3   OH235764   1.860   5.822   6.982
11944TIP3    H135765   1.802   5.856   6.912
11944TIP3    H235766   1.826   5.873   7.058
11945TIP3   OH235767   0.813   6.318   6.249
11945TIP3    H135768   0.827   6.271   6.166
11945TIP3    H235769   0.885   6.385   6.245
11946TIP3   OH235770   1.260   6.630   6.597
11946TIP3    H135771   1.171   6.621   6.638
11946TIP3    H235772   1.251   6.718   6.555
11947TIP3   OH235773   0.854   5.159   6.936
11947TIP3    H135774   0.842   5.064   6.956
11947TIP3    H235775   0.806   5.201   7.008
11948TIP3   OH235776   0.953   6.658   6.259
11948TIP3    H135777   1.003   6.578   6.235
11948TIP3    H235778   1.012   6.726   6.217
11949TIP3   OH235779   1.078   6.421   6.190
11949TIP3    H135780   1.117   6.360   6.125
11949TIP3    H235781   1.134   6.408   6.269
11950TIP3   OH235782   1.486   6.539   6.947
11950TIP3    H135783   1.471   6.463   6.888
11950TIP3    H235784   1.467   6.614   6.887
11951TIP3   OH235785   0.775   5.958   6.202
11951TIP3    H135786   0.697   5.899   6.226
11951TIP3    H235787   0.799   5.930   6.114
11952TIP3   OH235788   0.753   5.728   5.915
11952TIP3    H135789   0.826   5.779   5.956
11952TIP3    H235790   0.804   5.660   5.866
11953TIP3   OH235791   1.686   6.199   6.801
11953TIP3    H135792   1.596   6.238   6.804
11953TIP3    H235793   1.706   6.208   6.706
11954TIP3   OH235794   1.129   6.014   6.175
11954TIP3    H135795   1.075   6.039   6.254
11954TIP3    H235796   1.213   5.988   6.220
11955TIP3   OH235797   1.350   6.053   7.092
11955TIP3    H135798   1.349   6.135   7.145
11955TIP3    H235799   1.266   6.061   7.044
11956TIP3   OH235800   1.020   6.621   6.714
11956TIP3    H135801   0.995   6.709   6.749
11956TIP3    H235802   1.001   6.560   6.788
11957TIP3   OH235803   0.963   5.878   6.002
11957TIP3    H135804   1.021   5.937   6.055
11957TIP3    H235805   0.993   5.900   5.910
11958TIP3   OH235806   1.480   5.116   6.050
11958TIP3    H135807   1.399   5.137   6.100
11958TIP3    H235808   1.496   5.200   6.003
11959TIP3   OH235809   1.279   6.482   5.598
11959TIP3    H135810   1.285   6.580   5.584
11959TIP3    H235811   1.373   6.456   5.587
11960TIP3   OH235812   1.729   6.889   6.992
11960TIP3    H135813   1.726   6.792   7.008
11960TIP3    H235814   1.646   6.915   7.038
11961TIP3   OH235815   0.765   6.682   5.703
11961TIP3    H135816   0.846   6.629   5.689
11961TIP3    H235817   0.798   6.753   5.762
11962TIP3   OH235818   1.613   6.016   7.273
11962TIP3    H135819   1.546   6.032   7.204
11962TIP3    H235820   1.628   5.920   7.260
11963TIP3   OH235821   1.154   5.361   7.268
11963TIP3    H135822   1.223   5.336   7.333
11963TIP3    H235823   1.071   5.345   7.317
11964TIP3   OH235824   1.382   5.792   7.191
11964TIP3    H135825   1.330   5.788   7.274
11964TIP3    H235826   1.361   5.881   7.156
11965TIP3   OH235827   1.039   5.918   5.746
11965TIP3    H135828   1.004   5.897   5.658
11965TIP3    H235829   1.122   5.964   5.722
11966TIP3   OH235830   0.739   5.308   6.022
11966TIP3    H135831   0.727   5.305   6.120
11966TIP3    H235832   0.713   5.215   6.002
11967TIP3   OH235833   0.920   5.744   6.340
11967TIP3    H135834   0.870   5.818   6.300
11967TIP3    H235835   0.969   5.708   6.263
11968TIP3   OH235836   1.114   6.003   7.409
11968TIP3    H135837   1.090   5.933   7.472
11968TIP3    H235838   1.209   6.014   7.429
11969TIP3   OH235839   1.066   5.764   6.578
11969TIP3    H135840   1.009   5.785   6.501
11969TIP3    H235841   1.113   5.687   6.540
11970TIP3   OH235842   1.072   6.006   6.996
11970TIP3    H135843   1.111   5.937   6.938
11970TIP3    H235844   1.046   5.951   7.072
11971TIP3   OH235845   0.760   5.464   6.657
11971TIP3    H135846   0.675   5.499   6.687
11971TIP3    H235847   0.819   5.476   6.734
11972TIP3   OH235848   1.207   5.537   6.902
11972TIP3    H135849   1.153   5.557   6.980
11972TIP3    H235850   1.148   5.481   6.849
11973TIP3   OH235851   1.420   7.228   7.052
11973TIP3    H135852   1.401   7.247   6.958
11973TIP3    H235853   1.437   7.317   7.085
11974TIP3   OH235854   0.848   5.789   6.765
11974TIP3    H135855   0.924   5.765   6.709
11974TIP3    H235856   0.873   5.751   6.850
11975TIP3   OH235857   0.838   5.680   7.060
11975TIP3    H135858   0.774   5.754   7.050
11975TIP3    H235859   0.910   5.726   7.107
11976TIP3   OH235860   1.442   6.326   6.780
11976TIP3    H135861   1.466   6.377   6.700
11976TIP3    H235862   1.361   6.279   6.751
11977TIP3   OH235863   0.999   5.401   6.013
11977TIP3    H135864   0.902   5.385   6.022
11977TIP3    H235865   1.011   5.493   6.046
11978TIP3   OH235866   0.936   6.412   7.149
11978TIP3    H135867   0.971   6.410   7.239
11978TIP3    H235868   0.883   6.494   7.149
11979TIP3   OH235869   1.073   5.647   6.121
11979TIP3    H135870   1.168   5.648   6.144
11979TIP3    H235871   1.061   5.729   6.071
11980TIP3   OH235872   0.690   6.238   5.972
11980TIP3    H135873   0.651   6.325   5.989
11980TIP3    H235874   0.649   6.182   6.039
11981TIP3   OH235875   0.896   6.119   7.533
11981TIP3    H135876   0.836   6.075   7.472
11981TIP3    H235877   0.982   6.101   7.490
11982TIP3   OH235878   1.108   6.662   7.043
11982TIP3    H135879   1.012   6.666   7.052
11982TIP3    H235880   1.136   6.717   7.120
11983TIP3   OH235881   1.515   5.741   5.954
11983TIP3    H135882   1.452   5.699   5.891
11983TIP3    H235883   1.514   5.831   5.917
11984TIP3   OH235884   1.738   6.601   7.031
11984TIP3    H135885   1.640   6.594   7.025
11984TIP3    H235886   1.763   6.568   6.942
11985TIP3   OH235887   1.235   6.555   5.867
11985TIP3    H135888   1.182   6.493   5.919
11985TIP3    H235889   1.234   6.516   5.778
11986TIP3   OH235890   1.220   6.182   6.690
11986TIP3    H135891   1.127   6.156   6.703
11986TIP3    H235892   1.258   6.098   6.658
11987TIP3   OH235893   1.010   6.388   6.886
11987TIP3    H135894   0.997   6.397   6.983
11987TIP3    H235895   1.097   6.346   6.881
11988TIP3   OH235896   0.988   6.271   5.767
11988TIP3    H135897   1.031   6.252   5.853
11988TIP3    H235898   0.895   6.263   5.790
11989TIP3   OH235899   1.258   6.904   6.918
11989TIP3    H135900   1.174   6.856   6.918
11989TIP3    H235901   1.233   6.983   6.865
11990TIP3   OH235902   1.311   6.756   5.583
11990TIP3    H135903   1.334   6.826   5.520
11990TIP3    H235904   1.233   6.801   5.624
11991TIP3   OH235905   1.139   6.224   5.998
11991TIP3    H135906   1.131   6.149   6.060
11991TIP3    H235907   1.234   6.216   5.973
11992TIP3   OH235908   1.149   5.616   7.162
11992TIP3    H135909   1.243   5.643   7.153
11992TIP3    H235910   1.157   5.528   7.204
11993TIP3   OH235911   1.060   5.347   6.304
11993TIP3    H135912   1.040   5.373   6.213
11993TIP3    H235913   1.099   5.429   6.342
11994TIP3   OH235914   0.732   5.547   6.397
11994TIP3    H135915   0.803   5.613   6.390
11994TIP3    H235916   0.736   5.523   6.492
11995TIP3   OH235917   1.013   5.845   7.203
11995TIP3    H135918   1.049   5.896   7.279
11995TIP3    H235919   1.068   5.763   7.206
11996TIP3   OH235920   0.885   5.249   6.509
11996TIP3    H135921   0.871   5.329   6.563
11996TIP3    H235922   0.944   5.284   6.439
11997TIP3   OH235923   1.649   5.748   7.182
11997TIP3    H135924   1.551   5.746   7.190
11997TIP3    H235925   1.657   5.752   7.085
11998TIP3   OH235926   1.314   5.931   6.591
11998TIP3    H135927   1.232   5.879   6.593
11998TIP3    H235928   1.377   5.858   6.613
11999TIP3   OH235929   1.270   6.897   6.524
11999TIP3    H135930   1.224   6.946   6.452
11999TIP3    H235931   1.363   6.917   6.499
12000TIP3   OH235932   1.160   6.802   7.272
12000TIP3    H135933   1.150   6.739   7.347
12000TIP3    H235934   1.237   6.853   7.300
12001TIP3   OH235935   0.952   6.493   5.579
12001TIP3    H135936   1.007   6.438   5.636
12001TIP3    H235937   1.003   6.494   5.495
12002TIP3   OH235938   0.654   6.187   5.706
12002TIP3    H135939   0.668   6.201   5.802
12002TIP3    H235940   0.667   6.090   5.699
12003TIP3   OH235941   1.265   6.435   7.082
12003TIP3    H135942   1.343   6.476   7.040
12003TIP3    H235943   1.198   6.505   7.068
12004TIP3   OH235944   0.490   5.700   6.007
12004TIP3    H135945   0.473   5.703   5.911
12004TIP3    H235946   0.588   5.697   6.008
12005TIP3   OH235947   1.135   6.359   7.485
12005TIP3    H135948   1.210   6.333   7.430
12005TIP3    H235949   1.133   6.288   7.550
12006TIP3   OH235950   1.275   6.010   5.628
12006TIP3    H135951   1.256   5.968   5.542
12006TIP3    H235952   1.243   6.102   5.607
12007TIP3   OH235953   0.710   5.482   7.205
12007TIP3    H135954   0.764   5.541   7.150
12007TIP3    H235955   0.672   5.548   7.269
12008TIP3   OH235956   0.829   6.129   7.103
12008TIP3    H135957   0.924   6.110   7.077
12008TIP3    H235958   0.819   6.215   7.051
12009TIP3   OH235959   1.375   6.022   7.520
12009TIP3    H135960   1.427   5.941   7.528
12009TIP3    H235961   1.440   6.083   7.482
12010TIP3   OH235962   1.396   6.283   7.262
12010TIP3    H135963   1.338   6.339   7.205
12010TIP3    H235964   1.484   6.305   7.225
12011TIP3   OH235965   0.890   5.294   7.337
12011TIP3    H135966   0.830   5.364   7.306
12011TIP3    H235967   0.832   5.216   7.330
12012TIP3   OH235968   1.017   5.799   7.571
12012TIP3    H135969   1.044   5.796   7.664
12012TIP3    H235970   0.931   5.757   7.574
12013TIP3   OH235971   1.255   5.745   7.427
12013TIP3    H135972   1.179   5.744   7.488
12013TIP3    H235973   1.329   5.716   7.483
12014TIP3   OH235974   1.488   5.689   7.573
12014TIP3    H135975   1.492   5.593   7.590
12014TIP3    H235976   1.476   5.727   7.662
12015TIP3   OH235977   0.983   5.306   7.598
12015TIP3    H135978   1.045   5.230   7.596
12015TIP3    H235979   0.943   5.300   7.510
12016TIP3   OH235980   1.059   5.522   7.744
12016TIP3    H135981   1.040   5.442   7.691
12016TIP3    H235982   0.970   5.562   7.749
12017TIP3   OH235983   1.530   6.978   6.483
12017TIP3    H135984   1.546   7.011   6.574
12017TIP3    H235985   1.579   7.042   6.430
12018TIP3   OH235986   1.554   7.005   6.760
12018TIP3    H135987   1.507   6.919   6.757
12018TIP3    H235988   1.622   6.984   6.826
12019TIP3   OH235989   1.602   6.682   7.331
12019TIP3    H135990   1.524   6.703   7.387
12019TIP3    H235991   1.647   6.769   7.326
12020TIP3   OH235992   1.412   6.198   5.958
12020TIP3    H135993   1.476   6.265   5.927
12020TIP3    H235994   1.459   6.163   6.038
12021TIP3   OH235995   1.540   6.069   6.168
12021TIP3    H135996   1.471   6.024   6.223
12021TIP3    H235997   1.596   6.110   6.236
12022TIP3   OH235998   1.602   6.461   6.596
12022TIP3    H135999   1.652   6.395   6.544
12022TIP3    H236000   1.592   6.534   6.532
12023TIP3   OH236001   1.433   6.754   6.780
12023TIP3    H136002   1.364   6.802   6.830
12023TIP3    H236003   1.380   6.712   6.709
12024TIP3   OH236004   1.479   5.977   5.806
12024TIP3    H136005   1.407   5.977   5.739
12024TIP3    H236006   1.449   6.052   5.861
12025TIP3   OH236007   1.348   5.649   5.758
12025TIP3    H136008   1.302   5.683   5.681
12025TIP3    H236009   1.326   5.554   5.753
12026TIP3   OH236010   1.355   5.926   6.316
12026TIP3    H136011   1.368   5.830   6.308
12026TIP3    H236012   1.348   5.935   6.413
12027TIP3   OH236013   1.643   6.350   7.167
12027TIP3    H136014   1.714   6.283   7.153
12027TIP3    H236015   1.663   6.416   7.098
12028TIP3   OH236016   1.829   6.153   7.175
12028TIP3    H136017   1.753   6.103   7.213
12028TIP3    H236018   1.901   6.090   7.199
12029TIP3   OH236019   1.293   5.382   5.742
12029TIP3    H136020   1.367   5.353   5.798
12029TIP3    H236021   1.220   5.323   5.767
12030TIP3   OH236022   1.348   5.640   6.195
12030TIP3    H136023   1.389   5.552   6.213
12030TIP3    H236024   1.411   5.673   6.128
12031TIP3   OH236025   1.610   5.970   6.971
12031TIP3    H136026   1.515   5.986   6.979
12031TIP3    H236027   1.634   6.027   6.896
12032TIP3   OH236028   2.030   5.551   7.483
12032TIP3    H136029   2.093   5.488   7.441
12032TIP3    H236030   2.000   5.603   7.405
12033TIP3   OH236031   1.461   5.391   6.234
12033TIP3    H136032   1.507   5.380   6.320
12033TIP3    H236033   1.398   5.316   6.238
12034TIP3   OH236034   1.900   5.689   7.288
12034TIP3    H136035   1.814   5.734   7.300
12034TIP3    H236036   1.872   5.621   7.224
12035TIP3   OH236037   1.536   5.325   5.870
12035TIP3    H136038   1.577   5.253   5.818
12035TIP3    H236039   1.606   5.393   5.872
12036TIP3   OH236040   1.134   6.834   6.159
12036TIP3    H136041   1.145   6.836   6.062
12036TIP3    H236042   1.145   6.927   6.180
12037TIP3   OH236043   1.042   7.079   6.997
12037TIP3    H136044   1.093   7.022   7.056
12037TIP3    H236045   1.032   7.159   7.051
12038TIP3   OH236046   1.805   5.444   7.171
12038TIP3    H136047   1.714   5.427   7.140
12038TIP3    H236048   1.845   5.355   7.160
12039TIP3   OH236049   0.972   6.887   6.793
12039TIP3    H136050   0.894   6.911   6.845
12039TIP3    H236051   1.014   6.974   6.786
12040TIP3   OH236052   1.217   7.092   6.715
12040TIP3    H136053   1.178   7.165   6.665
12040TIP3    H236054   1.224   7.022   6.647
12041TIP3   OH236055   1.007   5.367   6.795
12041TIP3    H136056   0.966   5.285   6.826
12041TIP3    H236057   1.081   5.333   6.740
12042TIP3   OH236058   1.521   5.250   6.690
12042TIP3    H136059   1.565   5.304   6.619
12042TIP3    H236060   1.440   5.302   6.702
12043TIP3   OH236061   1.624   5.353   6.455
12043TIP3    H136062   1.703   5.314   6.413
12043TIP3    H236063   1.644   5.449   6.451
12044TIP3   OH236064   0.721   5.097   6.689
12044TIP3    H136065   0.758   5.148   6.615
12044TIP3    H236066   0.763   5.139   6.765
12045TIP3   OH236067   1.214   5.249   6.667
12045TIP3    H136068   1.252   5.216   6.584
12045TIP3    H236069   1.213   5.168   6.723
12046TIP3   OH236070   1.275   5.179   6.230
12046TIP3    H136071   1.193   5.228   6.252
12046TIP3    H236072   1.259   5.094   6.275
12047TIP3   OH236073   0.714   5.291   6.289
12047TIP3    H136074   0.736   5.245   6.371
12047TIP3    H236075   0.704   5.383   6.322
12048TIP3   OH236076   1.259   6.829   5.901
12048TIP3    H136077   1.247   6.732   5.896
12048TIP3    H236078   1.189   6.859   5.839
12049TIP3   OH236079   1.541   5.415   7.602
12049TIP3    H136080   1.563   5.384   7.692
12049TIP3    H236081   1.628   5.411   7.557
12050TIP3   OH236082   1.479   6.961   7.081
12050TIP3    H136083   1.402   6.925   7.032
12050TIP3    H236084   1.460   7.057   7.071
12051TIP3   OH236085   2.738   6.342   5.863
12051TIP3    H136086   2.708   6.431   5.837
12051TIP3    H236087   2.669   6.288   5.819
12052TIP3   OH236088   2.667   6.328   6.264
12052TIP3    H136089   2.730   6.329   6.339
12052TIP3    H236090   2.702   6.252   6.213
12053TIP3   OH236091   2.067   6.236   6.590
12053TIP3    H136092   2.077   6.160   6.651
12053TIP3    H236093   2.100   6.308   6.645
12054TIP3   OH236094   2.987   6.646   5.925
12054TIP3    H136095   2.980   6.578   5.992
12054TIP3    H236096   3.019   6.723   5.977
12055TIP3   OH236097   2.025   6.647   6.324
12055TIP3    H136098   2.008   6.551   6.331
12055TIP3    H236099   2.122   6.645   6.330
12056TIP3   OH236100   1.726   5.858   6.108
12056TIP3    H136101   1.667   5.934   6.127
12056TIP3    H236102   1.661   5.791   6.084
12057TIP3   OH236103   1.789   6.143   6.287
12057TIP3    H136104   1.836   6.064   6.322
12057TIP3    H236105   1.816   6.141   6.194
12058TIP3   OH236106   2.642   7.107   5.942
12058TIP3    H136107   2.679   7.037   5.885
12058TIP3    H236108   2.636   7.061   6.027
12059TIP3   OH236109   3.555   5.887   6.286
12059TIP3    H136110   3.586   5.969   6.328
12059TIP3    H236111   3.581   5.902   6.194
12060TIP3   OH236112   2.951   6.068   6.316
12060TIP3    H136113   2.995   5.985   6.341
12060TIP3    H236114   2.921   6.046   6.226
12061TIP3   OH236115   2.294   5.731   6.282
12061TIP3    H136116   2.269   5.802   6.219
12061TIP3    H236117   2.246   5.655   6.241
12062TIP3   OH236118   2.988   5.822   5.905
12062TIP3    H136119   3.058   5.805   5.972
12062TIP3    H236120   3.043   5.854   5.831
12063TIP3   OH236121   1.935   5.940   6.380
12063TIP3    H136122   2.000   5.908   6.446
12063TIP3    H236123   1.945   5.872   6.310
12064TIP3   OH236124   2.380   6.129   6.191
12064TIP3    H136125   2.467   6.086   6.209
12064TIP3    H236126   2.328   6.050   6.164
12065TIP3   OH236127   3.630   6.095   6.457
12065TIP3    H136128   3.545   6.140   6.437
12065TIP3    H236129   3.647   6.127   6.547
12066TIP3   OH236130   2.288   5.712   6.722
12066TIP3    H136131   2.226   5.746   6.654
12066TIP3    H236132   2.235   5.728   6.803
12067TIP3   OH236133   2.626   6.558   5.729
12067TIP3    H136134   2.591   6.548   5.639
12067TIP3    H236135   2.583   6.641   5.758
12068TIP3   OH236136   3.192   5.826   6.082
12068TIP3    H136137   3.184   5.775   6.164
12068TIP3    H236138   3.246   5.902   6.110
12069TIP3   OH236139   2.163   5.827   6.506
12069TIP3    H136140   2.228   5.897   6.526
12069TIP3    H236141   2.205   5.785   6.428
12070TIP3   OH236142   2.227   6.684   6.614
12070TIP3    H136143   2.199   6.771   6.579
12070TIP3    H236144   2.148   6.661   6.667
12071TIP3   OH236145   1.614   6.371   5.847
12071TIP3    H136146   1.571   6.397   5.764
12071TIP3    H236147   1.643   6.458   5.882
12072TIP3   OH236148   3.049   6.888   6.084
12072TIP3    H136149   2.959   6.882   6.123
12072TIP3    H236150   3.046   6.975   6.041
12073TIP3   OH236151   3.349   5.786   6.452
12073TIP3    H136152   3.262   5.814   6.418
12073TIP3    H236153   3.410   5.819   6.383
12074TIP3   OH236154   2.641   5.427   6.436
12074TIP3    H136155   2.626   5.332   6.454
12074TIP3    H236156   2.564   5.466   6.483
12075TIP3   OH236157   2.750   6.933   5.755
12075TIP3    H136158   2.801   6.850   5.738
12075TIP3    H236159   2.816   6.998   5.719
12076TIP3   OH236160   2.896   6.717   5.674
12076TIP3    H136161   2.873   6.635   5.628
12076TIP3    H236162   2.933   6.683   5.759
12077TIP3   OH236163   3.281   6.795   6.436
12077TIP3    H136164   3.271   6.720   6.374
12077TIP3    H236165   3.264   6.872   6.376
12078TIP3   OH236166   2.577   6.196   5.692
12078TIP3    H136167   2.497   6.248   5.671
12078TIP3    H236168   2.620   6.190   5.605
12079TIP3   OH236169   2.532   5.980   5.402
12079TIP3    H136170   2.599   6.032   5.450
12079TIP3    H236171   2.589   5.916   5.356
12080TIP3   OH236172   3.477   6.436   6.279
12080TIP3    H136173   3.394   6.489   6.283
12080TIP3    H236174   3.508   6.462   6.190
12081TIP3   OH236175   2.920   6.277   5.663
12081TIP3    H136176   2.868   6.299   5.743
12081TIP3    H236177   3.006   6.251   5.704
12082TIP3   OH236178   3.155   6.313   6.579
12082TIP3    H136179   3.155   6.395   6.632
12082TIP3    H236180   3.072   6.322   6.531
12083TIP3   OH236181   2.154   6.262   6.073
12083TIP3    H136182   2.099   6.217   6.005
12083TIP3    H236183   2.218   6.192   6.094
12084TIP3   OH236184   2.305   6.618   6.206
12084TIP3    H136185   2.251   6.644   6.128
12084TIP3    H236186   2.368   6.690   6.214
12085TIP3   OH236187   2.807   6.885   6.210
12085TIP3    H136188   2.802   6.961   6.270
12085TIP3    H236189   2.801   6.809   6.271
12086TIP3   OH236190   2.429   6.800   6.756
12086TIP3    H136191   2.364   6.858   6.802
12086TIP3    H236192   2.368   6.745   6.703
12087TIP3   OH236193   2.759   6.135   5.488
12087TIP3    H136194   2.818   6.196   5.537
12087TIP3    H236195   2.786   6.155   5.394
12088TIP3   OH236196   2.176   6.355   6.850
12088TIP3    H136197   2.186   6.443   6.891
12088TIP3    H236198   2.086   6.331   6.883
12089TIP3   OH236199   2.504   6.812   5.772
12089TIP3    H136200   2.588   6.862   5.771
12089TIP3    H236201   2.446   6.868   5.720
12090TIP3   OH236202   2.222   6.967   6.846
12090TIP3    H136203   2.185   6.968   6.756
12090TIP3    H236204   2.143   6.944   6.900
12091TIP3   OH236205   3.276   5.372   5.537
12091TIP3    H136206   3.195   5.393   5.586
12091TIP3    H236207   3.291   5.456   5.488
12092TIP3   OH236208   2.013   6.119   5.886
12092TIP3    H136209   1.944   6.159   5.829
12092TIP3    H236210   1.981   6.028   5.896
12093TIP3   OH236211   3.078   6.739   5.086
12093TIP3    H136212   3.086   6.836   5.070
12093TIP3    H236213   3.171   6.710   5.074
12094TIP3   OH236214   1.802   6.496   6.790
12094TIP3    H136215   1.729   6.481   6.727
12094TIP3    H236216   1.831   6.405   6.811
12095TIP3   OH236217   1.654   6.692   6.425
12095TIP3    H136218   1.750   6.704   6.423
12095TIP3    H236219   1.625   6.772   6.472
12096TIP3   OH236220   3.529   7.151   6.490
12096TIP3    H136221   3.522   7.054   6.498
12096TIP3    H236222   3.442   7.178   6.527
12097TIP3   OH236223   2.622   6.927   6.611
12097TIP3    H136224   2.621   7.018   6.648
12097TIP3    H236225   2.552   6.885   6.666
12098TIP3   OH236226   2.391   7.056   5.567
12098TIP3    H136227   2.343   7.036   5.485
12098TIP3    H236228   2.354   7.142   5.594
12099TIP3   OH236229   1.826   6.907   5.950
12099TIP3    H136230   1.867   6.896   6.038
12099TIP3    H236231   1.766   6.830   5.948
12100TIP3   OH236232   2.588   6.961   5.203
12100TIP3    H136233   2.647   6.891   5.168
12100TIP3    H236234   2.623   6.971   5.294
12101TIP3   OH236235   2.641   7.008   5.473
12101TIP3    H136236   2.552   7.019   5.513
12101TIP3    H236237   2.690   6.970   5.548
12102TIP3   OH236238   3.408   6.272   6.757
12102TIP3    H136239   3.326   6.282   6.706
12102TIP3    H236240   3.425   6.176   6.747
12103TIP3   OH236241   2.005   6.680   6.774
12103TIP3    H136242   2.053   6.665   6.857
12103TIP3    H236243   1.930   6.617   6.782
12104TIP3   OH236244   2.407   5.508   6.566
12104TIP3    H136245   2.320   5.474   6.536
12104TIP3    H236246   2.376   5.586   6.616
12105TIP3   OH236247   2.940   5.621   6.759
12105TIP3    H136248   3.010   5.592   6.821
12105TIP3    H236249   2.858   5.600   6.807
12106TIP3   OH236250   3.173   6.048   6.676
12106TIP3    H136251   3.124   6.046   6.761
12106TIP3    H236252   3.153   6.138   6.642
12107TIP3   OH236253   2.837   6.174   5.232
12107TIP3    H136254   2.802   6.153   5.143
12107TIP3    H236255   2.921   6.219   5.208
12108TIP3   OH236256   2.551   5.553   5.536
12108TIP3    H136257   2.515   5.548   5.627
12108TIP3    H236258   2.511   5.471   5.499
12109TIP3   OH236259   2.336   6.036   6.584
12109TIP3    H136260   2.288   6.036   6.670
12109TIP3    H236261   2.297   6.114   6.542
12110TIP3   OH236262   2.219   5.922   6.099
12110TIP3    H136263   2.128   5.890   6.118
12110TIP3    H236264   2.233   5.880   6.012
12111TIP3   OH236265   2.713   5.995   5.827
12111TIP3    H136266   2.662   6.065   5.781
12111TIP3    H236267   2.767   5.959   5.755
12112TIP3   OH236268   2.884   6.268   6.909
12112TIP3    H136269   2.864   6.196   6.973
12112TIP3    H236270   2.977   6.285   6.931
12113TIP3   OH236271   2.865   6.019   6.060
12113TIP3    H136272   2.802   6.041   5.988
12113TIP3    H236273   2.904   5.939   6.018
12114TIP3   OH236274   2.163   6.045   6.792
12114TIP3    H136275   2.159   6.108   6.866
12114TIP3    H236276   2.137   5.962   6.836
12115TIP3   OH236277   2.207   5.530   5.500
12115TIP3    H136278   2.196   5.526   5.597
12115TIP3    H236279   2.128   5.582   5.475
12116TIP3   OH236280   1.753   5.578   6.344
12116TIP3    H136281   1.817   5.605   6.413
12116TIP3    H236282   1.806   5.524   6.285
12117TIP3   OH236283   1.716   5.553   5.891
12117TIP3    H136284   1.762   5.590   5.813
12117TIP3    H236285   1.654   5.626   5.910
12118TIP3   OH236286   2.867   6.268   6.475
12118TIP3    H136287   2.904   6.197   6.418
12118TIP3    H236288   2.847   6.215   6.556
12119TIP3   OH236289   2.552   5.733   6.157
12119TIP3    H136290   2.470   5.731   6.210
12119TIP3    H236291   2.621   5.719   6.224
12120TIP3   OH236292   1.988   5.787   6.157
12120TIP3    H136293   1.893   5.797   6.133
12120TIP3    H236294   2.004   5.693   6.143
12121TIP3   OH236295   2.247   5.788   5.860
12121TIP3    H136296   2.341   5.795   5.834
12121TIP3    H236297   2.199   5.804   5.775
12122TIP3   OH236298   3.038   5.808   6.363
12122TIP3    H136299   3.004   5.819   6.454
12122TIP3    H236300   2.974   5.745   6.327
12123TIP3   OH236301   2.098   5.818   5.634
12123TIP3    H136302   2.025   5.772   5.589
12123TIP3    H236303   2.147   5.853   5.557
12124TIP3   OH236304   3.212   7.497   6.572
12124TIP3    H136305   3.216   7.519   6.477
12124TIP3    H236306   3.291   7.543   6.607
12125TIP3   OH236307   2.169   6.603   6.997
12125TIP3    H136308   2.248   6.632   7.047
12125TIP3    H236309   2.103   6.599   7.069
12126TIP3   OH236310   2.626   6.038   6.256
12126TIP3    H136311   2.702   6.000   6.209
12126TIP3    H236312   2.634   5.999   6.345
12127TIP3   OH236313   2.154   5.542   6.140
12127TIP3    H136314   2.114   5.468   6.191
12127TIP3    H236315   2.197   5.494   6.068
12128TIP3   OH236316   2.605   5.963   6.536
12128TIP3    H136317   2.516   5.997   6.556
12128TIP3    H236318   2.663   6.018   6.593
12129TIP3   OH236319   2.343   6.348   5.646
12129TIP3    H136320   2.272   6.280   5.633
12129TIP3    H236321   2.324   6.379   5.737
12130TIP3   OH236322   3.244   6.582   6.268
12130TIP3    H136323   3.272   6.632   6.189
12130TIP3    H236324   3.161   6.539   6.237
12131TIP3   OH236325   2.800   5.657   5.503
12131TIP3    H136326   2.704   5.634   5.514
12131TIP3    H236327   2.805   5.750   5.532
12132TIP3   OH236328   2.726   6.649   6.643
12132TIP3    H136329   2.778   6.646   6.725
12132TIP3    H236330   2.697   6.741   6.640
12133TIP3   OH236331   2.868   5.906   5.610
12133TIP3    H136332   2.965   5.911   5.625
12133TIP3    H236333   2.851   5.987   5.558
12134TIP3   OH236334   2.073   6.375   6.322
12134TIP3    H136335   2.084   6.328   6.237
12134TIP3    H236336   2.058   6.304   6.386
12135TIP3   OH236337   2.488   6.495   5.465
12135TIP3    H136338   2.440   6.581   5.466
12135TIP3    H236339   2.433   6.442   5.526
12136TIP3   OH236340   1.923   6.275   6.927
12136TIP3    H136341   1.923   6.259   7.023
12136TIP3    H236342   1.844   6.223   6.899
12137TIP3   OH236343   2.641   6.402   6.947
12137TIP3    H136344   2.576   6.334   6.920
12137TIP3    H236345   2.726   6.362   6.918
12138TIP3   OH236346   2.900   6.926   6.537
12138TIP3    H136347   2.803   6.925   6.549
12138TIP3    H236348   2.927   6.979   6.614
12139TIP3   OH236349   3.309   5.999   5.442
12139TIP3    H136350   3.248   5.955   5.379
12139TIP3    H236351   3.306   6.089   5.403
12140TIP3   OH236352   3.532   6.853   6.525
12140TIP3    H136353   3.434   6.849   6.515
12140TIP3    H236354   3.559   6.826   6.434
12141TIP3   OH236355   3.013   6.814   5.350
12141TIP3    H136356   2.987   6.743   5.409
12141TIP3    H236357   3.027   6.769   5.265
12142TIP3   OH236358   3.018   6.446   6.180
12142TIP3    H136359   2.925   6.426   6.195
12142TIP3    H236360   3.050   6.363   6.138
12143TIP3   OH236361   2.145   6.681   5.954
12143TIP3    H136362   2.136   6.756   5.891
12143TIP3    H236363   2.053   6.654   5.962
12144TIP3   OH236364   1.703   5.975   5.647
12144TIP3    H136365   1.745   6.061   5.667
12144TIP3    H236366   1.625   5.978   5.707
12145TIP3   OH236367   2.279   6.438   5.895
12145TIP3    H136368   2.246   6.528   5.912
12145TIP3    H236369   2.229   6.385   5.960
12146TIP3   OH236370   2.409   7.009   6.400
12146TIP3    H136371   2.453   7.085   6.356
12146TIP3    H236372   2.483   6.974   6.454
12147TIP3   OH236373   2.058   6.907   5.795
12147TIP3    H136374   1.971   6.917   5.839
12147TIP3    H236375   2.089   7.001   5.795
12148TIP3   OH236376   2.811   6.655   6.373
12148TIP3    H136377   2.784   6.645   6.466
12148TIP3    H236378   2.892   6.604   6.370
12149TIP3   OH236379   2.773   6.544   5.252
12149TIP3    H136380   2.824   6.519   5.332
12149TIP3    H236381   2.684   6.515   5.277
12150TIP3   OH236382   3.040   7.182   6.418
12150TIP3    H136383   2.961   7.126   6.408
12150TIP3    H236384   3.026   7.247   6.345
12151TIP3   OH236385   3.108   7.015   5.069
12151TIP3    H136386   3.145   7.089   5.018
12151TIP3    H236387   3.028   7.059   5.104
12152TIP3   OH236388   2.122   5.791   6.930
12152TIP3    H136389   2.025   5.800   6.943
12152TIP3    H236390   2.145   5.737   7.007
12153TIP3   OH236391   2.932   6.479   5.471
12153TIP3    H136392   2.922   6.411   5.540
12153TIP3    H236393   3.029   6.473   5.456
12154TIP3   OH236394   1.853   6.874   6.563
12154TIP3    H136395   1.903   6.804   6.609
12154TIP3    H236396   1.861   6.947   6.625
12155TIP3   OH236397   2.136   6.522   5.250
12155TIP3    H136398   2.146   6.428   5.224
12155TIP3    H236399   2.113   6.513   5.345
12156TIP3   OH236400   2.081   6.528   5.520
12156TIP3    H136401   2.156   6.503   5.576
12156TIP3    H236402   2.082   6.626   5.529
12157TIP3   OH236403   1.812   6.222   5.727
12157TIP3    H136404   1.745   6.266   5.783
12157TIP3    H236405   1.823   6.290   5.657
12158TIP3   OH236406   2.961   5.862   6.623
12158TIP3    H136407   3.045   5.898   6.657
12158TIP3    H236408   2.951   5.779   6.676
12159TIP3   OH236409   2.847   5.606   5.788
12159TIP3    H136410   2.835   5.627   5.694
12159TIP3    H236411   2.886   5.689   5.823
12160TIP3   OH236412   2.349   6.726   5.473
12160TIP3    H136413   2.261   6.749   5.509
12160TIP3    H236414   2.361   6.798   5.410
12161TIP3   OH236415   2.533   5.791   5.888
12161TIP3    H136416   2.597   5.864   5.872
12161TIP3    H236417   2.539   5.781   5.985
12162TIP3   OH236418   2.802   6.111   6.690
12162TIP3    H136419   2.832   6.157   6.771
12162TIP3    H236420   2.853   6.028   6.695
12163TIP3   OH236421   2.676   5.510   5.987
12163TIP3    H136422   2.673   5.588   6.046
12163TIP3    H236423   2.738   5.543   5.917
12164TIP3   OH236424   2.094   6.800   5.542
12164TIP3    H136425   2.063   6.868   5.479
12164TIP3    H236426   2.075   6.842   5.628
12165TIP3   OH236427   2.190   5.516   5.776
12165TIP3    H136428   2.186   5.604   5.819
12165TIP3    H236429   2.286   5.498   5.784
12166TIP3   OH236430   3.441   6.007   6.676
12166TIP3    H136431   3.343   6.004   6.682
12166TIP3    H236432   3.455   5.961   6.593
12167TIP3   OH236433   3.093   6.202   6.064
12167TIP3    H136434   3.020   6.137   6.073
12167TIP3    H236435   3.166   6.156   6.110
12168TIP3   OH236436   1.808   6.424   5.532
12168TIP3    H136437   1.872   6.496   5.538
12168TIP3    H236438   1.853   6.369   5.464
12169TIP3   OH236439   1.752   5.706   5.665
12169TIP3    H136440   1.751   5.803   5.664
12169TIP3    H236441   1.669   5.685   5.621
12170TIP3   OH236442   3.062   7.159   6.009
12170TIP3    H136443   3.016   7.206   5.937
12170TIP3    H236444   3.152   7.196   5.995
12171TIP3   OH236445   2.147   5.421   6.535
12171TIP3    H136446   2.113   5.388   6.450
12171TIP3    H236447   2.133   5.344   6.594
12172TIP3   OH236448   1.673   6.639   5.913
12172TIP3    H136449   1.614   6.672   5.983
12172TIP3    H236450   1.636   6.685   5.834
12173TIP3   OH236451   1.836   7.171   6.982
12173TIP3    H136452   1.923   7.170   7.026
12173TIP3    H236453   1.811   7.077   6.985
12174TIP3   OH236454   2.329   7.148   7.028
12174TIP3    H136455   2.418   7.109   7.034
12174TIP3    H236456   2.290   7.090   6.959
12175TIP3   OH236457   2.298   6.725   5.161
12175TIP3    H136458   2.242   6.653   5.198
12175TIP3    H236459   2.373   6.673   5.128
12176TIP3   OH236460   2.941   7.062   6.773
12176TIP3    H136461   2.944   6.990   6.840
12176TIP3    H236462   3.023   7.113   6.796
12177TIP3   OH236463   2.733   6.763   5.076
12177TIP3    H136464   2.775   6.700   5.136
12177TIP3    H236465   2.790   6.760   4.997
12178TIP3   OH236466   1.967   6.596   7.190
12178TIP3    H136467   1.980   6.499   7.199
12178TIP3    H236468   1.880   6.599   7.145
12179TIP3   OH236469   1.944   6.241   5.384
12179TIP3    H136470   1.999   6.210   5.458
12179TIP3    H236471   2.011   6.247   5.313
12180TIP3   OH236472   2.573   6.683   6.965
12180TIP3    H136473   2.531   6.703   6.878
12180TIP3    H236474   2.603   6.590   6.953
12181TIP3   OH236475   2.463   6.443   5.194
12181TIP3    H136476   2.460   6.454   5.291
12181TIP3    H236477   2.460   6.345   5.186
12182TIP3   OH236478   3.062   6.692   6.570
12182TIP3    H136479   3.144   6.729   6.530
12182TIP3    H236480   2.999   6.764   6.550
12183TIP3   OH236481   2.090   6.334   7.174
12183TIP3    H136482   2.158   6.269   7.155
12183TIP3    H236483   2.118   6.366   7.262
12184TIP3   OH236484   2.156   6.147   5.609
12184TIP3    H136485   2.120   6.101   5.687
12184TIP3    H236486   2.191   6.072   5.556
12185TIP3   OH236487   2.438   6.230   6.828
12185TIP3    H136488   2.349   6.271   6.836
12185TIP3    H236489   2.465   6.258   6.739
12186TIP3   OH236490   2.253   5.944   5.444
12186TIP3    H136491   2.228   5.952   5.350
12186TIP3    H236492   2.350   5.944   5.438
12187TIP3   OH236493   2.938   6.613   6.965
12187TIP3    H136494   3.020   6.584   6.922
12187TIP3    H236495   2.931   6.550   7.039
12188TIP3   OH236496   3.070   6.269   5.114
12188TIP3    H136497   3.051   6.227   5.028
12188TIP3    H236498   3.037   6.360   5.093
12189TIP3   OH236499   2.543   6.004   6.958
12189TIP3    H136500   2.543   5.923   6.902
12189TIP3    H236501   2.503   6.070   6.899
12190TIP3   OH236502   2.546   5.790   6.768
12190TIP3    H136503   2.573   5.824   6.681
12190TIP3    H236504   2.453   5.765   6.752
12191TIP3   OH236505   2.556   6.338   6.594
12191TIP3    H136506   2.645   6.302   6.586
12191TIP3    H236507   2.576   6.432   6.613
12192TIP3   OH236508   3.152   6.287   7.019
12192TIP3    H136509   3.199   6.203   7.032
12192TIP3    H236510   3.222   6.344   6.984
12193TIP3   OH236511   3.194   6.542   6.755
12193TIP3    H136512   3.137   6.598   6.698
12193TIP3    H236513   3.282   6.564   6.718
12194TIP3   OH236514   2.422   6.108   7.192
12194TIP3    H136515   2.355   6.038   7.209
12194TIP3    H236516   2.456   6.079   7.104
12195TIP3   OH236517   2.678   5.549   6.837
12195TIP3    H136518   2.626   5.630   6.815
12195TIP3    H236519   2.610   5.479   6.826
12196TIP3   OH236520   2.804   6.051   7.054
12196TIP3    H136521   2.790   6.036   7.149
12196TIP3    H236522   2.714   6.027   7.021
12197TIP3   OH236523   3.043   6.005   6.908
12197TIP3    H136524   2.969   6.004   6.972
12197TIP3    H236525   3.118   5.974   6.963
12198TIP3   OH236526   3.272   5.945   7.055
12198TIP3    H136527   3.285   5.849   7.071
12198TIP3    H236528   3.268   5.981   7.146
12199TIP3   OH236529   2.266   5.887   7.246
12199TIP3    H136530   2.265   5.794   7.213
12199TIP3    H236531   2.301   5.874   7.336
12200TIP3   OH236532   2.772   5.560   7.095
12200TIP3    H136533   2.838   5.488   7.090
12200TIP3    H236534   2.732   5.554   7.006
12201TIP3   OH236535   2.840   5.775   7.252
12201TIP3    H136536   2.819   5.703   7.189
12201TIP3    H236537   2.760   5.831   7.246
12202TIP3   OH236538   2.062   7.003   5.356
12202TIP3    H136539   2.156   6.998   5.331
12202TIP3    H236540   2.028   7.052   5.279
12203TIP3   OH236541   1.539   6.383   5.569
12203TIP3    H136542   1.633   6.405   5.553
12203TIP3    H236543   1.531   6.296   5.526
12204TIP3   OH236544   1.460   6.998   5.983
12204TIP3    H136545   1.391   6.940   5.942
12204TIP3    H236546   1.500   6.936   6.047
12205TIP3   OH236547   1.596   6.841   6.168
12205TIP3    H136548   1.571   6.775   6.234
12205TIP3    H236549   1.640   6.907   6.225
12206TIP3   OH236550   3.281   7.317   5.980
12206TIP3    H136551   3.332   7.293   6.060
12206TIP3    H236552   3.341   7.271   5.916
12207TIP3   OH236553   3.343   7.265   6.258
12207TIP3    H136554   3.305   7.175   6.255
12207TIP3    H236555   3.435   7.244   6.281
12208TIP3   OH236556   3.391   6.944   6.828
12208TIP3    H136557   3.318   6.958   6.892
12208TIP3    H236558   3.433   7.032   6.829
12209TIP3   OH236559   3.209   6.457   5.444
12209TIP3    H136560   3.275   6.522   5.412
12209TIP3    H236561   3.255   6.420   5.522
12210TIP3   OH236562   3.336   6.325   5.648
12210TIP3    H136563   3.271   6.284   5.709
12210TIP3    H236564   3.404   6.360   5.710
12211TIP3   OH236565   3.390   6.719   6.082
12211TIP3    H136566   3.446   6.658   6.031
12211TIP3    H236567   3.390   6.800   6.029
12212TIP3   OH236568   3.217   7.012   6.278
12212TIP3    H136569   3.146   7.058   6.325
12212TIP3    H236570   3.170   6.970   6.203
12213TIP3   OH236571   3.274   6.233   5.293
12213TIP3    H136572   3.202   6.235   5.226
12213TIP3    H236573   3.246   6.309   5.349
12214TIP3   OH236574   3.145   5.904   5.247
12214TIP3    H136575   3.100   5.940   5.170
12214TIP3    H236576   3.123   5.809   5.238
12215TIP3   OH236577   3.147   6.184   5.794
12215TIP3    H136578   3.158   6.088   5.785
12215TIP3    H236579   3.135   6.195   5.891
12216TIP3   OH236580   1.786   6.249   6.540
12216TIP3    H136581   1.780   6.223   6.445
12216TIP3    H236582   1.883   6.252   6.551
12217TIP3   OH236583   3.440   6.607   6.652
12217TIP3    H136584   3.512   6.541   6.641
12217TIP3    H236585   3.466   6.677   6.589
12218TIP3   OH236586   3.622   6.408   6.661
12218TIP3    H136587   3.548   6.358   6.703
12218TIP3    H236588   3.696   6.345   6.678
12219TIP3   OH236589   3.090   5.636   5.224
12219TIP3    H136590   3.162   5.608   5.284
12219TIP3    H236591   3.015   5.581   5.250
12220TIP3   OH236592   3.148   5.899   5.685
12220TIP3    H136593   3.188   5.810   5.700
12220TIP3    H236594   3.206   5.931   5.615
12221TIP3   OH236595   3.306   6.072   6.183
12221TIP3    H136596   3.392   6.095   6.141
12221TIP3    H236597   3.323   6.108   6.272
12222TIP3   OH236598   3.379   6.216   6.413
12222TIP3    H136599   3.303   6.251   6.462
12222TIP3    H236600   3.413   6.296   6.368
12223TIP3   OH236601   2.001   5.951   7.238
12223TIP3    H136602   2.098   5.937   7.231
12223TIP3    H236603   1.972   5.861   7.259
12224TIP3   OH236604   3.829   5.810   6.969
12224TIP3    H136605   3.890   5.744   6.928
12224TIP3    H236606   3.799   5.860   6.891
12225TIP3   OH236607   3.255   5.649   5.725
12225TIP3    H136608   3.304   5.633   5.809
12225TIP3    H236609   3.194   5.572   5.725
12226TIP3   OH236610   1.958   5.625   6.520
12226TIP3    H136611   2.024   5.555   6.536
12226TIP3    H236612   2.008   5.705   6.542
12227TIP3   OH236613   1.813   5.936   6.652
12227TIP3    H136614   1.774   5.874   6.589
12227TIP3    H236615   1.803   6.020   6.606
12228TIP3   OH236616   3.697   5.944   6.772
12228TIP3    H136617   3.612   5.987   6.791
12228TIP3    H236618   3.666   5.870   6.716
12229TIP3   OH236619   3.332   5.582   5.360
12229TIP3    H136620   3.374   5.511   5.308
12229TIP3    H236621   3.401   5.652   5.359
12230TIP3   OH236622   1.743   5.397   6.111
12230TIP3    H136623   1.654   5.403   6.150
12230TIP3    H236624   1.737   5.464   6.040
12231TIP3   OH236625   2.903   7.117   5.628
12231TIP3    H136626   2.950   7.104   5.543
12231TIP3    H236627   2.961   7.180   5.672
12232TIP3   OH236628   1.962   5.491   6.933
12232TIP3    H136629   1.908   5.492   7.013
12232TIP3    H236630   1.912   5.549   6.874
12233TIP3   OH236631   2.005   6.916   7.012
12233TIP3    H136632   1.912   6.894   6.991
12233TIP3    H236633   2.009   6.894   7.105
12234TIP3   OH236634   2.184   6.954   6.559
12234TIP3    H136635   2.131   7.027   6.521
12234TIP3    H236636   2.268   6.971   6.513
12235TIP3   OH236637   2.630   7.194   6.699
12235TIP3    H136638   2.671   7.192   6.788
12235TIP3    H236639   2.697   7.246   6.649
12236TIP3   OH236640   2.814   7.346   6.556
12236TIP3    H136641   2.858   7.281   6.499
12236TIP3    H236642   2.891   7.393   6.592
12237TIP3   OH236643   3.598   5.706   6.655
12237TIP3    H136644   3.508   5.694   6.621
12237TIP3    H236645   3.634   5.615   6.647
12238TIP3   OH236646   1.859   7.211   6.583
12238TIP3    H136647   1.769   7.241   6.558
12238TIP3    H236648   1.868   7.255   6.669
12239TIP3   OH236649   2.095   7.190   6.442
12239TIP3    H136650   2.008   7.201   6.488
12239TIP3    H236651   2.072   7.219   6.352
12240TIP3   OH236652   2.517   7.215   6.239
12240TIP3    H136653   2.446   7.230   6.174
12240TIP3    H236654   2.527   7.304   6.278
12241TIP3   OH236655   2.787   7.159   6.298
12241TIP3    H136656   2.695   7.174   6.271
12241TIP3    H236657   2.835   7.223   6.242
12242TIP3   OH236658   2.989   7.346   6.201
12242TIP3    H136659   2.976   7.430   6.154
12242TIP3    H236660   3.024   7.288   6.129
12243TIP3   OH236661   1.771   7.007   6.325
12243TIP3    H136662   1.794   6.977   6.416
12243TIP3    H236663   1.839   6.958   6.274
12244TIP3   OH236664   1.960   6.872   6.186
12244TIP3    H136665   1.977   6.790   6.237
12244TIP3    H236666   2.048   6.914   6.186
12245TIP3   OH236667   2.222   6.980   6.191
12245TIP3    H136668   2.268   6.906   6.151
12245TIP3    H236669   2.273   6.994   6.274
12246TIP3   OH236670   2.799   5.621   6.273
12246TIP3    H136671   2.759   5.550   6.326
12246TIP3    H236672   2.875   5.576   6.231
12247TIP3   OH236673   3.323   5.506   6.179
12247TIP3    H136674   3.359   5.556   6.102
12247TIP3    H236675   3.227   5.522   6.170
12248TIP3   OH236676   3.419   5.603   5.942
12248TIP3    H136677   3.494   5.551   5.905
12248TIP3    H236678   3.454   5.694   5.927
12249TIP3   OH236679   2.052   5.332   6.288
12249TIP3    H136680   1.960   5.298   6.293
12249TIP3    H236681   2.101   5.247   6.284
12250TIP3   OH236682   1.838   5.202   5.939
12250TIP3    H136683   1.867   5.261   5.867
12250TIP3    H236684   1.809   5.266   6.007
12251TIP3   OH236685   2.498   5.364   6.171
12251TIP3    H136686   2.555   5.411   6.108
12251TIP3    H236687   2.524   5.402   6.256
12252TIP3   OH236688   3.038   5.512   6.153
12252TIP3    H136689   3.042   5.469   6.067
12252TIP3    H236690   3.028   5.435   6.213
12253TIP3   OH236691   3.072   5.436   5.718
12253TIP3    H136692   2.985   5.477   5.734
12253TIP3    H236693   3.060   5.349   5.763
12254TIP3   OH236694   1.555   6.778   5.713
12254TIP3    H136695   1.467   6.747   5.686
12254TIP3    H236696   1.547   6.872   5.685
12255TIP3   OH236697   1.958   5.362   5.698
12255TIP3    H136698   2.005   5.297   5.642
12255TIP3    H236699   2.032   5.414   5.734
12256TIP3   OH236700   2.466   5.541   5.799
12256TIP3    H136701   2.523   5.490   5.859
12256TIP3    H236702   2.492   5.632   5.826
12257TIP3   OH236703   2.330   6.959   5.301
12257TIP3    H136704   2.417   6.982   5.263
12257TIP3    H236705   2.306   6.886   5.239
12258TIP3   OH236706   3.046   7.081   5.396
12258TIP3    H136707   3.038   6.983   5.383
12258TIP3    H236708   3.002   7.113   5.314
12259TIP3   OH236709   2.259   5.614   7.185
12259TIP3    H136710   2.223   5.542   7.240
12259TIP3    H236711   2.353   5.612   7.213
12260TIP3   OH236712   2.511   5.611   7.301
12260TIP3    H136713   2.595   5.584   7.261
12260TIP3    H236714   2.499   5.540   7.368
12261TIP3   OH236715   1.632   6.794   5.353
12261TIP3    H136716   1.627   6.824   5.445
12261TIP3    H236717   1.722   6.755   5.346
12262TIP3   OH236718   3.336   5.675   7.087
12262TIP3    H136719   3.353   5.643   7.178
12262TIP3    H236720   3.426   5.668   7.047
12263TIP3   OH236721   3.273   7.229   6.579
12263TIP3    H136722   3.196   7.198   6.528
12263TIP3    H236723   3.251   7.325   6.585
12264TIP3   OH236724   4.541   6.597   5.344
12264TIP3    H136725   4.510   6.688   5.325
12264TIP3    H236726   4.464   6.546   5.312
12265TIP3   OH236727   4.536   6.598   5.730
12265TIP3    H136728   4.571   6.576   5.819
12265TIP3    H236729   4.497   6.513   5.705
12266TIP3   OH236730   3.835   6.488   6.095
12266TIP3    H136731   3.866   6.419   6.156
12266TIP3    H236732   3.914   6.544   6.088
12267TIP3   OH236733   4.783   6.902   5.412
12267TIP3    H136734   4.769   6.837   5.481
12267TIP3    H236735   4.819   6.978   5.462
12268TIP3   OH236736   3.853   6.902   5.845
12268TIP3    H136737   3.817   6.813   5.829
12268TIP3    H236738   3.931   6.904   5.788
12269TIP3   OH236739   3.517   6.101   5.596
12269TIP3    H136740   3.472   6.185   5.616
12269TIP3    H236741   3.444   6.051   5.555
12270TIP3   OH236742   3.572   6.390   5.776
12270TIP3    H136743   3.622   6.313   5.810
12270TIP3    H236744   3.636   6.431   5.717
12271TIP3   OH236745   4.439   7.370   5.425
12271TIP3    H136746   4.477   7.295   5.375
12271TIP3    H236747   4.424   7.331   5.512
12272TIP3   OH236748   4.338   6.821   5.778
12272TIP3    H136749   4.379   6.744   5.734
12272TIP3    H236750   4.420   6.868   5.803
12273TIP3   OH236751   4.768   6.349   5.790
12273TIP3    H136752   4.787   6.258   5.823
12273TIP3    H236753   4.716   6.326   5.711
12274TIP3   OH236754   4.087   5.984   5.773
12274TIP3    H136755   4.072   6.056   5.709
12274TIP3    H236756   4.040   5.911   5.728
12275TIP3   OH236757   4.786   6.079   5.398
12275TIP3    H136758   4.841   6.021   5.453
12275TIP3    H236759   4.849   6.109   5.329
12276TIP3   OH236760   3.721   6.185   5.879
12276TIP3    H136761   3.804   6.168   5.928
12276TIP3    H236762   3.737   6.130   5.799
12277TIP3   OH236763   4.162   6.382   5.678
12277TIP3    H136764   4.256   6.359   5.688
12277TIP3    H236765   4.124   6.298   5.644
12278TIP3   OH236766   5.364   6.348   5.920
12278TIP3    H136767   5.359   6.446   5.908
12278TIP3    H236768   5.415   6.344   6.002
12279TIP3   OH236769   4.085   5.968   6.207
12279TIP3    H136770   4.025   6.005   6.139
12279TIP3    H236771   4.032   5.985   6.288
12280TIP3   OH236772   4.423   6.815   5.216
12280TIP3    H136773   4.387   6.806   5.127
12280TIP3    H236774   4.382   6.899   5.244
12281TIP3   OH236775   4.187   6.753   6.000
12281TIP3    H136776   4.135   6.828   6.032
12281TIP3    H236777   4.233   6.792   5.922
12282TIP3   OH236778   3.955   6.082   5.991
12282TIP3    H136779   4.018   6.154   6.015
12282TIP3    H236780   4.004   6.042   5.915
12283TIP3   OH236781   4.012   6.985   6.072
12283TIP3    H136782   3.946   6.966   6.001
12283TIP3    H236783   3.956   6.964   6.150
12284TIP3   OH236784   3.409   6.627   5.334
12284TIP3    H136785   3.371   6.658   5.250
12284TIP3    H236786   3.443   6.712   5.372
12285TIP3   OH236787   4.847   7.140   5.572
12285TIP3    H136788   4.756   7.134   5.608
12285TIP3    H236789   4.846   7.229   5.531
12286TIP3   OH236790   4.436   5.679   5.925
12286TIP3    H136791   4.420   5.585   5.944
12286TIP3    H236792   4.360   5.720   5.971
12287TIP3   OH236793   4.547   7.188   5.246
12287TIP3    H136794   4.598   7.105   5.228
12287TIP3    H236795   4.609   7.253   5.205
12288TIP3   OH236796   4.693   6.974   5.162
12288TIP3    H136797   4.666   6.892   5.117
12288TIP3    H236798   4.731   6.940   5.246
12289TIP3   OH236799   5.074   7.049   5.921
12289TIP3    H136800   5.072   6.974   5.859
12289TIP3    H236801   5.061   7.126   5.861
12290TIP3   OH236802   4.370   6.449   5.179
12290TIP3    H136803   4.291   6.503   5.159
12290TIP3    H236804   4.416   6.448   5.093
12291TIP3   OH236805   4.327   6.236   4.888
12291TIP3    H136806   4.392   6.289   4.938
12291TIP3    H236807   4.387   6.174   4.842
12292TIP3   OH236808   5.283   6.669   5.767
12292TIP3    H136809   5.198   6.717   5.774
12292TIP3    H236810   5.312   6.697   5.678
12293TIP3   OH236811   4.717   6.532   5.145
12293TIP3    H136812   4.663   6.556   5.224
12293TIP3    H236813   4.803   6.510   5.188
12294TIP3   OH236814   4.945   6.565   6.084
12294TIP3    H136815   4.951   6.653   6.125
12294TIP3    H236816   4.873   6.577   6.021
12295TIP3   OH236817   3.951   6.527   5.566
12295TIP3    H136818   3.910   6.470   5.498
12295TIP3    H236819   4.027   6.473   5.597
12296TIP3   OH236820   4.091   6.945   5.705
12296TIP3    H136821   4.072   6.916   5.614
12296TIP3    H236822   4.178   6.903   5.722
12297TIP3   OH236823   4.085   6.501   5.922
12297TIP3    H136824   4.118   6.475   5.834
12297TIP3    H236825   4.128   6.588   5.937
12298TIP3   OH236826   4.606   7.138   5.692
12298TIP3    H136827   4.593   7.222   5.740
12298TIP3    H236828   4.590   7.069   5.760
12299TIP3   OH236829   4.555   6.390   4.974
12299TIP3    H136830   4.614   6.451   5.024
12299TIP3    H236831   4.582   6.411   4.881
12300TIP3   OH236832   3.982   6.612   6.349
12300TIP3    H136833   3.986   6.698   6.393
12300TIP3    H236834   3.886   6.591   6.359
12301TIP3   OH236835   4.302   7.067   5.251
12301TIP3    H136836   4.386   7.117   5.257
12301TIP3    H236837   4.243   7.130   5.209
12302TIP3   OH236838   3.998   7.222   6.297
12302TIP3    H136839   3.933   7.161   6.255
12302TIP3    H236840   3.955   7.222   6.386
12303TIP3   OH236841   5.074   5.628   5.025
12303TIP3    H136842   4.991   5.649   5.073
12303TIP3    H236843   5.088   5.711   4.974
12304TIP3   OH236844   3.818   6.373   5.367
12304TIP3    H136845   3.747   6.415   5.314
12304TIP3    H236846   3.781   6.285   5.382
12305TIP3   OH236847   4.874   6.997   4.572
12305TIP3    H136848   4.884   7.093   4.557
12305TIP3    H236849   4.967   6.967   4.560
12306TIP3   OH236850   3.604   6.761   6.281
12306TIP3    H136851   3.541   6.743   6.208
12306TIP3    H236852   3.641   6.673   6.300
12307TIP3   OH236853   5.317   7.401   5.974
12307TIP3    H136854   5.313   7.305   5.987
12307TIP3    H236855   5.232   7.429   6.016
12308TIP3   OH236856   4.185   7.313   5.054
12308TIP3    H136857   4.138   7.297   4.970
12308TIP3    H236858   4.150   7.400   5.081
12309TIP3   OH236859   3.616   7.163   5.430
12309TIP3    H136860   3.667   7.153   5.514
12309TIP3    H236861   3.562   7.082   5.436
12310TIP3   OH236862   4.383   7.216   4.690
12310TIP3    H136863   4.442   7.146   4.655
12310TIP3    H236864   4.418   7.228   4.781
12311TIP3   OH236865   4.435   7.266   4.958
12311TIP3    H136866   4.348   7.275   5.002
12311TIP3    H236867   4.489   7.229   5.030
12312TIP3   OH236868   5.198   6.527   6.241
12312TIP3    H136869   5.117   6.535   6.188
12312TIP3    H236870   5.213   6.431   6.240
12313TIP3   OH236871   3.832   6.934   6.270
12313TIP3    H136872   3.867   6.902   6.355
12313TIP3    H236873   3.747   6.886   6.263
12314TIP3   OH236874   4.200   5.760   6.054
12314TIP3    H136875   4.111   5.731   6.023
12314TIP3    H236876   4.174   5.842   6.101
12315TIP3   OH236877   4.738   5.875   6.246
12315TIP3    H136878   4.808   5.847   6.309
12315TIP3    H236879   4.655   5.856   6.295
12316TIP3   OH236880   4.966   6.301   6.158
12316TIP3    H136881   4.917   6.302   6.243
12316TIP3    H236882   4.951   6.393   6.125
12317TIP3   OH236883   4.632   6.431   4.718
12317TIP3    H136884   4.599   6.410   4.629
12317TIP3    H236885   4.716   6.476   4.696
12318TIP3   OH236886   4.344   5.811   5.023
12318TIP3    H136887   4.311   5.806   5.115
12318TIP3    H236888   4.306   5.728   4.988
12319TIP3   OH236889   4.132   6.279   6.071
12319TIP3    H136890   4.081   6.300   6.152
12319TIP3    H236891   4.116   6.360   6.017
12320TIP3   OH236892   4.016   6.165   5.584
12320TIP3    H136893   3.924   6.138   5.603
12320TIP3    H236894   4.029   6.123   5.496
12321TIP3   OH236895   4.507   6.249   5.312
12321TIP3    H136896   4.456   6.320   5.268
12321TIP3    H236897   4.563   6.216   5.239
12322TIP3   OH236898   4.682   6.526   6.396
12322TIP3    H136899   4.662   6.452   6.458
12322TIP3    H236900   4.777   6.539   6.415
12323TIP3   OH236901   4.658   6.284   5.543
12323TIP3    H136902   4.593   6.302   5.473
12323TIP3    H236903   4.697   6.202   5.505
12324TIP3   OH236904   3.952   6.305   6.278
12324TIP3    H136905   3.981   6.369   6.346
12324TIP3    H236906   3.942   6.223   6.330
12325TIP3   OH236907   3.999   5.783   4.987
12325TIP3    H136908   3.992   5.783   5.085
12325TIP3    H236909   3.923   5.840   4.963
12326TIP3   OH236910   3.546   5.825   5.859
12326TIP3    H136911   3.619   5.860   5.914
12326TIP3    H236912   3.591   5.798   5.778
12327TIP3   OH236913   3.510   5.807   5.377
12327TIP3    H136914   3.558   5.843   5.299
12327TIP3    H236915   3.451   5.882   5.396
12328TIP3   OH236916   4.656   6.523   5.968
12328TIP3    H136917   4.704   6.460   5.909
12328TIP3    H236918   4.637   6.465   6.044
12329TIP3   OH236919   4.341   6.005   5.643
12329TIP3    H136920   4.268   5.992   5.706
12329TIP3    H236921   4.417   5.967   5.693
12330TIP3   OH236922   3.778   6.043   5.651
12330TIP3    H136923   3.684   6.049   5.622
12330TIP3    H236924   3.803   5.951   5.628
12331TIP3   OH236925   4.042   6.035   5.343
12331TIP3    H136926   4.137   6.051   5.325
12331TIP3    H236927   3.998   6.058   5.258
12332TIP3   OH236928   4.790   6.086   5.838
12332TIP3    H136929   4.773   6.081   5.934
12332TIP3    H236930   4.807   5.994   5.814
12333TIP3   OH236931   3.893   6.072   5.117
12333TIP3    H136932   3.822   6.028   5.067
12333TIP3    H236933   3.945   6.111   5.044
12334TIP3   OH236934   5.005   7.749   6.068
12334TIP3    H136935   5.004   7.776   5.974
12334TIP3    H236936   5.088   7.793   6.098
12335TIP3   OH236937   3.970   6.853   6.498
12335TIP3    H136938   4.048   6.885   6.547
12335TIP3    H236939   3.902   6.856   6.568
12336TIP3   OH236940   4.428   6.318   5.747
12336TIP3    H136941   4.490   6.267   5.693
12336TIP3    H236942   4.427   6.269   5.831
12337TIP3   OH236943   3.944   5.802   5.624
12337TIP3    H136944   3.909   5.724   5.673
12337TIP3    H236945   3.998   5.759   5.556
12338TIP3   OH236946   4.402   6.215   6.029
12338TIP3    H136947   4.312   6.251   6.046
12338TIP3    H236948   4.460   6.275   6.080
12339TIP3   OH236949   4.139   6.601   5.125
12339TIP3    H136950   4.066   6.536   5.114
12339TIP3    H236951   4.119   6.635   5.216
12340TIP3   OH236952   5.048   6.832   5.752
12340TIP3    H136953   5.076   6.885   5.674
12340TIP3    H236954   4.961   6.797   5.724
12341TIP3   OH236955   4.596   5.912   4.992
12341TIP3    H136956   4.499   5.894   5.000
12341TIP3    H236957   4.604   6.006   5.017
12342TIP3   OH236958   4.521   6.926   6.148
12342TIP3    H136959   4.570   6.864   6.204
12342TIP3    H236960   4.571   7.009   6.161
12343TIP3   OH236961   4.666   6.163   5.095
12343TIP3    H136962   4.762   6.171   5.111
12343TIP3    H236963   4.646   6.243   5.043
12344TIP3   OH236964   3.830   6.618   5.799
12344TIP3    H136965   3.871   6.592   5.713
12344TIP3    H236966   3.879   6.564   5.862
12345TIP3   OH236967   4.284   6.750   4.948
12345TIP3    H136968   4.236   6.836   4.951
12345TIP3    H236969   4.231   6.696   5.010
12346TIP3   OH236970   3.718   6.541   6.415
12346TIP3    H136971   3.734   6.528   6.510
12346TIP3    H236972   3.647   6.476   6.398
12347TIP3   OH236973   4.444   6.658   6.438
12347TIP3    H136974   4.382   6.599   6.393
12347TIP3    H236975   4.530   6.620   6.408
12348TIP3   OH236976   4.690   7.161   6.043
12348TIP3    H136977   4.627   7.222   6.004
12348TIP3    H236978   4.730   7.217   6.113
12349TIP3   OH236979   5.103   6.256   4.930
12349TIP3    H136980   5.042   6.212   4.865
12349TIP3    H236981   5.101   6.346   4.890
12350TIP3   OH236982   5.326   7.109   6.010
12350TIP3    H136983   5.228   7.104   6.001
12350TIP3    H236984   5.352   7.081   5.920
12351TIP3   OH236985   4.802   7.069   4.834
12351TIP3    H136986   4.786   6.997   4.896
12351TIP3    H236987   4.822   7.024   4.751
12352TIP3   OH236988   4.799   6.705   5.670
12352TIP3    H136989   4.706   6.678   5.683
12352TIP3    H236990   4.833   6.628   5.621
12353TIP3   OH236991   3.939   6.930   5.430
12353TIP3    H136992   3.932   7.009   5.373
12353TIP3    H236993   3.848   6.923   5.462
12354TIP3   OH236994   3.498   6.232   5.132
12354TIP3    H136995   3.543   6.316   5.154
12354TIP3    H236996   3.422   6.235   5.194
12355TIP3   OH236997   4.066   6.691   5.368
12355TIP3    H136998   4.032   6.781   5.387
12355TIP3    H236999   4.032   6.641   5.444
12356TIP3   OH237000   3.851   7.168   5.277
12356TIP3    H137001   3.765   7.176   5.323
12356TIP3    H237002   3.883   7.261   5.281
12357TIP3   OH237003   4.586   6.908   5.860
12357TIP3    H137004   4.581   6.902   5.957
12357TIP3    H237005   4.668   6.860   5.841
12358TIP3   OH237006   4.568   6.799   4.740
12358TIP3    H137007   4.622   6.775   4.818
12358TIP3    H237008   4.480   6.773   4.770
12359TIP3   OH237009   4.836   7.437   5.901
12359TIP3    H137010   4.750   7.396   5.879
12359TIP3    H237011   4.836   7.510   5.835
12360TIP3   OH237012   4.907   7.273   4.558
12360TIP3    H137013   4.950   7.349   4.515
12360TIP3    H237014   4.824   7.317   4.587
12361TIP3   OH237015   3.922   6.050   6.421
12361TIP3    H137016   3.826   6.050   6.433
12361TIP3    H237017   3.951   5.993   6.494
12362TIP3   OH237018   4.729   6.734   4.955
12362TIP3    H137019   4.718   6.667   5.025
12362TIP3    H237020   4.826   6.730   4.942
12363TIP3   OH237021   3.929   6.779   4.738
12363TIP3    H137022   3.944   6.687   4.713
12363TIP3    H237023   3.909   6.770   4.834
12364TIP3   OH237024   3.874   6.785   5.010
12364TIP3    H137025   3.949   6.758   5.065
12364TIP3    H237026   3.877   6.882   5.018
12365TIP3   OH237027   3.607   6.475   5.214
12365TIP3    H137028   3.542   6.522   5.271
12365TIP3    H237029   3.622   6.544   5.146
12366TIP3   OH237030   4.754   6.118   6.114
12366TIP3    H137031   4.841   6.154   6.138
12366TIP3    H237032   4.750   6.035   6.167
12367TIP3   OH237033   4.645   5.863   5.272
12367TIP3    H137034   4.631   5.882   5.178
12367TIP3    H237035   4.676   5.950   5.306
12368TIP3   OH237036   4.142   6.979   4.957
12368TIP3    H137037   4.056   7.004   4.995
12368TIP3    H237038   4.158   7.056   4.900
12369TIP3   OH237039   4.324   6.048   5.373
12369TIP3    H137040   4.389   6.120   5.358
12369TIP3    H237041   4.331   6.038   5.471
12370TIP3   OH237042   4.601   6.360   6.178
12370TIP3    H137043   4.630   6.408   6.258
12370TIP3    H237044   4.654   6.278   6.183
12371TIP3   OH237045   4.472   5.762   5.470
12371TIP3    H137046   4.493   5.821   5.546
12371TIP3    H237047   4.534   5.798   5.403
12372TIP3   OH237048   3.888   7.056   5.027
12372TIP3    H137049   3.858   7.127   4.967
12372TIP3    H237050   3.872   7.098   5.115
12373TIP3   OH237051   3.987   5.772   5.263
12373TIP3    H137052   3.984   5.861   5.303
12373TIP3    H237053   4.082   5.754   5.272
12374TIP3   OH237054   5.234   6.261   6.177
12374TIP3    H137055   5.136   6.253   6.176
12374TIP3    H237056   5.255   6.239   6.086
12375TIP3   OH237057   4.888   6.446   5.553
12375TIP3    H137058   4.801   6.403   5.542
12375TIP3    H237059   4.905   6.426   5.647
12376TIP3   OH237060   3.605   6.682   5.018
12376TIP3    H137061   3.675   6.749   5.029
12376TIP3    H237062   3.649   6.625   4.951
12377TIP3   OH237063   3.545   5.961   5.153
12377TIP3    H137064   3.550   6.059   5.151
12377TIP3    H237065   3.461   5.946   5.107
12378TIP3   OH237066   4.862   7.408   5.504
12378TIP3    H137067   4.819   7.448   5.425
12378TIP3    H237068   4.956   7.433   5.486
12379TIP3   OH237069   3.933   5.682   6.024
12379TIP3    H137070   3.905   5.647   5.937
12379TIP3    H237071   3.925   5.604   6.082
12380TIP3   OH237072   3.466   6.891   5.399
12380TIP3    H137073   3.401   6.928   5.461
12380TIP3    H237074   3.441   6.938   5.316
12381TIP3   OH237075   3.632   7.444   6.478
12381TIP3    H137076   3.718   7.444   6.525
12381TIP3    H237077   3.610   7.350   6.479
12382TIP3   OH237078   4.108   7.400   6.523
12382TIP3    H137079   4.204   7.391   6.539
12382TIP3    H237080   4.096   7.347   6.444
12383TIP3   OH237081   4.093   6.981   4.647
12383TIP3    H137082   4.038   6.909   4.685
12383TIP3    H237083   4.170   6.931   4.615
12384TIP3   OH237084   4.752   7.314   6.259
12384TIP3    H137085   4.747   7.247   6.330
12384TIP3    H237086   4.831   7.366   6.286
12385TIP3   OH237087   4.528   7.020   4.562
12385TIP3    H137088   4.573   6.959   4.624
12385TIP3    H237089   4.587   7.017   4.483
12386TIP3   OH237090   3.761   6.849   6.680
12386TIP3    H137091   3.774   6.753   6.686
12386TIP3    H237092   3.674   6.854   6.633
12387TIP3   OH237093   3.740   6.496   4.874
12387TIP3    H137094   3.798   6.467   4.947
12387TIP3    H237095   3.806   6.502   4.802
12388TIP3   OH237096   4.361   6.926   6.444
12388TIP3    H137097   4.335   6.912   6.352
12388TIP3    H237098   4.412   6.844   6.459
12389TIP3   OH237099   4.252   6.698   4.679
12389TIP3    H137100   4.256   6.710   4.776
12389TIP3    H237101   4.253   6.600   4.673
12390TIP3   OH237102   4.859   6.944   6.056
12390TIP3    H137103   4.940   6.978   6.013
12390TIP3    H237104   4.799   7.020   6.042
12391TIP3   OH237105   3.882   6.584   6.662
12391TIP3    H137106   3.960   6.536   6.633
12391TIP3    H237107   3.911   6.618   6.750
12392TIP3   OH237108   3.943   6.405   5.090
12392TIP3    H137109   3.919   6.366   5.176
12392TIP3    H237110   3.983   6.330   5.042
12393TIP3   OH237111   4.217   6.469   6.323
12393TIP3    H137112   4.138   6.527   6.321
12393TIP3    H237113   4.269   6.503   6.246
12394TIP3   OH237114   4.050   6.199   4.933
12394TIP3    H137115   4.026   6.209   4.838
12394TIP3    H237116   4.147   6.201   4.926
12395TIP3   OH237117   4.734   6.868   6.452
12395TIP3    H137118   4.816   6.843   6.407
12395TIP3    H237119   4.730   6.803   6.524
12396TIP3   OH237120   4.866   6.526   4.601
12396TIP3    H137121   4.847   6.484   4.515
12396TIP3    H237122   4.833   6.617   4.581
12397TIP3   OH237123   4.339   6.258   6.446
12397TIP3    H137124   4.341   6.179   6.388
12397TIP3    H237125   4.296   6.324   6.389
12398TIP3   OH237126   4.343   6.045   6.256
12398TIP3    H137127   4.372   6.085   6.171
12398TIP3    H237128   4.250   6.022   6.236
12399TIP3   OH237129   4.365   6.580   6.129
12399TIP3    H137130   4.450   6.582   6.083
12399TIP3    H237131   4.312   6.646   6.080
12400TIP3   OH237132   4.951   6.545   6.509
12400TIP3    H137133   4.997   6.460   6.516
12400TIP3    H237134   5.019   6.601   6.470
12401TIP3   OH237135   4.990   6.804   6.246
12401TIP3    H137136   4.934   6.857   6.185
12401TIP3    H237137   5.079   6.822   6.207
12402TIP3   OH237138   4.218   6.364   6.681
12402TIP3    H137139   4.151   6.295   6.696
12402TIP3    H237140   4.251   6.340   6.592
12403TIP3   OH237141   4.474   5.806   6.325
12403TIP3    H137142   4.424   5.887   6.302
12403TIP3    H237143   4.406   5.736   6.313
12404TIP3   OH237144   4.600   6.308   6.540
12404TIP3    H137145   4.587   6.292   6.635
12404TIP3    H237146   4.511   6.284   6.507
12405TIP3   OH237147   4.840   6.266   6.394
12405TIP3    H137148   4.766   6.262   6.458
12405TIP3    H237149   4.915   6.233   6.448
12406TIP3   OH237150   5.062   6.200   6.544
12406TIP3    H137151   5.078   6.105   6.559
12406TIP3    H237152   5.064   6.236   6.635
12407TIP3   OH237153   4.057   6.145   6.735
12407TIP3    H137154   4.060   6.053   6.701
12407TIP3    H237155   4.095   6.133   6.824
12408TIP3   OH237156   4.567   5.815   6.584
12408TIP3    H137157   4.634   5.744   6.577
12408TIP3    H237158   4.528   5.811   6.494
12409TIP3   OH237159   4.635   6.030   6.741
12409TIP3    H137160   4.615   5.959   6.677
12409TIP3    H237161   4.556   6.088   6.733
12410TIP3   OH237162   3.857   7.260   4.840
12410TIP3    H137163   3.953   7.250   4.821
12410TIP3    H237164   3.831   7.312   4.762
12411TIP3   OH237165   3.335   6.643   5.053
12411TIP3    H137166   3.431   6.664   5.039
12411TIP3    H237167   3.330   6.553   5.013
12412TIP3   OH237168   3.251   7.254   5.477
12412TIP3    H137169   3.190   7.188   5.438
12412TIP3    H237170   3.301   7.199   5.542
12413TIP3   OH237171   3.393   7.103   5.654
12413TIP3    H137172   3.376   7.018   5.695
12413TIP3    H237173   3.448   7.139   5.728
12414TIP3   OH237174   5.107   7.511   5.459
12414TIP3    H137175   5.137   7.558   5.539
12414TIP3    H237176   5.174   7.538   5.394
12415TIP3   OH237177   5.135   7.527   5.745
12415TIP3    H137178   5.103   7.435   5.737
12415TIP3    H237179   5.222   7.512   5.785
12416TIP3   OH237180   5.188   7.201   6.315
12416TIP3    H137181   5.116   7.214   6.379
12416TIP3    H237182   5.232   7.289   6.315
12417TIP3   OH237183   5.005   6.714   4.929
12417TIP3    H137184   5.071   6.780   4.898
12417TIP3    H237185   5.052   6.678   5.008
12418TIP3   OH237186   5.134   6.580   5.131
12418TIP3    H137187   5.069   6.542   5.194
12418TIP3    H237188   5.202   6.617   5.191
12419TIP3   OH237189   5.183   6.975   5.562
12419TIP3    H137190   5.241   6.908   5.520
12419TIP3    H237191   5.190   7.050   5.499
12420TIP3   OH237192   5.017   7.268   5.763
12420TIP3    H137193   4.946   7.318   5.808
12420TIP3    H237194   4.970   7.226   5.689
12421TIP3   OH237195   5.070   6.489   4.780
12421TIP3    H137196   4.998   6.492   4.713
12421TIP3    H237197   5.043   6.566   4.836
12422TIP3   OH237198   4.940   6.162   4.734
12422TIP3    H137199   4.897   6.198   4.656
12422TIP3    H237200   4.917   6.067   4.725
12423TIP3   OH237201   4.943   6.440   5.280
12423TIP3    H137202   4.950   6.344   5.265
12423TIP3    H237203   4.934   6.446   5.378
12424TIP3   OH237204   3.571   6.511   6.030
12424TIP3    H137205   3.569   6.479   5.937
12424TIP3    H237206   3.669   6.512   6.046
12425TIP3   OH237207   5.236   6.866   6.140
12425TIP3    H137208   5.306   6.797   6.128
12425TIP3    H237209   5.264   6.934   6.077
12426TIP3   OH237210   5.415   6.664   6.149
12426TIP3    H137211   5.342   6.612   6.190
12426TIP3    H237212   5.490   6.602   6.160
12427TIP3   OH237213   4.886   5.895   4.716
12427TIP3    H137214   4.959   5.865   4.773
12427TIP3    H237215   4.812   5.836   4.739
12428TIP3   OH237216   4.946   6.160   5.175
12428TIP3    H137217   4.982   6.068   5.183
12428TIP3    H237218   5.002   6.193   5.102
12429TIP3   OH237219   3.790   6.197   6.703
12429TIP3    H137220   3.888   6.192   6.706
12429TIP3    H237221   3.767   6.110   6.741
12430TIP3   OH237222   5.598   6.052   6.457
12430TIP3    H137223   5.696   6.036   6.463
12430TIP3    H237224   5.593   6.112   6.381
12431TIP3   OH237225   5.041   5.907   5.207
12431TIP3    H137226   5.100   5.882   5.282
12431TIP3    H237227   4.982   5.829   5.205
12432TIP3   OH237228   3.750   5.892   6.035
12432TIP3    H137229   3.811   5.816   6.042
12432TIP3    H237230   3.813   5.965   6.025
12433TIP3   OH237231   3.551   6.163   6.103
12433TIP3    H137232   3.603   6.161   6.020
12433TIP3    H237233   3.581   6.247   6.141
12434TIP3   OH237234   5.494   6.205   6.251
12434TIP3    H137235   5.407   6.243   6.275
12434TIP3    H237236   5.466   6.121   6.210
12435TIP3   OH237237   5.129   5.837   4.848
12435TIP3    H137238   5.170   5.768   4.792
12435TIP3    H237239   5.196   5.908   4.845
12436TIP3   OH237240   3.538   5.664   5.604
12436TIP3    H137241   3.446   5.661   5.635
12436TIP3    H237242   3.532   5.725   5.528
12437TIP3   OH237243   4.691   7.367   5.108
12437TIP3    H137244   4.747   7.360   5.028
12437TIP3    H237245   4.747   7.421   5.168
12438TIP3   OH237246   3.759   5.750   6.421
12438TIP3    H137247   3.706   5.743   6.502
12438TIP3    H237248   3.692   5.785   6.359
12439TIP3   OH237249   3.810   7.181   6.501
12439TIP3    H137250   3.719   7.158   6.475
12439TIP3    H237251   3.809   7.159   6.595
12440TIP3   OH237252   4.395   7.437   6.171
12440TIP3    H137253   4.442   7.432   6.257
12440TIP3    H237254   4.464   7.484   6.119
12441TIP3   OH237255   4.593   7.596   6.051
12441TIP3    H137256   4.668   7.558   6.003
12441TIP3    H237257   4.643   7.657   6.111
12442TIP3   OH237258   5.392   5.956   6.143
12442TIP3    H137259   5.305   5.934   6.105
12442TIP3    H237260   5.437   5.869   6.134
12443TIP3   OH237261   3.670   7.492   6.053
12443TIP3    H137262   3.579   7.524   6.037
12443TIP3    H237263   3.660   7.450   6.139
12444TIP3   OH237264   3.912   7.440   5.923
12444TIP3    H137265   3.826   7.447   5.972
12444TIP3    H237266   3.883   7.473   5.836
12445TIP3   OH237267   4.328   7.479   5.710
12445TIP3    H137268   4.249   7.490   5.656
12445TIP3    H237269   4.333   7.564   5.757
12446TIP3   OH237270   4.586   7.402   5.785
12446TIP3    H137271   4.494   7.424   5.759
12446TIP3    H237272   4.635   7.473   5.737
12447TIP3   OH237273   4.778   7.596   5.689
12447TIP3    H137274   4.771   7.682   5.642
12447TIP3    H237275   4.815   7.538   5.619
12448TIP3   OH237276   3.760   7.108   5.648
12448TIP3    H137277   3.746   7.063   5.734
12448TIP3    H237278   3.841   7.158   5.663
12449TIP3   OH237279   4.021   7.235   5.659
12449TIP3    H137280   4.059   7.146   5.651
12449TIP3    H237281   4.022   7.250   5.754
12450TIP3   OH237282   4.555   5.863   5.733
12450TIP3    H137283   4.540   5.802   5.807
12450TIP3    H237284   4.646   5.839   5.704
12451TIP3   OH237285   5.211   5.841   5.409
12451TIP3    H137286   5.291   5.796   5.375
12451TIP3    H237287   5.246   5.932   5.418
12452TIP3   OH237288   3.847   5.588   5.775
12452TIP3    H137289   3.755   5.555   5.781
12452TIP3    H237290   3.895   5.502   5.772
12453TIP3   OH237291   3.630   5.461   5.424
12453TIP3    H137292   3.663   5.518   5.353
12453TIP3    H237293   3.607   5.526   5.493
12454TIP3   OH237294   4.293   5.622   5.660
12454TIP3    H137295   4.346   5.668   5.594
12454TIP3    H237296   4.327   5.660   5.743
12455TIP3   OH237297   4.792   5.764   5.635
12455TIP3    H137298   4.865   5.736   5.578
12455TIP3    H237299   4.788   5.686   5.695
12456TIP3   OH237300   4.866   5.691   5.204
12456TIP3    H137301   4.781   5.735   5.223
12456TIP3    H237302   4.852   5.605   5.250
12457TIP3   OH237303   3.351   7.035   5.202
12457TIP3    H137304   3.264   7.003   5.170
12457TIP3    H237305   3.344   7.129   5.178
12458TIP3   OH237306   3.755   5.619   5.186
12458TIP3    H137307   3.804   5.556   5.129
12458TIP3    H237308   3.828   5.673   5.222
12459TIP3   OH237309   4.264   5.797   5.287
12459TIP3    H137310   4.325   5.752   5.348
12459TIP3    H237311   4.284   5.890   5.312
12460TIP3   OH237312   4.124   7.215   4.787
12460TIP3    H137313   4.213   7.238   4.751
12460TIP3    H237314   4.102   7.141   4.726
12461TIP3   OH237315   4.837   7.336   4.880
12461TIP3    H137316   4.830   7.238   4.870
12461TIP3    H237317   4.797   7.366   4.796
12462TIP3   OH237318   4.055   5.871   6.669
12462TIP3    H137319   4.019   5.799   6.724
12462TIP3    H237320   4.149   5.869   6.697
12463TIP3   OH237321   4.306   5.868   6.787
12463TIP3    H137322   4.391   5.843   6.747
12463TIP3    H237323   4.294   5.797   6.853
12464TIP3   OH237324   3.427   7.053   4.840
12464TIP3    H137325   3.431   7.075   4.934
12464TIP3    H237326   3.515   7.011   4.825
12465TIP3   OH237327   5.130   5.932   6.576
12465TIP3    H137328   5.151   5.900   6.666
12465TIP3    H237329   5.218   5.927   6.532
12466TIP3   OH237330   5.065   7.481   6.069
12466TIP3    H137331   4.989   7.454   6.014
12466TIP3    H237332   5.052   7.578   6.072
12467TIP3   OH237333   6.337   6.862   4.826
12467TIP3    H137334   6.298   6.948   4.801
12467TIP3    H237335   6.262   6.803   4.807
12468TIP3   OH237336   6.351   6.855   5.212
12468TIP3    H137337   6.380   6.838   5.304
12468TIP3    H237338   6.302   6.774   5.192
12469TIP3   OH237339   5.631   6.751   5.582
12469TIP3    H137340   5.659   6.680   5.642
12469TIP3    H237341   5.709   6.807   5.581
12470TIP3   OH237342   5.599   7.157   5.300
12470TIP3    H137343   5.596   7.059   5.302
12470TIP3    H237344   5.696   7.172   5.298
12471TIP3   OH237345   5.313   6.353   5.083
12471TIP3    H137346   5.273   6.439   5.105
12471TIP3    H237347   5.238   6.310   5.039
12472TIP3   OH237348   5.364   6.650   5.263
12472TIP3    H137349   5.414   6.573   5.301
12472TIP3    H237350   5.435   6.697   5.216
12473TIP3   OH237351   6.220   7.620   4.902
12473TIP3    H137352   6.276   7.541   4.884
12473TIP3    H237353   6.204   7.616   4.997
12474TIP3   OH237354   6.135   7.074   5.259
12474TIP3    H137355   6.185   7.000   5.221
12474TIP3    H237356   6.208   7.130   5.290
12475TIP3   OH237357   7.147   6.403   5.261
12475TIP3    H137358   7.176   6.483   5.310
12475TIP3    H237359   7.172   6.425   5.170
12476TIP3   OH237360   6.545   6.583   5.291
12476TIP3    H137361   6.587   6.499   5.317
12476TIP3    H237362   6.516   6.561   5.200
12477TIP3   OH237363   5.886   6.240   5.259
12477TIP3    H137364   5.867   6.314   5.198
12477TIP3    H237365   5.836   6.168   5.214
12478TIP3   OH237366   6.583   6.329   4.879
12478TIP3    H137367   6.651   6.314   4.949
12478TIP3    H237368   6.639   6.366   4.809
12479TIP3   OH237369   5.515   6.449   5.362
12479TIP3    H137370   5.589   6.433   5.423
12479TIP3    H237371   5.538   6.390   5.288
12480TIP3   OH237372   5.959   6.639   5.159
12480TIP3    H137373   6.053   6.614   5.173
12480TIP3    H237374   5.921   6.554   5.128
12481TIP3   OH237375   7.217   6.608   5.431
12481TIP3    H137376   7.130   6.653   5.421
12481TIP3    H237377   7.241   6.636   5.521
12482TIP3   OH237378   5.885   6.219   5.691
12482TIP3    H137379   5.826   6.257   5.623
12482TIP3    H237380   5.833   6.236   5.772
12483TIP3   OH237381   6.230   7.083   4.706
12483TIP3    H137382   6.188   7.066   4.621
12483TIP3    H237383   6.184   7.167   4.730
12484TIP3   OH237384   5.986   7.002   5.486
12484TIP3    H137385   5.924   7.069   5.523
12484TIP3    H237386   6.027   7.053   5.414
12485TIP3   OH237387   6.783   6.336   5.061
12485TIP3    H137388   6.756   6.307   5.150
12485TIP3    H237389   6.837   6.414   5.083
12486TIP3   OH237390   5.750   6.338   5.479
12486TIP3    H137391   5.809   6.413   5.503
12486TIP3    H237392   5.800   6.300   5.403
12487TIP3   OH237393   5.809   7.192   5.577
12487TIP3    H137394   5.796   7.282   5.541
12487TIP3    H237395   5.729   7.185   5.634
12488TIP3   OH237396   5.205   6.882   4.821
12488TIP3    H137397   5.167   6.917   4.738
12488TIP3    H237398   5.238   6.966   4.861
12489TIP3   OH237399   6.942   6.287   5.418
12489TIP3    H137400   6.859   6.334   5.401
12489TIP3    H237401   7.003   6.327   5.353
12490TIP3   OH237402   6.233   5.965   5.386
12490TIP3    H137403   6.245   5.872   5.408
12490TIP3    H237404   6.159   5.991   5.446
12491TIP3   OH237405   6.366   7.432   4.750
12491TIP3    H137406   6.413   7.359   4.704
12491TIP3    H237407   6.414   7.509   4.711
12492TIP3   OH237408   6.490   7.215   4.636
12492TIP3    H137409   6.467   7.166   4.556
12492TIP3    H237410   6.465   7.151   4.704
12493TIP3   OH237411   6.851   7.322   5.404
12493TIP3    H137412   6.856   7.249   5.339
12493TIP3    H237413   6.833   7.399   5.345
12494TIP3   OH237414   6.166   6.704   4.666
12494TIP3    H137415   6.085   6.757   4.650
12494TIP3    H237416   6.209   6.708   4.579
12495TIP3   OH237417   6.121   6.495   4.377
12495TIP3    H137418   6.187   6.545   4.428
12495TIP3    H237419   6.180   6.434   4.327
12496TIP3   OH237420   7.068   6.942   5.259
12496TIP3    H137421   7.010   7.017   5.281
12496TIP3    H237422   7.099   6.969   5.169
12497TIP3   OH237423   6.516   6.785   4.633
12497TIP3    H137424   6.461   6.810   4.711
12497TIP3    H237425   6.600   6.760   4.678
12498TIP3   OH237426   6.743   6.819   5.525
12498TIP3    H137427   6.754   6.878   5.603
12498TIP3    H237428   6.648   6.831   5.508
12499TIP3   OH237429   5.748   6.784   5.052
12499TIP3    H137430   5.709   6.726   4.983
12499TIP3    H237431   5.825   6.731   5.083
12500TIP3   OH237432   5.865   7.191   5.201
12500TIP3    H137433   5.866   7.153   5.113
12500TIP3    H237434   5.957   7.178   5.230
12501TIP3   OH237435   5.882   6.760   5.406
12501TIP3    H137436   5.916   6.738   5.317
12501TIP3    H237437   5.924   6.846   5.425
12502TIP3   OH237438   6.440   7.377   5.178
12502TIP3    H137439   6.424   7.471   5.193
12502TIP3    H237440   6.397   7.338   5.258
12503TIP3   OH237441   6.011   7.279   5.754
12503TIP3    H137442   5.979   7.370   5.762
12503TIP3    H237443   5.955   7.246   5.682
12504TIP3   OH237444   6.357   6.638   4.462
12504TIP3    H137445   6.414   6.701   4.512
12504TIP3    H237446   6.383   6.661   4.369
12505TIP3   OH237447   5.777   6.865   5.837
12505TIP3    H137448   5.782   6.955   5.875
12505TIP3    H237449   5.681   6.848   5.848
12506TIP3   OH237450   6.103   7.324   4.733
12506TIP3    H137451   6.176   7.385   4.755
12506TIP3    H237452   6.036   7.384   4.700
12507TIP3   OH237453   5.808   7.497   5.821
12507TIP3    H137454   5.782   7.494   5.726
12507TIP3    H237455   5.729   7.462   5.866
12508TIP3   OH237456   6.867   5.887   4.508
12508TIP3    H137457   6.787   5.906   4.561
12508TIP3    H237458   6.883   5.974   4.466
12509TIP3   OH237459   5.617   6.627   4.847
12509TIP3    H137460   5.545   6.672   4.798
12509TIP3    H237461   5.574   6.544   4.872
12510TIP3   OH237462   6.673   7.253   4.058
12510TIP3    H137463   6.679   7.351   4.044
12510TIP3    H237464   6.766   7.227   4.047
12511TIP3   OH237465   5.390   7.012   5.767
12511TIP3    H137466   5.331   6.989   5.693
12511TIP3    H237467   5.432   6.926   5.789
12512TIP3   OH237468   5.252   7.203   5.402
12512TIP3    H137469   5.346   7.194   5.383
12512TIP3    H237470   5.252   7.283   5.457
12513TIP3   OH237471   5.981   7.568   4.541
12513TIP3    H137472   5.933   7.559   4.457
12513TIP3    H237473   5.948   7.654   4.575
12514TIP3   OH237474   5.414   7.427   4.928
12514TIP3    H137475   5.468   7.424   5.010
12514TIP3    H237476   5.353   7.354   4.946
12515TIP3   OH237477   6.177   7.471   4.176
12515TIP3    H137478   6.238   7.403   4.141
12515TIP3    H237479   6.214   7.487   4.266
12516TIP3   OH237480   6.231   7.524   4.443
12516TIP3    H137481   6.144   7.532   4.489
12516TIP3    H237482   6.290   7.499   4.516
12517TIP3   OH237483   7.017   6.796   5.714
12517TIP3    H137484   6.923   6.806   5.737
12517TIP3    H237485   7.030   6.705   5.745
12518TIP3   OH237486   5.597   7.195   5.749
12518TIP3    H137487   5.648   7.179   5.831
12518TIP3    H237488   5.522   7.133   5.760
12519TIP3   OH237489   6.007   6.002   5.547
12519TIP3    H137490   5.916   5.978   5.522
12519TIP3    H237491   5.987   6.082   5.598
12520TIP3   OH237492   6.537   6.112   5.727
12520TIP3    H137493   6.612   6.109   5.789
12520TIP3    H237494   6.461   6.121   5.786
12521TIP3   OH237495   6.759   6.540   5.611
12521TIP3    H137496   6.751   6.573   5.704
12521TIP3    H237497   6.755   6.626   5.566
12522TIP3   OH237498   6.430   6.679   4.204
12522TIP3    H137499   6.395   6.664   4.115
12522TIP3    H237500   6.507   6.735   4.184
12523TIP3   OH237501   6.164   6.058   4.507
12523TIP3    H137502   6.126   6.065   4.597
12523TIP3    H237503   6.113   5.981   4.475
12524TIP3   OH237504   5.926   6.536   5.554
12524TIP3    H137505   5.880   6.561   5.637
12524TIP3    H237506   5.912   6.617   5.500
12525TIP3   OH237507   5.813   6.420   5.070
12525TIP3    H137508   5.720   6.396   5.091
12525TIP3    H237509   5.823   6.377   4.982
12526TIP3   OH237510   6.305   6.506   4.798
12526TIP3    H137511   6.251   6.576   4.755
12526TIP3    H237512   6.356   6.471   4.724
12527TIP3   OH237513   6.459   6.789   5.887
12527TIP3    H137514   6.447   6.712   5.947
12527TIP3    H237515   6.556   6.779   5.869
12528TIP3   OH237516   6.461   6.532   5.034
12528TIP3    H137517   6.397   6.556   4.964
12528TIP3    H237518   6.498   6.451   4.992
12529TIP3   OH237519   5.748   6.563   5.767
12529TIP3    H137520   5.787   6.631   5.825
12529TIP3    H237521   5.751   6.483   5.822
12530TIP3   OH237522   5.800   6.043   4.474
12530TIP3    H137523   5.790   6.041   4.571
12530TIP3    H237524   5.722   6.096   4.448
12531TIP3   OH237525   5.337   6.079   5.359
12531TIP3    H137526   5.414   6.116   5.408
12531TIP3    H237527   5.374   6.061   5.272
12532TIP3   OH237528   5.306   6.064   4.864
12532TIP3    H137529   5.353   6.100   4.786
12532TIP3    H237530   5.247   6.139   4.884
12533TIP3   OH237531   6.463   6.780   5.456
12533TIP3    H137532   6.500   6.709   5.399
12533TIP3    H237533   6.439   6.726   5.535
12534TIP3   OH237534   6.140   6.241   5.128
12534TIP3    H137535   6.061   6.242   5.186
12534TIP3    H237536   6.212   6.239   5.192
12535TIP3   OH237537   5.574   6.300   5.140
12535TIP3    H137538   5.480   6.309   5.112
12535TIP3    H237539   5.596   6.208   5.115
12536TIP3   OH237540   5.839   6.290   4.830
12536TIP3    H137541   5.932   6.310   4.809
12536TIP3    H237542   5.792   6.314   4.747
12537TIP3   OH237543   6.630   6.317   5.315
12537TIP3    H137544   6.608   6.326   5.411
12537TIP3    H237545   6.557   6.259   5.287
12538TIP3   OH237546   5.690   6.326   4.605
12538TIP3    H137547   5.618   6.283   4.556
12538TIP3    H237548   5.741   6.365   4.531
12539TIP3   OH237549   5.758   7.113   5.972
12539TIP3    H137550   5.839   7.150   6.012
12539TIP3    H237551   5.696   7.120   6.048
12540TIP3   OH237552   6.222   6.572   5.229
12540TIP3    H137553   6.301   6.535   5.186
12540TIP3    H237554   6.226   6.532   5.318
12541TIP3   OH237555   5.740   6.059   5.109
12541TIP3    H137556   5.705   5.982   5.158
12541TIP3    H237557   5.788   6.016   5.037
12542TIP3   OH237558   6.199   6.475   5.515
12542TIP3    H137559   6.111   6.513   5.533
12542TIP3    H237560   6.259   6.532   5.567
12543TIP3   OH237561   5.938   6.854   4.614
12543TIP3    H137562   5.864   6.792   4.601
12543TIP3    H237563   5.917   6.891   4.703
12544TIP3   OH237564   6.837   7.112   5.222
12544TIP3    H137565   6.876   7.091   5.136
12544TIP3    H237566   6.776   7.037   5.236
12545TIP3   OH237567   6.393   6.189   4.400
12545TIP3    H137568   6.319   6.139   4.440
12545TIP3    H237569   6.412   6.257   4.468
12546TIP3   OH237570   6.322   7.178   5.606
12546TIP3    H137571   6.360   7.157   5.692
12546TIP3    H237572   6.261   7.250   5.627
12547TIP3   OH237573   6.464   6.401   4.572
12547TIP3    H137574   6.557   6.414   4.597
12547TIP3    H237575   6.441   6.486   4.529
12548TIP3   OH237576   5.621   6.872   5.285
12548TIP3    H137577   5.667   6.849   5.202
12548TIP3    H237578   5.674   6.823   5.351
12549TIP3   OH237579   6.081   7.006   4.435
12549TIP3    H137580   6.032   7.092   4.436
12549TIP3    H237581   6.027   6.953   4.497
12550TIP3   OH237582   5.510   6.802   5.903
12550TIP3    H137583   5.532   6.788   5.998
12550TIP3    H237584   5.442   6.735   5.887
12551TIP3   OH237585   6.229   6.920   5.921
12551TIP3    H137586   6.174   6.859   5.869
12551TIP3    H237587   6.318   6.885   5.901
12552TIP3   OH237588   6.489   7.425   5.500
12552TIP3    H137589   6.398   7.455   5.489
12552TIP3    H237590   6.514   7.473   5.582
12553TIP3   OH237591   6.896   6.510   4.417
12553TIP3    H137592   6.838   6.462   4.354
12553TIP3    H237593   6.894   6.599   4.375
12554TIP3   OH237594   7.109   7.329   5.486
12554TIP3    H137595   7.013   7.347   5.475
12554TIP3    H237596   7.130   7.297   5.396
12555TIP3   OH237597   6.578   7.317   4.314
12555TIP3    H137598   6.603   7.252   4.379
12555TIP3    H237599   6.618   7.284   4.231
12556TIP3   OH237600   6.593   6.976   5.127
12556TIP3    H137601   6.510   6.936   5.160
12556TIP3    H237602   6.635   6.895   5.089
12557TIP3   OH237603   5.729   7.181   4.900
12557TIP3    H137604   5.725   7.267   4.853
12557TIP3    H237605   5.641   7.177   4.938
12558TIP3   OH237606   5.295   6.488   4.620
12558TIP3    H137607   5.339   6.573   4.641
12558TIP3    H237608   5.218   6.492   4.681
12559TIP3   OH237609   5.865   6.947   4.855
12559TIP3    H137610   5.827   7.036   4.869
12559TIP3    H237611   5.830   6.899   4.932
12560TIP3   OH237612   5.646   7.423   4.764
12560TIP3    H137613   5.562   7.437   4.810
12560TIP3    H237614   5.684   7.513   4.767
12561TIP3   OH237615   6.403   7.146   5.347
12561TIP3    H137616   6.358   7.169   5.431
12561TIP3    H237617   6.481   7.103   5.387
12562TIP3   OH237618   6.362   7.045   4.227
12562TIP3    H137619   6.415   7.027   4.307
12562TIP3    H237620   6.272   7.031   4.260
12563TIP3   OH237621   6.618   7.700   5.392
12563TIP3    H137622   6.541   7.644   5.369
12563TIP3    H237623   6.615   7.765   5.318
12564TIP3   OH237624   6.696   7.527   4.037
12564TIP3    H137625   6.758   7.601   4.029
12564TIP3    H237626   6.615   7.578   4.060
12565TIP3   OH237627   5.737   6.297   5.914
12565TIP3    H137628   5.649   6.310   5.951
12565TIP3    H237629   5.780   6.245   5.986
12566TIP3   OH237630   6.524   6.989   4.444
12566TIP3    H137631   6.516   6.919   4.513
12566TIP3    H237632   6.621   6.985   4.428
12567TIP3   OH237633   5.436   7.390   5.548
12567TIP3    H137634   5.497   7.323   5.585
12567TIP3    H237635   5.473   7.471   5.585
12568TIP3   OH237636   5.726   7.035   4.224
12568TIP3    H137637   5.741   6.942   4.201
12568TIP3    H237638   5.707   7.028   4.320
12569TIP3   OH237639   5.671   7.042   4.495
12569TIP3    H137640   5.741   7.017   4.558
12569TIP3    H237641   5.672   7.140   4.503
12570TIP3   OH237642   5.404   6.733   4.702
12570TIP3    H137643   5.338   6.778   4.759
12570TIP3    H237644   5.417   6.802   4.634
12571TIP3   OH237645   6.560   6.355   5.572
12571TIP3    H137646   6.631   6.416   5.602
12571TIP3    H237647   6.550   6.297   5.649
12572TIP3   OH237648   6.444   6.123   4.761
12572TIP3    H137649   6.420   6.166   4.678
12572TIP3    H237650   6.488   6.197   4.809
12573TIP3   OH237651   5.938   7.236   4.442
12573TIP3    H137652   5.851   7.259   4.479
12573TIP3    H237653   5.959   7.319   4.396
12574TIP3   OH237654   6.123   6.304   4.860
12574TIP3    H137655   6.187   6.377   4.847
12574TIP3    H237656   6.129   6.291   4.958
12575TIP3   OH237657   6.401   6.617   5.668
12575TIP3    H137658   6.415   6.673   5.747
12575TIP3    H237659   6.454   6.539   5.691
12576TIP3   OH237660   6.268   6.020   4.958
12576TIP3    H137661   6.269   6.092   5.024
12576TIP3    H237662   6.331   6.057   4.891
12577TIP3   OH237663   5.683   7.312   4.515
12577TIP3    H137664   5.653   7.383   4.454
12577TIP3    H237665   5.668   7.354   4.602
12578TIP3   OH237666   5.783   6.028   4.750
12578TIP3    H137667   5.780   6.118   4.788
12578TIP3    H237668   5.880   6.011   4.757
12579TIP3   OH237669   7.033   6.493   5.644
12579TIP3    H137670   6.937   6.499   5.656
12579TIP3    H237671   7.038   6.477   5.549
12580TIP3   OH237672   6.686   6.723   5.039
12580TIP3    H137673   6.611   6.664   5.055
12580TIP3    H237674   6.758   6.675   5.086
12581TIP3   OH237675   5.400   6.939   4.505
12581TIP3    H137676   5.466   7.009   4.517
12581TIP3    H237677   5.447   6.884   4.439
12582TIP3   OH237678   5.341   6.218   4.640
12582TIP3    H137679   5.346   6.315   4.639
12582TIP3    H237680   5.260   6.202   4.592
12583TIP3   OH237681   6.666   7.677   4.995
12583TIP3    H137682   6.617   7.715   4.920
12583TIP3    H237683   6.758   7.693   4.963
12584TIP3   OH237684   5.733   5.939   5.509
12584TIP3    H137685   5.703   5.907   5.421
12584TIP3    H237686   5.727   5.859   5.564
12585TIP3   OH237687   5.261   7.142   4.889
12585TIP3    H137688   5.203   7.184   4.954
12585TIP3    H237689   5.239   7.193   4.808
12586TIP3   OH237690   5.434   7.704   5.964
12586TIP3    H137691   5.520   7.707   6.011
12586TIP3    H237692   5.418   7.609   5.961
12587TIP3   OH237693   5.913   7.654   6.017
12587TIP3    H137694   6.006   7.642   5.996
12587TIP3    H237695   5.873   7.602   5.943
12588TIP3   OH237696   5.886   7.238   4.129
12588TIP3    H137697   5.833   7.166   4.171
12588TIP3    H237698   5.966   7.189   4.104
12589TIP3   OH237699   6.545   7.544   5.741
12589TIP3    H137700   6.526   7.479   5.813
12589TIP3    H237701   6.626   7.587   5.773
12590TIP3   OH237702   6.325   7.276   4.047
12590TIP3    H137703   6.380   7.231   4.114
12590TIP3    H237704   6.383   7.277   3.969
12591TIP3   OH237705   5.556   7.104   6.167
12591TIP3    H137706   5.573   7.008   6.169
12591TIP3    H237707   5.471   7.108   6.119
12592TIP3   OH237708   5.537   6.753   4.360
12592TIP3    H137709   5.594   6.726   4.434
12592TIP3    H237710   5.604   6.759   4.289
12593TIP3   OH237711   6.172   7.191   5.946
12593TIP3    H137712   6.116   7.211   5.868
12593TIP3    H237713   6.197   7.097   5.929
12594TIP3   OH237714   6.047   6.955   4.166
12594TIP3    H137715   6.051   6.967   4.263
12594TIP3    H237716   6.046   6.857   4.160
12595TIP3   OH237717   6.640   7.194   5.522
12595TIP3    H137718   6.720   7.244   5.496
12595TIP3    H237719   6.574   7.267   5.523
12596TIP3   OH237720   5.679   6.835   6.148
12596TIP3    H137721   5.762   6.799   6.116
12596TIP3    H237722   5.706   6.872   6.235
12597TIP3   OH237723   5.739   6.663   4.578
12597TIP3    H137724   5.712   6.627   4.664
12597TIP3    H237725   5.776   6.584   4.533
12598TIP3   OH237726   6.007   6.717   5.801
12598TIP3    H137727   5.934   6.783   5.806
12598TIP3    H237728   6.063   6.754   5.728
12599TIP3   OH237729   5.845   6.454   4.419
12599TIP3    H137730   5.820   6.465   4.325
12599TIP3    H237731   5.942   6.459   4.413
12600TIP3   OH237732   6.535   7.127   5.944
12600TIP3    H137733   6.616   7.100   5.898
12600TIP3    H237734   6.521   7.054   6.005
12601TIP3   OH237735   6.663   6.780   4.087
12601TIP3    H137736   6.643   6.742   3.999
12601TIP3    H237737   6.632   6.873   4.070
12602TIP3   OH237738   6.128   6.514   5.937
12602TIP3    H137739   6.136   6.436   5.878
12602TIP3    H237740   6.087   6.580   5.877
12603TIP3   OH237741   6.140   6.308   5.739
12603TIP3    H137742   6.168   6.350   5.655
12603TIP3    H237743   6.047   6.284   5.719
12604TIP3   OH237744   6.160   6.832   5.614
12604TIP3    H137745   6.247   6.850   5.576
12604TIP3    H237746   6.104   6.899   5.569
12605TIP3   OH237747   6.821   6.881   6.101
12605TIP3    H137748   6.808   6.820   6.022
12605TIP3    H237749   6.841   6.964   6.055
12606TIP3   OH237750   6.778   7.041   5.700
12606TIP3    H137751   6.720   7.092   5.639
12606TIP3    H237752   6.867   7.057   5.659
12607TIP3   OH237753   6.009   6.624   6.168
12607TIP3    H137754   5.943   6.554   6.181
12607TIP3    H237755   6.047   6.598   6.081
12608TIP3   OH237756   6.260   6.072   5.811
12608TIP3    H137757   6.236   6.165   5.790
12608TIP3    H237758   6.175   6.029   5.797
12609TIP3   OH237759   6.391   6.565   6.023
12609TIP3    H137760   6.393   6.549   6.119
12609TIP3    H237761   6.298   6.542   6.003
12610TIP3   OH237762   6.569   6.406   5.868
12610TIP3    H137763   6.516   6.460   5.930
12610TIP3    H237764   6.659   6.433   5.892
12611TIP3   OH237765   6.933   6.447   6.070
12611TIP3    H137766   6.899   6.356   6.081
12611TIP3    H237767   6.890   6.496   6.141
12612TIP3   OH237768   5.848   6.405   6.210
12612TIP3    H137769   5.861   6.312   6.183
12612TIP3    H237770   5.897   6.401   6.296
12613TIP3   OH237771   6.369   6.074   6.064
12613TIP3    H137772   6.435   6.002   6.061
12613TIP3    H237773   6.328   6.067   5.976
12614TIP3   OH237774   6.429   6.284   6.230
12614TIP3    H137775   6.408   6.214   6.165
12614TIP3    H237776   6.350   6.342   6.223
12615TIP3   OH237777   5.652   7.509   4.321
12615TIP3    H137778   5.748   7.503   4.306
12615TIP3    H237779   5.627   7.571   4.250
12616TIP3   OH237780   5.131   6.899   4.537
12616TIP3    H137781   5.226   6.921   4.526
12616TIP3    H237782   5.126   6.810   4.498
12617TIP3   OH237783   5.037   7.514   4.962
12617TIP3    H137784   4.969   7.453   4.929
12617TIP3    H237785   5.079   7.459   5.031
12618TIP3   OH237786   5.184   7.354   5.137
12618TIP3    H137787   5.174   7.286   5.206
12618TIP3    H237788   5.237   7.419   5.187
12619TIP3   OH237789   6.919   7.749   4.932
12619TIP3    H137790   6.948   7.797   5.012
12619TIP3    H237791   6.987   7.776   4.868
12620TIP3   OH237792   6.952   7.770   5.226
12620TIP3    H137793   6.908   7.683   5.219
12620TIP3    H237794   6.955   7.784   5.321
12621TIP3   OH237795   6.800   6.968   4.416
12621TIP3    H137796   6.864   7.034   4.383
12621TIP3    H237797   6.848   6.933   4.496
12622TIP3   OH237798   6.929   6.836   4.622
12622TIP3    H137799   6.866   6.796   4.685
12622TIP3    H237800   6.999   6.871   4.681
12623TIP3   OH237801   6.790   7.546   5.246
12623TIP3    H137802   6.734   7.587   5.314
12623TIP3    H237803   6.740   7.567   5.164
12624TIP3   OH237804   6.863   6.742   4.267
12624TIP3    H137805   6.794   6.752   4.197
12624TIP3    H237806   6.839   6.819   4.323
12625TIP3   OH237807   6.734   6.404   4.218
12625TIP3    H137808   6.706   6.483   4.169
12625TIP3    H237809   6.692   6.333   4.166
12626TIP3   OH237810   6.740   6.695   4.771
12626TIP3    H137811   6.753   6.599   4.763
12626TIP3    H237812   6.728   6.706   4.868
12627TIP3   OH237813   5.366   6.774   5.516
12627TIP3    H137814   5.365   6.741   5.425
12627TIP3    H237815   5.463   6.774   5.534
12628TIP3   OH237816   7.022   7.099   5.600
12628TIP3    H137817   7.102   7.059   5.638
12628TIP3    H237818   7.058   7.182   5.565
12629TIP3   OH237819   7.244   6.934   5.649
12629TIP3    H137820   7.160   6.886   5.669
12629TIP3    H237821   7.306   6.859   5.656
12630TIP3   OH237822   6.661   6.095   4.241
12630TIP3    H137823   6.755   6.106   4.270
12630TIP3    H237824   6.615   6.142   4.314
12631TIP3   OH237825   6.738   6.411   4.658
12631TIP3    H137826   6.780   6.323   4.674
12631TIP3    H237827   6.798   6.446   4.590
12632TIP3   OH237828   6.896   6.583   5.150
12632TIP3    H137829   6.984   6.606   5.111
12632TIP3    H237830   6.911   6.618   5.241
12633TIP3   OH237831   6.966   6.720   5.383
12633TIP3    H137832   6.897   6.756   5.443
12633TIP3    H237833   7.003   6.802   5.345
12634TIP3   OH237834   5.586   6.449   6.163
12634TIP3    H137835   5.683   6.449   6.178
12634TIP3    H237836   5.562   6.368   6.212
12635TIP3   OH237837   7.448   6.311   5.939
12635TIP3    H137838   7.485   6.242   5.881
12635TIP3    H237839   7.398   6.365   5.874
12636TIP3   OH237840   6.847   6.163   4.697
12636TIP3    H137841   6.897   6.149   4.780
12636TIP3    H237842   6.787   6.085   4.700
12637TIP3   OH237843   5.549   6.149   5.524
12637TIP3    H137844   5.612   6.075   5.527
12637TIP3    H237845   5.611   6.224   5.509
12638TIP3   OH237846   7.291   6.450   5.765
12638TIP3    H137847   7.223   6.498   5.817
12638TIP3    H237848   7.234   6.401   5.702
12639TIP3   OH237849   6.920   6.104   4.319
12639TIP3    H137850   6.969   6.030   4.278
12639TIP3    H237851   6.990   6.173   4.327
12640TIP3   OH237852   5.335   5.923   5.093
12640TIP3    H137853   5.241   5.918   5.118
12640TIP3    H237854   5.332   5.983   5.015
12641TIP3   OH237855   6.476   7.633   4.610
12641TIP3    H137856   6.520   7.621   4.522
12641TIP3    H237857   6.541   7.690   4.655
12642TIP3   OH237858   5.558   5.999   5.906
12642TIP3    H137859   5.510   5.992   5.990
12642TIP3    H237860   5.486   6.024   5.846
12643TIP3   OH237861   5.592   7.428   5.986
12643TIP3    H137862   5.499   7.406   5.970
12643TIP3    H237863   5.600   7.416   6.081
12644TIP3   OH237864   5.769   7.469   5.546
12644TIP3    H137865   5.738   7.545   5.492
12644TIP3    H237866   5.862   7.464   5.512
12645TIP3   OH237867   6.212   7.755   5.696
12645TIP3    H137868   6.261   7.729   5.776
12645TIP3    H237869   6.283   7.763   5.630
12646TIP3   OH237870   6.419   7.850   5.528
12646TIP3    H137871   6.488   7.802   5.479
12646TIP3    H237872   6.456   7.939   5.535
12647TIP3   OH237873   7.192   6.220   5.624
12647TIP3    H137874   7.100   6.218   5.594
12647TIP3    H237875   7.219   6.126   5.616
12648TIP3   OH237876   5.450   7.709   5.562
12648TIP3    H137877   5.360   7.743   5.540
12648TIP3    H237878   5.471   7.766   5.637
12649TIP3   OH237879   5.686   7.698   5.413
12649TIP3    H137880   5.598   7.705   5.455
12649TIP3    H237881   5.669   7.734   5.324
12650TIP3   OH237882   6.142   7.757   5.161
12650TIP3    H137883   6.049   7.753   5.132
12650TIP3    H237884   6.136   7.820   5.236
12651TIP3   OH237885   6.387   7.644   5.248
12651TIP3    H137886   6.290   7.659   5.245
12651TIP3    H237887   6.418   7.730   5.213
12652TIP3   OH237888   6.582   7.860   5.178
12652TIP3    H137889   6.564   7.942   5.127
12652TIP3    H237890   6.611   7.799   5.106
12653TIP3   OH237891   5.349   7.502   5.306
12653TIP3    H137892   5.381   7.476   5.395
12653TIP3    H237893   5.427   7.475   5.253
12654TIP3   OH237894   5.556   7.390   5.159
12654TIP3    H137895   5.570   7.307   5.209
12654TIP3    H237896   5.647   7.428   5.159
12655TIP3   OH237897   5.824   7.481   5.173
12655TIP3    H137898   5.854   7.388   5.171
12655TIP3    H237899   5.879   7.509   5.250
12656TIP3   OH237900   6.393   6.141   5.231
12656TIP3    H137901   6.349   6.075   5.287
12656TIP3    H237902   6.473   6.093   5.199
12657TIP3   OH237903   6.914   6.009   5.144
12657TIP3    H137904   6.953   6.066   5.074
12657TIP3    H237905   6.824   6.044   5.151
12658TIP3   OH237906   7.012   6.118   4.911
12658TIP3    H137907   7.087   6.065   4.877
12658TIP3    H237908   7.048   6.209   4.899
12659TIP3   OH237909   5.644   5.845   5.261
12659TIP3    H137910   5.551   5.813   5.264
12659TIP3    H237911   5.691   5.760   5.258
12660TIP3   OH237912   5.432   5.718   4.913
12660TIP3    H137913   5.461   5.774   4.840
12660TIP3    H237914   5.406   5.784   4.981
12661TIP3   OH237915   6.092   5.877   5.148
12661TIP3    H137916   6.143   5.921   5.078
12661TIP3    H237917   6.119   5.929   5.226
12662TIP3   OH237918   6.623   6.020   5.128
12662TIP3    H137919   6.643   5.978   5.044
12662TIP3    H237920   6.615   5.942   5.188
12663TIP3   OH237921   6.663   5.950   4.691
12663TIP3    H137922   6.578   5.993   4.711
12663TIP3    H237923   6.651   5.864   4.736
12664TIP3   OH237924   5.150   7.292   4.692
12664TIP3    H137925   5.063   7.262   4.660
12664TIP3    H237926   5.144   7.387   4.671
12665TIP3   OH237927   5.550   5.874   4.674
12665TIP3    H137928   5.598   5.812   4.617
12665TIP3    H237929   5.624   5.928   4.709
12666TIP3   OH237930   6.062   6.054   4.769
12666TIP3    H137931   6.122   6.009   4.831
12666TIP3    H237932   6.080   6.147   4.797
12667TIP3   OH237933   5.920   7.471   4.273
12667TIP3    H137934   6.009   7.493   4.239
12667TIP3    H237935   5.899   7.396   4.213
12668TIP3   OH237936   6.592   7.590   4.373
12668TIP3    H137937   6.604   7.494   4.357
12668TIP3    H237938   6.609   7.626   4.285
12669TIP3   OH237939   5.855   6.129   6.141
12669TIP3    H137940   5.813   6.060   6.197
12669TIP3    H237941   5.948   6.122   6.175
12670TIP3   OH237942   6.100   6.095   6.259
12670TIP3    H137943   6.194   6.069   6.252
12670TIP3    H237944   6.077   6.061   6.347
12671TIP3   OH237945   5.221   7.311   4.326
12671TIP3    H137946   5.226   7.340   4.418
12671TIP3    H237947   5.309   7.271   4.311
12672TIP3   OH237948   6.922   6.165   6.061
12672TIP3    H137949   6.943   6.138   6.153
12672TIP3    H237950   7.011   6.177   6.022
12673TIP3   OH237951   8.124   7.108   4.323
12673TIP3    H137952   8.089   7.196   4.301
12673TIP3    H237953   8.053   7.052   4.288
12674TIP3   OH237954   8.091   7.115   4.713
12674TIP3    H137955   8.154   7.069   4.770
12674TIP3    H237956   8.064   7.044   4.653
12675TIP3   OH237957   7.422   6.974   5.045
12675TIP3    H137958   7.451   6.911   5.113
12675TIP3    H237959   7.487   7.045   5.059
12676TIP3   OH237960   7.405   7.412   4.781
12676TIP3    H137961   7.395   7.315   4.788
12676TIP3    H237962   7.501   7.421   4.785
12677TIP3   OH237963   7.109   6.612   4.567
12677TIP3    H137964   7.069   6.697   4.590
12677TIP3    H237965   7.033   6.565   4.529
12678TIP3   OH237966   7.160   6.903   4.750
12678TIP3    H137967   7.213   6.829   4.787
12678TIP3    H237968   7.228   6.951   4.700
12679TIP3   OH237969   7.915   7.324   4.728
12679TIP3    H137970   7.982   7.252   4.716
12679TIP3    H237971   7.967   7.392   4.774
12680TIP3   OH237972   8.367   6.830   4.751
12680TIP3    H137973   8.386   6.736   4.770
12680TIP3    H237974   8.313   6.820   4.670
12681TIP3   OH237975   7.684   6.497   4.744
12681TIP3    H137976   7.663   6.570   4.682
12681TIP3    H237977   7.633   6.424   4.702
12682TIP3   OH237978   8.377   6.590   4.370
12682TIP3    H137979   8.448   6.566   4.433
12682TIP3    H237980   8.431   6.625   4.296
12683TIP3   OH237981   7.313   6.700   4.851
12683TIP3    H137982   7.396   6.686   4.901
12683TIP3    H237983   7.331   6.644   4.772
12684TIP3   OH237984   7.756   6.894   4.638
12684TIP3    H137985   7.850   6.869   4.656
12684TIP3    H237986   7.717   6.809   4.610
12685TIP3   OH237987   7.674   6.479   5.181
12685TIP3    H137988   7.614   6.518   5.115
12685TIP3    H237989   7.622   6.496   5.263
12686TIP3   OH237990   8.016   7.331   4.183
12686TIP3    H137991   7.962   7.308   4.106
12686TIP3    H237992   7.971   7.414   4.212
12687TIP3   OH237993   7.774   7.238   4.947
12687TIP3    H137994   7.722   7.315   4.975
12687TIP3    H237995   7.828   7.275   4.874
12688TIP3   OH237996   8.583   6.568   4.551
12688TIP3    H137997   8.537   6.533   4.630
12688TIP3    H237998   8.629   6.645   4.587
12689TIP3   OH237999   7.547   6.596   4.963
12689TIP3    H138000   7.609   6.667   4.991
12689TIP3    H238001   7.599   6.556   4.889
12690TIP3   OH238002   6.992   7.141   4.305
12690TIP3    H138003   6.959   7.165   4.216
12690TIP3    H238004   7.010   7.228   4.344
12691TIP3   OH238005   8.023   6.197   4.891
12691TIP3    H138006   8.011   6.102   4.912
12691TIP3    H238007   7.948   6.236   4.941
12692TIP3   OH238008   8.258   7.474   4.142
12692TIP3    H138009   8.178   7.427   4.114
12692TIP3    H238010   8.272   7.434   4.229
12693TIP3   OH238011   7.962   6.963   4.152
12693TIP3    H138012   7.881   7.015   4.133
12693TIP3    H238013   8.004   6.958   4.065
12694TIP3   OH238014   7.920   6.747   3.862
12694TIP3    H138015   7.985   6.801   3.909
12694TIP3    H238016   7.980   6.685   3.815
12695TIP3   OH238017   8.302   7.026   4.132
12695TIP3    H138018   8.252   7.049   4.213
12695TIP3    H238019   8.390   7.004   4.170
12696TIP3   OH238020   7.543   7.041   4.539
12696TIP3    H138021   7.503   6.983   4.471
12696TIP3    H238022   7.620   6.988   4.568
12697TIP3   OH238023   7.677   7.453   4.686
12697TIP3    H138024   7.643   7.424   4.600
12697TIP3    H238025   7.761   7.402   4.693
12698TIP3   OH238026   7.680   6.993   4.884
12698TIP3    H138027   7.711   6.973   4.793
12698TIP3    H238028   7.720   7.081   4.901
12699TIP3   OH238029   8.143   6.901   3.946
12699TIP3    H138030   8.204   6.955   4.001
12699TIP3    H238031   8.175   6.922   3.855
12700TIP3   OH238032   7.525   7.136   5.263
12700TIP3    H138033   7.489   7.224   5.235
12700TIP3    H238034   7.449   7.103   5.315
12701TIP3   OH238035   7.906   7.583   4.215
12701TIP3    H138036   7.932   7.661   4.266
12701TIP3    H238037   7.833   7.619   4.162
12702TIP3   OH238038   8.656   6.146   3.990
12702TIP3    H138039   8.579   6.152   4.051
12702TIP3    H238040   8.679   6.238   3.978
12703TIP3   OH238041   7.411   6.885   4.338
12703TIP3    H138042   7.341   6.930   4.287
12703TIP3    H238043   7.370   6.800   4.356
12704TIP3   OH238044   7.155   7.230   5.237
12704TIP3    H138045   7.165   7.217   5.140
12704TIP3    H238046   7.213   7.161   5.273
12705TIP3   OH238047   7.064   7.460   4.940
12705TIP3    H138048   7.114   7.446   4.859
12705TIP3    H238049   7.005   7.533   4.916
12706TIP3   OH238050   7.742   7.832   4.039
12706TIP3    H138051   7.724   7.802   3.949
12706TIP3    H238052   7.808   7.903   4.026
12707TIP3   OH238053   7.401   7.368   5.224
12707TIP3    H138054   7.440   7.452   5.257
12707TIP3    H238055   7.311   7.371   5.257
12708TIP3   OH238056   7.793   6.276   5.027
12708TIP3    H138057   7.704   6.246   4.998
12708TIP3    H238058   7.765   6.355   5.078
12709TIP3   OH238059   8.306   6.390   5.203
12709TIP3    H138060   8.376   6.387   5.269
12709TIP3    H238061   8.225   6.367   5.254
12710TIP3   OH238062   8.229   6.950   3.695
12710TIP3    H138063   8.185   6.924   3.613
12710TIP3    H238064   8.301   7.006   3.662
12711TIP3   OH238065   7.935   6.324   3.996
12711TIP3    H138066   7.902   6.319   4.088
12711TIP3    H238067   7.897   6.240   3.961
12712TIP3   OH238068   7.729   6.785   5.046
12712TIP3    H138069   7.677   6.808   5.126
12712TIP3    H238070   7.708   6.863   4.989
12713TIP3   OH238071   7.609   6.676   4.556
12713TIP3    H138072   7.517   6.652   4.576
12713TIP3    H238073   7.620   6.635   4.467
12714TIP3   OH238074   8.096   6.761   4.281
12714TIP3    H138075   8.046   6.832   4.236
12714TIP3    H238076   8.152   6.727   4.208
12715TIP3   OH238077   8.239   6.786   4.514
12715TIP3    H138078   8.176   6.806   4.441
12715TIP3    H238079   8.285   6.711   4.472
12716TIP3   OH238080   7.541   6.809   5.247
12716TIP3    H138081   7.586   6.872   5.305
12716TIP3    H238082   7.531   6.731   5.305
12717TIP3   OH238083   7.592   6.296   3.961
12717TIP3    H138084   7.584   6.297   4.058
12717TIP3    H238085   7.516   6.354   3.937
12718TIP3   OH238086   7.141   6.339   4.828
12718TIP3    H138087   7.208   6.375   4.889
12718TIP3    H238088   7.194   6.311   4.752
12719TIP3   OH238089   7.100   6.320   4.351
12719TIP3    H138090   7.149   6.356   4.274
12719TIP3    H238091   7.044   6.398   4.371
12720TIP3   OH238092   7.939   6.497   4.616
12720TIP3    H138093   7.857   6.497   4.669
12720TIP3    H238094   8.007   6.493   4.684
12721TIP3   OH238095   7.371   6.556   4.624
12721TIP3    H138096   7.277   6.562   4.596
12721TIP3    H238097   7.395   6.464   4.602
12722TIP3   OH238098   7.635   6.548   4.316
12722TIP3    H138099   7.729   6.564   4.295
12722TIP3    H238100   7.589   6.571   4.231
12723TIP3   OH238101   8.391   6.563   4.800
12723TIP3    H138102   8.366   6.577   4.893
12723TIP3    H238103   8.323   6.499   4.772
12724TIP3   OH238104   7.486   6.584   4.090
12724TIP3    H138105   7.416   6.540   4.039
12724TIP3    H238106   7.538   6.624   4.018
12725TIP3   OH238107   8.012   6.818   4.712
12725TIP3    H138108   8.090   6.784   4.665
12725TIP3    H238109   8.019   6.778   4.800
12726TIP3   OH238110   7.536   6.315   4.598
12726TIP3    H138111   7.501   6.238   4.647
12726TIP3    H238112   7.588   6.272   4.529
12727TIP3   OH238113   7.994   6.724   4.995
12727TIP3    H138114   7.901   6.752   5.011
12727TIP3    H238115   8.040   6.760   5.072
12728TIP3   OH238116   7.734   7.114   4.100
12728TIP3    H138117   7.660   7.050   4.086
12728TIP3    H238118   7.711   7.148   4.190
12729TIP3   OH238119   8.188   6.422   3.969
12729TIP3    H138120   8.092   6.405   3.975
12729TIP3    H238121   8.196   6.517   3.990
12730TIP3   OH238122   8.255   6.674   4.068
12730TIP3    H138123   8.352   6.681   4.084
12730TIP3    H238124   8.238   6.752   4.012
12731TIP3   OH238125   7.424   7.132   4.775
12731TIP3    H138126   7.466   7.106   4.690
12731TIP3    H238127   7.465   7.070   4.837
12732TIP3   OH238128   7.877   7.263   3.924
12732TIP3    H138129   7.828   7.349   3.926
12732TIP3    H238130   7.821   7.208   3.984
12733TIP3   OH238131   7.289   7.042   5.395
12733TIP3    H138132   7.283   7.019   5.490
12733TIP3    H238133   7.220   6.982   5.360
12734TIP3   OH238134   7.528   7.443   4.404
12734TIP3    H138135   7.522   7.524   4.350
12734TIP3    H238136   7.435   7.431   4.428
12735TIP3   OH238137   7.091   6.746   4.105
12735TIP3    H138138   7.136   6.831   4.125
12735TIP3    H238139   7.015   6.751   4.167
12736TIP3   OH238140   7.658   7.206   4.341
12736TIP3    H138141   7.622   7.295   4.362
12736TIP3    H238142   7.626   7.155   4.417
12737TIP3   OH238143   7.444   7.674   4.256
12737TIP3    H138144   7.358   7.688   4.300
12737TIP3    H238145   7.479   7.766   4.256
12738TIP3   OH238146   8.090   7.310   3.708
12738TIP3    H138147   8.142   7.283   3.784
12738TIP3    H238148   8.003   7.272   3.730
12739TIP3   OH238149   7.514   6.559   5.396
12739TIP3    H138150   7.419   6.569   5.415
12739TIP3    H238151   7.543   6.501   5.469
12740TIP3   OH238152   8.333   7.221   3.938
12740TIP3    H138153   8.291   7.174   4.012
12740TIP3    H238154   8.412   7.165   3.927
12741TIP3   OH238155   7.273   7.658   5.029
12741TIP3    H138156   7.242   7.567   5.037
12741TIP3    H238157   7.244   7.698   5.112
12742TIP3   OH238158   7.519   7.292   3.713
12742TIP3    H138159   7.534   7.200   3.684
12742TIP3    H238160   7.499   7.280   3.808
12743TIP3   OH238161   7.468   7.295   3.984
12743TIP3    H138162   7.539   7.274   4.046
12743TIP3    H238163   7.466   7.394   3.990
12744TIP3   OH238164   7.199   6.990   4.189
12744TIP3    H138165   7.133   7.037   4.244
12744TIP3    H238166   7.213   7.057   4.119
12745TIP3   OH238167   8.343   6.624   5.062
12745TIP3    H138168   8.335   6.680   5.142
12745TIP3    H238169   8.322   6.538   5.102
12746TIP3   OH238170   8.235   6.375   4.249
12746TIP3    H138171   8.222   6.396   4.155
12746TIP3    H238172   8.275   6.458   4.283
12747TIP3   OH238173   7.737   7.493   3.942
12747TIP3    H138174   7.646   7.511   3.975
12747TIP3    H238175   7.746   7.569   3.882
12748TIP3   OH238176   7.918   6.560   4.347
12748TIP3    H138177   7.983   6.632   4.330
12748TIP3    H238178   7.926   6.550   4.445
12749TIP3   OH238179   8.063   6.279   4.446
12749TIP3    H138180   8.057   6.356   4.506
12749TIP3    H238181   8.126   6.313   4.379
12750TIP3   OH238182   7.479   7.565   4.004
12750TIP3    H138183   7.450   7.637   3.943
12750TIP3    H238184   7.465   7.609   4.091
12751TIP3   OH238185   7.578   6.285   4.237
12751TIP3    H138186   7.577   6.375   4.276
12751TIP3    H238187   7.674   6.266   4.245
12752TIP3   OH238188   8.507   6.933   4.516
12752TIP3    H138189   8.413   6.914   4.524
12752TIP3    H238190   8.530   6.955   4.608
12753TIP3   OH238191   7.196   7.194   3.992
12753TIP3    H138192   7.260   7.266   4.002
12753TIP3    H238193   7.242   7.140   3.924
12754TIP3   OH238194   7.137   6.476   4.129
12754TIP3    H138195   7.148   6.573   4.127
12754TIP3    H238196   7.060   6.465   4.072
12755TIP3   OH238197   7.528   6.196   4.996
12755TIP3    H138198   7.498   6.159   4.911
12755TIP3    H238199   7.518   6.119   5.056
12756TIP3   OH238200   7.686   7.489   3.621
12756TIP3    H138201   7.627   7.419   3.656
12756TIP3    H238202   7.755   7.435   3.578
12757TIP3   OH238203   7.333   7.009   3.847
12757TIP3    H138204   7.392   6.984   3.920
12757TIP3    H238205   7.399   7.016   3.774
12758TIP3   OH238206   7.827   7.203   3.658
12758TIP3    H138207   7.819   7.212   3.755
12758TIP3    H238208   7.836   7.105   3.649
12759TIP3   OH238209   7.538   6.919   4.065
12759TIP3    H138210   7.511   6.880   4.150
12759TIP3    H238211   7.576   6.843   4.017
12760TIP3   OH238212   7.794   6.974   5.291
12760TIP3    H138213   7.754   7.049   5.338
12760TIP3    H238214   7.827   7.017   5.212
12761TIP3   OH238215   7.642   6.712   3.906
12761TIP3    H138216   7.617   6.722   3.812
12761TIP3    H238217   7.739   6.713   3.899
12762TIP3   OH238218   7.899   6.762   5.448
12762TIP3    H138219   7.927   6.697   5.382
12762TIP3    H238220   7.868   6.837   5.392
12763TIP3   OH238221   7.936   6.544   5.221
12763TIP3    H138222   7.959   6.583   5.135
12763TIP3    H238223   7.839   6.529   5.211
12764TIP3   OH238224   8.065   6.320   5.319
12764TIP3    H138225   8.015   6.399   5.286
12764TIP3    H238226   8.000   6.249   5.301
12765TIP3   OH238227   7.641   6.654   5.710
12765TIP3    H138228   7.646   6.570   5.661
12765TIP3    H238229   7.696   6.634   5.786
12766TIP3   OH238230   8.163   6.319   5.578
12766TIP3    H138231   8.231   6.257   5.548
12766TIP3    H238232   8.116   6.333   5.493
12767TIP3   OH238233   7.447   7.775   3.829
12767TIP3    H138234   7.541   7.759   3.810
12767TIP3    H238235   7.421   7.817   3.743
12768TIP3   OH238236   6.929   7.150   4.030
12768TIP3    H138237   7.023   7.174   4.013
12768TIP3    H238238   6.923   7.063   3.986
12769TIP3   OH238239   8.512   6.686   3.713
12769TIP3    H138240   8.483   6.707   3.624
12769TIP3    H238241   8.496   6.589   3.715
12770TIP3   OH238242   8.538   6.944   4.245
12770TIP3    H138243   8.544   6.848   4.229
12770TIP3    H238244   8.540   6.948   4.343
12771TIP3   OH238245   7.158   7.023   5.016
12771TIP3    H138246   7.142   7.006   4.921
12771TIP3    H238247   7.256   7.011   5.018
12772TIP3   OH238248   8.467   6.414   3.716
12772TIP3    H138249   8.526   6.350   3.757
12772TIP3    H238250   8.387   6.361   3.698
12773TIP3   OH238251   8.533   6.669   4.152
12773TIP3    H138252   8.567   6.578   4.169
12773TIP3    H238253   8.583   6.691   4.072
12774TIP3   OH238254   7.373   6.694   5.658
12774TIP3    H138255   7.470   6.695   5.676
12774TIP3    H238256   7.347   6.617   5.713
12775TIP3   OH238257   8.623   6.418   4.200
12775TIP3    H138258   8.684   6.392   4.272
12775TIP3    H238259   8.566   6.339   4.194
12776TIP3   OH238260   7.342   6.405   5.003
12776TIP3    H138261   7.404   6.330   5.015
12776TIP3    H238262   7.405   6.479   4.996
12777TIP3   OH238263   7.141   6.676   5.072
12777TIP3    H138264   7.195   6.679   4.990
12777TIP3    H238265   7.176   6.752   5.120
12778TIP3   OH238266   7.129   6.170   4.573
12778TIP3    H138267   7.041   6.176   4.613
12778TIP3    H238268   7.124   6.235   4.500
12779TIP3   OH238269   7.350   6.255   5.389
12779TIP3    H138270   7.305   6.255   5.476
12779TIP3    H238271   7.282   6.297   5.333
12780TIP3   OH238272   7.160   7.783   4.801
12780TIP3    H138273   7.205   7.746   4.880
12780TIP3    H238274   7.210   7.735   4.731
12781TIP3   OH238275   7.346   7.650   4.655
12781TIP3    H138276   7.360   7.562   4.697
12781TIP3    H238277   7.435   7.674   4.626
12782TIP3   OH238278   7.617   7.716   4.636
12782TIP3    H138279   7.649   7.624   4.649
12782TIP3    H238280   7.620   7.752   4.724
12783TIP3   OH238281   8.186   6.381   4.732
12783TIP3    H138282   8.140   6.312   4.784
12783TIP3    H238283   8.258   6.330   4.690
12784TIP3   OH238284   8.721   6.275   4.637
12784TIP3    H138285   8.748   6.327   4.559
12784TIP3    H238286   8.625   6.291   4.639
12785TIP3   OH238287   8.821   6.368   4.392
12785TIP3    H138288   8.889   6.309   4.357
12785TIP3    H238289   8.862   6.455   4.386
12786TIP3   OH238290   7.439   6.100   4.748
12786TIP3    H138291   7.347   6.067   4.755
12786TIP3    H238292   7.488   6.016   4.745
12787TIP3   OH238293   7.222   5.974   4.398
12787TIP3    H138294   7.255   6.031   4.327
12787TIP3    H238295   7.199   6.040   4.467
12788TIP3   OH238296   7.884   6.134   4.633
12788TIP3    H138297   7.941   6.181   4.569
12788TIP3    H238298   7.913   6.173   4.717
12789TIP3   OH238299   8.435   6.279   4.611
12789TIP3    H138300   8.439   6.232   4.526
12789TIP3    H238301   8.421   6.203   4.673
12790TIP3   OH238302   8.456   6.203   4.178
12790TIP3    H138303   8.369   6.245   4.195
12790TIP3    H238304   8.443   6.117   4.224
12791TIP3   OH238305   7.347   6.133   4.158
12791TIP3    H138306   7.395   6.068   4.103
12791TIP3    H238307   7.420   6.186   4.195
12792TIP3   OH238308   7.855   6.309   4.260
12792TIP3    H138309   7.916   6.262   4.320
12792TIP3    H238310   7.877   6.401   4.285
12793TIP3   OH238311   7.715   7.718   3.776
12793TIP3    H138312   7.773   7.780   3.725
12793TIP3    H238313   7.701   7.648   3.708
12794TIP3   OH238314   7.645   6.378   5.630
12794TIP3    H138315   7.601   6.311   5.684
12794TIP3    H238316   7.736   6.374   5.668
12795TIP3   OH238317   7.891   6.358   5.746
12795TIP3    H138318   7.978   6.360   5.704
12795TIP3    H238319   7.898   6.280   5.803
12796TIP3   OH238320   7.018   7.567   3.811
12796TIP3    H138321   7.016   7.591   3.905
12796TIP3    H238322   7.106   7.525   3.801
12797TIP3   OH238323   1.394   7.433   6.420
12797TIP3    H138324   1.427   7.517   6.458
12797TIP3    H238325   1.419   7.442   6.327
12798TIP3   OH238326   0.816   7.389   6.060
12798TIP3    H138327   0.887   7.379   6.127
12798TIP3    H238328   0.868   7.416   5.982
12799TIP3   OH238329   1.472   7.635   6.597
12799TIP3    H138330   1.408   7.701   6.569
12799TIP3    H238331   1.435   7.606   6.683
12800TIP3   OH238332   1.030   7.389   6.230
12800TIP3    H138333   1.043   7.303   6.271
12800TIP3    H238334   1.099   7.446   6.267
12801TIP3   OH238335   1.192   7.353   6.599
12801TIP3    H138336   1.107   7.375   6.558
12801TIP3    H238337   1.256   7.372   6.528
12802TIP3   OH238338   1.120   6.921   5.665
12802TIP3    H138339   1.040   6.919   5.723
12802TIP3    H238340   1.124   7.016   5.642
12803TIP3   OH238341   1.158   7.555   5.585
12803TIP3    H138342   1.092   7.515   5.524
12803TIP3    H238343   1.153   7.647   5.550
12804TIP3   OH238344   1.268   7.536   6.790
12804TIP3    H138345   1.191   7.531   6.847
12804TIP3    H238346   1.245   7.464   6.725
12805TIP3   OH238347   0.920   7.736   6.219
12805TIP3    H138348   0.869   7.655   6.210
12805TIP3    H238349   1.005   7.703   6.256
12806TIP3   OH238350   0.929   7.830   5.252
12806TIP3    H138351   0.884   7.778   5.182
12806TIP3    H238352   0.904   7.919   5.230
12807TIP3   OH238353   1.055   8.008   5.595
12807TIP3    H138354   1.131   8.065   5.577
12807TIP3    H238355   1.085   7.963   5.677
12808TIP3   OH238356   1.180   7.881   5.798
12808TIP3    H138357   1.118   7.832   5.858
12808TIP3    H238358   1.246   7.916   5.861
12809TIP3   OH238359   1.120   7.790   5.442
12809TIP3    H138360   1.048   7.788   5.374
12809TIP3    H238361   1.085   7.863   5.498
12810TIP3   OH238362   0.984   7.471   5.393
12810TIP3    H138363   0.934   7.499   5.316
12810TIP3    H238364   0.971   7.374   5.388
12811TIP3   OH238365   1.018   7.733   5.953
12811TIP3    H138366   1.001   7.640   5.927
12811TIP3    H238367   0.979   7.736   6.043
12812TIP3   OH238368   0.945   7.205   5.388
12812TIP3    H138369   1.020   7.173   5.442
12812TIP3    H238370   0.874   7.142   5.414
12813TIP3   OH238371   1.001   7.465   5.858
12813TIP3    H138372   1.037   7.374   5.869
12813TIP3    H238373   1.030   7.485   5.767
12814TIP3   OH238374   1.150   7.636   6.340
12814TIP3    H138375   1.236   7.664   6.303
12814TIP3    H238376   1.156   7.666   6.431
12815TIP3   OH238377   1.740   7.390   7.107
12815TIP3    H138378   1.762   7.308   7.057
12815TIP3    H238379   1.688   7.435   7.041
12816TIP3   OH238380   1.094   7.203   5.876
12816TIP3    H138381   1.139   7.185   5.961
12816TIP3    H238382   1.027   7.132   5.877
12817TIP3   OH238383   1.615   7.446   6.868
12817TIP3    H138384   1.553   7.504   6.916
12817TIP3    H238385   1.552   7.381   6.831
12818TIP3   OH238386   1.182   7.141   5.512
12818TIP3    H138387   1.214   7.066   5.457
12818TIP3    H238388   1.252   7.207   5.503
12819TIP3   OH238389   1.438   7.255   6.773
12819TIP3    H138390   1.346   7.236   6.744
12819TIP3    H238391   1.474   7.163   6.773
12820TIP3   OH238392   1.186   7.077   6.340
12820TIP3    H138393   1.221   7.113   6.256
12820TIP3    H238394   1.089   7.083   6.324
12821TIP3   OH238395   1.264   7.161   6.095
12821TIP3    H138396   1.334   7.109   6.052
12821TIP3    H238397   1.295   7.253   6.076
12822TIP3   OH238398   0.925   7.100   6.287
12822TIP3    H138399   0.862   7.091   6.214
12822TIP3    H238400   0.905   7.020   6.340
12823TIP3   OH238401   1.709   8.079   6.259
12823TIP3    H138402   1.713   7.996   6.308
12823TIP3    H238403   1.790   8.071   6.199
12824TIP3   OH238404   2.623   8.471   5.561
12824TIP3    H138405   2.638   8.392   5.612
12824TIP3    H238406   2.675   8.540   5.603
12825TIP3   OH238407   1.724   8.381   6.057
12825TIP3    H138408   1.684   8.303   6.014
12825TIP3    H238409   1.806   8.391   6.003
12826TIP3   OH238410   1.361   7.664   5.749
12826TIP3    H138411   1.308   7.744   5.767
12826TIP3    H238412   1.291   7.607   5.713
12827TIP3   OH238413   1.412   7.949   5.922
12827TIP3    H138414   1.459   7.871   5.960
12827TIP3    H238415   1.478   7.985   5.862
12828TIP3   OH238416   2.211   8.328   5.942
12828TIP3    H138417   2.193   8.335   5.847
12828TIP3    H238418   2.295   8.377   5.950
12829TIP3   OH238419   3.166   7.719   5.913
12829TIP3    H138420   3.221   7.779   5.966
12829TIP3    H238421   3.220   7.711   5.832
12830TIP3   OH238422   1.936   7.542   5.919
12830TIP3    H138423   1.909   7.612   5.856
12830TIP3    H238424   1.889   7.466   5.878
12831TIP3   OH238425   2.622   7.637   5.542
12831TIP3    H138426   2.693   7.622   5.608
12831TIP3    H238427   2.675   7.670   5.467
12832TIP3   OH238428   1.563   7.745   6.030
12832TIP3    H138429   1.643   7.717   6.078
12832TIP3    H238430   1.570   7.688   5.950
12833TIP3   OH238431   1.990   7.938   5.834
12833TIP3    H138432   2.083   7.918   5.816
12833TIP3    H238433   1.946   7.857   5.799
12834TIP3   OH238434   3.277   7.904   6.098
12834TIP3    H138435   3.224   7.982   6.080
12834TIP3    H238436   3.316   7.929   6.184
12835TIP3   OH238437   1.927   7.524   6.359
12835TIP3    H138438   1.863   7.558   6.293
12835TIP3    H238439   1.874   7.536   6.441
12836TIP3   OH238440   2.026   8.310   6.155
12836TIP3    H138441   1.984   8.393   6.186
12836TIP3    H238442   2.065   8.340   6.071
12837TIP3   OH238443   2.827   7.634   5.717
12837TIP3    H138444   2.831   7.578   5.795
12837TIP3    H238445   2.900   7.696   5.732
12838TIP3   OH238446   1.799   7.637   6.140
12838TIP3    H138447   1.862   7.708   6.164
12838TIP3    H238448   1.846   7.597   6.064
12839TIP3   OH238449   1.262   8.159   5.501
12839TIP3    H138450   1.212   8.161   5.417
12839TIP3    H238451   1.266   8.254   5.519
12840TIP3   OH238452   2.978   7.604   6.092
12840TIP3    H138453   2.889   7.613   6.052
12840TIP3    H238454   3.037   7.636   6.021
12841TIP3   OH238455   2.279   7.244   6.077
12841TIP3    H138456   2.258   7.150   6.092
12841TIP3    H238457   2.201   7.286   6.121
12842TIP3   OH238458   2.630   8.454   5.281
12842TIP3    H138459   2.562   8.386   5.268
12842TIP3    H238460   2.628   8.459   5.379
12843TIP3   OH238461   2.166   7.795   5.041
12843TIP3    H138462   2.231   7.852   5.089
12843TIP3    H238463   2.228   7.733   4.998
12844TIP3   OH238464   2.557   8.064   5.292
12844TIP3    H138465   2.498   8.129   5.339
12844TIP3    H238466   2.636   8.067   5.350
12845TIP3   OH238467   1.790   8.086   5.707
12845TIP3    H138468   1.748   8.026   5.641
12845TIP3    H238469   1.866   8.032   5.738
12846TIP3   OH238470   1.938   8.443   5.904
12846TIP3    H138471   1.883   8.457   5.824
12846TIP3    H238472   2.011   8.506   5.893
12847TIP3   OH238473   1.920   8.061   6.078
12847TIP3    H138474   1.950   8.037   5.989
12847TIP3    H238475   1.960   8.150   6.091
12848TIP3   OH238476   2.394   7.926   5.123
12848TIP3    H138477   2.441   7.993   5.176
12848TIP3    H238478   2.424   7.951   5.032
12849TIP3   OH238479   2.915   7.186   5.175
12849TIP3    H138480   2.833   7.209   5.223
12849TIP3    H238481   2.930   7.268   5.124
12850TIP3   OH238482   1.658   7.922   5.526
12850TIP3    H138483   1.592   7.964   5.467
12850TIP3    H238484   1.619   7.835   5.540
12851TIP3   OH238485   3.055   8.088   6.403
12851TIP3    H138486   2.971   8.111   6.361
12851TIP3    H238487   3.065   7.993   6.382
12852TIP3   OH238488   2.042   7.322   6.202
12852TIP3    H138489   1.955   7.289   6.170
12852TIP3    H238490   2.011   7.399   6.254
12853TIP3   OH238491   2.574   7.439   6.396
12853TIP3    H138492   2.642   7.406   6.457
12853TIP3    H238493   2.490   7.416   6.441
12854TIP3   OH238494   2.801   7.876   6.319
12854TIP3    H138495   2.764   7.853   6.407
12854TIP3    H238496   2.750   7.954   6.297
12855TIP3   OH238497   2.472   7.971   4.869
12855TIP3    H138498   2.444   7.956   4.777
12855TIP3    H238499   2.527   8.051   4.859
12856TIP3   OH238500   2.189   7.364   5.174
12856TIP3    H138501   2.150   7.361   5.263
12856TIP3    H238502   2.146   7.286   5.135
12857TIP3   OH238503   1.977   7.837   6.223
12857TIP3    H138504   1.930   7.858   6.307
12857TIP3    H238505   1.961   7.919   6.172
12858TIP3   OH238506   1.854   7.724   5.733
12858TIP3    H138507   1.762   7.695   5.752
12858TIP3    H238508   1.867   7.683   5.644
12859TIP3   OH238509   2.344   7.820   5.457
12859TIP3    H138510   2.312   7.901   5.413
12859TIP3    H238511   2.402   7.782   5.389
12860TIP3   OH238512   2.525   8.075   6.525
12860TIP3    H138513   2.508   8.011   6.598
12860TIP3    H238514   2.611   8.111   6.554
12861TIP3   OH238515   2.500   7.839   5.688
12861TIP3    H138516   2.438   7.856   5.614
12861TIP3    H238517   2.540   7.757   5.653
12862TIP3   OH238518   1.796   7.861   6.432
12862TIP3    H138519   1.809   7.904   6.517
12862TIP3    H238520   1.770   7.771   6.460
12863TIP3   OH238521   1.848   7.345   5.138
12863TIP3    H138522   1.830   7.340   5.234
12863TIP3    H238523   1.768   7.393   5.107
12864TIP3   OH238524   1.386   7.386   6.013
12864TIP3    H138525   1.467   7.414   6.058
12864TIP3    H238526   1.415   7.353   5.926
12865TIP3   OH238527   1.359   7.367   5.531
12865TIP3    H138528   1.400   7.405   5.450
12865TIP3    H238529   1.292   7.437   5.549
12866TIP3   OH238530   2.194   7.566   5.801
12866TIP3    H138531   2.110   7.551   5.849
12866TIP3    H238532   2.260   7.527   5.862
12867TIP3   OH238533   1.619   7.602   5.800
12867TIP3    H138534   1.524   7.615   5.773
12867TIP3    H238535   1.633   7.508   5.778
12868TIP3   OH238536   1.886   7.600   5.493
12868TIP3    H138537   1.978   7.609   5.462
12868TIP3    H238538   1.834   7.617   5.411
12869TIP3   OH238539   2.700   7.609   6.010
12869TIP3    H138540   2.647   7.633   6.088
12869TIP3    H238541   2.635   7.560   5.957
12870TIP3   OH238542   1.735   7.632   5.272
12870TIP3    H138543   1.663   7.583   5.228
12870TIP3    H238544   1.785   7.665   5.194
12871TIP3   OH238545   2.321   7.868   5.928
12871TIP3    H138546   2.334   7.816   5.846
12871TIP3    H238547   2.273   7.805   5.986
12872TIP3   OH238548   1.797   7.354   5.775
12872TIP3    H138549   1.754   7.282   5.825
12872TIP3    H238550   1.820   7.310   5.693
12873TIP3   OH238551   2.237   7.770   6.177
12873TIP3    H138552   2.144   7.799   6.192
12873TIP3    H238553   2.288   7.832   6.231
12874TIP3   OH238554   1.960   8.160   5.273
12874TIP3    H138555   1.893   8.090   5.274
12874TIP3    H238556   1.968   8.185   5.367
12875TIP3   OH238557   2.439   7.467   5.145
12875TIP3    H138558   2.343   7.448   5.152
12875TIP3    H238559   2.445   7.562   5.170
12876TIP3   OH238560   2.398   8.484   6.250
12876TIP3    H138561   2.432   8.434   6.325
12876TIP3    H238562   2.325   8.534   6.294
12877TIP3   OH238563   2.508   7.717   5.254
12877TIP3    H138564   2.604   7.730   5.263
12877TIP3    H238565   2.482   7.794   5.199
12878TIP3   OH238566   1.654   8.145   5.936
12878TIP3    H138567   1.699   8.129   5.850
12878TIP3    H238568   1.700   8.084   5.995
12879TIP3   OH238569   2.084   8.323   5.096
12879TIP3    H138570   2.121   8.369   5.173
12879TIP3    H238571   2.040   8.250   5.146
12880TIP3   OH238572   2.278   8.205   6.603
12880TIP3    H138573   2.207   8.161   6.553
12880TIP3    H238574   2.357   8.160   6.568
12881TIP3   OH238575   2.946   7.815   5.079
12881TIP3    H138576   2.887   7.770   5.014
12881TIP3    H238577   2.942   7.905   5.040
12882TIP3   OH238578   2.633   8.199   5.876
12882TIP3    H138579   2.577   8.264   5.828
12882TIP3    H238580   2.669   8.144   5.804
12883TIP3   OH238581   1.344   7.785   5.288
12883TIP3    H138582   1.386   7.869   5.312
12883TIP3    H238583   1.263   7.787   5.344
12884TIP3   OH238584   1.923   8.263   5.536
12884TIP3    H138585   1.871   8.343   5.541
12884TIP3    H238586   1.886   8.210   5.609
12885TIP3   OH238587   2.461   8.433   5.992
12885TIP3    H138588   2.425   8.453   6.081
12885TIP3    H238589   2.555   8.447   6.012
12886TIP3   OH238590   2.432   8.291   4.847
12886TIP3    H138591   2.472   8.274   4.935
12886TIP3    H238592   2.354   8.345   4.871
12887TIP3   OH238593   1.764   7.600   6.572
12887TIP3    H138594   1.667   7.598   6.585
12887TIP3    H238595   1.793   7.545   6.647
12888TIP3   OH238596   2.566   8.246   5.077
12888TIP3    H138597   2.553   8.192   5.157
12888TIP3    H238598   2.663   8.265   5.084
12889TIP3   OH238599   1.732   8.283   4.952
12889TIP3    H138600   1.777   8.201   4.920
12889TIP3    H238601   1.805   8.325   4.999
12890TIP3   OH238602   1.458   8.029   5.370
12890TIP3    H138603   1.392   8.058   5.437
12890TIP3    H238604   1.445   8.096   5.303
12891TIP3   OH238605   2.591   7.682   6.262
12891TIP3    H138606   2.682   7.705   6.287
12891TIP3    H238607   2.578   7.598   6.311
12892TIP3   OH238608   2.484   7.419   5.424
12892TIP3    H138609   2.468   7.438   5.330
12892TIP3    H238610   2.521   7.504   5.456
12893TIP3   OH238611   2.177   7.604   5.524
12893TIP3    H138612   2.236   7.680   5.503
12893TIP3    H238613   2.180   7.603   5.622
12894TIP3   OH238614   2.462   7.939   6.276
12894TIP3    H138615   2.468   7.985   6.363
12894TIP3    H238616   2.494   7.849   6.300
12895TIP3   OH238617   2.314   7.326   5.624
12895TIP3    H138618   2.312   7.407   5.677
12895TIP3    H238619   2.375   7.355   5.552
12896TIP3   OH238620   1.826   7.330   5.416
12896TIP3    H138621   1.822   7.420   5.452
12896TIP3    H238622   1.923   7.314   5.422
12897TIP3   OH238623   3.071   7.823   6.310
12897TIP3    H138624   2.974   7.824   6.305
12897TIP3    H238625   3.093   7.759   6.240
12898TIP3   OH238626   2.722   8.009   5.707
12898TIP3    H138627   2.652   7.940   5.704
12898TIP3    H238628   2.798   7.962   5.749
12899TIP3   OH238629   1.471   8.260   5.152
12899TIP3    H138630   1.511   8.309   5.227
12899TIP3    H238631   1.532   8.186   5.138
12900TIP3   OH238632   1.392   7.516   5.305
12900TIP3    H138633   1.384   7.613   5.304
12900TIP3    H238634   1.317   7.489   5.250
12901TIP3   OH238635   1.780   7.241   6.171
12901TIP3    H138636   1.747   7.206   6.086
12901TIP3    H238637   1.768   7.164   6.231
12902TIP3   OH238638   1.586   8.045   5.043
12902TIP3    H138639   1.637   8.002   5.115
12902TIP3    H238640   1.655   8.041   4.972
12903TIP3   OH238641   2.002   8.229   4.839
12903TIP3    H138642   2.046   8.252   4.923
12903TIP3    H238643   2.045   8.143   4.820
12904TIP3   OH238644   2.695   8.484   6.165
12904TIP3    H138645   2.781   8.528   6.173
12904TIP3    H238646   2.634   8.556   6.189
12905TIP3   OH238647   1.767   7.952   5.239
12905TIP3    H138648   1.748   7.904   5.321
12905TIP3    H238649   1.817   7.885   5.188
12906TIP3   OH238650   2.074   8.014   6.471
12906TIP3    H138651   2.005   8.079   6.493
12906TIP3    H238652   2.118   8.057   6.393
12907TIP3   OH238653   1.892   7.760   5.085
12907TIP3    H138654   1.868   7.759   4.990
12907TIP3    H238655   1.990   7.761   5.078
12908TIP3   OH238656   2.595   8.447   6.592
12908TIP3    H138657   2.683   8.463   6.554
12908TIP3    H238658   2.616   8.388   6.666
12909TIP3   OH238659   2.713   8.095   4.741
12909TIP3    H138660   2.685   8.042   4.664
12909TIP3    H238661   2.688   8.184   4.711
12910TIP3   OH238662   2.199   7.805   6.580
12910TIP3    H138663   2.189   7.725   6.525
12910TIP3    H238664   2.150   7.873   6.528
12911TIP3   OH238665   2.185   7.597   6.398
12911TIP3    H138666   2.206   7.632   6.310
12911TIP3    H238667   2.089   7.574   6.387
12912TIP3   OH238668   2.200   8.148   6.278
12912TIP3    H138669   2.271   8.170   6.219
12912TIP3    H238670   2.132   8.214   6.248
12913TIP3   OH238671   2.789   8.116   6.641
12913TIP3    H138672   2.849   8.042   6.656
12913TIP3    H238673   2.851   8.186   6.615
12914TIP3   OH238674   2.835   8.354   6.385
12914TIP3    H138675   2.762   8.375   6.325
12914TIP3    H238676   2.911   8.369   6.324
12915TIP3   OH238677   2.054   7.910   6.804
12915TIP3    H138678   1.995   7.832   6.815
12915TIP3    H238679   2.090   7.895   6.714
12916TIP3   OH238680   2.315   7.363   6.475
12916TIP3    H138681   2.264   7.443   6.451
12916TIP3    H238682   2.247   7.293   6.465
12917TIP3   OH238683   2.446   7.860   6.678
12917TIP3    H138684   2.413   7.839   6.768
12917TIP3    H238685   2.362   7.843   6.630
12918TIP3   OH238686   2.684   7.809   6.553
12918TIP3    H138687   2.596   7.827   6.594
12918TIP3    H238688   2.725   7.755   6.620
12919TIP3   OH238689   1.900   7.702   6.876
12919TIP3    H138690   1.880   7.617   6.834
12919TIP3    H238691   1.946   7.672   6.957
12920TIP3   OH238692   2.417   7.373   6.731
12920TIP3    H138693   2.479   7.297   6.723
12920TIP3    H238694   2.371   7.368   6.644
12921TIP3   OH238695   2.487   7.591   6.880
12921TIP3    H138696   2.467   7.514   6.822
12921TIP3    H238697   2.403   7.641   6.874
12922TIP3   OH238698   1.199   8.168   5.201
12922TIP3    H138699   1.277   8.196   5.152
12922TIP3    H238700   1.167   8.093   5.146
12923TIP3   OH238701   2.844   8.263   5.086
12923TIP3    H138702   2.915   8.323   5.056
12923TIP3    H238703   2.886   8.225   5.166
12924TIP3   OH238704   2.976   8.133   5.285
12924TIP3    H138705   2.912   8.093   5.348
12924TIP3    H238706   3.045   8.170   5.344
12925TIP3   OH238707   3.006   8.505   5.732
12925TIP3    H138708   3.078   8.454   5.687
12925TIP3    H238709   3.016   8.593   5.693
12926TIP3   OH238710   2.909   8.047   4.928
12926TIP3    H138711   2.838   8.053   4.860
12926TIP3    H238712   2.881   8.120   4.986
12927TIP3   OH238713   2.788   7.717   4.882
12927TIP3    H138714   2.733   7.758   4.814
12927TIP3    H238715   2.763   7.623   4.871
12928TIP3   OH238716   2.797   7.998   5.440
12928TIP3    H138717   2.795   7.903   5.419
12928TIP3    H238718   2.777   8.000   5.536
12929TIP3   OH238719   1.421   8.042   6.186
12929TIP3    H138720   1.409   8.039   6.089
12929TIP3    H238721   1.509   8.077   6.196
12930TIP3   OH238722   3.276   8.237   6.342
12930TIP3    H138723   3.188   8.195   6.350
12930TIP3    H238724   3.334   8.159   6.334
12931TIP3   OH238725   2.726   7.451   4.865
12931TIP3    H138726   2.796   7.421   4.925
12931TIP3    H238727   2.650   7.395   4.887
12932TIP3   OH238728   2.789   7.718   5.328
12932TIP3    H138729   2.829   7.628   5.341
12932TIP3    H238730   2.844   7.749   5.254
12933TIP3   OH238731   2.948   7.903   5.823
12933TIP3    H138732   3.027   7.945   5.782
12933TIP3    H238733   2.994   7.851   5.893
12934TIP3   OH238734   3.466   7.623   6.608
12934TIP3    H138735   3.527   7.557   6.567
12934TIP3    H238736   3.437   7.673   6.529
12935TIP3   OH238737   2.893   7.464   5.363
12935TIP3    H138738   2.942   7.445   5.446
12935TIP3    H238739   2.831   7.388   5.361
12936TIP3   OH238740   1.594   7.448   6.186
12936TIP3    H138741   1.655   7.371   6.192
12936TIP3    H238742   1.658   7.521   6.177
12937TIP3   OH238743   1.393   7.744   6.263
12937TIP3    H138744   1.439   7.727   6.178
12937TIP3    H238745   1.396   7.842   6.265
12938TIP3   OH238746   3.334   7.757   6.410
12938TIP3    H138747   3.247   7.796   6.431
12938TIP3    H238748   3.307   7.685   6.350
12939TIP3   OH238749   2.971   7.394   4.999
12939TIP3    H138750   3.011   7.325   4.942
12939TIP3    H238751   3.037   7.466   4.995
12940TIP3   OH238752   1.380   7.236   5.767
12940TIP3    H138753   1.286   7.218   5.787
12940TIP3    H238754   1.373   7.287   5.684
12941TIP3   OH238755   1.603   7.301   6.552
12941TIP3    H138756   1.551   7.294   6.634
12941TIP3    H238757   1.536   7.340   6.493
12942TIP3   OH238758   3.234   7.515   6.291
12942TIP3    H138759   3.147   7.495   6.254
12942TIP3    H238760   3.275   7.425   6.287
12943TIP3   OH238761   2.428   7.436   5.911
12943TIP3    H138762   2.394   7.363   5.966
12943TIP3    H238763   2.507   7.396   5.869
12944TIP3   OH238764   2.955   7.324   5.821
12944TIP3    H138765   2.996   7.370   5.745
12944TIP3    H238766   2.860   7.337   5.805
12945TIP3   OH238767   3.055   7.415   5.583
12945TIP3    H138768   3.129   7.362   5.545
12945TIP3    H238769   3.092   7.506   5.567
12946TIP3   OH238770   1.688   7.148   5.926
12946TIP3    H138771   1.595   7.118   5.929
12946TIP3    H238772   1.733   7.061   5.920
12947TIP3   OH238773   1.493   7.018   5.579
12947TIP3    H138774   1.510   7.074   5.501
12947TIP3    H238775   1.451   7.081   5.641
12948TIP3   OH238776   2.142   7.171   5.807
12948TIP3    H138777   2.195   7.222   5.744
12948TIP3    H238778   2.155   7.220   5.889
12949TIP3   OH238779   2.671   7.329   5.790
12949TIP3    H138780   2.674   7.287   5.703
12949TIP3    H238781   2.662   7.250   5.849
12950TIP3   OH238782   2.709   7.251   5.355
12950TIP3    H138783   2.623   7.294   5.368
12950TIP3    H238784   2.695   7.165   5.399
12951TIP3   OH238785   1.594   7.170   5.343
12951TIP3    H138786   1.639   7.109   5.280
12951TIP3    H238787   1.669   7.223   5.375
12952TIP3   OH238788   2.103   7.356   5.437
12952TIP3    H138789   2.161   7.305   5.496
12952TIP3    H238790   2.130   7.447   5.462
12953TIP3   OH238791   1.908   7.436   6.796
12953TIP3    H138792   1.846   7.392   6.856
12953TIP3    H238793   1.995   7.421   6.841
12954TIP3   OH238794   2.157   7.414   6.931
12954TIP3    H138795   2.237   7.378   6.890
12954TIP3    H238796   2.138   7.345   6.999
12955TIP3   OH238797   4.178   8.393   4.991
12955TIP3    H138798   4.140   8.480   4.970
12955TIP3    H238799   4.106   8.337   4.955
12956TIP3   OH238800   4.178   8.410   5.366
12956TIP3    H138801   4.213   8.390   5.456
12956TIP3    H238802   4.135   8.326   5.343
12957TIP3   OH238803   3.469   8.302   5.730
12957TIP3    H138804   3.502   8.234   5.792
12957TIP3    H238805   3.543   8.364   5.730
12958TIP3   OH238806   4.394   8.714   5.057
12958TIP3    H138807   4.393   8.643   5.123
12958TIP3    H238808   4.455   8.777   5.098
12959TIP3   OH238809   3.501   8.659   5.527
12959TIP3    H138810   3.474   8.568   5.501
12959TIP3    H238811   3.586   8.668   5.480
12960TIP3   OH238812   3.154   7.911   5.234
12960TIP3    H138813   3.111   7.996   5.254
12960TIP3    H238814   3.080   7.866   5.189
12961TIP3   OH238815   3.210   8.204   5.411
12961TIP3    H138816   3.259   8.125   5.444
12961TIP3    H238817   3.282   8.258   5.373
12962TIP3   OH238818   3.991   8.628   5.405
12962TIP3    H138819   4.040   8.550   5.373
12962TIP3    H238820   4.068   8.681   5.434
12963TIP3   OH238821   4.388   8.144   5.440
12963TIP3    H138822   4.425   8.056   5.465
12963TIP3    H238823   4.351   8.123   5.352
12964TIP3   OH238824   3.728   7.798   5.407
12964TIP3    H138825   3.708   7.871   5.345
12964TIP3    H238826   3.679   7.725   5.364
12965TIP3   OH238827   4.415   7.898   5.029
12965TIP3    H138828   4.470   7.837   5.080
12965TIP3    H238829   4.475   7.925   4.956
12966TIP3   OH238830   3.356   7.996   5.518
12966TIP3    H138831   3.439   7.980   5.565
12966TIP3    H238832   3.372   7.943   5.437
12967TIP3   OH238833   3.798   8.197   5.311
12967TIP3    H138834   3.893   8.173   5.324
12967TIP3    H238835   3.760   8.112   5.280
12968TIP3   OH238836   5.056   8.143   5.609
12968TIP3    H138837   4.989   8.195   5.562
12968TIP3    H238838   5.098   8.209   5.668
12969TIP3   OH238839   3.726   7.783   5.841
12969TIP3    H138840   3.664   7.821   5.776
12969TIP3    H238841   3.675   7.796   5.924
12970TIP3   OH238842   4.055   8.598   4.853
12970TIP3    H138843   4.015   8.601   4.765
12970TIP3    H238844   4.089   8.689   4.863
12971TIP3   OH238845   3.826   8.563   5.637
12971TIP3    H138846   3.762   8.629   5.669
12971TIP3    H238847   3.859   8.608   5.556
12972TIP3   OH238848   3.592   7.896   5.626
12972TIP3    H138849   3.653   7.969   5.651
12972TIP3    H238850   3.643   7.856   5.552
12973TIP3   OH238851   3.654   8.773   5.740
12973TIP3    H138852   3.606   8.763   5.654
12973TIP3    H238853   3.577   8.774   5.800
12974TIP3   OH238854   3.052   8.408   4.979
12974TIP3    H138855   3.015   8.419   4.889
12974TIP3    H238856   3.066   8.502   5.001
12975TIP3   OH238857   4.779   7.849   5.573
12975TIP3    H138858   4.694   7.886   5.545
12975TIP3    H238859   4.842   7.889   5.510
12976TIP3   OH238860   4.074   7.500   5.557
12976TIP3    H138861   4.060   7.405   5.574
12976TIP3    H238862   3.997   7.538   5.604
12977TIP3   OH238863   4.426   8.729   4.773
12977TIP3    H138864   4.404   8.646   4.726
12977TIP3    H238865   4.438   8.699   4.865
12978TIP3   OH238866   4.706   8.869   5.557
12978TIP3    H138867   4.696   8.790   5.500
12978TIP3    H238868   4.740   8.936   5.494
12979TIP3   OH238869   4.009   8.257   4.820
12979TIP3    H138870   3.929   8.311   4.804
12979TIP3    H238871   4.052   8.257   4.733
12980TIP3   OH238872   3.966   8.049   4.527
12980TIP3    H138873   4.031   8.102   4.575
12980TIP3    H238874   4.026   7.986   4.480
12981TIP3   OH238875   4.912   8.506   5.406
12981TIP3    H138876   4.829   8.558   5.413
12981TIP3    H238877   4.941   8.530   5.315
12982TIP3   OH238878   4.354   8.337   4.789
12982TIP3    H138879   4.300   8.358   4.869
12982TIP3    H238880   4.440   8.316   4.831
12983TIP3   OH238881   4.589   8.384   5.705
12983TIP3    H138882   4.590   8.465   5.759
12983TIP3    H238883   4.503   8.393   5.660
12984TIP3   OH238884   3.593   8.342   5.195
12984TIP3    H138885   3.552   8.281   5.130
12984TIP3    H238886   3.669   8.289   5.228
12985TIP3   OH238887   3.728   8.707   5.400
12985TIP3    H138888   3.691   8.709   5.309
12985TIP3    H238889   3.824   8.703   5.383
12986TIP3   OH238890   3.719   8.320   5.553
12986TIP3    H138891   3.756   8.294   5.466
12986TIP3    H238892   3.764   8.404   5.572
12987TIP3   OH238893   3.904   8.772   5.879
12987TIP3    H138894   3.867   8.860   5.899
12987TIP3    H238895   3.832   8.736   5.825
12988TIP3   OH238896   4.189   8.203   4.613
12988TIP3    H138897   4.250   8.262   4.662
12988TIP3    H238898   4.219   8.218   4.519
12989TIP3   OH238899   3.617   8.425   5.982
12989TIP3    H138900   3.621   8.513   6.024
12989TIP3    H238901   3.521   8.406   5.988
12990TIP3   OH238902   4.709   7.445   4.659
12990TIP3    H138903   4.628   7.469   4.708
12990TIP3    H238904   4.726   7.526   4.607
12991TIP3   OH238905   3.457   8.184   5.005
12991TIP3    H138906   3.389   8.227   4.948
12991TIP3    H238907   3.416   8.099   5.023
12992TIP3   OH238908   3.281   8.567   5.904
12992TIP3    H138909   3.188   8.577   5.880
12992TIP3    H238910   3.283   8.482   5.951
12993TIP3   OH238911   4.845   8.345   5.874
12993TIP3    H138912   4.760   8.350   5.827
12993TIP3    H238913   4.860   8.248   5.876
12994TIP3   OH238914   3.445   8.781   5.916
12994TIP3    H138915   3.495   8.742   5.990
12994TIP3    H238916   3.376   8.711   5.903
12995TIP3   OH238917   3.838   7.575   5.691
12995TIP3    H138918   3.749   7.545   5.661
12995TIP3    H238919   3.811   7.655   5.740
12996TIP3   OH238920   4.376   7.691   5.884
12996TIP3    H138921   4.445   7.664   5.947
12996TIP3    H238922   4.293   7.672   5.932
12997TIP3   OH238923   4.599   8.116   5.790
12997TIP3    H138924   4.557   8.115   5.879
12997TIP3    H238925   4.586   8.208   5.761
12998TIP3   OH238926   4.269   8.231   4.357
12998TIP3    H138927   4.238   8.211   4.267
12998TIP3    H238928   4.338   8.297   4.338
12999TIP3   OH238929   3.981   7.625   4.659
12999TIP3    H138930   3.947   7.620   4.751
12999TIP3    H238931   3.943   7.542   4.624
13000TIP3   OH238932   3.767   8.096   5.703
13000TIP3    H138933   3.720   8.116   5.786
13000TIP3    H238934   3.750   8.178   5.651
13001TIP3   OH238935   3.653   7.979   5.220
13001TIP3    H138936   3.561   7.953   5.240
13001TIP3    H238937   3.665   7.937   5.132
13002TIP3   OH238938   4.145   8.058   4.948
13002TIP3    H138939   4.094   8.129   4.903
13002TIP3    H238940   4.204   8.027   4.876
13003TIP3   OH238941   4.323   8.337   6.029
13003TIP3    H138942   4.302   8.265   6.093
13003TIP3    H238943   4.416   8.355   6.053
13004TIP3   OH238944   4.295   8.096   5.188
13004TIP3    H138945   4.236   8.133   5.120
13004TIP3    H238946   4.326   8.017   5.138
13005TIP3   OH238947   3.591   8.119   5.915
13005TIP3    H138948   3.620   8.185   5.980
13005TIP3    H238949   3.584   8.038   5.970
13006TIP3   OH238950   3.637   7.598   4.624
13006TIP3    H138951   3.629   7.598   4.722
13006TIP3    H238952   3.561   7.654   4.599
13007TIP3   OH238953   3.182   7.638   5.503
13007TIP3    H138954   3.258   7.673   5.553
13007TIP3    H238955   3.219   7.615   5.417
13008TIP3   OH238956   3.147   7.622   5.014
13008TIP3    H138957   3.194   7.658   4.936
13008TIP3    H238958   3.088   7.697   5.033
13009TIP3   OH238959   4.303   8.337   5.607
13009TIP3    H138960   4.341   8.267   5.549
13009TIP3    H238961   4.277   8.282   5.684
13010TIP3   OH238962   3.985   7.799   5.280
13010TIP3    H138963   3.904   7.798   5.334
13010TIP3    H238964   4.055   7.795   5.348
13011TIP3   OH238965   3.415   7.857   5.289
13011TIP3    H138966   3.321   7.864   5.260
13011TIP3    H238967   3.438   7.766   5.265
13012TIP3   OH238968   3.680   7.850   4.980
13012TIP3    H138969   3.774   7.866   4.958
13012TIP3    H238970   3.634   7.872   4.896
13013TIP3   OH238971   4.459   7.882   5.478
13013TIP3    H138972   4.434   7.891   5.573
13013TIP3    H238973   4.394   7.815   5.448
13014TIP3   OH238974   3.530   7.886   4.755
13014TIP3    H138975   3.459   7.842   4.706
13014TIP3    H238976   3.583   7.924   4.682
13015TIP3   OH238977   3.602   8.675   6.126
13015TIP3    H138978   3.683   8.699   6.174
13015TIP3    H238979   3.538   8.670   6.199
13016TIP3   OH238980   4.062   8.131   5.379
13016TIP3    H138981   4.136   8.092   5.331
13016TIP3    H238982   4.067   8.087   5.466
13017TIP3   OH238983   3.582   7.616   5.260
13017TIP3    H138984   3.547   7.539   5.310
13017TIP3    H238985   3.631   7.573   5.189
13018TIP3   OH238986   4.039   8.030   5.669
13018TIP3    H138987   3.950   8.067   5.683
13018TIP3    H238988   4.097   8.090   5.719
13019TIP3   OH238989   3.778   8.401   4.771
13019TIP3    H138990   3.701   8.342   4.757
13019TIP3    H238991   3.753   8.446   4.855
13020TIP3   OH238992   4.677   8.649   5.392
13020TIP3    H138993   4.704   8.698   5.311
13020TIP3    H238994   4.593   8.608   5.363
13021TIP3   OH238995   4.235   7.724   4.634
13021TIP3    H138996   4.137   7.708   4.638
13021TIP3    H238997   4.243   7.820   4.654
13022TIP3   OH238998   4.186   8.757   5.761
13022TIP3    H138999   4.223   8.707   5.834
13022TIP3    H239000   4.104   8.792   5.800
13023TIP3   OH239001   4.307   7.978   4.731
13023TIP3    H139002   4.404   7.987   4.740
13023TIP3    H239003   4.284   8.057   4.678
13024TIP3   OH239004   3.452   8.395   5.429
13024TIP3    H139005   3.502   8.385   5.345
13024TIP3    H239006   3.510   8.352   5.493
13025TIP3   OH239007   3.886   8.589   4.605
13025TIP3    H139008   3.844   8.659   4.660
13025TIP3    H239009   3.853   8.509   4.653
13026TIP3   OH239010   3.353   8.349   6.074
13026TIP3    H139011   3.403   8.362   6.156
13026TIP3    H239012   3.267   8.321   6.112
13027TIP3   OH239013   4.084   8.462   6.077
13027TIP3    H139014   4.023   8.412   6.021
13027TIP3    H239015   4.171   8.428   6.045
13028TIP3   OH239016   4.717   8.069   4.589
13028TIP3    H139017   4.670   8.021   4.517
13028TIP3    H239018   4.734   8.152   4.540
13029TIP3   OH239019   4.964   8.905   5.651
13029TIP3    H139020   4.868   8.920   5.640
13029TIP3    H239021   4.990   8.891   5.557
13030TIP3   OH239022   4.440   8.522   5.293
13030TIP3    H139023   4.349   8.495   5.317
13030TIP3    H239024   4.475   8.437   5.258
13031TIP3   OH239025   3.136   8.044   4.770
13031TIP3    H139026   3.181   8.129   4.790
13031TIP3    H239027   3.058   8.050   4.830
13032TIP3   OH239028   3.702   8.522   5.008
13032TIP3    H139029   3.662   8.600   5.050
13032TIP3    H239030   3.678   8.455   5.075
13033TIP3   OH239031   4.231   8.717   5.491
13033TIP3    H139032   4.219   8.730   5.588
13033TIP3    H239033   4.319   8.678   5.487
13034TIP3   OH239034   4.237   8.550   4.345
13034TIP3    H139035   4.269   8.537   4.437
13034TIP3    H239036   4.157   8.604   4.360
13035TIP3   OH239037   3.569   7.861   6.060
13035TIP3    H139038   3.472   7.849   6.065
13035TIP3    H239039   3.599   7.799   6.129
13036TIP3   OH239040   4.361   8.524   4.593
13036TIP3    H139041   4.356   8.452   4.659
13036TIP3    H239042   4.457   8.525   4.573
13037TIP3   OH239043   3.551   8.542   4.425
13037TIP3    H139044   3.592   8.456   4.400
13037TIP3    H239045   3.587   8.557   4.512
13038TIP3   OH239046   3.256   8.286   4.846
13038TIP3    H139047   3.189   8.322   4.909
13038TIP3    H239048   3.259   8.358   4.781
13039TIP3   OH239049   4.401   7.925   5.739
13039TIP3    H139050   4.479   7.972   5.773
13039TIP3    H239051   4.395   7.846   5.797
13040TIP3   OH239052   4.277   7.677   4.910
13040TIP3    H139053   4.264   7.691   4.814
13040TIP3    H239054   4.308   7.765   4.939
13041TIP3   OH239055   3.964   7.861   5.011
13041TIP3    H139056   4.028   7.932   4.994
13041TIP3    H239057   3.971   7.852   5.109
13042TIP3   OH239058   4.238   8.176   5.817
13042TIP3    H139059   4.263   8.230   5.894
13042TIP3    H239060   4.293   8.097   5.830
13043TIP3   OH239061   4.107   7.580   5.110
13043TIP3    H139062   4.101   7.658   5.169
13043TIP3    H239063   4.170   7.614   5.043
13044TIP3   OH239064   3.623   7.586   4.900
13044TIP3    H139065   3.621   7.676   4.939
13044TIP3    H239066   3.719   7.568   4.908
13045TIP3   OH239067   4.872   8.079   5.817
13045TIP3    H139068   4.778   8.066   5.795
13045TIP3    H239069   4.916   8.072   5.730
13046TIP3   OH239070   4.532   8.269   5.188
13046TIP3    H139071   4.453   8.215   5.208
13046TIP3    H239072   4.601   8.224   5.240
13047TIP3   OH239073   3.245   8.502   4.660
13047TIP3    H139074   3.273   8.594   4.649
13047TIP3    H239075   3.302   8.455   4.596
13048TIP3   OH239076   3.182   7.775   4.790
13048TIP3    H139077   3.185   7.872   4.790
13048TIP3    H239078   3.098   7.758   4.744
13049TIP3   OH239079   3.571   7.494   5.661
13049TIP3    H139080   3.542   7.459   5.573
13049TIP3    H239081   3.567   7.415   5.716
13050TIP3   OH239082   3.378   8.641   6.302
13050TIP3    H139083   3.423   8.555   6.312
13050TIP3    H239084   3.307   8.616   6.240
13051TIP3   OH239085   3.372   8.304   4.516
13051TIP3    H139086   3.423   8.270   4.592
13051TIP3    H239087   3.444   8.308   4.449
13052TIP3   OH239088   4.019   8.723   6.122
13052TIP3    H139089   3.988   8.738   6.031
13052TIP3    H239090   4.056   8.633   6.113
13053TIP3   OH239091   3.822   8.483   4.328
13053TIP3    H139092   3.860   8.502   4.415
13053TIP3    H239093   3.855   8.392   4.311
13054TIP3   OH239094   4.495   8.752   5.691
13054TIP3    H139095   4.566   8.803   5.648
13054TIP3    H239096   4.422   8.815   5.685
13055TIP3   OH239097   3.528   8.409   6.287
13055TIP3    H139098   3.601   8.352   6.259
13055TIP3    H239099   3.556   8.432   6.378
13056TIP3   OH239100   3.573   8.217   4.725
13056TIP3    H139101   3.549   8.175   4.810
13056TIP3    H239102   3.616   8.143   4.677
13057TIP3   OH239103   3.851   8.278   5.955
13057TIP3    H139104   3.775   8.340   5.955
13057TIP3    H239105   3.905   8.315   5.880
13058TIP3   OH239106   3.688   8.014   4.572
13058TIP3    H139107   3.664   8.017   4.477
13058TIP3    H239108   3.786   8.015   4.565
13059TIP3   OH239109   4.377   8.672   6.089
13059TIP3    H139110   4.460   8.649   6.045
13059TIP3    H239111   4.375   8.610   6.164
13060TIP3   OH239112   4.499   8.351   4.234
13060TIP3    H139113   4.480   8.298   4.154
13060TIP3    H239114   4.479   8.440   4.199
13061TIP3   OH239115   3.976   8.073   6.084
13061TIP3    H139116   3.978   7.994   6.025
13061TIP3    H239117   3.932   8.139   6.026
13062TIP3   OH239118   3.984   7.857   5.892
13062TIP3    H139119   4.011   7.900   5.809
13062TIP3    H239120   3.891   7.834   5.873
13063TIP3   OH239121   4.001   8.395   5.766
13063TIP3    H139122   4.086   8.405   5.721
13063TIP3    H239123   3.946   8.461   5.720
13064TIP3   OH239124   4.589   8.359   6.144
13064TIP3    H139125   4.640   8.278   6.160
13064TIP3    H239126   4.660   8.420   6.116
13065TIP3   OH239127   4.628   8.609   5.878
13065TIP3    H139128   4.571   8.665   5.819
13065TIP3    H239129   4.717   8.631   5.842
13066TIP3   OH239130   3.852   8.180   6.315
13066TIP3    H139131   3.786   8.109   6.331
13066TIP3    H239132   3.887   8.154   6.228
13067TIP3   OH239133   4.114   7.622   5.968
13067TIP3    H139134   4.069   7.705   5.941
13067TIP3    H239135   4.043   7.556   5.948
13068TIP3   OH239136   4.239   8.123   6.177
13068TIP3    H139137   4.229   8.110   6.273
13068TIP3    H239138   4.148   8.100   6.147
13069TIP3   OH239139   4.472   8.071   6.025
13069TIP3    H139140   4.401   8.076   6.092
13069TIP3    H239141   4.549   8.043   6.079
13070TIP3   OH239142   4.690   8.009   6.177
13070TIP3    H139143   4.712   7.915   6.194
13070TIP3    H239144   4.696   8.049   6.266
13071TIP3   OH239145   3.688   7.965   6.374
13071TIP3    H139146   3.690   7.872   6.342
13071TIP3    H239147   3.728   7.953   6.462
13072TIP3   OH239148   4.196   7.622   6.227
13072TIP3    H139149   4.276   7.568   6.211
13072TIP3    H239150   4.162   7.632   6.135
13073TIP3   OH239151   4.268   7.844   6.380
13073TIP3    H139152   4.245   7.774   6.316
13073TIP3    H239153   4.192   7.904   6.374
13074TIP3   OH239154   2.982   8.410   4.702
13074TIP3    H139155   3.065   8.450   4.668
13074TIP3    H239156   2.969   8.336   4.640
13075TIP3   OH239157   4.851   9.053   5.937
13075TIP3    H139158   4.776   9.019   5.988
13075TIP3    H239159   4.903   9.095   6.012
13076TIP3   OH239160   4.631   8.524   4.575
13076TIP3    H139161   4.702   8.581   4.538
13076TIP3    H239162   4.679   8.486   4.653
13077TIP3   OH239163   4.768   8.402   4.774
13077TIP3    H139164   4.707   8.359   4.837
13077TIP3    H239165   4.843   8.430   4.831
13078TIP3   OH239166   4.803   8.779   5.192
13078TIP3    H139167   4.871   8.719   5.155
13078TIP3    H239168   4.821   8.863   5.147
13079TIP3   OH239169   4.704   8.305   4.418
13079TIP3    H139170   4.635   8.308   4.349
13079TIP3    H239171   4.675   8.379   4.475
13080TIP3   OH239172   4.569   7.975   4.379
13080TIP3    H139173   4.544   8.014   4.294
13080TIP3    H239174   4.549   7.880   4.363
13081TIP3   OH239175   4.583   8.258   4.919
13081TIP3    H139176   4.590   8.162   4.902
13081TIP3    H239177   4.567   8.263   5.016
13082TIP3   OH239178   3.204   8.332   5.661
13082TIP3    H139179   3.209   8.298   5.570
13082TIP3    H239180   3.299   8.333   5.685
13083TIP3   OH239181   4.873   8.676   5.780
13083TIP3    H139182   4.946   8.611   5.773
13083TIP3    H239183   4.902   8.746   5.718
13084TIP3   OH239184   5.062   8.484   5.793
13084TIP3    H139185   4.987   8.431   5.827
13084TIP3    H239186   5.135   8.421   5.810
13085TIP3   OH239187   4.520   7.708   4.349
13085TIP3    H139188   4.597   7.680   4.402
13085TIP3    H239189   4.450   7.646   4.375
13086TIP3   OH239190   4.592   7.973   4.821
13086TIP3    H139191   4.634   7.885   4.834
13086TIP3    H239192   4.642   8.004   4.742
13087TIP3   OH239193   4.750   8.133   5.296
13087TIP3    H139194   4.830   8.187   5.273
13087TIP3    H239195   4.749   8.155   5.392
13088TIP3   OH239196   4.803   8.281   5.527
13088TIP3    H139197   4.732   8.319   5.582
13088TIP3    H239198   4.844   8.362   5.490
13089TIP3   OH239199   3.421   8.004   6.325
13089TIP3    H139200   3.519   8.006   6.331
13089TIP3    H239201   3.403   7.920   6.372
13090TIP3   OH239202   5.251   7.867   6.091
13090TIP3    H139203   5.319   7.809   6.050
13090TIP3    H239204   5.227   7.925   6.016
13091TIP3   OH239205   4.687   7.719   4.891
13091TIP3    H139206   4.774   7.676   4.879
13091TIP3    H239207   4.627   7.642   4.884
13092TIP3   OH239208   3.386   7.706   5.684
13092TIP3    H139209   3.447   7.629   5.687
13092TIP3    H239210   3.450   7.778   5.667
13093TIP3   OH239211   3.188   8.009   5.742
13093TIP3    H139212   3.237   7.978   5.664
13093TIP3    H239213   3.224   8.098   5.751
13094TIP3   OH239214   5.131   8.016   5.900
13094TIP3    H139215   5.045   8.058   5.917
13094TIP3    H239216   5.102   7.943   5.841
13095TIP3   OH239217   4.762   7.649   4.479
13095TIP3    H139218   4.804   7.577   4.429
13095TIP3    H239219   4.835   7.713   4.488
13096TIP3   OH239220   3.175   7.484   5.245
13096TIP3    H139221   3.081   7.477   5.270
13096TIP3    H239222   3.170   7.542   5.166
13097TIP3   OH239223   3.402   7.590   6.067
13097TIP3    H139224   3.351   7.558   6.143
13097TIP3    H239225   3.342   7.570   5.994
13098TIP3   OH239226   5.027   7.781   5.787
13098TIP3    H139227   4.942   7.772   5.741
13098TIP3    H239228   5.069   7.693   5.769
13099TIP3   OH239229   4.236   7.692   5.398
13099TIP3    H139230   4.194   7.623   5.451
13099TIP3    H239231   4.309   7.644   5.354
13100TIP3   OH239232   4.765   7.552   5.295
13100TIP3    H139233   4.823   7.627   5.275
13100TIP3    H239234   4.675   7.591   5.292
13101TIP3   OH239235   3.484   7.403   5.412
13101TIP3    H139236   3.391   7.371   5.419
13101TIP3    H239237   3.531   7.317   5.407
13102TIP3   OH239238   3.273   7.275   5.063
13102TIP3    H139239   3.303   7.331   4.990
13102TIP3    H239240   3.247   7.342   5.130
13103TIP3   OH239241   3.930   7.435   5.296
13103TIP3    H139242   3.987   7.482   5.233
13103TIP3    H239243   3.958   7.474   5.380
13104TIP3   OH239244   4.472   7.582   5.263
13104TIP3    H139245   4.479   7.528   5.183
13104TIP3    H239246   4.465   7.511   5.331
13105TIP3   OH239247   4.505   7.511   4.842
13105TIP3    H139248   4.417   7.550   4.855
13105TIP3    H239249   4.493   7.423   4.885
13106TIP3   OH239250   3.392   7.431   4.825
13106TIP3    H139251   3.440   7.369   4.767
13106TIP3    H239252   3.465   7.485   4.860
13107TIP3   OH239253   3.900   7.610   4.923
13107TIP3    H139254   3.959   7.562   4.984
13107TIP3    H239255   3.922   7.702   4.949
13108TIP3   OH239256   3.689   7.698   6.315
13108TIP3    H139257   3.654   7.615   6.353
13108TIP3    H239258   3.784   7.690   6.339
13109TIP3   OH239259   3.943   7.683   6.425
13109TIP3    H139260   4.030   7.660   6.387
13109TIP3    H239261   3.931   7.612   6.491
13110TIP3   OH239262   4.768   7.743   6.209
13110TIP3    H139263   4.789   7.713   6.301
13110TIP3    H239264   4.857   7.742   6.168
13111TIP3   OH239265   5.976   8.653   4.476
13111TIP3    H139266   5.938   8.738   4.447
13111TIP3    H239267   5.904   8.594   4.449
13112TIP3   OH239268   5.961   8.663   4.859
13112TIP3    H139269   5.998   8.637   4.945
13112TIP3    H239270   5.924   8.578   4.830
13113TIP3   OH239271   5.264   8.560   5.221
13113TIP3    H139272   5.293   8.489   5.281
13113TIP3    H239273   5.347   8.607   5.207
13114TIP3   OH239274   6.189   8.963   4.545
13114TIP3    H139275   6.182   8.887   4.607
13114TIP3    H239276   6.245   9.022   4.597
13115TIP3   OH239277   5.290   8.918   5.007
13115TIP3    H139278   5.268   8.824   4.986
13115TIP3    H239279   5.376   8.927   4.962
13116TIP3   OH239280   4.940   8.171   4.737
13116TIP3    H139281   4.885   8.251   4.736
13116TIP3    H239282   4.891   8.113   4.676
13117TIP3   OH239283   5.003   8.457   4.906
13117TIP3    H139284   5.051   8.376   4.936
13117TIP3    H239285   5.074   8.503   4.858
13118TIP3   OH239286   5.783   8.885   4.885
13118TIP3    H139287   5.830   8.802   4.861
13118TIP3    H239288   5.859   8.942   4.904
13119TIP3   OH239289   6.779   8.210   4.904
13119TIP3    H139290   6.802   8.291   4.950
13119TIP3    H239291   6.808   8.228   4.813
13120TIP3   OH239292   6.184   8.399   4.927
13120TIP3    H139293   6.227   8.315   4.951
13120TIP3    H239294   6.151   8.378   4.837
13121TIP3   OH239295   5.533   8.059   4.896
13121TIP3    H139296   5.503   8.129   4.834
13121TIP3    H239297   5.493   7.980   4.854
13122TIP3   OH239298   6.218   8.144   4.515
13122TIP3    H139299   6.286   8.129   4.584
13122TIP3    H239300   6.275   8.180   4.444
13123TIP3   OH239301   5.156   8.248   5.005
13123TIP3    H139302   5.240   8.230   5.054
13123TIP3    H239303   5.175   8.197   4.924
13124TIP3   OH239304   5.592   8.453   4.802
13124TIP3    H139305   5.686   8.428   4.813
13124TIP3    H239306   5.553   8.369   4.771
13125TIP3   OH239307   5.509   8.038   5.325
13125TIP3    H139308   5.444   8.066   5.257
13125TIP3    H239309   5.458   8.056   5.406
13126TIP3   OH239310   5.855   8.855   4.335
13126TIP3    H139311   5.804   8.855   4.253
13126TIP3    H239312   5.878   8.948   4.347
13127TIP3   OH239313   5.625   8.819   5.121
13127TIP3    H139314   5.568   8.886   5.162
13127TIP3    H239315   5.657   8.866   5.042
13128TIP3   OH239316   6.421   8.152   4.693
13128TIP3    H139317   6.407   8.104   4.776
13128TIP3    H239318   6.474   8.228   4.722
13129TIP3   OH239319   5.393   8.164   5.109
13129TIP3    H139320   5.462   8.228   5.137
13129TIP3    H239321   5.440   8.116   5.038
13130TIP3   OH239322   5.450   9.026   5.225
13130TIP3    H139323   5.421   9.029   5.131
13130TIP3    H239324   5.363   9.015   5.268
13131TIP3   OH239325   4.841   8.663   4.467
13131TIP3    H139326   4.810   8.680   4.375
13131TIP3    H239327   4.860   8.754   4.494
13132TIP3   OH239328   6.558   8.107   5.057
13132TIP3    H139329   6.474   8.131   5.011
13132TIP3    H239330   6.627   8.139   4.996
13133TIP3   OH239331   5.874   7.756   5.048
13133TIP3    H139332   5.856   7.662   5.068
13133TIP3    H239333   5.799   7.799   5.097
13134TIP3   OH239334   6.219   8.984   4.261
13134TIP3    H139335   6.195   8.901   4.214
13134TIP3    H239336   6.232   8.954   4.352
13135TIP3   OH239337   5.805   8.513   4.306
13135TIP3    H139338   5.724   8.566   4.290
13135TIP3    H239339   5.848   8.515   4.219
13136TIP3   OH239340   5.762   8.308   4.012
13136TIP3    H139341   5.827   8.358   4.064
13136TIP3    H239342   5.821   8.243   3.967
13137TIP3   OH239343   6.153   8.594   4.277
13137TIP3    H139344   6.099   8.614   4.356
13137TIP3    H239345   6.238   8.569   4.320
13138TIP3   OH239346   5.391   8.598   4.680
13138TIP3    H139347   5.348   8.537   4.617
13138TIP3    H239348   5.465   8.544   4.715
13139TIP3   OH239349   5.521   8.968   4.887
13139TIP3    H139350   5.482   8.964   4.797
13139TIP3    H239351   5.616   8.955   4.868
13140TIP3   OH239352   5.507   8.578   5.042
13140TIP3    H139353   5.545   8.546   4.957
13140TIP3    H239354   5.557   8.660   5.059
13141TIP3   OH239355   5.544   9.072   5.498
13141TIP3    H139356   5.568   9.153   5.466
13141TIP3    H239357   5.509   9.029   5.416
13142TIP3   OH239358   5.987   8.461   4.100
13142TIP3    H139359   6.047   8.520   4.150
13142TIP3    H239360   6.018   8.477   4.007
13143TIP3   OH239361   5.412   8.674   5.460
13143TIP3    H139362   5.411   8.752   5.520
13143TIP3    H239363   5.318   8.648   5.466
13144TIP3   OH239364   6.501   7.705   4.129
13144TIP3    H139365   6.430   7.720   4.194
13144TIP3    H239366   6.512   7.794   4.090
13145TIP3   OH239367   5.254   8.441   4.494
13145TIP3    H139368   5.182   8.477   4.438
13145TIP3    H239369   5.227   8.349   4.507
13146TIP3   OH239370   5.043   8.824   5.403
13146TIP3    H139371   4.981   8.795   5.334
13146TIP3    H239372   5.082   8.740   5.434
13147TIP3   OH239373   5.236   9.017   5.407
13147TIP3    H139374   5.279   8.964   5.478
13147TIP3    H239375   5.156   8.962   5.393
13148TIP3   OH239376   5.647   7.841   5.179
13148TIP3    H139377   5.565   7.797   5.146
13148TIP3    H239378   5.606   7.918   5.223
13149TIP3   OH239379   6.167   7.944   5.377
13149TIP3    H139380   6.224   7.902   5.443
13149TIP3    H239381   6.078   7.924   5.412
13150TIP3   OH239382   6.066   8.487   3.842
13150TIP3    H139383   6.035   8.467   3.752
13150TIP3    H239384   6.130   8.558   3.825
13151TIP3   OH239385   5.778   7.883   4.147
13151TIP3    H139386   5.746   7.880   4.240
13151TIP3    H239387   5.740   7.799   4.114
13152TIP3   OH239388   5.571   8.357   5.192
13152TIP3    H139389   5.524   8.375   5.276
13152TIP3    H239390   5.550   8.437   5.141
13153TIP3   OH239391   5.443   8.238   4.712
13153TIP3    H139392   5.352   8.205   4.730
13153TIP3    H239393   5.458   8.198   4.623
13154TIP3   OH239394   5.946   8.320   4.439
13154TIP3    H139395   5.891   8.387   4.392
13154TIP3    H239396   5.999   8.284   4.365
13155TIP3   OH239397   6.098   8.345   4.671
13155TIP3    H139398   6.034   8.370   4.602
13155TIP3    H239399   6.134   8.265   4.629
13156TIP3   OH239400   5.380   8.375   5.400
13156TIP3    H139401   5.438   8.426   5.459
13156TIP3    H239402   5.371   8.291   5.449
13157TIP3   OH239403   5.433   7.851   4.106
13157TIP3    H139404   5.429   7.845   4.204
13157TIP3    H239405   5.358   7.911   4.090
13158TIP3   OH239406   4.990   7.908   4.974
13158TIP3    H139407   5.065   7.894   5.035
13158TIP3    H239408   5.022   7.863   4.895
13159TIP3   OH239409   6.076   8.585   5.095
13159TIP3    H139410   6.127   8.521   5.039
13159TIP3    H239411   6.053   8.527   5.171
13160TIP3   OH239412   5.781   8.061   4.765
13160TIP3    H139413   5.700   8.061   4.819
13160TIP3    H239414   5.850   8.045   4.832
13161TIP3   OH239415   5.204   8.112   4.768
13161TIP3    H139416   5.109   8.128   4.749
13161TIP3    H239417   5.217   8.031   4.715
13162TIP3   OH239418   5.479   8.120   4.471
13162TIP3    H139419   5.572   8.125   4.443
13162TIP3    H239420   5.429   8.129   4.387
13163TIP3   OH239421   6.268   8.135   4.968
13163TIP3    H139422   6.242   8.146   5.062
13163TIP3    H239423   6.201   8.072   4.938
13164TIP3   OH239424   5.327   8.153   4.245
13164TIP3    H139425   5.255   8.104   4.202
13164TIP3    H239426   5.377   8.185   4.167
13165TIP3   OH239427   5.373   8.893   5.615
13165TIP3    H139428   5.448   8.964   5.597
13165TIP3    H239429   5.344   8.913   5.700
13166TIP3   OH239430   5.857   8.389   4.868
13166TIP3    H139431   5.927   8.340   4.824
13166TIP3    H239432   5.854   8.345   4.956
13167TIP3   OH239433   5.408   7.862   4.756
13167TIP3    H139434   5.354   7.795   4.803
13167TIP3    H239435   5.399   7.833   4.664
13168TIP3   OH239436   5.834   8.290   5.135
13168TIP3    H139437   5.744   8.319   5.161
13168TIP3    H239438   5.891   8.338   5.198
13169TIP3   OH239439   5.573   8.659   4.258
13169TIP3    H139440   5.498   8.597   4.245
13169TIP3    H239441   5.548   8.703   4.342
13170TIP3   OH239442   6.025   7.991   4.098
13170TIP3    H139443   5.932   7.967   4.121
13170TIP3    H239444   6.036   8.079   4.139
13171TIP3   OH239445   6.100   8.230   4.219
13171TIP3    H139446   6.195   8.235   4.238
13171TIP3    H239447   6.083   8.313   4.170
13172TIP3   OH239448   5.252   8.655   4.915
13172TIP3    H139449   5.300   8.643   4.829
13172TIP3    H239450   5.311   8.607   4.976
13173TIP3   OH239451   5.679   8.843   4.088
13173TIP3    H139452   5.640   8.914   4.144
13173TIP3    H239453   5.646   8.765   4.137
13174TIP3   OH239454   5.149   8.609   5.542
13174TIP3    H139455   5.161   8.592   5.638
13174TIP3    H239456   5.080   8.543   5.520
13175TIP3   OH239457   6.538   8.325   4.051
13175TIP3    H139458   6.477   8.281   3.988
13175TIP3    H239459   6.533   8.416   4.013
13176TIP3   OH239460   6.201   8.780   4.765
13176TIP3    H139461   6.118   8.731   4.785
13176TIP3    H239462   6.263   8.706   4.750
13177TIP3   OH239463   4.928   8.311   4.252
13177TIP3    H139464   4.975   8.393   4.277
13177TIP3    H239465   4.855   8.310   4.317
13178TIP3   OH239466   5.499   8.781   4.495
13178TIP3    H139467   5.454   8.854   4.542
13178TIP3    H239468   5.479   8.710   4.559
13179TIP3   OH239469   6.034   8.967   4.981
13179TIP3    H139470   5.999   8.927   5.062
13179TIP3    H239471   6.091   8.898   4.943
13180TIP3   OH239472   6.032   8.807   3.832
13180TIP3    H139473   6.064   8.793   3.924
13180TIP3    H239474   5.951   8.860   3.846
13181TIP3   OH239475   5.351   8.121   5.540
13181TIP3    H139476   5.256   8.105   5.548
13181TIP3    H239477   5.385   8.069   5.616
13182TIP3   OH239478   6.157   8.777   4.078
13182TIP3    H139479   6.152   8.708   4.147
13182TIP3    H239480   6.254   8.779   4.060
13183TIP3   OH239481   5.355   8.802   3.909
13183TIP3    H139482   5.388   8.712   3.888
13183TIP3    H239483   5.374   8.810   4.002
13184TIP3   OH239484   5.051   8.546   4.337
13184TIP3    H139485   4.984   8.581   4.398
13184TIP3    H239486   5.055   8.619   4.271
13185TIP3   OH239487   6.203   8.179   5.232
13185TIP3    H139488   6.256   8.229   5.296
13185TIP3    H239489   6.182   8.097   5.282
13186TIP3   OH239490   6.080   7.933   4.398
13186TIP3    H139491   6.069   7.960   4.306
13186TIP3    H239492   6.120   8.013   4.438
13187TIP3   OH239493   5.766   8.118   4.497
13187TIP3    H139494   5.830   8.191   4.486
13187TIP3    H239495   5.768   8.106   4.594
13188TIP3   OH239496   6.006   8.420   5.307
13188TIP3    H139497   5.995   8.432   5.403
13188TIP3    H239498   6.091   8.372   5.307
13189TIP3   OH239499   5.907   7.835   4.598
13189TIP3    H139500   5.909   7.908   4.663
13189TIP3    H239501   5.968   7.871   4.529
13190TIP3   OH239502   5.425   7.834   4.375
13190TIP3    H139503   5.383   7.902   4.430
13190TIP3    H239504   5.519   7.843   4.399
13191TIP3   OH239505   6.323   8.529   4.671
13191TIP3    H139506   6.247   8.471   4.687
13191TIP3    H239507   6.394   8.484   4.722
13192TIP3   OH239508   5.039   8.759   4.147
13192TIP3    H139509   5.069   8.851   4.135
13192TIP3    H239510   5.096   8.710   4.084
13193TIP3   OH239511   4.962   8.027   4.222
13193TIP3    H139512   4.975   8.119   4.246
13193TIP3    H239513   4.983   7.983   4.308
13194TIP3   OH239514   5.403   7.736   5.135
13194TIP3    H139515   5.343   7.730   5.059
13194TIP3    H239516   5.355   7.687   5.203
13195TIP3   OH239517   5.187   8.891   5.815
13195TIP3    H139518   5.219   8.800   5.799
13195TIP3    H239519   5.104   8.893   5.761
13196TIP3   OH239520   5.170   8.565   4.003
13196TIP3    H139521   5.216   8.524   4.079
13196TIP3    H239522   5.243   8.564   3.937
13197TIP3   OH239523   5.628   8.741   3.807
13197TIP3    H139524   5.650   8.758   3.900
13197TIP3    H239525   5.656   8.648   3.796
13198TIP3   OH239526   5.313   8.654   5.794
13198TIP3    H139527   5.385   8.606   5.751
13198TIP3    H239528   5.303   8.599   5.875
13199TIP3   OH239529   5.371   8.472   4.213
13199TIP3    H139530   5.346   8.431   4.298
13199TIP3    H239531   5.412   8.396   4.166
13200TIP3   OH239532   5.638   8.525   5.439
13200TIP3    H139533   5.568   8.592   5.438
13200TIP3    H239534   5.706   8.569   5.382
13201TIP3   OH239535   5.484   8.271   4.054
13201TIP3    H139536   5.460   8.275   3.959
13201TIP3    H239537   5.582   8.273   4.049
13202TIP3   OH239538   6.298   8.610   3.717
13202TIP3    H139539   6.277   8.556   3.639
13202TIP3    H239540   6.276   8.699   3.683
13203TIP3   OH239541   5.753   8.319   5.573
13203TIP3    H139542   5.761   8.243   5.512
13203TIP3    H239543   5.716   8.388   5.514
13204TIP3   OH239544   5.765   8.120   5.376
13204TIP3    H139545   5.798   8.152   5.290
13204TIP3    H239546   5.673   8.095   5.354
13205TIP3   OH239547   5.795   8.652   5.258
13205TIP3    H139548   5.875   8.641   5.206
13205TIP3    H239549   5.742   8.714   5.204
13206TIP3   OH239550   5.640   8.439   5.795
13206TIP3    H139551   5.569   8.375   5.815
13206TIP3    H239552   5.674   8.403   5.710
13207TIP3   OH239553   5.906   7.881   5.441
13207TIP3    H139554   5.848   7.957   5.420
13207TIP3    H239555   5.845   7.805   5.429
13208TIP3   OH239556   6.024   8.389   5.587
13208TIP3    H139557   6.062   8.394   5.675
13208TIP3    H239558   5.933   8.358   5.605
13209TIP3   OH239559   5.487   8.213   5.852
13209TIP3    H139560   5.489   8.122   5.817
13209TIP3    H239561   5.524   8.199   5.941
13210TIP3   OH239562   5.972   7.884   5.711
13210TIP3    H139563   6.054   7.829   5.710
13210TIP3    H239564   5.947   7.878   5.616
13211TIP3   OH239565   6.036   8.087   5.880
13211TIP3    H139566   6.020   8.011   5.820
13211TIP3    H239567   5.966   8.149   5.855
13212TIP3   OH239568   4.776   8.669   4.186
13212TIP3    H139569   4.860   8.707   4.154
13212TIP3    H239570   4.764   8.593   4.126
13213TIP3   OH239571   6.428   8.777   4.061
13213TIP3    H139572   6.499   8.837   4.030
13213TIP3    H239573   6.473   8.738   4.139
13214TIP3   OH239574   6.560   8.650   4.259
13214TIP3    H139575   6.501   8.608   4.324
13214TIP3    H239576   6.634   8.683   4.314
13215TIP3   OH239577   6.497   8.560   3.902
13215TIP3    H139578   6.425   8.568   3.836
13215TIP3    H239579   6.472   8.634   3.961
13216TIP3   OH239580   6.376   8.233   3.853
13216TIP3    H139581   6.322   8.264   3.780
13216TIP3    H239582   6.355   8.137   3.851
13217TIP3   OH239583   6.379   8.507   4.406
13217TIP3    H139584   6.388   8.411   4.398
13217TIP3    H239585   6.364   8.519   4.502
13218TIP3   OH239586   5.002   8.593   5.153
13218TIP3    H139587   5.001   8.554   5.063
13218TIP3    H239588   5.099   8.592   5.170
13219TIP3   OH239589   6.320   7.967   3.837
13219TIP3    H139590   6.400   7.939   3.888
13219TIP3    H239591   6.252   7.906   3.868
13220TIP3   OH239592   6.376   8.224   4.295
13220TIP3    H139593   6.416   8.135   4.312
13220TIP3    H239594   6.437   8.256   4.226
13221TIP3   OH239595   6.537   8.402   4.793
13221TIP3    H139596   6.622   8.429   4.753
13221TIP3    H239597   6.552   8.439   4.882
13222TIP3   OH239598   5.218   8.263   5.808
13222TIP3    H139599   5.314   8.272   5.825
13222TIP3    H239600   5.201   8.177   5.853
13223TIP3   OH239601   6.485   7.976   4.336
13223TIP3    H139602   6.536   7.957   4.418
13223TIP3    H239603   6.425   7.899   4.334
13224TIP3   OH239604   4.975   8.246   5.211
13224TIP3    H139605   5.042   8.231   5.141
13224TIP3    H239606   5.017   8.321   5.258
13225TIP3   OH239607   6.563   7.917   3.960
13225TIP3    H139608   6.610   7.837   3.928
13225TIP3    H239609   6.637   7.981   3.967
13226TIP3   OH239610   4.952   7.731   4.708
13226TIP3    H139611   4.882   7.797   4.715
13226TIP3    H239612   5.019   7.783   4.658
13227TIP3   OH239613   5.205   7.821   5.543
13227TIP3    H139614   5.133   7.844   5.603
13227TIP3    H239615   5.162   7.841   5.457
13228TIP3   OH239616   6.815   8.019   5.237
13228TIP3    H139617   6.721   7.997   5.238
13228TIP3    H239618   6.856   7.931   5.235
13229TIP3   OH239619   6.024   7.946   4.877
13229TIP3    H139620   5.988   7.880   4.939
13229TIP3    H239621   6.105   7.903   4.845
13230TIP3   OH239622   6.555   7.830   4.793
13230TIP3    H139623   6.592   7.879   4.717
13230TIP3    H239624   6.460   7.850   4.785
13231TIP3   OH239625   6.654   7.922   4.551
13231TIP3    H139626   6.729   7.866   4.524
13231TIP3    H239627   6.691   8.012   4.536
13232TIP3   OH239628   5.263   7.662   4.890
13232TIP3    H139629   5.174   7.622   4.903
13232TIP3    H239630   5.319   7.583   4.891
13233TIP3   OH239631   5.060   7.527   4.543
13233TIP3    H139632   5.095   7.585   4.473
13233TIP3    H239633   5.030   7.592   4.609
13234TIP3   OH239634   5.736   7.680   4.782
13234TIP3    H139635   5.787   7.738   4.723
13234TIP3    H239636   5.743   7.728   4.866
13235TIP3   OH239637   6.269   7.842   4.764
13235TIP3    H139638   6.276   7.801   4.677
13235TIP3    H239639   6.253   7.763   4.820
13236TIP3   OH239640   6.302   7.767   4.324
13236TIP3    H139641   6.217   7.807   4.348
13236TIP3    H239642   6.294   7.679   4.368
13237TIP3   OH239643   5.163   7.680   4.307
13237TIP3    H139644   5.254   7.660   4.279
13237TIP3    H239645   5.178   7.757   4.368
13238TIP3   OH239646   5.700   7.870   4.410
13238TIP3    H139647   5.756   7.823   4.474
13238TIP3    H239648   5.722   7.963   4.437
13239TIP3   OH239649   5.490   7.937   5.791
13239TIP3    H139650   5.454   7.865   5.846
13239TIP3    H239651   5.584   7.936   5.820
13240TIP3   OH239652   5.741   7.941   5.914
13240TIP3    H139653   5.822   7.919   5.866
13240TIP3    H239654   5.732   7.866   5.976
13241TIP3   OH239655   6.743   8.429   4.206
13241TIP3    H139656   6.699   8.513   4.228
13241TIP3    H239657   6.669   8.379   4.167
13242TIP3   OH239658   6.800   8.709   4.371
13242TIP3    H139659   6.847   8.643   4.426
13242TIP3    H239660   6.874   8.752   4.327
13243TIP3   OH239661   7.297   8.315   4.398
13243TIP3    H139662   7.285   8.384   4.332
13243TIP3    H239663   7.256   8.239   4.353
13244TIP3   OH239664   6.955   8.516   4.493
13244TIP3    H139665   7.048   8.511   4.520
13244TIP3    H239666   6.956   8.453   4.418
13245TIP3   OH239667   6.641   8.923   3.970
13245TIP3    H139668   6.621   8.960   3.882
13245TIP3    H239669   6.687   8.997   4.010
13246TIP3   OH239670   7.014   8.683   3.914
13246TIP3    H139671   7.020   8.770   3.959
13246TIP3    H239672   6.996   8.624   3.987
13247TIP3   OH239673   7.227   8.473   4.179
13247TIP3    H139674   7.142   8.443   4.218
13247TIP3    H239675   7.199   8.507   4.094
13248TIP3   OH239676   7.212   8.090   3.592
13248TIP3    H139677   7.212   8.086   3.690
13248TIP3    H239678   7.127   8.132   3.574
13249TIP3   OH239679   6.774   8.152   4.476
13249TIP3    H139680   6.853   8.188   4.521
13249TIP3    H239681   6.807   8.123   4.389
13250TIP3   OH239682   6.745   8.133   3.988
13250TIP3    H139683   6.794   8.165   3.910
13250TIP3    H239684   6.686   8.209   4.006
13251TIP3   OH239685   6.998   8.362   4.269
13251TIP3    H139686   6.904   8.371   4.239
13251TIP3    H239687   7.019   8.269   4.250
13252TIP3   OH239688   7.067   8.383   3.764
13252TIP3    H139689   7.000   8.337   3.710
13252TIP3    H239690   7.070   8.470   3.722
13253TIP3   OH239691   7.175   8.125   4.229
13253TIP3    H139692   7.142   8.052   4.287
13253TIP3    H239693   7.238   8.077   4.175
13254TIP3   OH239694   6.719   8.552   3.743
13254TIP3    H139695   6.769   8.628   3.776
13254TIP3    H239696   6.639   8.556   3.802
13255TIP3   OH239697   7.189   8.094   3.869
13255TIP3    H139698   7.170   8.181   3.904
13255TIP3    H239699   7.281   8.080   3.901
13256TIP3   OH239700   6.767   8.283   3.750
13256TIP3    H139701   6.764   8.381   3.756
13256TIP3    H239702   6.675   8.261   3.731
13257TIP3   OH239703   7.137   8.013   4.642
13257TIP3    H139704   7.137   7.970   4.554
13257TIP3    H239705   7.150   7.937   4.702
13258TIP3   OH239706   6.549   8.934   3.643
13258TIP3    H139707   6.639   8.963   3.630
13258TIP3    H239708   6.548   8.849   3.593
13259TIP3   OH239709   6.981   8.231   4.643
13259TIP3    H139710   7.028   8.144   4.643
13259TIP3    H239711   7.055   8.288   4.665
13260TIP3   OH239712   6.787   8.501   4.721
13260TIP3    H139713   6.836   8.475   4.641
13260TIP3    H239714   6.819   8.592   4.733
13261TIP3   OH239715   6.769   8.011   4.232
13261TIP3    H139716   6.676   7.990   4.249
13261TIP3    H239717   6.766   8.052   4.143
13262TIP3   OH239718   6.998   8.077   5.046
13262TIP3    H139719   6.932   8.077   5.119
13262TIP3    H239720   6.941   8.104   4.973
13263TIP3   OH239721   7.100   7.913   4.384
13263TIP3    H139722   7.007   7.895   4.364
13263TIP3    H239723   7.123   7.819   4.399
13264TIP3   OH239724   6.832   7.786   4.004
13264TIP3    H139725   6.882   7.848   3.950
13264TIP3    H239726   6.855   7.812   4.095
13265TIP3   OH239727   7.511   7.940   4.289
13265TIP3    H139728   7.587   7.987   4.254
13265TIP3    H239729   7.493   7.985   4.372
13266TIP3   OH239730   6.975   7.943   3.790
13266TIP3    H139731   7.023   7.877   3.736
13266TIP3    H239732   7.050   7.995   3.826
13267TIP3   OH239733   7.452   8.103   3.936
13267TIP3    H139734   7.485   8.020   3.893
13267TIP3    H239735   7.505   8.166   3.884
13268TIP3   OH239736   4.609   1.747   7.954
13268TIP3    H139737   4.623   1.841   7.929
13268TIP3    H239738   4.699   1.711   7.935
13269TIP3   OH239739   4.163   1.975   8.030
13269TIP3    H139740   4.211   1.892   8.015
13269TIP3    H239741   4.128   1.964   8.121
13270TIP3   OH239742   4.364   1.237   8.093
13270TIP3    H139743   4.328   1.202   8.009
13270TIP3    H239744   4.459   1.246   8.069
13271TIP3   OH239745   4.524   1.808   8.209
13271TIP3    H139746   4.522   1.716   8.237
13271TIP3    H239747   4.567   1.799   8.121
13272TIP3   OH239748   4.642   2.017   7.934
13272TIP3    H139749   4.684   2.088   7.883
13272TIP3    H239750   4.561   2.065   7.960
13273TIP3   OH239751   3.806   1.713   7.999
13273TIP3    H139752   3.824   1.631   8.049
13273TIP3    H239753   3.888   1.719   7.948
13274TIP3   OH239754   4.286   1.741   7.933
13274TIP3    H139755   4.372   1.750   7.978
13274TIP3    H239756   4.314   1.751   7.840
13275TIP3   OH239757   4.605   1.275   7.968
13275TIP3    H139758   4.592   1.218   7.891
13275TIP3    H239759   4.575   1.361   7.932
13276TIP3   OH239760   4.825   1.313   8.130
13276TIP3    H139761   4.743   1.290   8.083
13276TIP3    H239762   4.807   1.284   8.222
13277TIP3   OH239763   4.567   2.091   8.254
13277TIP3    H139764   4.564   1.995   8.240
13277TIP3    H239765   4.529   2.125   8.170
13278TIP3   OH239766   6.046   1.613   8.227
13278TIP3    H139767   6.024   1.701   8.191
13278TIP3    H239768   5.987   1.558   8.170
13279TIP3   OH239769   6.271   1.874   8.268
13279TIP3    H139770   6.199   1.840   8.325
13279TIP3    H239771   6.291   1.961   8.308
13280TIP3   OH239772   5.950   2.353   8.265
13280TIP3    H139773   6.011   2.281   8.242
13280TIP3    H239774   5.950   2.354   8.363
13281TIP3   OH239775   5.964   1.824   8.074
13281TIP3    H139776   5.919   1.806   7.990
13281TIP3    H239777   5.919   1.907   8.100
13282TIP3   OH239778   4.935   1.631   8.175
13282TIP3    H139779   4.889   1.631   8.089
13282TIP3    H239780   4.956   1.726   8.187
13283TIP3   OH239781   6.345   2.114   8.373
13283TIP3    H139782   6.269   2.131   8.432
13283TIP3    H239783   6.371   2.206   8.352
13284TIP3   OH239784   6.098   2.181   8.117
13284TIP3    H139785   6.147   2.102   8.086
13284TIP3    H239786   6.154   2.251   8.077
13285TIP3   OH239787   6.231   1.968   8.012
13285TIP3    H139788   6.184   1.899   7.963
13285TIP3    H239789   6.245   1.924   8.098
13286TIP3   OH239790   5.905   1.482   8.032
13286TIP3    H139791   5.819   1.525   8.012
13286TIP3    H239792   5.943   1.470   7.943
13287TIP3   OH239793   5.860   1.236   7.758
13287TIP3    H139794   5.930   1.289   7.800
13287TIP3    H239795   5.914   1.174   7.704
13288TIP3   OH239796   6.232   1.556   8.019
13288TIP3    H139797   6.170   1.590   8.087
13288TIP3    H239798   6.289   1.504   8.080
13289TIP3   OH239799   6.134   2.153   8.546
13289TIP3    H139800   6.201   2.213   8.588
13289TIP3    H239801   6.138   2.074   8.601
13290TIP3   OH239802   6.086   1.403   7.834
13290TIP3    H139803   6.144   1.466   7.882
13290TIP3    H239804   6.113   1.420   7.741
13291TIP3   OH239805   5.836   2.068   8.110
13291TIP3    H139806   5.913   2.122   8.137
13291TIP3    H239807   5.777   2.134   8.072
13292TIP3   OH239808   5.363   1.345   8.186
13292TIP3    H139809   5.285   1.395   8.155
13292TIP3    H239810   5.331   1.307   8.269
13293TIP3   OH239811   6.407   1.998   7.441
13293TIP3    H139812   6.416   2.094   7.424
13293TIP3    H239813   6.499   1.968   7.426
13294TIP3   OH239814   5.717   2.314   7.919
13294TIP3    H139815   5.670   2.301   7.835
13294TIP3    H239816   5.685   2.402   7.948
13295TIP3   OH239817   5.138   2.152   8.274
13295TIP3    H139818   5.145   2.104   8.358
13295TIP3    H239819   5.052   2.122   8.243
13296TIP3   OH239820   5.915   2.218   7.557
13296TIP3    H139821   5.975   2.148   7.522
13296TIP3    H239822   5.950   2.229   7.648
13297TIP3   OH239823   5.967   2.265   7.827
13297TIP3    H139824   5.879   2.276   7.869
13297TIP3    H239825   6.019   2.231   7.901
13298TIP3   OH239826   6.161   1.445   7.581
13298TIP3    H139827   6.128   1.410   7.496
13298TIP3    H239828   6.250   1.476   7.554
13299TIP3   OH239829   5.998   1.253   8.147
13299TIP3    H139830   5.965   1.337   8.113
13299TIP3    H239831   6.061   1.225   8.078
13300TIP3   OH239832   5.553   1.035   8.210
13300TIP3    H139833   5.644   1.028   8.175
13300TIP3    H239834   5.501   1.048   8.128
13301TIP3   OH239835   5.407   1.053   7.974
13301TIP3    H139836   5.345   1.032   7.901
13301TIP3    H239837   5.474   1.103   7.923
13302TIP3   OH239838   5.662   1.602   7.974
13302TIP3    H139839   5.593   1.534   7.959
13302TIP3    H239840   5.635   1.638   8.062
13303TIP3   OH239841   6.106   0.959   7.790
13303TIP3    H139842   6.048   0.905   7.847
13303TIP3    H239843   6.126   1.033   7.851
13304TIP3   OH239844   6.169   1.169   7.953
13304TIP3    H139845   6.262   1.179   7.983
13304TIP3    H239846   6.157   1.251   7.900
13305TIP3   OH239847   5.820   1.754   7.814
13305TIP3    H139848   5.770   1.840   7.816
13305TIP3    H239849   5.761   1.698   7.869
13306TIP3   OH239850   6.349   2.071   7.706
13306TIP3    H139851   6.309   2.004   7.763
13306TIP3    H239852   6.357   2.027   7.620
13307TIP3   OH239853   5.437   1.938   8.265
13307TIP3    H139854   5.497   2.009   8.237
13307TIP3    H239855   5.353   1.976   8.235
13308TIP3   OH239856   5.040   1.238   7.984
13308TIP3    H139857   5.097   1.313   8.010
13308TIP3    H239858   4.962   1.258   8.040
13309TIP3   OH239859   5.592   1.712   8.207
13309TIP3    H139860   5.545   1.793   8.236
13309TIP3    H239861   5.640   1.687   8.290
13310TIP3   OH239862   5.379   2.185   8.129
13310TIP3    H139863   5.292   2.193   8.171
13310TIP3    H239864   5.414   2.277   8.139
13311TIP3   OH239865   6.095   1.806   7.599
13311TIP3    H139866   6.148   1.780   7.678
13311TIP3    H239867   6.007   1.774   7.627
13312TIP3   OH239868   6.439   2.273   7.424
13312TIP3    H139869   6.474   2.346   7.371
13312TIP3    H239870   6.358   2.316   7.458
13313TIP3   OH239871   6.244   1.742   7.817
13313TIP3    H139872   6.237   1.677   7.890
13313TIP3    H239873   6.341   1.738   7.801
13314TIP3   OH239874   5.462   1.779   7.605
13314TIP3    H139875   5.478   1.686   7.582
13314TIP3    H239876   5.441   1.771   7.701
13315TIP3   OH239877   5.404   1.786   7.877
13315TIP3    H139878   5.476   1.755   7.934
13315TIP3    H239879   5.411   1.884   7.886
13316TIP3   OH239880   5.146   1.482   8.085
13316TIP3    H139881   5.068   1.519   8.132
13316TIP3    H239882   5.159   1.551   8.017
13317TIP3   OH239883   5.675   1.981   7.821
13317TIP3    H139884   5.588   2.004   7.859
13317TIP3    H239885   5.692   2.061   7.770
13318TIP3   OH239886   5.834   1.031   8.163
13318TIP3    H139887   5.884   1.114   8.146
13318TIP3    H239888   5.856   1.017   8.256
13319TIP3   OH239889   5.421   2.058   7.893
13319TIP3    H139890   5.392   2.127   7.829
13319TIP3    H239891   5.407   2.105   7.978
13320TIP3   OH239892   5.134   1.685   7.881
13320TIP3    H139893   5.206   1.750   7.893
13320TIP3    H239894   5.180   1.624   7.818
13321TIP3   OH239895   5.054   0.945   7.950
13321TIP3    H139896   5.066   1.039   7.971
13321TIP3    H239897   5.017   0.913   8.034
13322TIP3   OH239898   6.426   2.379   8.322
13322TIP3    H139899   6.359   2.431   8.273
13322TIP3    H239900   6.491   2.448   8.337
13323TIP3   OH239901   4.995   1.880   8.250
13323TIP3    H139902   4.971   1.930   8.331
13323TIP3    H239903   4.960   1.939   8.179
13324TIP3   OH239904   5.625   1.982   7.512
13324TIP3    H139905   5.569   1.911   7.553
13324TIP3    H239906   5.702   1.930   7.485
13325TIP3   OH239907   6.062   2.023   7.428
13325TIP3    H139908   6.099   1.956   7.488
13325TIP3    H239909   6.120   2.017   7.350
13326TIP3   OH239910   5.274   1.498   7.742
13326TIP3    H139911   5.331   1.466   7.815
13326TIP3    H239912   5.341   1.503   7.670
13327TIP3   OH239913   5.785   1.702   7.545
13327TIP3    H139914   5.788   1.713   7.643
13327TIP3    H239915   5.789   1.604   7.539
13328TIP3   OH239916   5.471   1.411   7.944
13328TIP3    H139917   5.444   1.382   8.034
13328TIP3    H239918   5.510   1.328   7.908
13329TIP3   OH239919   5.580   1.195   7.808
13329TIP3    H139920   5.555   1.203   7.714
13329TIP3    H239921   5.678   1.196   7.800
13330TIP3   OH239922   6.391   1.525   7.458
13330TIP3    H139923   6.372   1.482   7.373
13330TIP3    H239924   6.358   1.616   7.438
13331TIP3   OH239925   5.390   2.258   7.704
13331TIP3    H139926   5.485   2.251   7.687
13331TIP3    H239927   5.363   2.313   7.628
13332TIP3   OH239928   4.862   1.645   7.904
13332TIP3    H139929   4.958   1.666   7.896
13332TIP3    H239930   4.860   1.554   7.867
13333TIP3   OH239931   4.800   2.239   8.317
13333TIP3    H139932   4.717   2.204   8.280
13333TIP3    H239933   4.819   2.172   8.385
13334TIP3   OH239934   6.646   2.556   8.303
13334TIP3    H139935   6.635   2.632   8.381
13334TIP3    H239936   6.656   2.619   8.233
13335TIP3   OH239937   6.510   1.720   7.789
13335TIP3    H139938   6.571   1.787   7.751
13335TIP3    H239939   6.573   1.651   7.817
13336TIP3   OH239940   6.587   1.510   7.638
13336TIP3    H139941   6.524   1.481   7.568
13336TIP3    H239942   6.537   1.587   7.668
13337TIP3   OH239943   6.392   1.164   7.594
13337TIP3    H139944   6.448   1.222   7.543
13337TIP3    H239945   6.429   1.077   7.574
13338TIP3   OH239946   6.229   2.370   7.976
13338TIP3    H139947   6.285   2.367   7.896
13338TIP3    H239948   6.273   2.439   8.030
13339TIP3   OH239949   5.885   2.476   8.508
13339TIP3    H139950   5.794   2.485   8.477
13339TIP3    H239951   5.876   2.494   8.602
13340TIP3   OH239952   6.109   2.454   8.665
13340TIP3    H139953   6.066   2.464   8.578
13340TIP3    H239954   6.198   2.487   8.639
13341TIP3   OH239955   6.271   2.615   8.504
13341TIP3    H139956   6.281   2.712   8.496
13341TIP3    H239957   6.361   2.587   8.524
13342TIP3   OH239958   4.885   2.048   8.071
13342TIP3    H139959   4.802   2.014   8.034
13342TIP3    H239960   4.879   2.141   8.041
13343TIP3   OH239961   5.657   2.216   7.653
13343TIP3    H139962   5.745   2.239   7.617
13343TIP3    H239963   5.635   2.141   7.593
13344TIP3   OH239964   6.378   2.340   7.745
13344TIP3    H139965   6.370   2.242   7.737
13344TIP3    H239966   6.329   2.369   7.665
13345TIP3   OH239967   4.958   2.052   7.707
13345TIP3    H139968   4.964   2.083   7.798
13345TIP3    H239969   5.046   2.011   7.693
13346TIP3   OH239970   6.714   1.880   7.726
13346TIP3    H139971   6.709   1.893   7.629
13346TIP3    H239972   6.740   1.971   7.755
13347TIP3   OH239973   7.492   2.593   7.395
13347TIP3    H139974   7.457   2.553   7.313
13347TIP3    H239975   7.443   2.677   7.401
13348TIP3   OH239976   6.919   2.444   7.766
13348TIP3    H139977   6.980   2.377   7.806
13348TIP3    H239978   6.839   2.392   7.754
13349TIP3   OH239979   7.695   2.460   7.017
13349TIP3    H139980   7.727   2.375   6.982
13349TIP3    H239981   7.764   2.479   7.084
13350TIP3   OH239982   6.801   1.488   7.474
13350TIP3    H139983   6.836   1.580   7.485
13350TIP3    H239984   6.730   1.491   7.543
13351TIP3   OH239985   7.187   2.444   7.608
13351TIP3    H139986   7.112   2.424   7.668
13351TIP3    H239987   7.196   2.541   7.621
13352TIP3   OH239988   7.269   2.030   7.069
13352TIP3    H139989   7.273   1.935   7.046
13352TIP3    H239990   7.243   2.025   7.163
13353TIP3   OH239991   7.197   2.052   7.332
13353TIP3    H139992   7.219   2.019   7.420
13353TIP3    H239993   7.207   2.149   7.345
13354TIP3   OH239994   6.883   1.743   7.534
13354TIP3    H139995   6.880   1.780   7.624
13354TIP3    H239996   6.932   1.810   7.484
13355TIP3   OH239997   7.475   2.240   7.306
13355TIP3    H139998   7.390   2.269   7.344
13355TIP3    H239999   7.487   2.307   7.237
13356TIP3   OH240000   7.220   2.319   7.370
13356TIP3    H140001   7.183   2.390   7.312
13356TIP3    H240002   7.207   2.359   7.458
13357TIP3   OH240003   6.931   1.963   7.352
13357TIP3    H140004   7.002   2.030   7.357
13357TIP3    H240005   6.974   1.903   7.288
13358TIP3   OH240006   6.872   1.221   7.438
13358TIP3    H140007   6.851   1.309   7.474
13358TIP3    H240008   6.875   1.164   7.518
13359TIP3   OH240009   6.780   2.133   7.773
13359TIP3    H140010   6.708   2.196   7.791
13359TIP3    H240011   6.816   2.171   7.692
13360TIP3   OH240012   7.416   2.247   7.000
13360TIP3    H140013   7.364   2.170   7.030
13360TIP3    H240014   7.489   2.201   6.954
13361TIP3   OH240015   7.831   2.241   6.895
13361TIP3    H140016   7.912   2.247   6.949
13361TIP3    H240017   7.872   2.248   6.805
13362TIP3   OH240018   7.069   1.764   7.217
13362TIP3    H140019   7.114   1.726   7.295
13362TIP3    H240020   7.143   1.767   7.154
13363TIP3   OH240021   7.567   1.953   7.038
13363TIP3    H140022   7.547   1.977   7.129
13363TIP3    H240023   7.546   1.859   7.036
13364TIP3   OH240024   7.176   2.530   7.196
13364TIP3    H140025   7.270   2.518   7.176
13364TIP3    H240026   7.148   2.576   7.115
13365TIP3   OH240027   6.663   1.905   7.404
13365TIP3    H140028   6.758   1.928   7.390
13365TIP3    H240029   6.661   1.814   7.367
13366TIP3   OH240030   6.576   2.516   7.815
13366TIP3    H140031   6.509   2.457   7.775
13366TIP3    H240032   6.618   2.455   7.879
13367TIP3   OH240033   6.716   2.364   7.992
13367TIP3    H140034   6.722   2.315   8.076
13367TIP3    H240035   6.755   2.448   8.016
13368TIP3   OH240036   6.682   2.306   7.570
13368TIP3    H140037   6.602   2.261   7.538
13368TIP3    H240038   6.665   2.395   7.531
13369TIP3   OH240039   7.441   2.481   7.137
13369TIP3    H140040   7.529   2.500   7.099
13369TIP3    H240041   7.415   2.406   7.078
13370TIP3   OH240042   6.755   2.313   7.194
13370TIP3    H140043   6.757   2.332   7.289
13370TIP3    H240044   6.842   2.270   7.179
13371TIP3   OH240045   2.450   3.287   8.014
13371TIP3    H140046   2.452   3.382   8.023
13371TIP3    H240047   2.545   3.263   8.024
13372TIP3   OH240048   2.498   3.594   8.074
13372TIP3    H140049   2.537   3.677   8.040
13372TIP3    H240050   2.405   3.608   8.047
13373TIP3   OH240051   3.928   3.158   8.372
13373TIP3    H140052   3.882   3.245   8.380
13373TIP3    H240053   3.869   3.118   8.305
13374TIP3   OH240054   4.131   3.500   8.381
13374TIP3    H140055   4.140   3.411   8.417
13374TIP3    H240056   4.170   3.551   8.455
13375TIP3   OH240057   3.792   3.922   8.435
13375TIP3    H140058   3.836   3.856   8.377
13375TIP3    H240059   3.793   3.873   8.518
13376TIP3   OH240060   3.772   3.392   8.308
13376TIP3    H140061   3.792   3.355   8.220
13376TIP3    H240062   3.746   3.483   8.284
13377TIP3   OH240063   3.930   3.764   8.260
13377TIP3    H140064   3.972   3.676   8.250
13377TIP3    H240065   3.997   3.820   8.214
13378TIP3   OH240066   4.037   3.533   8.132
13378TIP3    H140067   3.993   3.449   8.110
13378TIP3    H240068   4.078   3.513   8.219
13379TIP3   OH240069   3.759   3.008   8.206
13379TIP3    H140070   3.665   3.035   8.202
13379TIP3    H240071   3.792   3.060   8.129
13380TIP3   OH240072   3.701   2.798   7.905
13380TIP3    H140073   3.758   2.852   7.964
13380TIP3    H240074   3.768   2.742   7.862
13381TIP3   OH240075   4.101   3.076   8.153
13381TIP3    H140076   4.053   3.107   8.231
13381TIP3    H240077   4.188   3.048   8.189
13382TIP3   OH240078   3.944   2.930   7.982
13382TIP3    H140079   3.984   3.002   8.036
13382TIP3    H240080   3.959   2.965   7.892
13383TIP3   OH240081   3.679   3.649   8.272
13383TIP3    H140082   3.753   3.715   8.260
13383TIP3    H240083   3.615   3.679   8.208
13384TIP3   OH240084   4.447   2.184   8.024
13384TIP3    H140085   4.359   2.201   8.064
13384TIP3    H240086   4.463   2.270   7.979
13385TIP3   OH240087   4.246   3.554   7.583
13385TIP3    H140088   4.255   3.651   7.573
13385TIP3    H240089   4.339   3.525   7.573
13386TIP3   OH240090   3.561   3.879   8.069
13386TIP3    H140091   3.510   3.851   7.992
13386TIP3    H240092   3.527   3.968   8.088
13387TIP3   OH240093   3.756   3.776   7.707
13387TIP3    H140094   3.816   3.706   7.673
13387TIP3    H240095   3.789   3.786   7.799
13388TIP3   OH240096   3.809   3.822   7.974
13388TIP3    H140097   3.721   3.833   8.017
13388TIP3    H240098   3.855   3.768   8.040
13389TIP3   OH240099   3.997   2.984   7.723
13389TIP3    H140100   3.977   2.966   7.630
13389TIP3    H240101   4.071   3.047   7.717
13390TIP3   OH240102   3.728   2.371   8.040
13390TIP3    H140103   3.675   2.394   8.117
13390TIP3    H240104   3.682   2.289   8.009
13391TIP3   OH240105   3.960   2.835   8.302
13391TIP3    H140106   3.885   2.885   8.265
13391TIP3    H240107   3.977   2.773   8.229
13392TIP3   OH240108   3.412   2.379   8.003
13392TIP3    H140109   3.395   2.347   8.092
13392TIP3    H240110   3.327   2.420   7.980
13393TIP3   OH240111   3.244   2.608   8.104
13393TIP3    H140112   3.190   2.619   8.023
13393TIP3    H240113   3.327   2.649   8.073
13394TIP3   OH240114   3.511   3.123   8.178
13394TIP3    H140115   3.443   3.103   8.112
13394TIP3    H240116   3.473   3.196   8.228
13395TIP3   OH240117   3.975   2.467   7.988
13395TIP3    H140118   3.879   2.452   8.007
13395TIP3    H240119   3.989   2.560   8.017
13396TIP3   OH240120   4.059   2.705   8.081
13396TIP3    H140121   4.154   2.716   8.103
13396TIP3    H240122   4.035   2.793   8.042
13397TIP3   OH240123   3.558   3.312   7.926
13397TIP3    H140124   3.560   3.404   7.959
13397TIP3    H240125   3.638   3.276   7.972
13398TIP3   OH240126   4.479   2.803   7.942
13398TIP3    H140127   4.419   2.770   7.871
13398TIP3    H240128   4.481   2.897   7.916
13399TIP3   OH240129   4.188   3.627   7.855
13399TIP3    H140130   4.151   3.563   7.919
13399TIP3    H240131   4.195   3.574   7.774
13400TIP3   OH240132   3.198   3.743   8.243
13400TIP3    H140133   3.162   3.736   8.333
13400TIP3    H240134   3.252   3.823   8.250
13401TIP3   OH240135   3.931   3.363   7.740
13401TIP3    H140136   4.007   3.343   7.799
13401TIP3    H240137   3.861   3.331   7.800
13402TIP3   OH240138   4.279   3.831   7.572
13402TIP3    H140139   4.315   3.908   7.524
13402TIP3    H240140   4.198   3.873   7.608
13403TIP3   OH240141   4.134   3.295   7.897
13403TIP3    H140142   4.079   3.262   7.969
13403TIP3    H240143   4.227   3.275   7.928
13404TIP3   OH240144   3.299   3.338   7.753
13404TIP3    H140145   3.320   3.246   7.728
13404TIP3    H240146   3.288   3.328   7.850
13405TIP3   OH240147   3.242   3.342   8.026
13405TIP3    H140148   3.321   3.322   8.077
13405TIP3    H240149   3.244   3.441   8.026
13406TIP3   OH240150   4.061   2.444   8.261
13406TIP3    H140151   4.030   2.454   8.170
13406TIP3    H240152   3.993   2.498   8.308
13407TIP3   OH240153   3.526   3.576   7.996
13407TIP3    H140154   3.432   3.587   8.019
13407TIP3    H240155   3.529   3.619   7.910
13408TIP3   OH240156   3.254   3.611   8.016
13408TIP3    H140157   3.226   3.683   7.955
13408TIP3    H240158   3.225   3.650   8.102
13409TIP3   OH240159   2.977   3.258   8.036
13409TIP3    H140160   3.059   3.310   8.047
13409TIP3    H240161   3.014   3.187   7.981
13410TIP3   OH240162   4.237   4.025   8.542
13410TIP3    H140163   4.199   4.058   8.458
13410TIP3    H240164   4.331   4.014   8.515
13411TIP3   OH240165   3.468   3.538   7.673
13411TIP3    H140166   3.408   3.467   7.707
13411TIP3    H240167   3.544   3.485   7.646
13412TIP3   OH240168   3.905   3.582   7.581
13412TIP3    H140169   3.929   3.509   7.643
13412TIP3    H240170   3.970   3.571   7.509
13413TIP3   OH240171   3.110   3.063   7.885
13413TIP3    H140172   3.172   3.032   7.955
13413TIP3    H240173   3.177   3.073   7.813
13414TIP3   OH240174   3.611   3.245   7.667
13414TIP3    H140175   3.587   3.265   7.760
13414TIP3    H240176   3.620   3.148   7.672
13415TIP3   OH240177   3.311   2.973   8.042
13415TIP3    H140178   3.293   2.958   8.137
13415TIP3    H240179   3.361   2.893   8.017
13416TIP3   OH240180   3.433   2.736   7.946
13416TIP3    H140181   3.410   2.753   7.852
13416TIP3    H240182   3.531   2.745   7.942
13417TIP3   OH240183   4.248   3.086   7.611
13417TIP3    H140184   4.221   3.044   7.527
13417TIP3    H240185   4.212   3.177   7.596
13418TIP3   OH240186   3.232   3.830   7.852
13418TIP3    H140187   3.327   3.819   7.834
13418TIP3    H240188   3.206   3.880   7.772
13419TIP3   OH240189   2.709   3.210   8.043
13419TIP3    H140190   2.806   3.227   8.044
13419TIP3    H240191   2.706   3.114   8.026
13420TIP3   OH240192   4.508   4.066   8.486
13420TIP3    H140193   4.527   4.133   8.553
13420TIP3    H240194   4.567   4.091   8.413
13421TIP3   OH240195   4.409   3.274   7.941
13421TIP3    H140196   4.474   3.341   7.913
13421TIP3    H240197   4.451   3.239   8.022
13422TIP3   OH240198   4.529   3.147   8.143
13422TIP3    H140199   4.458   3.093   8.185
13422TIP3    H240200   4.584   3.175   8.220
13423TIP3   OH240201   4.570   3.544   8.585
13423TIP3    H140202   4.638   3.478   8.558
13423TIP3    H240203   4.565   3.598   8.505
13424TIP3   OH240204   4.446   3.046   7.795
13424TIP3    H140205   4.373   3.052   7.729
13424TIP3    H240206   4.424   3.123   7.851
13425TIP3   OH240207   4.324   2.716   7.737
13425TIP3    H140208   4.262   2.762   7.680
13425TIP3    H240209   4.296   2.623   7.726
13426TIP3   OH240210   4.344   2.972   8.232
13426TIP3    H140211   4.334   2.876   8.209
13426TIP3    H240212   4.351   2.968   8.330
13427TIP3   OH240213   4.261   2.448   7.721
13427TIP3    H140214   4.331   2.425   7.786
13427TIP3    H240215   4.183   2.398   7.752
13428TIP3   OH240216   4.328   2.707   8.157
13428TIP3    H140217   4.366   2.625   8.192
13428TIP3    H240218   4.394   2.730   8.087
13429TIP3   OH240219   4.430   2.446   8.216
13429TIP3    H140220   4.441   2.427   8.311
13429TIP3    H240221   4.357   2.388   8.191
13430TIP3   OH240222   4.501   2.399   7.861
13430TIP3    H140223   4.548   2.333   7.806
13430TIP3    H240224   4.566   2.473   7.863
13431TIP3   OH240225   4.079   3.941   8.122
13431TIP3    H140226   4.129   3.926   8.039
13431TIP3    H240227   4.136   4.002   8.170
13432TIP3   OH240228   4.229   2.248   8.177
13432TIP3    H140229   4.159   2.314   8.193
13432TIP3    H240230   4.192   2.171   8.223
13433TIP3   OH240231   2.769   3.633   8.200
13433TIP3    H140232   2.689   3.610   8.150
13433TIP3    H240233   2.735   3.703   8.258
13434TIP3   OH240234   3.495   3.784   7.793
13434TIP3    H140235   3.586   3.803   7.763
13434TIP3    H240236   3.474   3.707   7.736
13435TIP3   OH240237   4.224   3.895   7.893
13435TIP3    H140238   4.215   3.796   7.886
13435TIP3    H240239   4.172   3.923   7.815
13436TIP3   OH240240   2.805   3.615   7.867
13436TIP3    H140241   2.816   3.626   7.963
13436TIP3    H240242   2.890   3.571   7.843
13437TIP3   OH240243   5.712   3.416   7.845
13437TIP3    H140244   5.679   3.506   7.823
13437TIP3    H240245   5.635   3.363   7.818
13438TIP3   OH240246   5.708   3.414   8.236
13438TIP3    H140247   5.745   3.387   8.323
13438TIP3    H240248   5.668   3.330   8.206
13439TIP3   OH240249   5.026   3.352   8.580
13439TIP3    H140250   5.036   3.282   8.645
13439TIP3    H240251   5.112   3.347   8.532
13440TIP3   OH240252   5.955   3.716   7.914
13440TIP3    H140253   5.936   3.646   7.978
13440TIP3    H240254   5.985   3.789   7.971
13441TIP3   OH240255   4.978   3.727   8.324
13441TIP3    H140256   4.967   3.630   8.314
13441TIP3    H240257   5.075   3.733   8.319
13442TIP3   OH240258   4.702   2.937   8.083
13442TIP3    H140259   4.645   3.015   8.097
13442TIP3    H240260   4.642   2.864   8.107
13443TIP3   OH240261   4.754   3.208   8.284
13443TIP3    H140262   4.799   3.129   8.323
13443TIP3    H240263   4.807   3.225   8.206
13444TIP3   OH240264   5.607   4.179   7.932
13444TIP3    H140265   5.649   4.109   7.878
13444TIP3    H240266   5.591   4.132   8.015
13445TIP3   OH240267   5.508   3.640   8.279
13445TIP3    H140268   5.545   3.560   8.238
13445TIP3    H240269   5.593   3.684   8.302
13446TIP3   OH240270   6.524   2.980   8.256
13446TIP3    H140271   6.550   3.058   8.305
13446TIP3    H240272   6.538   3.013   8.162
13447TIP3   OH240273   5.921   3.139   8.308
13447TIP3    H140274   5.964   3.054   8.327
13447TIP3    H240275   5.890   3.124   8.217
13448TIP3   OH240276   5.265   2.789   8.276
13448TIP3    H140277   5.242   2.870   8.226
13448TIP3    H240278   5.213   2.723   8.224
13449TIP3   OH240279   5.957   2.889   7.895
13449TIP3    H140280   6.027   2.872   7.963
13449TIP3    H240281   6.011   2.926   7.823
13450TIP3   OH240282   4.897   3.004   8.381
13450TIP3    H140283   4.953   2.963   8.449
13450TIP3    H240284   4.918   2.946   8.305
13451TIP3   OH240285   5.326   3.203   8.183
13451TIP3    H140286   5.422   3.181   8.188
13451TIP3    H240287   5.289   3.116   8.155
13452TIP3   OH240288   6.583   3.179   8.446
13452TIP3    H140289   6.501   3.227   8.426
13452TIP3    H240290   6.554   3.135   8.531
13453TIP3   OH240291   5.599   3.635   7.716
13453TIP3    H140292   5.555   3.618   7.632
13453TIP3    H240293   5.553   3.717   7.745
13454TIP3   OH240294   5.372   3.575   8.506
13454TIP3    H140295   5.304   3.640   8.534
13454TIP3    H240296   5.410   3.618   8.427
13455TIP3   OH240297   6.160   2.893   8.076
13455TIP3    H140298   6.127   2.862   8.161
13455TIP3    H240299   6.212   2.972   8.101
13456TIP3   OH240300   5.115   2.883   8.500
13456TIP3    H140301   5.180   2.956   8.498
13456TIP3    H240302   5.148   2.828   8.427
13457TIP3   OH240303   5.181   3.750   8.605
13457TIP3    H140304   5.149   3.837   8.572
13457TIP3    H240305   5.121   3.736   8.681
13458TIP3   OH240306   4.596   3.453   7.835
13458TIP3    H140307   4.543   3.481   7.759
13458TIP3    H240308   4.625   3.538   7.872
13459TIP3   OH240309   6.023   3.962   8.079
13459TIP3    H140310   5.933   3.952   8.118
13459TIP3    H240311   6.013   4.047   8.032
13460TIP3   OH240312   6.291   2.906   8.447
13460TIP3    H140313   6.211   2.901   8.396
13460TIP3    H240314   6.361   2.908   8.376
13461TIP3   OH240315   5.611   2.494   8.401
13461TIP3    H140316   5.618   2.401   8.431
13461TIP3    H240317   5.593   2.537   8.488
13462TIP3   OH240318   5.722   4.005   7.751
13462TIP3    H140319   5.771   3.921   7.733
13462TIP3    H240320   5.786   4.069   7.711
13463TIP3   OH240321   5.866   3.790   7.664
13463TIP3    H140322   5.824   3.711   7.628
13463TIP3    H240323   5.905   3.755   7.747
13464TIP3   OH240324   6.240   3.871   8.420
13464TIP3    H140325   6.232   3.791   8.364
13464TIP3    H240326   6.226   3.943   8.355
13465TIP3   OH240327   5.540   3.264   7.683
13465TIP3    H140328   5.460   3.317   7.663
13465TIP3    H240329   5.585   3.263   7.596
13466TIP3   OH240330   5.498   3.052   7.391
13466TIP3    H140331   5.563   3.104   7.442
13466TIP3    H240332   5.557   2.990   7.345
13467TIP3   OH240333   6.447   3.518   8.268
13467TIP3    H140334   6.361   3.565   8.277
13467TIP3    H240335   6.470   3.540   8.175
13468TIP3   OH240336   5.889   3.348   7.650
13468TIP3    H140337   5.834   3.371   7.728
13468TIP3    H240338   5.973   3.324   7.694
13469TIP3   OH240339   6.121   3.378   8.569
13469TIP3    H140340   6.122   3.458   8.627
13469TIP3    H240341   6.033   3.387   8.527
13470TIP3   OH240342   5.123   3.343   8.063
13470TIP3    H140343   5.082   3.283   7.997
13470TIP3    H240344   5.197   3.288   8.098
13471TIP3   OH240345   5.252   3.760   8.215
13471TIP3    H140346   5.225   3.721   8.130
13471TIP3    H240347   5.340   3.720   8.229
13472TIP3   OH240348   5.253   3.339   8.422
13472TIP3    H140349   5.279   3.310   8.333
13472TIP3    H240350   5.299   3.425   8.432
13473TIP3   OH240351   5.782   3.956   8.202
13473TIP3    H140352   5.766   4.032   8.260
13473TIP3    H240353   5.766   3.879   8.260
13474TIP3   OH240354   5.395   3.901   8.694
13474TIP3    H140355   5.349   3.941   8.769
13474TIP3    H240356   5.327   3.838   8.662
13475TIP3   OH240357   5.727   3.206   7.478
13475TIP3    H140358   5.785   3.267   7.528
13475TIP3    H240359   5.754   3.227   7.385
13476TIP3   OH240360   5.474   3.882   7.754
13476TIP3    H140361   5.555   3.935   7.762
13476TIP3    H240362   5.412   3.942   7.710
13477TIP3   OH240363   6.243   2.444   7.527
13477TIP3    H140364   6.161   2.467   7.577
13477TIP3    H240365   6.258   2.527   7.478
13478TIP3   OH240366   4.990   3.186   7.867
13478TIP3    H140367   4.918   3.227   7.815
13478TIP3    H240368   4.948   3.103   7.895
13479TIP3   OH240369   6.044   3.811   7.076
13479TIP3    H140370   6.052   3.908   7.061
13479TIP3    H240371   6.136   3.782   7.064
13480TIP3   OH240372   4.623   3.774   8.389
13480TIP3    H140373   4.716   3.750   8.397
13480TIP3    H240374   4.611   3.840   8.458
13481TIP3   OH240375   6.490   4.222   8.471
13481TIP3    H140376   6.491   4.124   8.483
13481TIP3    H240377   6.403   4.243   8.510
13482TIP3   OH240378   5.610   4.007   8.586
13482TIP3    H140379   5.607   4.096   8.626
13482TIP3    H240380   5.528   3.967   8.623
13483TIP3   OH240381   5.356   4.130   7.556
13483TIP3    H140382   5.308   4.111   7.474
13483TIP3    H240383   5.321   4.216   7.584
13484TIP3   OH240384   4.791   3.978   7.941
13484TIP3    H140385   4.837   3.968   8.028
13484TIP3    H240386   4.743   3.893   7.937
13485TIP3   OH240387   5.553   4.033   7.194
13485TIP3    H140388   5.612   3.962   7.159
13485TIP3    H240389   5.588   4.043   7.285
13486TIP3   OH240390   5.606   4.080   7.464
13486TIP3    H140391   5.517   4.091   7.505
13486TIP3    H240392   5.656   4.039   7.537
13487TIP3   OH240393   6.389   3.350   8.709
13487TIP3    H140394   6.294   3.367   8.699
13487TIP3    H240395   6.393   3.253   8.711
13488TIP3   OH240396   6.149   3.134   8.699
13488TIP3    H140397   6.109   3.155   8.784
13488TIP3    H240398   6.121   3.209   8.643
13489TIP3   OH240399   5.804   3.248   7.222
13489TIP3    H140400   5.769   3.226   7.134
13489TIP3    H240401   5.887   3.293   7.198
13490TIP3   OH240402   5.516   2.625   7.526
13490TIP3    H140403   5.482   2.621   7.618
13490TIP3    H240404   5.475   2.543   7.491
13491TIP3   OH240405   5.294   3.083   8.500
13491TIP3    H140406   5.337   3.083   8.590
13491TIP3    H240407   5.282   3.177   8.481
13492TIP3   OH240408   5.190   2.979   8.091
13492TIP3    H140409   5.098   2.952   8.113
13492TIP3    H240410   5.200   2.936   8.003
13493TIP3   OH240411   5.678   3.065   7.817
13493TIP3    H140412   5.627   3.136   7.773
13493TIP3    H240413   5.732   3.031   7.743
13494TIP3   OH240414   5.840   3.093   8.050
13494TIP3    H140415   5.771   3.118   7.985
13494TIP3    H240416   5.872   3.012   8.005
13495TIP3   OH240417   5.171   2.599   7.491
13495TIP3    H140418   5.162   2.600   7.588
13495TIP3    H240419   5.095   2.656   7.466
13496TIP3   OH240420   4.674   2.690   8.243
13496TIP3    H140421   4.722   2.705   8.327
13496TIP3    H240422   4.724   2.616   8.206
13497TIP3   OH240423   4.684   2.624   7.880
13497TIP3    H140424   4.729   2.665   7.803
13497TIP3    H240425   4.625   2.698   7.906
13498TIP3   OH240426   5.846   3.341   8.471
13498TIP3    H140427   5.878   3.266   8.415
13498TIP3    H240428   5.824   3.292   8.553
13499TIP3   OH240429   5.517   2.798   8.143
13499TIP3    H140430   5.434   2.795   8.194
13499TIP3    H240431   5.584   2.800   8.214
13500TIP3   OH240432   4.953   2.861   8.154
13500TIP3    H140433   4.861   2.876   8.121
13500TIP3    H240434   4.969   2.768   8.133
13501TIP3   OH240435   5.214   2.850   7.847
13501TIP3    H140436   5.307   2.869   7.825
13501TIP3    H240437   5.165   2.873   7.764
13502TIP3   OH240438   6.014   2.877   8.331
13502TIP3    H140439   6.001   2.882   8.428
13502TIP3    H240440   5.941   2.816   8.308
13503TIP3   OH240441   5.065   2.885   7.622
13503TIP3    H140442   4.991   2.844   7.575
13503TIP3    H240443   5.115   2.924   7.547
13504TIP3   OH240444   6.190   4.561   8.556
13504TIP3    H140445   6.189   4.581   8.460
13504TIP3    H240446   6.224   4.643   8.592
13505TIP3   OH240447   5.593   3.147   8.229
13505TIP3    H140448   5.669   3.092   8.203
13505TIP3    H240449   5.587   3.126   8.325
13506TIP3   OH240450   5.119   2.622   8.116
13506TIP3    H140451   5.076   2.547   8.162
13506TIP3    H240452   5.165   2.576   8.045
13507TIP3   OH240453   5.586   3.074   8.490
13507TIP3    H140454   5.499   3.036   8.510
13507TIP3    H240455   5.643   3.028   8.554
13508TIP3   OH240456   5.310   3.416   7.630
13508TIP3    H140457   5.238   3.350   7.618
13508TIP3    H240458   5.290   3.451   7.720
13509TIP3   OH240459   6.208   3.652   8.256
13509TIP3    H140460   6.230   3.704   8.176
13509TIP3    H240461   6.125   3.608   8.231
13510TIP3   OH240462   5.766   2.728   7.493
13510TIP3    H140463   5.670   2.708   7.504
13510TIP3    H240464   5.774   2.821   7.521
13511TIP3   OH240465   5.727   3.745   8.621
13511TIP3    H140466   5.704   3.682   8.690
13511TIP3    H240467   5.667   3.820   8.636
13512TIP3   OH240468   5.836   2.977   7.598
13512TIP3    H140469   5.932   2.984   7.614
13512TIP3    H240470   5.817   3.059   7.547
13513TIP3   OH240471   5.003   3.461   8.285
13513TIP3    H140472   5.043   3.414   8.209
13513TIP3    H240473   5.017   3.399   8.358
13514TIP3   OH240474   5.454   3.566   7.453
13514TIP3    H140475   5.406   3.652   7.456
13514TIP3    H240476   5.400   3.512   7.514
13515TIP3   OH240477   5.875   4.007   8.518
13515TIP3    H140478   5.780   3.984   8.527
13515TIP3    H240479   5.884   4.070   8.591
13516TIP3   OH240480   6.277   3.071   7.432
13516TIP3    H140481   6.215   3.027   7.368
13516TIP3    H240482   6.274   3.161   7.393
13517TIP3   OH240483   6.488   3.942   8.504
13517TIP3    H140484   6.393   3.922   8.490
13517TIP3    H240485   6.525   3.902   8.423
13518TIP3   OH240486   5.982   3.887   7.342
13518TIP3    H140487   5.952   3.817   7.402
13518TIP3    H240488   5.993   3.840   7.257
13519TIP3   OH240489   5.973   3.518   8.173
13519TIP3    H140490   5.881   3.490   8.188
13519TIP3    H240491   6.008   3.437   8.129
13520TIP3   OH240492   5.105   3.746   7.932
13520TIP3    H140493   5.097   3.826   7.876
13520TIP3    H240494   5.012   3.723   7.946
13521TIP3   OH240495   4.668   3.047   7.636
13521TIP3    H140496   4.712   3.131   7.659
13521TIP3    H240497   4.591   3.049   7.698
13522TIP3   OH240498   5.238   3.509   7.871
13522TIP3    H140499   5.204   3.598   7.893
13522TIP3    H240500   5.203   3.456   7.945
13523TIP3   OH240501   5.371   4.092   8.395
13523TIP3    H140502   5.414   4.163   8.343
13523TIP3    H240503   5.448   4.048   8.434
13524TIP3   OH240504   5.020   3.984   7.781
13524TIP3    H140505   4.935   3.992   7.829
13524TIP3    H240506   5.052   4.077   7.784
13525TIP3   OH240507   5.762   3.722   8.354
13525TIP3    H140508   5.757   3.723   8.453
13525TIP3    H240509   5.834   3.659   8.339
13526TIP3   OH240510   5.738   3.618   7.242
13526TIP3    H140511   5.791   3.591   7.321
13526TIP3    H240512   5.650   3.588   7.269
13527TIP3   OH240513   6.002   4.256   8.410
13527TIP3    H140514   5.924   4.199   8.393
13527TIP3    H240515   5.994   4.320   8.336
13528TIP3   OH240516   6.075   4.087   7.060
13528TIP3    H140517   6.111   4.160   7.007
13528TIP3    H240518   5.995   4.131   7.095
13529TIP3   OH240519   5.899   3.548   7.456
13529TIP3    H140520   5.887   3.483   7.528
13529TIP3    H240521   5.996   3.544   7.444
13530TIP3   OH240522   4.823   3.965   8.545
13530TIP3    H140523   4.869   3.881   8.554
13530TIP3    H240524   4.780   3.974   8.633
13531TIP3   OH240525   5.100   3.595   7.241
13531TIP3    H140526   5.113   3.501   7.216
13531TIP3    H240527   5.080   3.586   7.336
13532TIP3   OH240528   5.045   3.601   7.512
13532TIP3    H140529   5.117   3.572   7.571
13532TIP3    H240530   5.049   3.698   7.522
13533TIP3   OH240531   4.782   3.291   7.715
13533TIP3    H140532   4.717   3.338   7.773
13533TIP3    H240533   4.793   3.359   7.646
13534TIP3   OH240534   5.967   2.912   8.593
13534TIP3    H140535   6.022   2.954   8.659
13534TIP3    H240536   5.878   2.904   8.638
13535TIP3   OH240537   5.817   2.675   7.778
13535TIP3    H140538   5.802   2.699   7.685
13535TIP3    H240539   5.855   2.758   7.815
13536TIP3   OH240540   5.314   3.797   7.461
13536TIP3    H140541   5.227   3.820   7.499
13536TIP3    H240542   5.327   3.872   7.401
13537TIP3   OH240543   5.499   2.862   7.876
13537TIP3    H140544   5.562   2.935   7.861
13537TIP3    H240545   5.504   2.852   7.973
13538TIP3   OH240546   5.800   3.210   8.705
13538TIP3    H140547   5.814   3.261   8.788
13538TIP3    H240548   5.811   3.119   8.735
13539TIP3   OH240549   5.640   2.581   7.976
13539TIP3    H140550   5.630   2.659   8.035
13539TIP3    H240551   5.705   2.616   7.910
13540TIP3   OH240552   5.060   3.873   7.531
13540TIP3    H140553   5.028   3.943   7.470
13540TIP3    H240554   5.042   3.914   7.619
13541TIP3   OH240555   5.157   2.587   7.767
13541TIP3    H140556   5.153   2.676   7.807
13541TIP3    H240557   5.253   2.571   7.775
13542TIP3   OH240558   6.406   3.061   8.643
13542TIP3    H140559   6.316   3.081   8.663
13542TIP3    H240560   6.388   2.990   8.574
13543TIP3   OH240561   6.059   3.277   8.052
13543TIP3    H140562   5.983   3.216   8.062
13543TIP3    H240563   6.130   3.229   8.100
13544TIP3   OH240564   4.776   3.498   7.520
13544TIP3    H140565   4.846   3.564   7.531
13544TIP3    H240566   4.819   3.440   7.453
13545TIP3   OH240567   4.716   2.777   7.651
13545TIP3    H140568   4.721   2.875   7.653
13545TIP3    H240569   4.624   2.764   7.626
13546TIP3   OH240570   6.030   4.233   8.001
13546TIP3    H140571   5.987   4.280   7.926
13546TIP3    H240572   6.124   4.250   7.979
13547TIP3   OH240573   4.645   3.724   7.906
13547TIP3    H140574   4.580   3.747   7.974
13547TIP3    H240575   4.605   3.764   7.825
13548TIP3   OH240576   5.264   3.797   7.151
13548TIP3    H140577   5.208   3.725   7.189
13548TIP3    H240578   5.340   3.745   7.119
13549TIP3   OH240579   5.940   4.110   8.776
13549TIP3    H140580   5.979   4.023   8.762
13549TIP3    H240581   6.013   4.170   8.758
13550TIP3   OH240582   5.699   3.836   7.066
13550TIP3    H140583   5.740   3.771   7.126
13550TIP3    H240584   5.756   3.831   6.987
13551TIP3   OH240585   4.911   3.312   7.376
13551TIP3    H140586   4.966   3.282   7.450
13551TIP3    H240587   4.979   3.318   7.305
13552TIP3   OH240588   5.426   3.515   7.183
13552TIP3    H140589   5.426   3.525   7.281
13552TIP3    H240590   5.425   3.417   7.176
13553TIP3   OH240591   6.037   3.767   8.578
13553TIP3    H140592   6.109   3.804   8.524
13553TIP3    H240593   5.961   3.821   8.547
13554TIP3   OH240594   5.116   3.222   7.596
13554TIP3    H140595   5.086   3.185   7.681
13554TIP3    H240596   5.152   3.143   7.551
13555TIP3   OH240597   5.219   3.014   7.435
13555TIP3    H140598   5.194   3.024   7.341
13555TIP3    H240599   5.317   3.016   7.429
13556TIP3   OH240600   6.038   3.342   7.104
13556TIP3    H140601   6.019   3.299   7.018
13556TIP3    H240602   6.004   3.432   7.083
13557TIP3   OH240603   5.539   3.415   8.660
13557TIP3    H140604   5.613   3.373   8.614
13557TIP3    H240605   5.499   3.471   8.591
13558TIP3   OH240606   6.166   3.592   8.743
13558TIP3    H140607   6.106   3.654   8.696
13558TIP3    H240608   6.253   3.627   8.712
13559TIP3   OH240609   5.028   4.078   7.345
13559TIP3    H140610   5.123   4.067   7.325
13559TIP3    H240611   5.000   4.128   7.266
13560TIP3   OH240612   4.505   3.462   7.551
13560TIP3    H140613   4.601   3.480   7.542
13560TIP3    H240614   4.499   3.371   7.514
13561TIP3   OH240615   4.423   4.069   7.974
13561TIP3    H140616   4.358   4.007   7.935
13561TIP3    H240617   4.466   4.010   8.040
13562TIP3   OH240618   4.555   3.918   8.161
13562TIP3    H140619   4.550   3.846   8.226
13562TIP3    H240620   4.611   3.980   8.211
13563TIP3   OH240621   6.286   4.316   7.960
13563TIP3    H140622   6.310   4.352   8.048
13563TIP3    H240623   6.348   4.363   7.902
13564TIP3   OH240624   6.309   4.340   8.240
13564TIP3    H140625   6.266   4.252   8.237
13564TIP3    H240626   6.386   4.319   8.294
13565TIP3   OH240627   6.177   3.528   7.434
13565TIP3    H140628   6.242   3.594   7.404
13565TIP3    H240629   6.222   3.492   7.514
13566TIP3   OH240630   6.304   3.396   7.640
13566TIP3    H140631   6.236   3.354   7.697
13566TIP3    H240632   6.366   3.434   7.705
13567TIP3   OH240633   6.363   3.794   8.072
13567TIP3    H140634   6.412   3.724   8.024
13567TIP3    H240635   6.358   3.865   8.006
13568TIP3   OH240636   6.187   4.093   8.261
13568TIP3    H140637   6.113   4.128   8.313
13568TIP3    H240638   6.140   4.046   8.188
13569TIP3   OH240639   6.241   3.305   7.283
13569TIP3    H140640   6.170   3.307   7.216
13569TIP3    H240641   6.212   3.381   7.339
13570TIP3   OH240642   6.113   2.977   7.236
13570TIP3    H140643   6.066   3.013   7.160
13570TIP3    H240644   6.090   2.882   7.229
13571TIP3   OH240645   6.117   3.256   7.784
13571TIP3    H140646   6.123   3.159   7.776
13571TIP3    H240647   6.101   3.268   7.880
13572TIP3   OH240648   4.758   3.378   8.498
13572TIP3    H140649   4.749   3.317   8.422
13572TIP3    H240650   4.849   3.361   8.527
13573TIP3   OH240651   6.404   3.694   8.644
13573TIP3    H140652   6.474   3.626   8.635
13573TIP3    H240653   6.446   3.772   8.605
13574TIP3   OH240654   6.603   3.499   8.640
13574TIP3    H140655   6.528   3.437   8.658
13574TIP3    H240656   6.646   3.498   8.728
13575TIP3   OH240657   6.056   2.711   7.220
13575TIP3    H140658   6.127   2.679   7.278
13575TIP3    H240659   5.981   2.653   7.242
13576TIP3   OH240660   6.114   2.972   7.676
13576TIP3    H140661   6.154   2.883   7.691
13576TIP3    H240662   6.173   3.004   7.605
13577TIP3   OH240663   6.269   3.144   8.169
13577TIP3    H140664   6.358   3.165   8.131
13577TIP3    H240665   6.282   3.178   8.260
13578TIP3   OH240666   6.338   3.293   8.396
13578TIP3    H140667   6.265   3.322   8.453
13578TIP3    H240668   6.372   3.377   8.361
13579TIP3   OH240669   6.222   2.721   7.714
13579TIP3    H140670   6.269   2.707   7.799
13579TIP3    H240671   6.161   2.645   7.714
13580TIP3   OH240672   6.300   2.652   7.351
13580TIP3    H140673   6.339   2.582   7.294
13580TIP3    H240674   6.368   2.723   7.347
13581TIP3   OH240675   4.699   2.456   8.090
13581TIP3    H140676   4.607   2.464   8.122
13581TIP3    H240677   4.701   2.525   8.019
13582TIP3   OH240678   5.868   4.189   7.616
13582TIP3    H140679   5.918   4.177   7.533
13582TIP3    H240680   5.922   4.255   7.662
13583TIP3   OH240681   5.148   4.017   8.547
13583TIP3    H140682   5.091   4.087   8.512
13583TIP3    H240683   5.231   4.041   8.503
13584TIP3   OH240684   5.614   4.257   8.694
13584TIP3    H140685   5.667   4.272   8.773
13584TIP3    H240686   5.661   4.316   8.631
13585TIP3   OH240687   5.781   4.417   8.548
13585TIP3    H140688   5.834   4.361   8.489
13585TIP3    H240689   5.845   4.484   8.574
13586TIP3   OH240690   4.830   4.313   8.565
13586TIP3    H140691   4.742   4.345   8.536
13586TIP3    H240692   4.811   4.283   8.655
13587TIP3   OH240693   5.064   4.262   8.432
13587TIP3    H140694   4.979   4.281   8.477
13587TIP3    H240695   5.043   4.289   8.340
13588TIP3   OH240696   5.485   4.287   8.228
13588TIP3    H140697   5.414   4.301   8.163
13588TIP3    H240698   5.493   4.376   8.268
13589TIP3   OH240699   5.753   4.230   8.288
13589TIP3    H140700   5.659   4.245   8.263
13589TIP3    H240701   5.799   4.295   8.233
13590TIP3   OH240702   5.957   4.415   8.194
13590TIP3    H140703   5.944   4.500   8.146
13590TIP3    H240704   5.987   4.356   8.121
13591TIP3   OH240705   4.737   4.079   8.312
13591TIP3    H140706   4.770   4.052   8.401
13591TIP3    H240707   4.805   4.033   8.258
13592TIP3   OH240708   4.929   3.947   8.174
13592TIP3    H140709   4.941   3.865   8.227
13592TIP3    H240710   5.021   3.980   8.170
13593TIP3   OH240711   5.197   4.038   8.179
13593TIP3    H140712   5.226   3.946   8.169
13593TIP3    H240713   5.242   4.060   8.263
13594TIP3   OH240714   5.774   2.696   8.262
13594TIP3    H140715   5.728   2.620   8.302
13594TIP3    H240716   5.852   2.653   8.222
13595TIP3   OH240717   6.293   2.563   8.161
13595TIP3    H140718   6.324   2.626   8.092
13595TIP3    H240719   6.202   2.595   8.177
13596TIP3   OH240720   6.385   2.679   7.930
13596TIP3    H140721   6.460   2.628   7.892
13596TIP3    H240722   6.418   2.771   7.917
13597TIP3   OH240723   5.015   2.403   8.229
13597TIP3    H140724   4.924   2.381   8.259
13597TIP3    H240725   5.061   2.320   8.251
13598TIP3   OH240726   4.806   2.268   7.921
13598TIP3    H140727   4.836   2.330   7.852
13598TIP3    H240728   4.772   2.330   7.989
13599TIP3   OH240729   5.468   2.440   8.166
13599TIP3    H140730   5.517   2.489   8.098
13599TIP3    H240731   5.513   2.470   8.247
13600TIP3   OH240732   6.003   2.585   8.143
13600TIP3    H140733   6.009   2.546   8.055
13600TIP3    H240734   5.988   2.503   8.197
13601TIP3   OH240735   6.038   2.509   7.708
13601TIP3    H140736   5.953   2.554   7.727
13601TIP3    H240737   6.023   2.423   7.753
13602TIP3   OH240738   4.522   3.849   7.701
13602TIP3    H140739   4.436   3.814   7.672
13602TIP3    H240740   4.510   3.943   7.680
13603TIP3   OH240741   4.925   2.431   7.691
13603TIP3    H140742   4.975   2.372   7.632
13603TIP3    H240743   4.996   2.487   7.727
13604TIP3   OH240744   5.434   2.611   7.790
13604TIP3    H140745   5.496   2.567   7.851
13604TIP3    H240746   5.453   2.705   7.814
13605TIP3   OH240747   5.294   4.031   7.290
13605TIP3    H140748   5.382   4.054   7.254
13605TIP3    H240749   5.272   3.957   7.229
13606TIP3   OH240750   6.014   4.154   7.384
13606TIP3    H140751   6.007   4.056   7.374
13606TIP3    H240752   5.968   4.184   7.304
13607TIP3   OH240753   4.598   3.872   7.344
13607TIP3    H140754   4.597   3.886   7.440
13607TIP3    H240755   4.685   3.828   7.330
13608TIP3   OH240756   6.238   4.289   8.559
13608TIP3    H140757   6.158   4.269   8.507
13608TIP3    H240758   6.225   4.385   8.574
13609TIP3   OH240759   7.504   3.666   7.339
13609TIP3    H140760   7.477   3.759   7.319
13609TIP3    H240761   7.430   3.619   7.297
13610TIP3   OH240762   7.502   3.669   7.706
13610TIP3    H140763   7.573   3.612   7.742
13610TIP3    H240764   7.446   3.605   7.660
13611TIP3   OH240765   6.803   3.567   8.074
13611TIP3    H140766   6.836   3.497   8.134
13611TIP3    H240767   6.883   3.620   8.062
13612TIP3   OH240768   7.751   3.965   7.401
13612TIP3    H140769   7.745   3.899   7.472
13612TIP3    H240770   7.782   4.043   7.450
13613TIP3   OH240771   6.780   3.977   7.807
13613TIP3    H140772   6.771   3.879   7.808
13613TIP3    H240773   6.876   3.986   7.795
13614TIP3   OH240774   6.484   3.178   7.587
13614TIP3    H140775   6.433   3.259   7.607
13614TIP3    H240776   6.414   3.123   7.548
13615TIP3   OH240777   6.541   3.465   7.768
13615TIP3    H140778   6.591   3.386   7.800
13615TIP3    H240779   6.596   3.495   7.695
13616TIP3   OH240780   7.399   4.433   7.416
13616TIP3    H140781   7.441   4.361   7.365
13616TIP3    H240782   7.396   4.395   7.505
13617TIP3   OH240783   7.304   3.899   7.764
13617TIP3    H140784   7.345   3.817   7.733
13617TIP3    H240785   7.385   3.951   7.780
13618TIP3   OH240786   7.056   3.057   7.756
13618TIP3    H140787   7.030   3.133   7.697
13618TIP3    H240788   7.009   2.984   7.711
13619TIP3   OH240789   7.723   3.186   7.360
13619TIP3    H140790   7.787   3.118   7.395
13619TIP3    H240791   7.770   3.220   7.284
13620TIP3   OH240792   6.691   3.259   7.868
13620TIP3    H140793   6.774   3.240   7.914
13620TIP3    H240794   6.701   3.201   7.789
13621TIP3   OH240795   7.125   3.454   7.667
13621TIP3    H140796   7.220   3.428   7.675
13621TIP3    H240797   7.085   3.372   7.632
13622TIP3   OH240798   6.963   3.040   8.235
13622TIP3    H140799   6.939   3.107   8.164
13622TIP3    H240800   7.047   3.076   8.268
13623TIP3   OH240801   7.396   3.888   7.204
13623TIP3    H140802   7.354   3.877   7.117
13623TIP3    H240803   7.352   3.970   7.234
13624TIP3   OH240804   7.141   3.823   7.975
13624TIP3    H140805   7.087   3.894   8.015
13624TIP3    H240806   7.192   3.871   7.907
13625TIP3   OH240807   6.926   3.156   7.981
13625TIP3    H140808   6.994   3.224   8.002
13625TIP3    H240809   6.974   3.106   7.912
13626TIP3   OH240810   6.986   4.019   8.096
13626TIP3    H140811   6.962   4.106   8.059
13626TIP3    H240812   6.905   4.001   8.148
13627TIP3   OH240813   6.377   3.700   7.325
13627TIP3    H140814   6.336   3.728   7.240
13627TIP3    H240815   6.409   3.786   7.360
13628TIP3   OH240816   7.821   4.219   7.555
13628TIP3    H140817   7.735   4.204   7.601
13628TIP3    H240818   7.802   4.308   7.518
13629TIP3   OH240819   7.518   4.260   7.235
13629TIP3    H140820   7.568   4.177   7.217
13629TIP3    H240821   7.582   4.325   7.198
13630TIP3   OH240822   7.664   4.044   7.152
13630TIP3    H140823   7.622   3.966   7.113
13630TIP3    H240824   7.699   4.008   7.237
13631TIP3   OH240825   7.336   3.530   7.164
13631TIP3    H140826   7.254   3.582   7.147
13631TIP3    H240827   7.376   3.527   7.075
13632TIP3   OH240828   7.295   3.306   6.881
13632TIP3    H140829   7.361   3.362   6.926
13632TIP3    H240830   7.354   3.243   6.834
13633TIP3   OH240831   7.682   3.606   7.138
13633TIP3    H140832   7.626   3.628   7.216
13633TIP3    H240833   7.767   3.585   7.181
13634TIP3   OH240834   6.914   3.600   7.556
13634TIP3    H140835   6.873   3.543   7.489
13634TIP3    H240836   6.990   3.546   7.586
13635TIP3   OH240837   7.044   4.010   7.704
13635TIP3    H140838   7.024   3.981   7.614
13635TIP3    H240839   7.134   3.974   7.718
13636TIP3   OH240840   7.053   3.570   7.912
13636TIP3    H140841   7.080   3.544   7.822
13636TIP3    H240842   7.083   3.663   7.918
13637TIP3   OH240843   7.581   4.218   7.677
13637TIP3    H140844   7.566   4.299   7.730
13637TIP3    H240845   7.563   4.145   7.739
13638TIP3   OH240846   7.190   4.143   8.238
13638TIP3    H140847   7.119   4.199   8.278
13638TIP3    H240848   7.134   4.081   8.186
13639TIP3   OH240849   7.521   3.462   6.963
13639TIP3    H140850   7.579   3.525   7.012
13639TIP3    H240851   7.549   3.482   6.869
13640TIP3   OH240852   6.928   3.689   8.339
13640TIP3    H140853   6.924   3.778   8.379
13640TIP3    H240854   6.835   3.661   8.350
13641TIP3   OH240855   7.270   4.137   7.242
13641TIP3    H140856   7.351   4.191   7.250
13641TIP3    H240857   7.209   4.197   7.197
13642TIP3   OH240858   6.980   4.293   8.325
13642TIP3    H140859   6.944   4.303   8.235
13642TIP3    H240860   6.901   4.276   8.379
13643TIP3   OH240861   7.971   2.702   6.962
13643TIP3    H140862   7.913   2.719   7.039
13643TIP3    H240863   7.987   2.791   6.928
13644TIP3   OH240864   6.782   3.444   7.360
13644TIP3    H140865   6.714   3.489   7.305
13644TIP3    H240866   6.743   3.357   7.372
13645TIP3   OH240867   7.839   4.069   6.564
13645TIP3    H140868   7.847   4.165   6.546
13645TIP3    H240869   7.932   4.040   6.551
13646TIP3   OH240870   6.563   3.827   8.269
13646TIP3    H140871   6.493   3.811   8.202
13646TIP3    H240872   6.597   3.737   8.287
13647TIP3   OH240873   6.417   4.022   7.899
13647TIP3    H140874   6.513   4.019   7.891
13647TIP3    H240875   6.405   4.102   7.953
13648TIP3   OH240876   7.369   4.270   8.085
13648TIP3    H140877   7.400   4.335   8.149
13648TIP3    H240878   7.302   4.222   8.138
13649TIP3   OH240879   7.152   4.384   7.044
13649TIP3    H140880   7.106   4.368   6.960
13649TIP3    H240881   7.118   4.472   7.071
13650TIP3   OH240882   6.587   4.235   7.429
13650TIP3    H140883   6.634   4.226   7.515
13650TIP3    H240884   6.535   4.152   7.428
13651TIP3   OH240885   7.350   4.288   6.684
13651TIP3    H140886   7.409   4.219   6.647
13651TIP3    H240887   7.386   4.299   6.774
13652TIP3   OH240888   7.403   4.337   6.953
13652TIP3    H140889   7.314   4.347   6.992
13652TIP3    H240890   7.452   4.300   7.028
13653TIP3   OH240891   6.763   4.012   8.257
13653TIP3    H140892   6.803   3.993   8.344
13653TIP3    H240893   6.687   3.949   8.257
13654TIP3   OH240894   0.767   6.193   1.357
13654TIP3    H140895   0.676   6.201   1.388
13654TIP3    H240896   0.809   6.164   1.442
13655TIP3   OH240897   7.603   3.503   6.711
13655TIP3    H140898   7.564   3.483   6.623
13655TIP3    H240899   7.684   3.551   6.684
13656TIP3   OH240900   7.313   2.879   7.011
13656TIP3    H140901   7.272   2.876   7.100
13656TIP3    H240902   7.272   2.799   6.973
13657TIP3   OH240903   7.102   3.347   8.066
13657TIP3    H140904   7.045   3.374   8.141
13657TIP3    H240905   7.096   3.428   8.009
13658TIP3   OH240906   6.981   3.240   7.570
13658TIP3    H140907   6.889   3.213   7.590
13658TIP3    H240908   6.991   3.198   7.481
13659TIP3   OH240909   7.458   3.326   7.298
13659TIP3    H140910   7.411   3.398   7.249
13659TIP3    H240911   7.522   3.296   7.231
13660TIP3   OH240912   7.605   3.369   7.535
13660TIP3    H140913   7.542   3.401   7.467
13660TIP3    H240914   7.641   3.293   7.486
13661TIP3   OH240915   6.906   3.387   8.258
13661TIP3    H140916   6.909   3.452   8.331
13661TIP3    H240917   6.855   3.315   8.299
13662TIP3   OH240918   6.970   2.859   6.979
13662TIP3    H140919   6.955   2.856   7.075
13662TIP3    H240920   6.892   2.911   6.950
13663TIP3   OH240921   6.508   2.902   7.839
13663TIP3    H140922   6.583   2.933   7.894
13663TIP3    H240923   6.550   2.867   7.760
13664TIP3   OH240924   6.478   2.881   7.368
13664TIP3    H140925   6.523   2.917   7.290
13664TIP3    H240926   6.416   2.954   7.387
13665TIP3   OH240927   7.310   3.049   7.645
13665TIP3    H140928   7.216   3.058   7.672
13665TIP3    H240929   7.344   3.016   7.730
13666TIP3   OH240930   6.745   3.117   7.639
13666TIP3    H140931   6.650   3.126   7.612
13666TIP3    H240932   6.765   3.025   7.618
13667TIP3   OH240933   7.011   3.112   7.330
13667TIP3    H140934   7.102   3.127   7.301
13667TIP3    H240935   6.958   3.130   7.249
13668TIP3   OH240936   6.860   3.144   7.109
13668TIP3    H140937   6.788   3.098   7.062
13668TIP3    H240938   6.911   3.181   7.034
13669TIP3   OH240939   6.903   3.920   8.491
13669TIP3    H140940   6.971   3.977   8.528
13669TIP3    H240941   6.862   3.882   8.571
13670TIP3   OH240942   7.394   3.390   7.715
13670TIP3    H140943   7.471   3.369   7.657
13670TIP3    H240944   7.419   3.349   7.798
13671TIP3   OH240945   6.918   2.879   7.602
13671TIP3    H140946   6.872   2.813   7.659
13671TIP3    H240947   6.945   2.824   7.528
13672TIP3   OH240948   7.104   3.674   7.117
13672TIP3    H140949   7.032   3.608   7.105
13672TIP3    H240950   7.083   3.708   7.208
13673TIP3   OH240951   7.564   2.980   6.991
13673TIP3    H140952   7.467   2.960   6.992
13673TIP3    H240953   7.567   3.077   7.005
13674TIP3   OH240954   7.449   3.989   8.070
13674TIP3    H140955   7.460   3.946   8.156
13674TIP3    H240956   7.434   4.082   8.093
13675TIP3   OH240957   7.634   3.241   7.078
13675TIP3    H140958   7.730   3.254   7.071
13675TIP3    H240959   7.599   3.318   7.028
13676TIP3   OH240960   6.802   3.701   7.790
13676TIP3    H140961   6.836   3.671   7.704
13676TIP3    H240962   6.837   3.634   7.850
13677TIP3   OH240963   7.253   3.823   6.944
13677TIP3    H140964   7.204   3.909   6.943
13677TIP3    H240965   7.196   3.770   7.003
13678TIP3   OH240966   6.676   3.598   8.396
13678TIP3    H140967   6.660   3.570   8.489
13678TIP3    H240968   6.602   3.552   8.353
13679TIP3   OH240969   7.649   4.280   8.024
13679TIP3    H140970   7.556   4.279   7.997
13679TIP3    H240971   7.648   4.347   8.094
13680TIP3   OH240972   8.074   3.330   6.924
13680TIP3    H140973   8.016   3.287   6.857
13680TIP3    H240974   8.073   3.420   6.885
13681TIP3   OH240975   7.784   4.142   6.830
13681TIP3    H140976   7.746   4.073   6.886
13681TIP3    H240977   7.791   4.098   6.743
13682TIP3   OH240978   7.757   3.770   7.611
13682TIP3    H140979   7.660   3.764   7.623
13682TIP3    H240980   7.776   3.683   7.574
13683TIP3   OH240981   6.903   4.003   7.420
13683TIP3    H140982   6.899   4.083   7.364
13683TIP3    H240983   6.809   3.982   7.429
13684TIP3   OH240984   6.467   3.304   7.125
13684TIP3    H140985   6.509   3.389   7.145
13684TIP3    H240986   6.388   3.307   7.184
13685TIP3   OH240987   7.033   3.764   7.361
13685TIP3    H140988   7.001   3.855   7.380
13685TIP3    H240989   6.995   3.714   7.436
13686TIP3   OH240990   7.169   4.343   7.883
13686TIP3    H140991   7.210   4.412   7.826
13686TIP3    H240992   7.248   4.306   7.927
13687TIP3   OH240993   6.819   4.240   7.270
13687TIP3    H140994   6.733   4.250   7.316
13687TIP3    H240995   6.852   4.332   7.272
13688TIP3   OH240996   7.562   3.986   7.828
13688TIP3    H140997   7.523   3.984   7.918
13688TIP3    H240998   7.649   3.946   7.846
13689TIP3   OH240999   7.534   3.872   6.728
13689TIP3    H141000   7.584   3.846   6.808
13689TIP3    H241001   7.444   3.845   6.753
13690TIP3   OH241002   7.871   4.343   6.546
13690TIP3    H141003   7.899   4.411   6.483
13690TIP3    H241004   7.792   4.387   6.583
13691TIP3   OH241005   7.692   3.805   6.944
13691TIP3    H141006   7.683   3.739   7.015
13691TIP3    H241007   7.789   3.802   6.930
13692TIP3   OH241008   6.606   4.206   8.042
13692TIP3    H141009   6.662   4.137   8.081
13692TIP3    H241010   6.631   4.283   8.095
13693TIP3   OH241011   6.898   3.850   6.729
13693TIP3    H141012   6.909   3.757   6.702
13693TIP3    H241013   6.876   3.841   6.823
13694TIP3   OH241014   6.841   3.857   7.001
13694TIP3    H141015   6.917   3.832   7.056
13694TIP3    H241016   6.843   3.955   7.007
13695TIP3   OH241017   6.576   3.550   7.205
13695TIP3    H141018   6.509   3.594   7.261
13695TIP3    H241019   6.588   3.617   7.136
13696TIP3   OH241020   7.606   2.945   7.263
13696TIP3    H141021   7.593   2.946   7.166
13696TIP3    H241022   7.624   3.039   7.281
13697TIP3   OH241023   7.110   4.052   6.949
13697TIP3    H141024   7.023   4.077   6.985
13697TIP3    H241025   7.124   4.125   6.887
13698TIP3   OH241026   7.299   3.117   7.370
13698TIP3    H141027   7.355   3.194   7.344
13698TIP3    H241028   7.296   3.127   7.467
13699TIP3   OH241029   7.431   2.865   7.462
13699TIP3    H141030   7.398   2.951   7.493
13699TIP3    H241031   7.498   2.894   7.395
13700TIP3   OH241032   6.855   4.128   7.018
13700TIP3    H141033   6.825   4.198   6.956
13700TIP3    H241034   6.839   4.172   7.105
13701TIP3   OH241035   6.948   2.844   7.256
13701TIP3    H141036   6.947   2.934   7.294
13701TIP3    H241037   7.045   2.827   7.260
13702TIP3   OH241038   7.860   3.488   7.533
13702TIP3    H141039   7.771   3.452   7.554
13702TIP3    H241040   7.889   3.520   7.620
13703TIP3   OH241041   6.571   3.754   7.008
13703TIP3    H141042   6.639   3.822   7.017
13703TIP3    H241043   6.614   3.697   6.941
13704TIP3   OH241044   6.513   3.034   7.144
13704TIP3    H141045   6.513   3.131   7.142
13704TIP3    H241046   6.433   3.014   7.094
13705TIP3   OH241047   7.816   4.492   7.489
13705TIP3    H141048   7.778   4.542   7.413
13705TIP3    H241049   7.910   4.494   7.469
13706TIP3   OH241050   6.827   2.617   8.049
13706TIP3    H141051   6.838   2.641   7.954
13706TIP3    H241052   6.916   2.586   8.075
13707TIP3   OH241053   6.438   3.970   7.392
13707TIP3    H141054   6.374   4.001   7.457
13707TIP3    H241055   6.404   4.014   7.310
13708TIP3   OH241056   6.603   4.504   8.441
13708TIP3    H141057   6.660   4.496   8.518
13708TIP3    H241058   6.558   4.418   8.441
13709TIP3   OH241059   7.061   4.054   6.638
13709TIP3    H141060   7.006   3.980   6.675
13709TIP3    H241061   7.136   4.005   6.600
13710TIP3   OH241062   7.495   4.094   6.552
13710TIP3    H141063   7.540   4.029   6.609
13710TIP3    H241064   7.548   4.092   6.470
13711TIP3   OH241065   6.706   3.569   6.863
13711TIP3    H141066   6.764   3.540   6.936
13711TIP3    H241067   6.772   3.575   6.790
13712TIP3   OH241068   7.225   3.772   6.673
13712TIP3    H141069   7.223   3.782   6.770
13712TIP3    H241070   7.223   3.674   6.665
13713TIP3   OH241071   6.913   3.476   7.083
13713TIP3    H141072   6.883   3.434   7.165
13713TIP3    H241073   6.950   3.401   7.033
13714TIP3   OH241074   7.172   3.566   8.331
13714TIP3    H141075   7.081   3.604   8.327
13714TIP3    H241076   7.210   3.601   8.248
13715TIP3   OH241077   7.016   3.271   6.923
13715TIP3    H141078   6.990   3.280   6.829
13715TIP3    H241079   7.113   3.272   6.915
13716TIP3   OH241080   7.836   3.597   6.592
13716TIP3    H141081   7.816   3.555   6.506
13716TIP3    H241082   7.803   3.688   6.571
13717TIP3   OH241083   7.303   3.647   8.109
13717TIP3    H141084   7.378   3.645   8.050
13717TIP3    H241085   7.241   3.708   8.060
13718TIP3   OH241086   6.824   4.330   6.831
13718TIP3    H141087   6.919   4.322   6.812
13718TIP3    H241088   6.796   4.382   6.754
13719TIP3   OH241089   6.302   3.714   7.045
13719TIP3    H141090   6.396   3.735   7.030
13719TIP3    H241091   6.295   3.625   7.004
13720TIP3   OH241092   6.219   4.326   7.461
13720TIP3    H141093   6.153   4.265   7.421
13720TIP3    H241094   6.263   4.266   7.525
13721TIP3   OH241095   6.353   4.171   7.647
13721TIP3    H141096   6.340   4.102   7.713
13721TIP3    H241097   6.405   4.235   7.699
13722TIP3   OH241098   7.970   3.786   6.921
13722TIP3    H141099   8.028   3.857   6.886
13722TIP3    H241100   8.023   3.751   6.994
13723TIP3   OH241101   8.103   3.658   7.134
13723TIP3    H141102   8.028   3.607   7.170
13723TIP3    H241103   8.112   3.728   7.200
13724TIP3   OH241104   8.075   4.003   7.492
13724TIP3    H141105   8.167   4.025   7.513
13724TIP3    H241106   8.036   4.090   7.477
13725TIP3   OH241107   7.997   4.377   7.711
13725TIP3    H141108   7.948   4.386   7.793
13725TIP3    H241109   7.941   4.314   7.662
13726TIP3   OH241110   8.034   3.560   6.776
13726TIP3    H141111   7.966   3.559   6.704
13726TIP3    H241112   8.004   3.640   6.824
13727TIP3   OH241113   7.911   3.235   6.729
13727TIP3    H141114   7.868   3.274   6.652
13727TIP3    H241115   7.886   3.141   6.718
13728TIP3   OH241116   7.913   3.510   7.262
13728TIP3    H141117   7.916   3.416   7.236
13728TIP3    H241118   7.897   3.505   7.359
13729TIP3   OH241119   6.537   3.583   8.018
13729TIP3    H141120   6.534   3.550   7.926
13729TIP3    H241121   6.634   3.586   8.032
13730TIP3   OH241122   7.848   2.973   6.712
13730TIP3    H141123   7.921   2.933   6.763
13730TIP3    H241124   7.773   2.912   6.725
13731TIP3   OH241125   7.917   3.245   7.147
13731TIP3    H141126   7.936   3.150   7.152
13731TIP3    H241127   7.977   3.272   7.075
13732TIP3   OH241128   6.714   2.967   8.010
13732TIP3    H141129   6.750   2.902   8.069
13732TIP3    H241130   6.784   3.036   8.007
13733TIP3   OH241131   6.523   3.234   8.092
13733TIP3    H141132   6.571   3.236   8.007
13733TIP3    H241133   6.541   3.321   8.127
13734TIP3   OH241134   8.104   2.910   6.834
13734TIP3    H141135   8.146   2.852   6.768
13734TIP3    H241136   8.167   2.986   6.837
13735TIP3   OH241137   6.506   2.737   7.595
13735TIP3    H141138   6.413   2.732   7.625
13735TIP3    H241139   6.498   2.797   7.518
13736TIP3   OH241140   7.667   4.443   7.104
13736TIP3    H141141   7.717   4.434   7.020
13736TIP3    H241142   7.712   4.516   7.147
13737TIP3   OH241143   6.574   2.800   8.447
13737TIP3    H141144   6.552   2.881   8.435
13737TIP3    H241145   6.627   2.789   8.520
13738TIP3   OH241146   6.769   4.241   8.500
13738TIP3    H141147   6.681   4.226   8.461
13738TIP3    H241148   6.752   4.215   8.592
13739TIP3   OH241149   6.946   4.288   8.038
13739TIP3    H141150   6.897   4.363   7.998
13739TIP3    H241151   7.031   4.301   7.991
13740TIP3   OH241152   6.619   4.535   8.065
13740TIP3    H141153   6.528   4.564   8.041
13740TIP3    H241154   6.635   4.593   8.141
13741TIP3   OH241155   6.856   4.519   7.921
13741TIP3    H141156   6.768   4.530   7.963
13741TIP3    H241157   6.838   4.550   7.830
13742TIP3   OH241158   7.268   4.531   7.708
13742TIP3    H141159   7.202   4.557   7.641
13742TIP3    H241160   7.289   4.617   7.751
13743TIP3   OH241161   7.534   4.473   7.771
13743TIP3    H141162   7.444   4.498   7.743
13743TIP3    H241163   7.584   4.552   7.743
13744TIP3   OH241164   7.680   4.685   7.654
13744TIP3    H141165   7.761   4.735   7.671
13744TIP3    H241166   7.715   4.611   7.601
13745TIP3   OH241167   6.529   4.331   7.802
13745TIP3    H141168   6.555   4.303   7.892
13745TIP3    H241169   6.601   4.287   7.751
13746TIP3   OH241170   6.724   4.202   7.663
13746TIP3    H141171   6.741   4.119   7.714
13746TIP3    H241172   6.815   4.239   7.658
13747TIP3   OH241173   6.990   4.296   7.667
13747TIP3    H141174   7.023   4.205   7.654
13747TIP3    H241175   7.038   4.319   7.749
13748TIP3   OH241176   6.793   2.689   7.751
13748TIP3    H141177   6.701   2.659   7.754
13748TIP3    H241178   6.840   2.602   7.743
13749TIP3   OH241179   6.605   2.533   7.419
13749TIP3    H141180   6.631   2.588   7.344
13749TIP3    H241181   6.575   2.599   7.484
13750TIP3   OH241182   7.242   2.714   7.657
13750TIP3    H141183   7.271   2.780   7.593
13750TIP3    H241184   7.258   2.760   7.741
13751TIP3   OH241185   7.830   2.774   7.187
13751TIP3    H141186   7.754   2.822   7.227
13751TIP3    H241187   7.830   2.693   7.240
13752TIP3   OH241188   6.317   4.107   7.193
13752TIP3    H141189   6.232   4.074   7.161
13752TIP3    H241190   6.309   4.201   7.167
13753TIP3   OH241191   6.719   2.688   7.178
13753TIP3    H141192   6.767   2.625   7.120
13753TIP3    H241193   6.793   2.742   7.213
13754TIP3   OH241194   7.223   2.873   7.271
13754TIP3    H141195   7.281   2.822   7.330
13754TIP3    H241196   7.248   2.964   7.299
13755TIP3   OH241197   7.091   4.288   6.778
13755TIP3    H141198   7.179   4.312   6.741
13755TIP3    H241199   7.069   4.214   6.717
13756TIP3   OH241200   7.812   4.410   6.872
13756TIP3    H141201   7.805   4.312   6.861
13756TIP3    H241202   7.762   4.440   6.793
13757TIP3   OH241203   6.393   4.125   6.830
13757TIP3    H141204   6.398   4.148   6.924
13757TIP3    H241205   6.481   4.082   6.815
13758TIP3   OH241206   8.265   3.420   7.132
13758TIP3    H141207   8.223   3.508   7.126
13758TIP3    H241208   8.222   3.376   7.058
13759TIP3   OH241209   8.153   3.969   6.818
13759TIP3    H141210   8.118   3.994   6.731
13759TIP3    H241211   8.192   4.054   6.849
13760TIP3   OH241212   8.534   3.650   6.758
13760TIP3    H141213   8.459   3.711   6.748
13760TIP3    H241214   8.564   3.660   6.849
13761TIP3   OH241215   8.189   4.292   7.401
13761TIP3    H141216   8.281   4.281   7.382
13761TIP3    H241217   8.189   4.278   7.501
13762TIP3   OH241218   8.919   4.623   6.537
13762TIP3    H141219   8.887   4.614   6.446
13762TIP3    H241220   8.880   4.707   6.567
13763TIP3   OH241221   8.384   4.493   6.920
13763TIP3    H141222   8.410   4.476   7.011
13763TIP3    H241223   8.324   4.418   6.903
13764TIP3   OH241224   8.686   3.183   6.455
13764TIP3    H141225   8.748   3.116   6.486
13764TIP3    H241226   8.611   3.128   6.430
13765TIP3   OH241227   8.275   3.131   6.858
13765TIP3    H141228   8.320   3.167   6.778
13765TIP3    H241229   8.215   3.205   6.876
13766TIP3   OH241230   8.609   3.437   6.574
13766TIP3    H141231   8.583   3.345   6.569
13766TIP3    H241232   8.690   3.441   6.521
13767TIP3   OH241233   8.865   3.952   6.611
13767TIP3    H141234   8.813   3.871   6.587
13767TIP3    H241235   8.840   3.964   6.704
13768TIP3   OH241236   9.000   4.075   6.398
13768TIP3    H141237   8.978   4.166   6.426
13768TIP3    H241238   8.977   4.025   6.479
13769TIP3   OH241239   8.699   4.267   6.858
13769TIP3    H141240   8.678   4.350   6.810
13769TIP3    H241241   8.629   4.263   6.925
13770TIP3   OH241242   8.254   3.555   6.604
13770TIP3    H141243   8.305   3.636   6.623
13770TIP3    H241244   8.183   3.562   6.671
13771TIP3   OH241245   8.817   4.026   6.887
13771TIP3    H141246   8.786   4.117   6.862
13771TIP3    H241247   8.750   4.006   6.954
13772TIP3   OH241248   8.606   4.509   6.751
13772TIP3    H141249   8.521   4.516   6.798
13772TIP3    H241250   8.652   4.589   6.780
13773TIP3   OH241251   8.690   4.106   6.216
13773TIP3    H141252   8.693   4.012   6.191
13773TIP3    H241253   8.670   4.100   6.311
13774TIP3   OH241254   8.640   4.113   6.485
13774TIP3    H141255   8.721   4.084   6.530
13774TIP3    H241256   8.642   4.210   6.498
13775TIP3   OH241257   8.338   3.820   6.679
13775TIP3    H141258   8.276   3.867   6.738
13775TIP3    H241259   8.356   3.890   6.612
13776TIP3   OH241260   8.909   4.322   6.458
13776TIP3    H141261   8.817   4.346   6.483
13776TIP3    H241262   8.929   4.397   6.399
13777TIP3   OH241263   8.646   4.385   6.505
13777TIP3    H141264   8.614   4.452   6.439
13777TIP3    H241265   8.629   4.434   6.588
13778TIP3   OH241266   8.366   4.020   6.484
13778TIP3    H141267   8.437   4.086   6.497
13778TIP3    H241268   8.411   3.961   6.420
13779TIP3   OH241269   8.310   3.283   6.626
13779TIP3    H141270   8.329   3.379   6.624
13779TIP3    H241271   8.225   3.280   6.580
13780TIP3   OH241272   8.233   4.228   6.879
13780TIP3    H141273   8.170   4.265   6.943
13780TIP3    H241274   8.201   4.270   6.796
13781TIP3   OH241275   8.852   4.306   6.130
13781TIP3    H141276   8.788   4.238   6.162
13781TIP3    H241277   8.935   4.259   6.145
13782TIP3   OH241278   8.506   3.829   6.346
13782TIP3    H141279   8.552   3.792   6.423
13782TIP3    H241280   8.580   3.833   6.282
13783TIP3   OH241281   8.998   4.008   6.141
13783TIP3    H141282   9.016   4.040   6.232
13783TIP3    H241283   8.919   3.954   6.160
13784TIP3   OH241284   8.720   3.725   6.572
13784TIP3    H141285   8.654   3.690   6.637
13784TIP3    H241286   8.745   3.642   6.528
13785TIP3   OH241287   8.820   3.513   6.412
13785TIP3    H141288   8.784   3.527   6.322
13785TIP3    H241289   8.914   3.500   6.390
13786TIP3   OH241290   8.607   4.584   6.320
13786TIP3    H141291   8.703   4.587   6.307
13786TIP3    H241292   8.579   4.635   6.241
13787TIP3   OH241293   8.099   3.971   6.536
13787TIP3    H141294   8.191   3.996   6.514
13787TIP3    H241295   8.093   3.882   6.494
13788TIP3   OH241296   8.015   4.583   6.944
13788TIP3    H141297   7.948   4.524   6.902
13788TIP3    H241298   8.061   4.519   7.001
13789TIP3   OH241299   8.154   4.415   7.114
13789TIP3    H141300   8.122   4.352   7.180
13789TIP3    H241301   8.196   4.481   7.172
13790TIP3   OH241302   8.113   4.367   6.683
13790TIP3    H141303   8.027   4.334   6.650
13790TIP3    H241304   8.107   4.459   6.648
13791TIP3   OH241305   8.508   2.994   6.643
13791TIP3    H141306   8.582   2.932   6.650
13791TIP3    H241307   8.515   3.041   6.729
13792TIP3   OH241308   8.875   4.543   6.272
13792TIP3    H141309   8.962   4.558   6.230
13792TIP3    H241310   8.843   4.471   6.213
13793TIP3   OH241311   8.188   4.379   6.317
13793TIP3    H141312   8.191   4.413   6.407
13793TIP3    H241313   8.277   4.339   6.306
13794TIP3   OH241314   1.877   5.089   8.273
13794TIP3    H141315   1.906   5.021   8.210
13794TIP3    H241316   1.962   5.117   8.314
13795TIP3   OH241317   1.570   4.351   8.069
13795TIP3    H141318   1.645   4.411   8.094
13795TIP3    H241319   1.619   4.286   8.015
13796TIP3   OH241320   1.785   4.507   8.130
13796TIP3    H141321   1.799   4.600   8.153
13796TIP3    H241322   1.807   4.512   8.034
13797TIP3   OH241323   2.091   5.117   7.746
13797TIP3    H141324   2.101   5.211   7.721
13797TIP3    H241325   2.181   5.083   7.728
13798TIP3   OH241326   1.417   5.434   8.201
13798TIP3    H141327   1.366   5.426   8.118
13798TIP3    H241328   1.386   5.521   8.235
13799TIP3   OH241329   1.616   5.345   7.863
13799TIP3    H141330   1.665   5.268   7.825
13799TIP3    H241331   1.651   5.348   7.953
13800TIP3   OH241332   1.684   5.384   8.166
13800TIP3    H141333   1.593   5.419   8.178
13800TIP3    H241334   1.672   5.293   8.198
13801TIP3   OH241335   1.846   4.557   7.878
13801TIP3    H141336   1.811   4.530   7.791
13801TIP3    H241337   1.934   4.592   7.853
13802TIP3   OH241338   1.514   4.867   8.063
13802TIP3    H141339   1.483   4.959   8.081
13802TIP3    H241340   1.492   4.826   8.148
13803TIP3   OH241341   2.329   4.365   8.075
13803TIP3    H141342   2.255   4.326   8.023
13803TIP3    H241343   2.323   4.457   8.043
13804TIP3   OH241344   2.028   5.197   8.003
13804TIP3    H141345   2.018   5.113   8.049
13804TIP3    H241346   2.045   5.167   7.911
13805TIP3   OH241347   1.778   4.920   7.908
13805TIP3    H141348   1.835   4.896   7.984
13805TIP3    H241349   1.691   4.892   7.942
13806TIP3   OH241350   2.115   5.393   7.726
13806TIP3    H141351   2.153   5.462   7.670
13806TIP3    H241352   2.036   5.440   7.759
13807TIP3   OH241353   1.955   4.870   8.123
13807TIP3    H141354   1.950   4.826   8.209
13807TIP3    H241355   2.052   4.859   8.106
13808TIP3   OH241356   1.145   4.895   7.908
13808TIP3    H141357   1.174   4.806   7.881
13808TIP3    H241358   1.103   4.876   7.994
13809TIP3   OH241359   1.412   5.114   8.115
13809TIP3    H141360   1.355   5.120   8.194
13809TIP3    H241361   1.374   5.185   8.059
13810TIP3   OH241362   0.984   5.186   8.144
13810TIP3    H141363   0.997   5.259   8.079
13810TIP3    H241364   0.988   5.236   8.226
13811TIP3   OH241365   1.307   5.096   7.810
13811TIP3    H141366   1.252   5.027   7.852
13811TIP3    H241367   1.381   5.042   7.776
13812TIP3   OH241368   1.746   5.141   7.733
13812TIP3    H141369   1.785   5.071   7.789
13812TIP3    H241370   1.798   5.133   7.650
13813TIP3   OH241371   0.919   4.648   7.970
13813TIP3    H141372   0.954   4.713   8.035
13813TIP3    H241373   1.002   4.625   7.924
13814TIP3   OH241374   1.449   4.802   7.810
13814TIP3    H141375   1.465   4.824   7.905
13814TIP3    H241376   1.461   4.704   7.815
13815TIP3   OH241377   1.201   4.370   8.079
13815TIP3    H141378   1.211   4.361   7.982
13815TIP3    H241379   1.292   4.373   8.109
13816TIP3   OH241380   2.080   4.646   7.767
13816TIP3    H141381   2.064   4.601   7.682
13816TIP3    H241382   2.045   4.736   7.744
13817TIP3   OH241383   1.076   5.388   7.989
13817TIP3    H141384   1.172   5.377   7.978
13817TIP3    H241385   1.059   5.452   7.917
13818TIP3   OH241386   2.223   4.831   8.094
13818TIP3    H141387   2.295   4.891   8.063
13818TIP3    H241388   2.265   4.794   8.174
13819TIP3   OH241389   2.362   4.696   8.290
13819TIP3    H141390   2.301   4.671   8.359
13819TIP3    H241391   2.405   4.775   8.332
13820TIP3   OH241392   2.286   4.607   7.945
13820TIP3    H141393   2.212   4.611   7.880
13820TIP3    H241394   2.261   4.682   8.003
13821TIP3   OH241395   2.136   4.281   7.896
13821TIP3    H141396   2.107   4.307   7.808
13821TIP3    H241397   2.121   4.184   7.893
13822TIP3   OH241398   2.097   4.012   7.883
13822TIP3    H141399   2.178   3.987   7.933
13822TIP3    H241400   2.027   3.960   7.924
13823TIP3   OH241401   2.341   3.969   8.005
13823TIP3    H141402   2.387   3.891   7.968
13823TIP3    H241403   2.416   4.032   8.014
13824TIP3   OH241404   1.344   5.336   7.937
13824TIP3    H141405   1.434   5.357   7.905
13824TIP3    H241406   1.321   5.261   7.878
13825TIP3   OH241407   2.018   5.461   8.070
13825TIP3    H141408   2.030   5.364   8.050
13825TIP3    H241409   1.993   5.494   7.982
13826TIP3   OH241410   3.555   4.974   7.994
13826TIP3    H141411   3.521   5.064   7.975
13826TIP3    H241412   3.477   4.921   7.970
13827TIP3   OH241413   3.528   4.980   8.368
13827TIP3    H141414   3.582   4.961   8.447
13827TIP3    H241415   3.492   4.891   8.349
13828TIP3   OH241416   3.796   5.272   8.064
13828TIP3    H141417   3.776   5.197   8.122
13828TIP3    H241418   3.823   5.339   8.128
13829TIP3   OH241419   2.814   5.286   8.461
13829TIP3    H141420   2.800   5.189   8.463
13829TIP3    H241421   2.911   5.287   8.469
13830TIP3   OH241422   2.555   4.491   8.202
13830TIP3    H141423   2.518   4.575   8.235
13830TIP3    H241424   2.474   4.438   8.190
13831TIP3   OH241425   2.634   4.718   8.422
13831TIP3    H141426   2.631   4.743   8.514
13831TIP3    H241427   2.604   4.802   8.382
13832TIP3   OH241428   3.448   5.738   8.082
13832TIP3    H141429   3.490   5.667   8.029
13832TIP3    H241430   3.429   5.691   8.165
13833TIP3   OH241431   3.349   5.202   8.404
13833TIP3    H141432   3.388   5.117   8.374
13833TIP3    H241433   3.428   5.241   8.445
13834TIP3   OH241434   4.363   4.530   8.407
13834TIP3    H141435   4.385   4.615   8.449
13834TIP3    H241436   4.388   4.546   8.315
13835TIP3   OH241437   3.754   4.683   8.460
13835TIP3    H141438   3.797   4.599   8.484
13835TIP3    H241439   3.729   4.665   8.367
13836TIP3   OH241440   3.141   4.342   8.381
13836TIP3    H141441   3.102   4.425   8.349
13836TIP3    H241442   3.072   4.279   8.352
13837TIP3   OH241443   3.795   4.449   8.043
13837TIP3    H141444   3.863   4.433   8.113
13837TIP3    H241445   3.852   4.483   7.972
13838TIP3   OH241446   3.173   4.757   8.328
13838TIP3    H141447   3.268   4.732   8.334
13838TIP3    H241448   3.132   4.675   8.293
13839TIP3   OH241449   4.435   4.730   8.596
13839TIP3    H141450   4.350   4.774   8.574
13839TIP3    H241451   4.419   4.708   8.688
13840TIP3   OH241452   3.443   5.195   7.865
13840TIP3    H141453   3.396   5.172   7.784
13840TIP3    H241454   3.395   5.276   7.892
13841TIP3   OH241455   3.998   4.456   8.222
13841TIP3    H141456   3.996   4.397   8.298
13841TIP3    H241457   4.052   4.530   8.254
13842TIP3   OH241458   2.419   4.995   7.987
13842TIP3    H141459   2.387   5.039   7.906
13842TIP3    H241460   2.460   5.068   8.037
13843TIP3   OH241461   3.876   5.530   8.241
13843TIP3    H141462   3.790   5.506   8.282
13843TIP3    H241463   3.848   5.606   8.187
13844TIP3   OH241464   4.136   4.455   8.573
13844TIP3    H141465   4.049   4.475   8.537
13844TIP3    H241466   4.198   4.488   8.505
13845TIP3   OH241467   3.566   5.564   7.906
13845TIP3    H141468   3.613   5.479   7.887
13845TIP3    H241469   3.630   5.626   7.862
13846TIP3   OH241470   3.708   5.349   7.814
13846TIP3    H141471   3.663   5.271   7.778
13846TIP3    H241472   3.746   5.312   7.897
13847TIP3   OH241473   4.092   5.434   8.562
13847TIP3    H141474   4.080   5.345   8.522
13847TIP3    H241475   4.061   5.492   8.491
13848TIP3   OH241476   3.381   4.823   7.832
13848TIP3    H141477   3.300   4.874   7.812
13848TIP3    H241478   3.425   4.820   7.745
13849TIP3   OH241479   3.338   4.611   7.541
13849TIP3    H141480   3.405   4.662   7.591
13849TIP3    H241481   3.396   4.547   7.496
13850TIP3   OH241482   4.285   5.068   8.421
13850TIP3    H141483   4.200   5.117   8.429
13850TIP3    H241484   4.311   5.092   8.330
13851TIP3   OH241485   3.732   4.907   7.798
13851TIP3    H141486   3.675   4.929   7.876
13851TIP3    H241487   3.815   4.881   7.843
13852TIP3   OH241488   3.961   4.977   8.679
13852TIP3    H141489   3.943   5.071   8.697
13852TIP3    H241490   3.877   4.953   8.636
13853TIP3   OH241491   2.965   4.907   8.212
13853TIP3    H141492   2.922   4.844   8.151
13853TIP3    H241493   3.036   4.853   8.251
13854TIP3   OH241494   3.096   5.322   8.363
13854TIP3    H141495   3.074   5.274   8.282
13854TIP3    H241496   3.182   5.280   8.386
13855TIP3   OH241497   3.090   4.884   8.556
13855TIP3    H141498   3.118   4.829   8.479
13855TIP3    H241499   3.175   4.898   8.600
13856TIP3   OH241500   3.633   5.506   8.348
13856TIP3    H141501   3.609   5.589   8.393
13856TIP3    H241502   3.603   5.437   8.411
13857TIP3   OH241503   3.567   4.765   7.628
13857TIP3    H141504   3.626   4.825   7.678
13857TIP3    H241505   3.594   4.785   7.535
13858TIP3   OH241506   3.315   5.440   7.900
13858TIP3    H141507   3.394   5.495   7.915
13858TIP3    H241508   3.253   5.501   7.860
13859TIP3   OH241509   4.084   4.002   7.678
13859TIP3    H141510   4.002   4.022   7.728
13859TIP3    H241511   4.098   4.085   7.629
13860TIP3   OH241512   2.832   4.743   8.013
13860TIP3    H141513   2.758   4.782   7.963
13860TIP3    H241514   2.790   4.666   8.053
13861TIP3   OH241515   3.885   5.369   7.227
13861TIP3    H141516   3.894   5.466   7.211
13861TIP3    H241517   3.978   5.339   7.214
13862TIP3   OH241518   4.320   5.765   8.608
13862TIP3    H141519   4.331   5.669   8.639
13862TIP3    H241520   4.241   5.788   8.663
13863TIP3   OH241521   3.197   5.688   7.706
13863TIP3    H141522   3.148   5.669   7.624
13863TIP3    H241523   3.161   5.775   7.732
13864TIP3   OH241524   2.631   5.539   8.087
13864TIP3    H141525   2.682   5.528   8.170
13864TIP3    H241526   2.591   5.450   8.079
13865TIP3   OH241527   3.394   5.591   7.345
13865TIP3    H141528   3.453   5.520   7.309
13865TIP3    H241529   3.429   5.600   7.436
13866TIP3   OH241530   3.447   5.638   7.615
13866TIP3    H141531   3.358   5.648   7.655
13866TIP3    H241532   3.493   5.591   7.686
13867TIP3   OH241533   3.645   4.809   7.373
13867TIP3    H141534   3.609   4.785   7.286
13867TIP3    H241535   3.730   4.850   7.348
13868TIP3   OH241536   3.357   4.184   7.676
13868TIP3    H141537   3.321   4.179   7.767
13868TIP3    H241538   3.318   4.102   7.640
13869TIP3   OH241539   3.026   4.548   8.235
13869TIP3    H141540   2.935   4.520   8.259
13869TIP3    H241541   3.034   4.506   8.147
13870TIP3   OH241542   3.522   4.627   7.965
13870TIP3    H141543   3.470   4.697   7.920
13870TIP3    H241544   3.576   4.591   7.892
13871TIP3   OH241545   3.676   4.649   8.197
13871TIP3    H141546   3.612   4.675   8.128
13871TIP3    H241547   3.711   4.568   8.154
13872TIP3   OH241548   3.011   4.159   7.637
13872TIP3    H141549   3.005   4.157   7.734
13872TIP3    H241550   2.934   4.214   7.615
13873TIP3   OH241551   2.537   4.187   8.030
13873TIP3    H141552   2.580   4.225   7.950
13873TIP3    H241553   2.470   4.257   8.047
13874TIP3   OH241554   3.701   4.926   8.573
13874TIP3    H141555   3.719   4.833   8.545
13874TIP3    H241556   3.673   4.916   8.666
13875TIP3   OH241557   3.389   4.378   8.273
13875TIP3    H141558   3.299   4.369   8.312
13875TIP3    H241559   3.444   4.368   8.353
13876TIP3   OH241560   2.796   4.401   8.280
13876TIP3    H141561   2.709   4.441   8.256
13876TIP3    H241562   2.810   4.338   8.207
13877TIP3   OH241563   3.054   4.416   7.997
13877TIP3    H141564   3.148   4.426   7.972
13877TIP3    H241565   3.006   4.431   7.912
13878TIP3   OH241566   3.848   4.431   8.516
13878TIP3    H141567   3.828   4.425   8.611
13878TIP3    H241568   3.777   4.374   8.478
13879TIP3   OH241569   2.904   4.444   7.771
13879TIP3    H141570   2.831   4.401   7.724
13879TIP3    H241571   2.955   4.482   7.697
13880TIP3   OH241572   4.048   6.116   8.705
13880TIP3    H141573   4.030   6.147   8.615
13880TIP3    H241574   4.058   6.198   8.754
13881TIP3   OH241575   3.442   4.697   8.381
13881TIP3    H141576   3.508   4.651   8.327
13881TIP3    H241577   3.460   4.663   8.469
13882TIP3   OH241578   2.980   4.174   8.212
13882TIP3    H141579   2.941   4.114   8.277
13882TIP3    H241580   3.049   4.120   8.171
13883TIP3   OH241581   3.149   4.974   7.777
13883TIP3    H141582   3.078   4.907   7.768
13883TIP3    H241583   3.130   5.009   7.868
13884TIP3   OH241584   4.051   5.212   8.408
13884TIP3    H141585   4.071   5.261   8.326
13884TIP3    H241586   3.967   5.167   8.385
13885TIP3   OH241587   3.607   4.286   7.643
13885TIP3    H141588   3.511   4.265   7.655
13885TIP3    H241589   3.613   4.380   7.672
13886TIP3   OH241590   3.676   4.536   7.749
13886TIP3    H141591   3.772   4.541   7.765
13886TIP3    H241592   3.658   4.617   7.697
13887TIP3   OH241593   2.864   5.014   8.452
13887TIP3    H141594   2.880   4.990   8.359
13887TIP3    H241595   2.921   4.948   8.496
13888TIP3   OH241596   3.295   5.124   7.602
13888TIP3    H141597   3.246   5.209   7.606
13888TIP3    H241598   3.241   5.068   7.662
13889TIP3   OH241599   3.726   5.574   8.680
13889TIP3    H141600   3.635   5.544   8.689
13889TIP3    H241601   3.748   5.606   8.770
13890TIP3   OH241602   4.118   4.628   7.582
13890TIP3    H141603   4.056   4.585   7.519
13890TIP3    H241604   4.115   4.718   7.543
13891TIP3   OH241605   4.332   5.500   8.659
13891TIP3    H141606   4.237   5.479   8.642
13891TIP3    H241607   4.372   5.456   8.582
13892TIP3   OH241608   3.825   5.444   7.493
13892TIP3    H141609   3.793   5.374   7.552
13892TIP3    H241610   3.835   5.397   7.408
13893TIP3   OH241611   3.819   5.082   8.313
13893TIP3    H141612   3.731   5.053   8.340
13893TIP3    H241613   3.853   4.999   8.273
13894TIP3   OH241614   2.943   5.303   8.078
13894TIP3    H141615   2.934   5.383   8.024
13894TIP3    H241616   2.852   5.278   8.094
13895TIP3   OH241617   2.509   4.604   7.785
13895TIP3    H141618   2.556   4.687   7.810
13895TIP3    H241619   2.434   4.606   7.849
13896TIP3   OH241620   3.080   5.068   8.018
13896TIP3    H141621   3.046   5.156   8.043
13896TIP3    H241622   3.048   5.013   8.092
13897TIP3   OH241623   3.205   5.651   8.533
13897TIP3    H141624   3.262   5.720   8.493
13897TIP3    H241625   3.268   5.593   8.578
13898TIP3   OH241626   2.860   5.544   7.929
13898TIP3    H141627   2.775   5.552   7.978
13898TIP3    H241628   2.893   5.636   7.934
13899TIP3   OH241629   3.604   5.280   8.515
13899TIP3    H141630   3.617   5.250   8.606
13899TIP3    H241631   3.681   5.239   8.473
13900TIP3   OH241632   3.579   5.177   7.392
13900TIP3    H141633   3.632   5.150   7.471
13900TIP3    H241634   3.492   5.144   7.419
13901TIP3   OH241635   3.855   5.804   8.554
13901TIP3    H141636   3.779   5.742   8.558
13901TIP3    H241637   3.827   5.867   8.484
13902TIP3   OH241638   3.915   5.645   7.210
13902TIP3    H141639   3.951   5.718   7.157
13902TIP3    H241640   3.835   5.689   7.245
13903TIP3   OH241641   3.740   5.108   7.605
13903TIP3    H141642   3.727   5.042   7.677
13903TIP3    H241643   3.837   5.102   7.594
13904TIP3   OH241644   2.940   5.153   7.393
13904TIP3    H141645   2.954   5.060   7.366
13904TIP3    H241646   2.919   5.142   7.488
13905TIP3   OH241647   2.883   5.158   7.665
13905TIP3    H141648   2.957   5.127   7.720
13905TIP3    H241649   2.891   5.256   7.675
13906TIP3   OH241650   2.619   4.847   7.867
13906TIP3    H141651   2.550   4.889   7.924
13906TIP3    H241652   2.633   4.919   7.802
13907TIP3   OH241653   3.656   4.235   7.926
13907TIP3    H141654   3.642   4.258   7.833
13907TIP3    H241655   3.695   4.318   7.963
13908TIP3   OH241656   3.154   5.354   7.611
13908TIP3    H141657   3.067   5.378   7.649
13908TIP3    H241658   3.166   5.428   7.549
13909TIP3   OH241659   3.340   4.424   8.010
13909TIP3    H141660   3.403   4.497   7.992
13909TIP3    H241661   3.353   4.415   8.107
13910TIP3   OH241662   3.484   4.149   8.122
13910TIP3    H141663   3.474   4.231   8.175
13910TIP3    H241664   3.550   4.179   8.055
13911TIP3   OH241665   2.901   5.431   7.682
13911TIP3    H141666   2.869   5.502   7.621
13911TIP3    H241667   2.883   5.473   7.769
13912TIP3   OH241668   2.998   4.144   7.909
13912TIP3    H141669   2.989   4.225   7.963
13912TIP3    H241670   3.094   4.129   7.917
13913TIP3   OH241671   3.901   4.832   8.203
13913TIP3    H141672   3.824   4.773   8.214
13913TIP3    H241673   3.971   4.784   8.252
13914TIP3   OH241674   2.616   5.057   7.671
13914TIP3    H141675   2.690   5.120   7.681
13914TIP3    H241676   2.658   4.996   7.605
13915TIP3   OH241677   2.561   4.335   7.801
13915TIP3    H141678   2.562   4.433   7.803
13915TIP3    H241679   2.473   4.317   7.765
13916TIP3   OH241680   3.879   5.798   8.145
13916TIP3    H141681   3.825   5.848   8.079
13916TIP3    H241682   3.956   5.776   8.092
13917TIP3   OH241683   2.497   5.291   8.055
13917TIP3    H141684   2.429   5.297   8.122
13917TIP3    H241685   2.450   5.328   7.975
13918TIP3   OH241686   3.104   5.354   7.302
13918TIP3    H141687   3.048   5.282   7.340
13918TIP3    H241688   3.180   5.302   7.271
13919TIP3   OH241689   3.540   5.394   7.218
13919TIP3    H141690   3.578   5.327   7.278
13919TIP3    H241691   3.598   5.388   7.139
13920TIP3   OH241692   2.751   4.870   7.528
13920TIP3    H141693   2.806   4.838   7.601
13920TIP3    H241694   2.819   4.875   7.457
13921TIP3   OH241695   3.266   5.073   7.333
13921TIP3    H141696   3.267   5.083   7.431
13921TIP3    H241697   3.267   4.975   7.326
13922TIP3   OH241698   3.868   5.290   8.671
13922TIP3    H141699   3.960   5.321   8.667
13922TIP3    H241700   3.823   5.369   8.702
13923TIP3   OH241701   2.954   4.780   7.746
13923TIP3    H141702   2.927   4.744   7.833
13923TIP3    H241703   2.992   4.701   7.702
13924TIP3   OH241704   3.060   4.574   7.586
13924TIP3    H141705   3.036   4.581   7.491
13924TIP3    H241706   3.157   4.574   7.580
13925TIP3   OH241707   3.878   4.901   7.254
13925TIP3    H141708   3.860   4.856   7.169
13925TIP3    H241709   3.844   4.990   7.232
13926TIP3   OH241710   2.869   5.637   7.495
13926TIP3    H141711   2.964   5.625   7.475
13926TIP3    H241712   2.842   5.687   7.416
13927TIP3   OH241713   2.345   5.020   7.700
13927TIP3    H141714   2.441   5.039   7.689
13927TIP3    H241715   2.340   4.928   7.665
13928TIP3   OH241716   2.262   5.624   8.119
13928TIP3    H141717   2.197   5.559   8.088
13928TIP3    H241718   2.308   5.573   8.189
13929TIP3   OH241719   2.391   5.482   8.312
13929TIP3    H141720   2.407   5.399   8.360
13929TIP3    H241721   2.445   5.545   8.363
13930TIP3   OH241722   4.017   5.087   7.585
13930TIP3    H141723   4.084   5.150   7.554
13930TIP3    H241724   4.061   5.049   7.665
13931TIP3   OH241725   4.145   4.956   7.791
13931TIP3    H141726   4.077   4.912   7.847
13931TIP3    H241727   4.209   4.990   7.856
13932TIP3   OH241728   4.202   5.350   8.220
13932TIP3    H141729   4.255   5.276   8.181
13932TIP3    H241730   4.197   5.413   8.145
13933TIP3   OH241731   4.046   5.673   8.397
13933TIP3    H141732   3.974   5.701   8.457
13933TIP3    H241733   3.995   5.619   8.332
13934TIP3   OH241734   4.082   4.864   7.434
13934TIP3    H141735   4.010   4.864   7.366
13934TIP3    H241736   4.051   4.938   7.490
13935TIP3   OH241737   3.953   4.536   7.387
13935TIP3    H141738   3.907   4.568   7.308
13935TIP3    H241739   3.931   4.440   7.382
13936TIP3   OH241740   3.958   4.813   7.934
13936TIP3    H141741   3.963   4.717   7.924
13936TIP3    H241742   3.942   4.824   8.030
13937TIP3   OH241743   4.222   5.235   8.766
13937TIP3    H141744   4.299   5.175   8.768
13937TIP3    H241745   4.263   5.322   8.757
13938TIP3   OH241746   4.413   5.038   8.791
13938TIP3    H141747   4.349   4.998   8.852
13938TIP3    H241748   4.488   4.978   8.802
13939TIP3   OH241749   3.896   4.270   7.371
13939TIP3    H141750   3.968   4.237   7.428
13939TIP3    H241751   3.821   4.211   7.392
13940TIP3   OH241752   3.956   4.530   7.826
13940TIP3    H141753   3.995   4.440   7.842
13940TIP3    H241754   4.014   4.560   7.754
13941TIP3   OH241755   4.113   4.702   8.328
13941TIP3    H141756   4.199   4.725   8.288
13941TIP3    H241757   4.126   4.739   8.418
13942TIP3   OH241758   4.187   4.848   8.562
13942TIP3    H141759   4.110   4.882   8.613
13942TIP3    H241760   4.217   4.930   8.518
13943TIP3   OH241761   4.062   4.279   7.865
13943TIP3    H141762   4.110   4.263   7.949
13943TIP3    H241763   4.000   4.203   7.865
13944TIP3   OH241764   4.141   4.211   7.500
13944TIP3    H141765   4.179   4.139   7.446
13944TIP3    H241766   4.210   4.280   7.497
13945TIP3   OH241767   2.558   4.033   8.246
13945TIP3    H141768   2.486   4.072   8.297
13945TIP3    H241769   2.567   4.098   8.173
13946TIP3   OH241770   3.713   5.746   7.767
13946TIP3    H141771   3.758   5.731   7.681
13946TIP3    H241772   3.765   5.819   7.803
13947TIP3   OH241773   2.984   5.608   8.707
13947TIP3    H141774   2.971   5.684   8.646
13947TIP3    H241775   3.067   5.573   8.673
13948TIP3   OH241776   3.600   5.980   8.661
13948TIP3    H141777   3.685   5.934   8.659
13948TIP3    H241778   3.604   6.022   8.750
13949TIP3   OH241779   2.893   5.831   8.575
13949TIP3    H141780   2.801   5.840   8.601
13949TIP3    H241781   2.889   5.855   8.481
13950TIP3   OH241782   3.329   5.849   8.377
13950TIP3    H141783   3.255   5.860   8.314
13950TIP3    H241784   3.333   5.938   8.417
13951TIP3   OH241785   3.591   5.776   8.421
13951TIP3    H141786   3.496   5.795   8.405
13951TIP3    H241787   3.630   5.862   8.402
13952TIP3   OH241788   3.821   5.977   8.346
13952TIP3    H141789   3.797   6.059   8.297
13952TIP3    H241790   3.834   5.914   8.273
13953TIP3   OH241791   2.590   5.635   8.445
13953TIP3    H141792   2.617   5.594   8.529
13953TIP3    H241793   2.657   5.594   8.387
13954TIP3   OH241794   2.780   5.505   8.308
13954TIP3    H141795   2.791   5.420   8.357
13954TIP3    H241796   2.872   5.539   8.310
13955TIP3   OH241797   3.041   5.593   8.325
13955TIP3    H141798   3.067   5.498   8.319
13955TIP3    H241799   3.092   5.617   8.405
13956TIP3   OH241800   3.634   4.276   8.416
13956TIP3    H141801   3.565   4.220   8.455
13956TIP3    H241802   3.694   4.212   8.373
13957TIP3   OH241803   4.134   4.142   8.319
13957TIP3    H141804   4.165   4.191   8.240
13957TIP3    H241805   4.037   4.148   8.310
13958TIP3   OH241806   4.227   4.235   8.081
13958TIP3    H141807   4.302   4.182   8.043
13958TIP3    H241808   4.262   4.326   8.067
13959TIP3   OH241809   2.611   3.847   8.050
13959TIP3    H141810   2.666   3.897   7.987
13959TIP3    H241811   2.608   3.908   8.127
13960TIP3   OH241812   3.306   4.024   8.299
13960TIP3    H141813   3.368   4.049   8.227
13960TIP3    H241814   3.335   4.088   8.368
13961TIP3   OH241815   3.855   4.136   8.286
13961TIP3    H141816   3.853   4.092   8.201
13961TIP3    H241817   3.834   4.061   8.347
13962TIP3   OH241818   3.880   4.066   7.858
13962TIP3    H141819   3.793   4.107   7.875
13962TIP3    H241820   3.867   3.980   7.904
13963TIP3   OH241821   2.356   5.408   7.856
13963TIP3    H141822   2.272   5.376   7.819
13963TIP3    H241823   2.353   5.501   7.827
13964TIP3   OH241824   2.766   3.990   7.840
13964TIP3    H141825   2.814   3.926   7.784
13964TIP3    H241826   2.841   4.045   7.874
13965TIP3   OH241827   3.272   4.169   7.939
13965TIP3    H141828   3.334   4.122   7.997
13965TIP3    H241829   3.296   4.262   7.960
13966TIP3   OH241830   3.135   5.589   7.440
13966TIP3    H141831   3.223   5.611   7.404
13966TIP3    H241832   3.113   5.514   7.379
13967TIP3   OH241833   3.855   5.711   7.534
13967TIP3    H141834   3.848   5.613   7.524
13967TIP3    H241835   3.808   5.740   7.453
13968TIP3   OH241836   2.441   5.428   7.495
13968TIP3    H141837   2.448   5.446   7.590
13968TIP3    H241838   2.527   5.384   7.476
13969TIP3   OH241839   4.082   5.846   8.698
13969TIP3    H141840   3.994   5.829   8.657
13969TIP3    H241841   4.071   5.941   8.722
13970TIP3   OH241842   5.347   5.228   7.485
13970TIP3    H141843   5.315   5.318   7.464
13970TIP3    H241844   5.272   5.175   7.451
13971TIP3   OH241845   5.344   5.231   7.872
13971TIP3    H141846   5.380   5.205   7.959
13971TIP3    H241847   5.306   5.147   7.841
13972TIP3   OH241848   4.641   5.121   8.232
13972TIP3    H141849   4.668   5.051   8.294
13972TIP3    H241850   4.725   5.169   8.222
13973TIP3   OH241851   5.591   5.529   7.553
13973TIP3    H141852   5.576   5.459   7.618
13973TIP3    H241853   5.624   5.602   7.608
13974TIP3   OH241854   4.614   5.533   7.953
13974TIP3    H141855   4.609   5.434   7.954
13974TIP3    H241856   4.710   5.544   7.949
13975TIP3   OH241857   4.324   4.735   7.738
13975TIP3    H141858   4.274   4.816   7.756
13975TIP3    H241859   4.255   4.680   7.698
13976TIP3   OH241860   4.382   5.022   7.920
13976TIP3    H141861   4.430   4.943   7.953
13976TIP3    H241862   4.438   5.050   7.847
13977TIP3   OH241863   5.244   5.992   7.571
13977TIP3    H141864   5.283   5.924   7.512
13977TIP3    H241865   5.236   5.943   7.653
13978TIP3   OH241866   5.143   5.456   7.918
13978TIP3    H141867   5.183   5.377   7.876
13978TIP3    H241868   5.227   5.502   7.942
13979TIP3   OH241869   6.159   4.771   7.916
13979TIP3    H141870   6.187   4.855   7.958
13979TIP3    H241871   6.183   4.788   7.823
13980TIP3   OH241872   5.557   4.954   7.946
13980TIP3    H141873   5.601   4.869   7.967
13980TIP3    H241874   5.525   4.936   7.855
13981TIP3   OH241875   4.899   4.614   7.910
13981TIP3    H141876   4.878   4.686   7.847
13981TIP3    H241877   4.850   4.540   7.868
13982TIP3   OH241878   5.592   4.708   7.532
13982TIP3    H141879   5.662   4.692   7.599
13982TIP3    H241880   5.646   4.741   7.458
13983TIP3   OH241881   4.528   4.815   8.019
13983TIP3    H141882   4.611   4.796   8.067
13983TIP3    H241883   4.542   4.759   7.940
13984TIP3   OH241884   4.967   5.013   7.819
13984TIP3    H141885   5.062   4.989   7.828
13984TIP3    H241886   4.929   4.929   7.784
13985TIP3   OH241887   6.228   4.979   8.089
13985TIP3    H141888   6.144   5.027   8.073
13985TIP3    H241889   6.260   5.022   8.170
13986TIP3   OH241890   4.895   4.602   8.341
13986TIP3    H141891   4.837   4.632   8.268
13986TIP3    H241892   4.842   4.630   8.418
13987TIP3   OH241893   5.229   5.445   7.358
13987TIP3    H141894   5.195   5.435   7.268
13987TIP3    H241895   5.186   5.529   7.385
13988TIP3   OH241896   4.998   5.376   8.140
13988TIP3    H141897   4.937   5.443   8.176
13988TIP3    H241898   5.040   5.423   8.065
13989TIP3   OH241899   5.796   4.711   7.710
13989TIP3    H141900   5.785   4.664   7.794
13989TIP3    H241901   5.848   4.789   7.737
13990TIP3   OH241902   4.764   4.713   8.127
13990TIP3    H141903   4.826   4.785   8.152
13990TIP3    H241904   4.813   4.673   8.052
13991TIP3   OH241905   4.819   5.571   8.244
13991TIP3    H141906   4.796   5.658   8.205
13991TIP3    H241907   4.740   5.556   8.299
13992TIP3   OH241908   4.217   5.258   7.474
13992TIP3    H141909   4.177   5.284   7.389
13992TIP3    H241910   4.250   5.343   7.509
13993TIP3   OH241911   5.657   5.776   7.719
13993TIP3    H141912   5.567   5.767   7.757
13993TIP3    H241913   5.648   5.860   7.670
13994TIP3   OH241914   5.951   4.669   8.079
13994TIP3    H141915   5.865   4.697   8.044
13994TIP3    H241916   6.013   4.704   8.012
13995TIP3   OH241917   5.245   4.311   8.065
13995TIP3    H141918   5.228   4.216   8.083
13995TIP3    H241919   5.168   4.351   8.110
13996TIP3   OH241920   5.355   5.820   7.385
13996TIP3    H141921   5.404   5.736   7.368
13996TIP3    H241922   5.420   5.884   7.347
13997TIP3   OH241923   5.498   5.604   7.304
13997TIP3    H141924   5.477   5.523   7.255
13997TIP3    H241925   5.537   5.567   7.387
13998TIP3   OH241926   5.872   5.686   8.051
13998TIP3    H141927   5.860   5.606   7.996
13998TIP3    H241928   5.859   5.758   7.986
13999TIP3   OH241929   5.178   5.080   7.319
13999TIP3    H141930   5.099   5.133   7.298
13999TIP3    H241931   5.223   5.076   7.233
14000TIP3   OH241932   5.135   4.866   7.030
14000TIP3    H141933   5.202   4.919   7.078
14000TIP3    H241934   5.194   4.803   6.983
14001TIP3   OH241935   6.083   5.331   7.907
14001TIP3    H141936   5.997   5.378   7.914
14001TIP3    H241937   6.105   5.349   7.813
14002TIP3   OH241938   5.526   5.162   7.287
14002TIP3    H141939   5.471   5.185   7.366
14002TIP3    H241940   5.610   5.138   7.330
14003TIP3   OH241941   5.755   5.186   8.198
14003TIP3    H141942   5.765   5.265   8.257
14003TIP3    H241943   5.669   5.207   8.156
14004TIP3   OH241944   4.757   5.159   7.708
14004TIP3    H141945   4.715   5.101   7.641
14004TIP3    H241946   4.832   5.105   7.738
14005TIP3   OH241947   4.886   5.572   7.855
14005TIP3    H141948   4.865   5.537   7.766
14005TIP3    H241949   4.975   5.534   7.871
14006TIP3   OH241950   4.890   5.131   8.062
14006TIP3    H141951   4.923   5.104   7.974
14006TIP3    H241952   4.937   5.216   8.078
14007TIP3   OH241953   5.415   5.771   7.840
14007TIP3    H141954   5.409   5.846   7.901
14007TIP3    H241955   5.402   5.694   7.898
14008TIP3   OH241956   5.030   5.688   8.383
14008TIP3    H141957   4.966   5.748   8.427
14008TIP3    H241958   4.967   5.633   8.331
14009TIP3   OH241959   5.362   5.022   7.115
14009TIP3    H141960   5.422   5.082   7.164
14009TIP3    H241961   5.389   5.041   7.022
14010TIP3   OH241962   4.788   5.243   8.480
14010TIP3    H141963   4.783   5.328   8.527
14010TIP3    H241964   4.695   5.214   8.488
14011TIP3   OH241965   5.108   5.699   7.394
14011TIP3    H141966   5.193   5.748   7.398
14011TIP3    H241967   5.051   5.760   7.346
14012TIP3   OH241968   4.818   5.839   8.466
14012TIP3    H141969   4.782   5.849   8.376
14012TIP3    H241970   4.738   5.838   8.521
14013TIP3   OH241971   5.881   4.259   7.165
14013TIP3    H141972   5.799   4.281   7.214
14013TIP3    H241973   5.896   4.341   7.114
14014TIP3   OH241974   4.623   5.003   7.513
14014TIP3    H141975   4.554   5.044   7.456
14014TIP3    H241976   4.589   4.913   7.522
14015TIP3   OH241977   5.680   5.619   6.717
14015TIP3    H141978   5.686   5.717   6.705
14015TIP3    H241979   5.773   5.593   6.705
14016TIP3   OH241980   4.403   5.391   8.418
14016TIP3    H141981   4.334   5.365   8.353
14016TIP3    H241982   4.442   5.305   8.443
14017TIP3   OH241983   4.270   5.579   8.046
14017TIP3    H141984   4.355   5.538   8.026
14017TIP3    H241985   4.293   5.671   8.060
14018TIP3   OH241986   5.220   5.816   8.237
14018TIP3    H141987   5.219   5.907   8.273
14018TIP3    H241988   5.152   5.772   8.292
14019TIP3   OH241989   4.991   5.941   7.196
14019TIP3    H141990   4.947   5.923   7.111
14019TIP3    H241991   4.958   6.029   7.220
14020TIP3   OH241992   4.427   5.792   7.580
14020TIP3    H141993   4.475   5.783   7.665
14020TIP3    H241994   4.381   5.706   7.574
14021TIP3   OH241995   5.190   5.845   6.832
14021TIP3    H141996   5.249   5.776   6.795
14021TIP3    H241997   5.227   5.856   6.922
14022TIP3   OH241998   5.242   5.895   7.102
14022TIP3    H141999   5.155   5.903   7.145
14022TIP3    H242000   5.295   5.856   7.173
14023TIP3   OH242001   6.036   5.165   8.348
14023TIP3    H142002   5.943   5.190   8.345
14023TIP3    H242003   6.033   5.068   8.346
14024TIP3   OH242004   4.601   5.578   8.423
14024TIP3    H142005   4.651   5.546   8.501
14024TIP3    H242006   4.532   5.508   8.414
14025TIP3   OH242007   5.008   4.391   8.191
14025TIP3    H142008   4.920   4.361   8.161
14025TIP3    H242009   4.981   4.471   8.240
14026TIP3   OH242010   5.541   4.509   8.388
14026TIP3    H142011   5.604   4.478   8.456
14026TIP3    H242012   5.454   4.491   8.430
14027TIP3   OH242013   5.775   4.933   8.305
14027TIP3    H142014   5.723   4.939   8.388
14027TIP3    H242015   5.760   5.021   8.264
14028TIP3   OH242016   5.441   5.063   6.860
14028TIP3    H142017   5.405   5.041   6.772
14028TIP3    H242018   5.525   5.106   6.836
14029TIP3   OH242019   5.152   4.440   7.164
14029TIP3    H142020   5.117   4.435   7.255
14029TIP3    H242021   5.113   4.358   7.127
14030TIP3   OH242022   4.940   4.909   8.210
14030TIP3    H142023   4.890   4.930   8.291
14030TIP3    H242024   4.925   4.990   8.156
14031TIP3   OH242025   4.823   4.795   7.724
14031TIP3    H142026   4.731   4.768   7.743
14031TIP3    H242027   4.835   4.754   7.635
14032TIP3   OH242028   5.315   4.879   7.454
14032TIP3    H142029   5.265   4.950   7.409
14032TIP3    H242030   5.370   4.845   7.381
14033TIP3   OH242031   5.473   5.156   8.532
14033TIP3    H142032   5.466   5.087   8.601
14033TIP3    H242033   5.560   5.195   8.549
14034TIP3   OH242034   5.470   4.906   7.689
14034TIP3    H142035   5.407   4.933   7.619
14034TIP3    H242036   5.507   4.827   7.645
14035TIP3   OH242037   4.759   4.939   8.417
14035TIP3    H142038   4.797   4.999   8.484
14035TIP3    H242039   4.745   4.857   8.469
14036TIP3   OH242040   4.809   4.415   7.128
14036TIP3    H142041   4.799   4.413   7.225
14036TIP3    H242042   4.731   4.468   7.102
14037TIP3   OH242043   4.352   4.459   7.999
14037TIP3    H142044   4.429   4.489   8.051
14037TIP3    H242045   4.391   4.424   7.917
14038TIP3   OH242046   4.319   4.437   7.518
14038TIP3    H142047   4.366   4.473   7.440
14038TIP3    H242048   4.258   4.511   7.536
14039TIP3   OH242049   5.472   5.152   8.107
14039TIP3    H142050   5.511   5.082   8.050
14039TIP3    H242051   5.445   5.098   8.184
14040TIP3   OH242052   5.156   4.616   7.784
14040TIP3    H142053   5.074   4.614   7.838
14040TIP3    H242054   5.225   4.610   7.853
14041TIP3   OH242055   4.586   4.672   7.792
14041TIP3    H142056   4.491   4.680   7.763
14041TIP3    H242057   4.607   4.580   7.770
14042TIP3   OH242058   4.851   4.668   7.483
14042TIP3    H142059   4.944   4.681   7.461
14042TIP3    H242060   4.804   4.689   7.399
14043TIP3   OH242061   5.643   4.692   7.989
14043TIP3    H142062   5.608   4.706   8.080
14043TIP3    H242063   5.576   4.631   7.953
14044TIP3   OH242064   4.700   4.705   7.259
14044TIP3    H142065   4.629   4.658   7.212
14044TIP3    H242066   4.751   4.741   7.184
14045TIP3   OH242067   4.748   5.483   8.642
14045TIP3    H142068   4.838   5.506   8.668
14045TIP3    H242069   4.719   5.425   8.715
14046TIP3   OH242070   5.232   4.946   7.882
14046TIP3    H142071   5.306   4.907   7.832
14046TIP3    H242072   5.239   4.901   7.968
14047TIP3   OH242073   4.754   4.430   7.766
14047TIP3    H142074   4.716   4.354   7.815
14047TIP3    H242075   4.799   4.386   7.693
14048TIP3   OH242076   5.210   4.844   8.171
14048TIP3    H142077   5.120   4.879   8.185
14048TIP3    H242078   5.266   4.906   8.220
14049TIP3   OH242079   4.945   5.232   7.266
14049TIP3    H142080   4.874   5.165   7.255
14049TIP3    H242081   4.925   5.266   7.356
14050TIP3   OH242082   5.845   5.465   7.892
14050TIP3    H142083   5.869   5.515   7.811
14050TIP3    H242084   5.760   5.421   7.865
14051TIP3   OH242085   5.404   4.541   7.135
14051TIP3    H142086   5.308   4.521   7.142
14051TIP3    H242087   5.411   4.635   7.159
14052TIP3   OH242088   5.346   5.557   8.262
14052TIP3    H142089   5.351   5.523   8.353
14052TIP3    H242090   5.299   5.641   8.274
14053TIP3   OH242091   5.472   4.793   7.236
14053TIP3    H142092   5.569   4.798   7.251
14053TIP3    H242093   5.454   4.874   7.184
14054TIP3   OH242094   4.641   5.259   7.940
14054TIP3    H142095   4.678   5.227   7.855
14054TIP3    H242096   4.682   5.198   8.003
14055TIP3   OH242097   5.092   5.381   7.090
14055TIP3    H142098   5.044   5.466   7.093
14055TIP3    H242099   5.039   5.326   7.151
14056TIP3   OH242100   4.524   5.179   8.545
14056TIP3    H142101   4.549   5.170   8.638
14056TIP3    H242102   4.449   5.117   8.538
14057TIP3   OH242103   5.233   5.292   8.557
14057TIP3    H142104   5.179   5.221   8.520
14057TIP3    H242105   5.322   5.253   8.550
14058TIP3   OH242106   5.501   5.824   8.146
14058TIP3    H142107   5.407   5.807   8.162
14058TIP3    H242108   5.529   5.857   8.234
14059TIP3   OH242109   5.913   4.886   7.070
14059TIP3    H142110   5.851   4.842   7.007
14059TIP3    H242111   5.911   4.976   7.030
14060TIP3   OH242112   6.131   5.699   8.135
14060TIP3    H142113   6.036   5.709   8.111
14060TIP3    H242114   6.171   5.687   8.046
14061TIP3   OH242115   5.614   5.698   6.978
14061TIP3    H142116   5.592   5.623   7.034
14061TIP3    H242117   5.631   5.657   6.891
14062TIP3   OH242118   5.611   5.332   7.809
14062TIP3    H142119   5.517   5.307   7.823
14062TIP3    H242120   5.645   5.250   7.766
14063TIP3   OH242121   4.743   5.563   7.573
14063TIP3    H142122   4.741   5.641   7.515
14063TIP3    H242123   4.651   5.536   7.573
14064TIP3   OH242124   4.306   4.861   7.274
14064TIP3    H142125   4.350   4.946   7.296
14064TIP3    H242126   4.229   4.864   7.335
14065TIP3   OH242127   4.871   5.322   7.509
14065TIP3    H142128   4.842   5.412   7.532
14065TIP3    H242129   4.839   5.270   7.585
14066TIP3   OH242130   5.012   5.901   8.034
14066TIP3    H142131   5.057   5.972   7.983
14066TIP3    H242132   5.088   5.861   8.080
14067TIP3   OH242133   4.658   5.799   7.419
14067TIP3    H142134   4.573   5.810   7.465
14067TIP3    H242135   4.692   5.891   7.421
14068TIP3   OH242136   5.397   5.537   7.996
14068TIP3    H142137   5.387   5.535   8.093
14068TIP3    H242138   5.474   5.480   7.983
14069TIP3   OH242139   5.376   5.430   6.881
14069TIP3    H142140   5.429   5.406   6.960
14069TIP3    H242141   5.288   5.401   6.909
14070TIP3   OH242142   5.628   6.086   8.064
14070TIP3    H142143   5.564   6.014   8.049
14070TIP3    H242144   5.622   6.137   7.981
14071TIP3   OH242145   5.709   5.889   6.707
14071TIP3    H142146   5.764   5.934   6.639
14071TIP3    H242147   5.637   5.955   6.721
14072TIP3   OH242148   4.716   4.680   8.542
14072TIP3    H142149   4.620   4.697   8.553
14072TIP3    H242150   4.718   4.584   8.557
14073TIP3   OH242151   5.536   5.367   7.099
14073TIP3    H142152   5.525   5.298   7.167
14073TIP3    H242153   5.633   5.360   7.083
14074TIP3   OH242154   4.736   5.410   6.880
14074TIP3    H142155   4.751   5.317   6.852
14074TIP3    H242156   4.715   5.398   6.974
14075TIP3   OH242157   4.681   5.415   7.153
14075TIP3    H142158   4.759   5.387   7.202
14075TIP3    H242159   4.686   5.513   7.160
14076TIP3   OH242160   4.417   5.106   7.355
14076TIP3    H142161   4.349   5.150   7.410
14076TIP3    H242162   4.430   5.174   7.286
14077TIP3   OH242163   5.568   4.747   8.248
14077TIP3    H142164   5.651   4.785   8.280
14077TIP3    H242165   5.558   4.665   8.303
14078TIP3   OH242166   5.451   4.492   7.416
14078TIP3    H142167   5.437   4.513   7.322
14078TIP3    H242168   5.490   4.575   7.450
14079TIP3   OH242169   4.950   5.610   7.100
14079TIP3    H142170   4.863   5.636   7.135
14079TIP3    H242171   4.966   5.682   7.037
14080TIP3   OH242172   5.135   4.677   7.515
14080TIP3    H142173   5.199   4.750   7.498
14080TIP3    H242174   5.142   4.668   7.612
14081TIP3   OH242175   5.405   4.991   8.315
14081TIP3    H142176   5.428   5.043   8.395
14081TIP3    H242177   5.460   4.911   8.324
14082TIP3   OH242178   5.279   4.397   7.614
14082TIP3    H142179   5.271   4.476   7.671
14082TIP3    H242180   5.341   4.430   7.546
14083TIP3   OH242181   4.696   5.687   7.168
14083TIP3    H142182   4.666   5.757   7.106
14083TIP3    H242183   4.680   5.730   7.255
14084TIP3   OH242184   4.793   4.402   7.404
14084TIP3    H142185   4.791   4.492   7.444
14084TIP3    H242186   4.889   4.384   7.412
14085TIP3   OH242187   6.042   4.887   8.310
14085TIP3    H142188   5.944   4.886   8.306
14085TIP3    H242189   6.064   4.853   8.222
14086TIP3   OH242190   5.698   5.088   7.690
14086TIP3    H142191   5.622   5.028   7.702
14086TIP3    H242192   5.769   5.040   7.738
14087TIP3   OH242193   4.413   5.312   7.158
14087TIP3    H142194   4.486   5.377   7.167
14087TIP3    H242195   4.454   5.253   7.091
14088TIP3   OH242196   4.353   4.591   7.294
14088TIP3    H142197   4.354   4.689   7.291
14088TIP3    H242198   4.273   4.570   7.245
14089TIP3   OH242199   5.661   6.041   7.633
14089TIP3    H142200   5.618   6.092   7.561
14089TIP3    H242201   5.755   6.064   7.615
14090TIP3   OH242202   4.743   4.315   8.162
14090TIP3    H142203   4.712   4.278   8.076
14090TIP3    H242204   4.735   4.237   8.221
14091TIP3   OH242205   4.281   5.540   7.546
14091TIP3    H142206   4.205   5.562   7.600
14091TIP3    H242207   4.252   5.577   7.459
14092TIP3   OH242208   4.435   6.054   8.587
14092TIP3    H142209   4.524   6.044   8.625
14092TIP3    H242210   4.397   5.969   8.613
14093TIP3   OH242211   4.901   5.611   6.789
14093TIP3    H142212   4.846   5.538   6.826
14093TIP3    H242213   4.977   5.561   6.755
14094TIP3   OH242214   5.547   5.914   8.408
14094TIP3    H142215   5.542   5.849   8.480
14094TIP3    H242216   5.622   5.969   8.438
14095TIP3   OH242217   5.336   5.650   6.702
14095TIP3    H142218   5.381   5.589   6.764
14095TIP3    H242219   5.395   5.649   6.625
14096TIP3   OH242220   4.547   5.126   7.014
14096TIP3    H142221   4.604   5.095   7.087
14096TIP3    H242222   4.613   5.132   6.942
14097TIP3   OH242223   5.210   5.566   8.572
14097TIP3    H142224   5.140   5.587   8.508
14097TIP3    H242225   5.211   5.468   8.573
14098TIP3   OH242226   5.060   5.329   6.821
14098TIP3    H142227   5.063   5.339   6.918
14098TIP3    H242228   5.062   5.231   6.814
14099TIP3   OH242229   5.664   5.578   8.202
14099TIP3    H142230   5.741   5.618   8.158
14099TIP3    H242231   5.594   5.641   8.178
14100TIP3   OH242232   4.710   5.196   8.776
14100TIP3    H142233   4.798   5.156   8.762
14100TIP3    H242234   4.689   5.166   8.866
14101TIP3   OH242235   4.752   5.035   7.232
14101TIP3    H142236   4.726   4.992   7.315
14101TIP3    H242237   4.791   4.960   7.182
14102TIP3   OH242238   5.023   5.094   8.459
14102TIP3    H142239   4.947   5.156   8.457
14102TIP3    H242240   5.076   5.126   8.382
14103TIP3   OH242241   4.857   4.831   7.073
14103TIP3    H142242   4.833   4.838   6.978
14103TIP3    H242243   4.955   4.831   7.066
14104TIP3   OH242244   5.674   5.156   6.742
14104TIP3    H142245   5.655   5.113   6.656
14104TIP3    H242246   5.640   5.246   6.721
14105TIP3   OH242247   5.153   4.889   8.588
14105TIP3    H142248   5.153   4.810   8.531
14105TIP3    H242249   5.106   4.954   8.531
14106TIP3   OH242250   5.150   4.677   8.398
14106TIP3    H142251   5.180   4.716   8.314
14106TIP3    H242252   5.058   4.651   8.376
14107TIP3   OH242253   5.170   5.201   8.263
14107TIP3    H142254   5.258   5.216   8.226
14107TIP3    H242255   5.117   5.270   8.219
14108TIP3   OH242256   5.792   5.395   8.363
14108TIP3    H142257   5.736   5.464   8.321
14108TIP3    H242258   5.881   5.431   8.343
14109TIP3   OH242259   4.970   5.008   8.792
14109TIP3    H142260   4.929   4.918   8.796
14109TIP3    H242261   5.043   4.992   8.729
14110TIP3   OH242262   5.283   4.436   8.462
14110TIP3    H142263   5.230   4.516   8.444
14110TIP3    H242264   5.215   4.366   8.454
14111TIP3   OH242265   5.409   4.934   8.683
14111TIP3    H142266   5.393   4.917   8.777
14111TIP3    H242267   5.320   4.912   8.647
14112TIP3   OH242268   5.639   4.893   8.539
14112TIP3    H142269   5.553   4.897   8.588
14112TIP3    H242270   5.695   4.851   8.605
14113TIP3   OH242271   4.867   4.757   8.848
14113TIP3    H142272   4.927   4.702   8.797
14113TIP3    H242273   4.897   4.737   8.938
14114TIP3   OH242274   5.402   4.441   8.711
14114TIP3    H142275   5.455   4.361   8.701
14114TIP3    H242276   5.346   4.440   8.632
14115TIP3   OH242277   4.666   5.892   6.982
14115TIP3    H142278   4.761   5.881   6.962
14115TIP3    H242279   4.638   5.942   6.903
14116TIP3   OH242280   4.144   5.272   7.196
14116TIP3    H142281   4.238   5.293   7.179
14116TIP3    H242282   4.136   5.183   7.155
14117TIP3   OH242283   4.058   5.885   7.609
14117TIP3    H142284   3.994   5.823   7.569
14117TIP3    H242285   4.100   5.826   7.676
14118TIP3   OH242286   4.184   5.738   7.805
14118TIP3    H142287   4.188   5.654   7.853
14118TIP3    H242288   4.243   5.794   7.858
14119TIP3   OH242289   5.911   6.134   7.594
14119TIP3    H142290   5.952   6.160   7.678
14119TIP3    H242291   5.981   6.152   7.529
14120TIP3   OH242292   5.958   6.142   7.872
14120TIP3    H142293   5.902   6.060   7.865
14120TIP3    H242294   6.030   6.106   7.925
14121TIP3   OH242295   5.812   5.344   7.071
14121TIP3    H142296   5.878   5.409   7.038
14121TIP3    H242297   5.859   5.307   7.150
14122TIP3   OH242298   5.941   5.212   7.276
14122TIP3    H142299   5.874   5.170   7.334
14122TIP3    H242300   6.005   5.248   7.341
14123TIP3   OH242301   5.994   5.603   7.706
14123TIP3    H142302   6.045   5.534   7.658
14123TIP3    H242303   5.999   5.679   7.644
14124TIP3   OH242304   5.819   5.911   7.897
14124TIP3    H142305   5.748   5.937   7.957
14124TIP3    H242306   5.771   5.864   7.825
14125TIP3   OH242307   5.878   5.120   6.921
14125TIP3    H142308   5.807   5.121   6.853
14125TIP3    H242309   5.849   5.196   6.976
14126TIP3   OH242310   5.748   4.793   6.876
14126TIP3    H142311   5.705   4.827   6.797
14126TIP3    H242312   5.725   4.697   6.868
14127TIP3   OH242313   5.753   5.071   7.421
14127TIP3    H142314   5.761   4.974   7.412
14127TIP3    H242315   5.738   5.081   7.518
14128TIP3   OH242316   4.377   5.147   8.168
14128TIP3    H142317   4.375   5.109   8.077
14128TIP3    H242318   4.473   5.145   8.186
14129TIP3   OH242319   6.033   5.479   8.267
14129TIP3    H142320   6.116   5.436   8.296
14129TIP3    H242321   6.067   5.556   8.218
14130TIP3   OH242322   6.255   5.316   8.325
14130TIP3    H142323   6.171   5.266   8.341
14130TIP3    H242324   6.316   5.239   8.321
14131TIP3   OH242325   5.692   4.527   6.859
14131TIP3    H142326   5.765   4.494   6.915
14131TIP3    H242327   5.618   4.467   6.879
14132TIP3   OH242328   5.752   4.786   7.313
14132TIP3    H142329   5.792   4.697   7.328
14132TIP3    H242330   5.809   4.818   7.241
14133TIP3   OH242331   5.910   4.955   7.810
14133TIP3    H142332   5.996   4.980   7.769
14133TIP3    H242333   5.924   4.994   7.899
14134TIP3   OH242334   5.981   5.103   8.038
14134TIP3    H142335   5.906   5.135   8.092
14134TIP3    H242336   6.013   5.186   7.998
14135TIP3   OH242337   5.859   4.536   7.353
14135TIP3    H142338   5.907   4.520   7.437
14135TIP3    H242339   5.798   4.460   7.352
14136TIP3   OH242340   4.559   4.523   8.173
14136TIP3    H142341   4.618   4.446   8.182
14136TIP3    H242342   4.624   4.595   8.162
14137TIP3   OH242343   4.362   4.791   8.247
14137TIP3    H142344   4.410   4.789   8.162
14137TIP3    H242345   4.390   4.876   8.283
14138TIP3   OH242346   6.288   4.833   8.413
14138TIP3    H142347   6.196   4.860   8.395
14138TIP3    H242348   6.292   4.749   8.364
14139TIP3   OH242349   5.937   4.466   6.988
14139TIP3    H142350   5.977   4.397   6.932
14139TIP3    H242351   6.005   4.537   6.985
14140TIP3   OH242352   4.346   4.301   7.750
14140TIP3    H142353   4.253   4.291   7.776
14140TIP3    H242354   4.339   4.358   7.671
14141TIP3   OH242355   5.502   6.006   7.254
14141TIP3    H142356   5.548   5.990   7.168
14141TIP3    H242357   5.563   6.067   7.297
14142TIP3   OH242358   4.580   4.419   8.533
14142TIP3    H142359   4.539   4.355   8.594
14142TIP3    H242360   4.502   4.448   8.482
14143TIP3   OH242361   4.601   5.819   8.652
14143TIP3    H142362   4.531   5.767   8.610
14143TIP3    H242363   4.630   5.758   8.722
14144TIP3   OH242364   4.785   5.842   8.181
14144TIP3    H142365   4.742   5.922   8.145
14144TIP3    H242366   4.872   5.852   8.138
14145TIP3   OH242367   5.237   6.083   8.334
14145TIP3    H142368   5.294   6.059   8.408
14145TIP3    H242369   5.299   6.135   8.279
14146TIP3   OH242370   5.424   6.232   8.193
14146TIP3    H142371   5.477   6.171   8.139
14146TIP3    H242372   5.474   6.314   8.181
14147TIP3   OH242373   6.203   4.593   8.277
14147TIP3    H142374   6.114   4.587   8.238
14147TIP3    H242375   6.235   4.500   8.266
14148TIP3   OH242376   4.447   6.078   8.207
14148TIP3    H142377   4.357   6.114   8.197
14148TIP3    H242378   4.479   6.133   8.280
14149TIP3   OH242379   4.693   6.076   8.072
14149TIP3    H142380   4.604   6.086   8.111
14149TIP3    H242381   4.679   6.110   7.981
14150TIP3   OH242382   5.118   6.102   7.868
14150TIP3    H142383   5.051   6.117   7.799
14150TIP3    H242384   5.130   6.191   7.905
14151TIP3   OH242385   5.386   6.045   7.925
14151TIP3    H142386   5.295   6.061   7.895
14151TIP3    H242387   5.437   6.107   7.870
14152TIP3   OH242388   5.588   6.222   7.826
14152TIP3    H142389   5.577   6.307   7.777
14152TIP3    H242390   5.618   6.162   7.754
14153TIP3   OH242391   4.373   5.870   7.968
14153TIP3    H142392   4.424   5.923   8.032
14153TIP3    H242393   4.445   5.831   7.913
14154TIP3   OH242394   4.567   5.762   7.814
14154TIP3    H142395   4.584   5.675   7.858
14154TIP3    H242396   4.658   5.797   7.806
14155TIP3   OH242397   4.833   5.853   7.818
14155TIP3    H142398   4.863   5.761   7.804
14155TIP3    H242399   4.883   5.873   7.900
14156TIP3   OH242400   5.407   4.510   7.905
14156TIP3    H142401   5.364   4.438   7.955
14156TIP3    H242402   5.480   4.464   7.860
14157TIP3   OH242403   5.927   4.393   7.807
14157TIP3    H142404   5.963   4.443   7.731
14157TIP3    H242405   5.831   4.410   7.799
14158TIP3   OH242406   6.023   4.489   7.570
14158TIP3    H142407   6.097   4.437   7.531
14158TIP3    H242408   6.057   4.580   7.556
14159TIP3   OH242409   4.654   4.218   7.917
14159TIP3    H142410   4.562   4.185   7.921
14159TIP3    H242411   4.702   4.132   7.913
14160TIP3   OH242412   4.442   4.091   7.567
14160TIP3    H142413   4.472   4.148   7.493
14160TIP3    H242414   4.417   4.157   7.634
14161TIP3   OH242415   5.101   4.250   7.799
14161TIP3    H142416   5.157   4.298   7.736
14161TIP3    H242417   5.127   4.289   7.883
14162TIP3   OH242418   5.643   4.399   7.781
14162TIP3    H142419   5.645   4.358   7.693
14162TIP3    H242420   5.632   4.320   7.839
14163TIP3   OH242421   5.676   4.323   7.346
14163TIP3    H142422   5.589   4.366   7.361
14163TIP3    H242423   5.662   4.237   7.390
14164TIP3   OH242424   4.158   5.664   7.342
14164TIP3    H142425   4.072   5.630   7.310
14164TIP3    H242426   4.148   5.757   7.315
14165TIP3   OH242427   4.562   4.248   7.327
14165TIP3    H142428   4.609   4.184   7.270
14165TIP3    H242429   4.636   4.301   7.362
14166TIP3   OH242430   5.070   4.426   7.427
14166TIP3    H142431   5.129   4.377   7.487
14166TIP3    H242432   5.094   4.518   7.453
14167TIP3   OH242433   4.932   5.846   6.929
14167TIP3    H142434   5.020   5.868   6.892
14167TIP3    H242435   4.909   5.772   6.867
14168TIP3   OH242436   5.643   5.966   7.021
14168TIP3    H142437   5.638   5.869   7.008
14168TIP3    H242438   5.605   5.996   6.935
14169TIP3   OH242439   4.236   5.684   6.981
14169TIP3    H142440   4.240   5.703   7.075
14169TIP3    H242441   4.322   5.641   6.964
14170TIP3   OH242442   7.130   5.480   6.978
14170TIP3    H142443   7.102   5.570   6.953
14170TIP3    H242444   7.063   5.428   6.930
14171TIP3   OH242445   7.102   5.494   7.382
14171TIP3    H142446   7.169   5.437   7.423
14171TIP3    H242447   7.094   5.453   7.295
14172TIP3   OH242448   6.436   5.347   7.696
14172TIP3    H142449   6.461   5.291   7.772
14172TIP3    H242450   6.518   5.396   7.685
14173TIP3   OH242451   6.419   5.791   7.450
14173TIP3    H142452   6.407   5.694   7.451
14173TIP3    H242453   6.512   5.796   7.421
14174TIP3   OH242454   6.119   4.989   7.225
14174TIP3    H142455   6.071   5.071   7.243
14174TIP3    H242456   6.049   4.937   7.182
14175TIP3   OH242457   6.177   5.278   7.405
14175TIP3    H142458   6.227   5.200   7.438
14175TIP3    H242459   6.233   5.306   7.331
14176TIP3   OH242460   6.921   5.702   7.357
14176TIP3    H142461   6.953   5.611   7.346
14176TIP3    H242462   7.003   5.750   7.339
14177TIP3   OH242463   7.324   5.194   7.424
14177TIP3    H142464   7.367   5.106   7.428
14177TIP3    H242465   7.298   5.196   7.330
14178TIP3   OH242466   6.694   4.870   7.398
14178TIP3    H142467   6.675   4.943   7.336
14178TIP3    H242468   6.646   4.797   7.354
14179TIP3   OH242469   7.390   4.965   7.020
14179TIP3    H142470   7.460   4.943   7.084
14179TIP3    H242471   7.444   5.000   6.946
14180TIP3   OH242472   6.323   5.071   7.506
14180TIP3    H142473   6.406   5.054   7.554
14180TIP3    H242474   6.339   5.015   7.426
14181TIP3   OH242475   6.764   5.268   7.301
14181TIP3    H142476   6.858   5.242   7.313
14181TIP3    H242477   6.725   5.184   7.266
14182TIP3   OH242478   6.684   4.853   7.834
14182TIP3    H142479   6.624   4.890   7.766
14182TIP3    H242480   6.632   4.871   7.915
14183TIP3   OH242481   7.018   5.699   6.850
14183TIP3    H142482   7.001   5.688   6.755
14183TIP3    H242483   6.977   5.786   6.866
14184TIP3   OH242484   6.790   5.623   7.602
14184TIP3    H142485   6.716   5.684   7.610
14184TIP3    H242486   6.846   5.668   7.536
14185TIP3   OH242487   7.591   4.947   7.204
14185TIP3    H142488   7.547   4.918   7.287
14185TIP3    H242489   7.642   5.022   7.236
14186TIP3   OH242490   6.557   4.967   7.616
14186TIP3    H142491   6.621   5.038   7.642
14186TIP3    H242492   6.607   4.927   7.541
14187TIP3   OH242493   6.011   5.513   6.963
14187TIP3    H142494   5.975   5.540   6.876
14187TIP3    H242495   6.044   5.599   6.998
14188TIP3   OH242496   7.034   4.570   7.544
14188TIP3    H142497   7.020   4.476   7.563
14188TIP3    H242498   6.959   4.610   7.594
14189TIP3   OH242499   7.277   5.879   6.774
14189TIP3    H142500   7.269   5.799   6.720
14189TIP3    H242501   7.350   5.857   6.834
14190TIP3   OH242502   6.973   5.337   6.804
14190TIP3    H142503   6.895   5.392   6.782
14190TIP3    H242504   7.018   5.331   6.717
14191TIP3   OH242505   6.930   5.123   6.517
14191TIP3    H142506   7.002   5.178   6.554
14191TIP3    H242507   6.976   5.042   6.493
14192TIP3   OH242508   7.318   5.416   6.780
14192TIP3    H142509   7.267   5.440   6.860
14192TIP3    H242510   7.405   5.395   6.820
14193TIP3   OH242511   6.552   5.416   7.195
14193TIP3    H142512   6.509   5.358   7.128
14193TIP3    H242513   6.628   5.361   7.223
14194TIP3   OH242514   6.674   5.821   7.336
14194TIP3    H142515   6.641   5.807   7.245
14194TIP3    H242516   6.757   5.768   7.336
14195TIP3   OH242517   6.690   5.373   7.544
14195TIP3    H142518   6.718   5.344   7.454
14195TIP3    H242519   6.738   5.458   7.555
14196TIP3   OH242520   7.156   5.276   6.602
14196TIP3    H142521   7.215   5.336   6.652
14196TIP3    H242522   7.185   5.296   6.510
14197TIP3   OH242523   6.516   5.514   7.921
14197TIP3    H142524   6.473   5.589   7.878
14197TIP3    H242525   6.442   5.474   7.969
14198TIP3   OH242526   6.899   5.953   6.873
14198TIP3    H142527   6.965   6.007   6.920
14198TIP3    H242528   6.847   6.019   6.824
14199TIP3   OH242529   7.677   4.509   6.655
14199TIP3    H142530   7.594   4.537   6.699
14199TIP3    H242531   7.701   4.590   6.605
14200TIP3   OH242532   6.417   5.261   7.002
14200TIP3    H142533   6.351   5.305   6.944
14200TIP3    H242534   6.382   5.171   7.006
14201TIP3   OH242535   7.479   5.889   6.203
14201TIP3    H142536   7.488   5.986   6.195
14201TIP3    H242537   7.569   5.860   6.175
14202TIP3   OH242538   6.213   5.629   7.884
14202TIP3    H142539   6.140   5.617   7.820
14202TIP3    H242540   6.231   5.539   7.913
14203TIP3   OH242541   6.054   5.829   7.545
14203TIP3    H142542   6.145   5.832   7.513
14203TIP3    H242543   6.040   5.919   7.579
14204TIP3   OH242544   6.777   6.196   6.688
14204TIP3    H142545   6.735   6.182   6.601
14204TIP3    H242546   6.754   6.288   6.709
14205TIP3   OH242547   6.217   6.048   7.058
14205TIP3    H142548   6.261   6.036   7.145
14205TIP3    H242549   6.163   5.967   7.055
14206TIP3   OH242550   6.984   6.090   6.315
14206TIP3    H142551   7.045   6.024   6.276
14206TIP3    H242552   7.023   6.101   6.404
14207TIP3   OH242553   7.019   6.128   6.587
14207TIP3    H142554   6.935   6.152   6.631
14207TIP3    H242555   7.049   6.054   6.641
14208TIP3   OH242556   6.804   4.648   7.682
14208TIP3    H142557   6.716   4.618   7.651
14208TIP3    H242558   6.777   4.728   7.730
14209TIP3   OH242559   7.333   4.746   7.858
14209TIP3    H142560   7.391   4.788   7.922
14209TIP3    H242561   7.246   4.748   7.902
14210TIP3   OH242562   7.241   5.330   6.357
14210TIP3    H142563   7.198   5.303   6.273
14210TIP3    H242564   7.323   5.369   6.322
14211TIP3   OH242565   6.943   4.700   6.649
14211TIP3    H142566   6.910   4.693   6.740
14211TIP3    H242567   6.907   4.617   6.612
14212TIP3   OH242568   6.740   5.156   7.694
14212TIP3    H142569   6.693   5.181   7.776
14212TIP3    H242570   6.722   5.235   7.638
14213TIP3   OH242571   6.620   5.051   7.211
14213TIP3    H142572   6.527   5.025   7.229
14213TIP3    H242573   6.632   5.010   7.122
14214TIP3   OH242574   7.108   5.133   6.933
14214TIP3    H142575   7.059   5.206   6.890
14214TIP3    H242576   7.165   5.101   6.861
14215TIP3   OH242577   7.256   5.161   7.165
14215TIP3    H142578   7.195   5.188   7.093
14215TIP3    H242579   7.294   5.082   7.121
14216TIP3   OH242580   6.565   5.185   7.907
14216TIP3    H142581   6.636   5.230   7.958
14216TIP3    H242582   6.547   5.107   7.962
14217TIP3   OH242583   6.604   4.670   6.615
14217TIP3    H142584   6.594   4.671   6.712
14217TIP3    H242585   6.527   4.726   6.589
14218TIP3   OH242586   6.148   4.712   7.488
14218TIP3    H142587   6.223   4.746   7.541
14218TIP3    H242588   6.189   4.684   7.405
14219TIP3   OH242589   6.114   4.694   7.006
14219TIP3    H142590   6.160   4.730   6.927
14219TIP3    H242591   6.053   4.768   7.024
14220TIP3   OH242592   6.949   4.867   7.268
14220TIP3    H142593   6.868   4.869   7.322
14220TIP3    H242594   7.018   4.871   7.337
14221TIP3   OH242595   6.381   4.929   7.278
14221TIP3    H142596   6.287   4.936   7.249
14221TIP3    H242597   6.404   4.837   7.255
14222TIP3   OH242598   6.647   4.924   6.970
14222TIP3    H142599   6.741   4.938   6.948
14222TIP3    H242600   6.600   4.945   6.885
14223TIP3   OH242601   7.402   4.933   7.433
14223TIP3    H142602   7.391   4.922   7.528
14223TIP3    H242603   7.335   4.869   7.400
14224TIP3   OH242604   6.497   4.958   6.745
14224TIP3    H142605   6.427   4.914   6.694
14224TIP3    H242606   6.549   4.998   6.672
14225TIP3   OH242607   7.018   5.184   7.361
14225TIP3    H142608   7.099   5.164   7.311
14225TIP3    H242609   7.039   5.151   7.450
14226TIP3   OH242610   6.550   4.689   7.251
14226TIP3    H142611   6.514   4.611   7.299
14226TIP3    H242612   6.594   4.647   7.175
14227TIP3   OH242613   7.008   5.094   7.658
14227TIP3    H142614   6.914   5.121   7.667
14227TIP3    H242615   7.050   5.135   7.734
14228TIP3   OH242616   6.742   5.489   6.754
14228TIP3    H142617   6.669   5.424   6.742
14228TIP3    H242618   6.722   5.523   6.845
14229TIP3   OH242619   7.203   4.788   6.634
14229TIP3    H142620   7.106   4.774   6.630
14229TIP3    H242621   7.213   4.885   6.641
14230TIP3   OH242622   7.271   5.050   6.721
14230TIP3    H142623   7.367   5.056   6.733
14230TIP3    H242624   7.251   5.129   6.667
14231TIP3   OH242625   6.443   5.519   7.429
14231TIP3    H142626   6.477   5.487   7.343
14231TIP3    H242627   6.468   5.446   7.487
14232TIP3   OH242628   6.890   5.637   6.577
14232TIP3    H142629   6.842   5.723   6.579
14232TIP3    H242630   6.835   5.584   6.639
14233TIP3   OH242631   6.300   5.402   8.060
14233TIP3    H142632   6.279   5.380   8.153
14233TIP3    H242633   6.225   5.360   8.013
14234TIP3   OH242634   7.707   5.139   6.550
14234TIP3    H142635   7.647   5.094   6.486
14234TIP3    H242636   7.700   5.229   6.510
14235TIP3   OH242637   7.355   5.945   6.450
14235TIP3    H142638   7.384   5.881   6.517
14235TIP3    H242639   7.407   5.916   6.372
14236TIP3   OH242640   6.542   5.826   7.073
14236TIP3    H142641   6.537   5.900   7.008
14236TIP3    H242642   6.452   5.791   7.065
14237TIP3   OH242643   6.103   5.118   6.760
14237TIP3    H142644   6.147   5.204   6.780
14237TIP3    H242645   6.026   5.122   6.821
14238TIP3   OH242646   6.666   5.580   6.998
14238TIP3    H142647   6.640   5.671   7.021
14238TIP3    H242648   6.632   5.529   7.073
14239TIP3   OH242649   6.460   6.049   6.913
14239TIP3    H142650   6.371   6.064   6.950
14239TIP3    H242651   6.495   6.141   6.912
14240TIP3   OH242652   7.171   5.681   6.369
14240TIP3    H142653   7.224   5.664   6.450
14240TIP3    H242654   7.083   5.653   6.398
14241TIP3   OH242655   7.496   6.163   6.185
14241TIP3    H142656   7.522   6.206   6.101
14241TIP3    H242657   7.414   6.213   6.203
14242TIP3   OH242658   6.525   4.933   8.049
14242TIP3    H142659   6.429   4.938   8.065
14242TIP3    H242660   6.555   4.876   8.121
14243TIP3   OH242661   7.322   5.633   6.601
14243TIP3    H142662   7.312   5.557   6.661
14243TIP3    H242663   7.417   5.620   6.576
14244TIP3   OH242664   6.227   6.024   7.716
14244TIP3    H142665   6.255   5.931   7.709
14244TIP3    H242666   6.310   6.066   7.743
14245TIP3   OH242667   6.529   5.665   6.364
14245TIP3    H142668   6.553   5.573   6.340
14245TIP3    H242669   6.512   5.656   6.460
14246TIP3   OH242670   6.483   5.670   6.635
14246TIP3    H142671   6.562   5.647   6.687
14246TIP3    H242672   6.482   5.768   6.642
14247TIP3   OH242673   6.212   5.363   6.842
14247TIP3    H142674   6.145   5.409   6.897
14247TIP3    H242675   6.225   5.431   6.772
14248TIP3   OH242676   7.246   4.747   6.907
14248TIP3    H142677   7.231   4.765   6.811
14248TIP3    H242678   7.285   4.832   6.937
14249TIP3   OH242679   6.747   5.868   6.585
14249TIP3    H142680   6.659   5.892   6.619
14249TIP3    H242681   6.763   5.941   6.524
14250TIP3   OH242682   6.930   4.933   7.000
14250TIP3    H142683   6.994   5.005   6.981
14250TIP3    H242684   6.938   4.925   7.097
14251TIP3   OH242685   7.073   4.652   7.101
14251TIP3    H142686   7.062   4.730   7.157
14251TIP3    H242687   7.137   4.686   7.034
14252TIP3   OH242688   6.491   5.941   6.655
14252TIP3    H142689   6.460   6.008   6.590
14252TIP3    H242690   6.475   5.986   6.740
14253TIP3   OH242691   6.589   4.659   6.892
14253TIP3    H142692   6.588   4.750   6.929
14253TIP3    H242693   6.685   4.641   6.899
14254TIP3   OH242694   7.529   5.271   7.180
14254TIP3    H142695   7.438   5.237   7.182
14254TIP3    H242696   7.565   5.237   7.266
14255TIP3   OH242697   6.204   5.569   6.646
14255TIP3    H142698   6.260   5.648   6.649
14255TIP3    H242699   6.256   5.515   6.582
14256TIP3   OH242700   6.148   4.848   6.783
14256TIP3    H142701   6.151   4.945   6.780
14256TIP3    H242702   6.070   4.830   6.728
14257TIP3   OH242703   6.539   4.569   7.650
14257TIP3    H142704   6.509   4.535   7.563
14257TIP3    H242705   6.528   4.491   7.708
14258TIP3   OH242706   6.079   5.779   7.035
14258TIP3    H142707   6.009   5.815   7.092
14258TIP3    H242708   6.053   5.820   6.949
14259TIP3   OH242709   6.696   5.868   6.275
14259TIP3    H142710   6.641   5.795   6.311
14259TIP3    H242711   6.774   5.819   6.243
14260TIP3   OH242712   7.134   5.902   6.187
14260TIP3    H142713   7.185   5.854   6.255
14260TIP3    H242714   7.196   5.902   6.111
14261TIP3   OH242715   6.343   5.383   6.501
14261TIP3    H142716   6.401   5.355   6.574
14261TIP3    H242717   6.409   5.388   6.428
14262TIP3   OH242718   6.850   5.585   6.308
14262TIP3    H142719   6.859   5.595   6.405
14262TIP3    H242720   6.859   5.487   6.299
14263TIP3   OH242721   6.548   5.291   6.719
14263TIP3    H142722   6.523   5.246   6.801
14263TIP3    H242723   6.587   5.218   6.667
14264TIP3   OH242724   6.814   5.338   7.928
14264TIP3    H142725   6.776   5.407   7.984
14264TIP3    H242726   6.850   5.390   7.855
14265TIP3   OH242727   6.652   5.088   6.561
14265TIP3    H142728   6.627   5.094   6.466
14265TIP3    H242729   6.749   5.093   6.554
14266TIP3   OH242730   7.472   5.415   6.229
14266TIP3    H142731   7.448   5.368   6.146
14266TIP3    H242732   7.438   5.505   6.206
14267TIP3   OH242733   2.007   0.228   3.191
14267TIP3    H142734   2.040   0.161   3.128
14267TIP3    H242735   1.977   0.298   3.131
14268TIP3   OH242736   6.945   4.917   7.879
14268TIP3    H142737   6.974   4.958   7.795
14268TIP3    H242738   6.850   4.902   7.863
14269TIP3   OH242739   7.079   4.699   7.975
14269TIP3    H142740   7.029   4.777   7.942
14269TIP3    H242741   7.016   4.627   7.954
14270TIP3   OH242742   6.643   5.027   8.364
14270TIP3    H142743   6.658   4.948   8.310
14270TIP3    H242744   6.710   5.017   8.432
14271TIP3   OH242745   7.173   4.692   8.234
14271TIP3    H142746   7.247   4.645   8.195
14271TIP3    H242747   7.120   4.707   8.153
14272TIP3   OH242748   6.465   6.149   6.474
14272TIP3    H142749   6.559   6.140   6.448
14272TIP3    H242750   6.431   6.194   6.394
14273TIP3   OH242751   5.938   5.525   6.687
14273TIP3    H142752   6.032   5.548   6.669
14273TIP3    H242753   5.932   5.438   6.642
14274TIP3   OH242754   5.846   6.143   7.098
14274TIP3    H142755   5.786   6.080   7.052
14274TIP3    H242756   5.894   6.081   7.157
14275TIP3   OH242757   5.980   5.975   7.270
14275TIP3    H142758   5.965   5.902   7.332
14275TIP3    H242759   6.030   6.037   7.325
14276TIP3   OH242760   7.587   5.587   6.564
14276TIP3    H142761   7.646   5.644   6.509
14276TIP3    H242762   7.646   5.566   6.640
14277TIP3   OH242763   7.734   5.478   6.772
14277TIP3    H142764   7.665   5.425   6.816
14277TIP3    H242765   7.810   5.463   6.830
14278TIP3   OH242766   7.668   5.372   6.412
14278TIP3    H142767   7.600   5.375   6.341
14278TIP3    H242768   7.635   5.447   6.466
14279TIP3   OH242769   7.541   5.039   6.360
14279TIP3    H142770   7.476   5.078   6.299
14279TIP3    H242771   7.525   4.945   6.341
14280TIP3   OH242772   7.554   5.314   6.904
14280TIP3    H142773   7.555   5.220   6.876
14280TIP3    H242774   7.554   5.305   7.002
14281TIP3   OH242775   6.170   5.397   7.653
14281TIP3    H142776   6.163   5.362   7.561
14281TIP3    H242777   6.268   5.389   7.665
14282TIP3   OH242778   7.508   4.761   6.340
14282TIP3    H142779   7.545   4.734   6.424
14282TIP3    H242780   7.413   4.736   6.347
14283TIP3   OH242781   7.552   5.046   6.797
14283TIP3    H142782   7.588   4.956   6.814
14283TIP3    H242783   7.606   5.072   6.720
14284TIP3   OH242784   6.378   5.073   8.313
14284TIP3    H142785   6.476   5.071   8.326
14284TIP3    H242786   6.353   4.995   8.366
14285TIP3   OH242787   7.650   4.794   6.842
14285TIP3    H142788   7.701   4.776   6.923
14285TIP3    H242789   7.590   4.717   6.840
14286TIP3   OH242790   6.354   4.778   7.663
14286TIP3    H142791   6.416   4.702   7.670
14286TIP3    H242792   6.417   4.851   7.651
14287TIP3   OH242793   6.155   5.051   7.730
14287TIP3    H142794   6.204   5.045   7.646
14287TIP3    H242795   6.191   5.132   7.767
14288TIP3   OH242796   7.754   4.714   6.496
14288TIP3    H142797   7.776   4.655   6.421
14288TIP3    H242798   7.804   4.795   6.474
14289TIP3   OH242799   6.142   4.554   7.235
14289TIP3    H142800   6.049   4.548   7.262
14289TIP3    H242801   6.137   4.613   7.157
14290TIP3   OH242802   6.362   4.629   8.044
14290TIP3    H142803   6.313   4.631   8.128
14290TIP3    H242804   6.297   4.670   7.984
14291TIP3   OH242805   6.144   6.121   7.443
14291TIP3    H142806   6.192   6.127   7.527
14291TIP3    H242807   6.216   6.086   7.386
14292TIP3   OH242808   6.337   6.003   7.296
14292TIP3    H142809   6.363   5.923   7.348
14292TIP3    H242810   6.424   6.046   7.285
14293TIP3   OH242811   6.587   6.110   7.277
14293TIP3    H142812   6.633   6.045   7.222
14293TIP3    H242813   6.658   6.172   7.301
14294TIP3   OH242814   7.195   4.752   7.386
14294TIP3    H142815   7.148   4.684   7.437
14294TIP3    H242816   7.265   4.699   7.341
14295TIP3   OH242817   7.726   4.647   7.289
14295TIP3    H142818   7.760   4.705   7.217
14295TIP3    H242819   7.632   4.673   7.291
14296TIP3   OH242820   7.824   4.748   7.053
14296TIP3    H142821   7.894   4.693   7.012
14296TIP3    H242822   7.866   4.836   7.051
14297TIP3   OH242823   6.450   4.475   7.403
14297TIP3    H142824   6.358   4.444   7.407
14297TIP3    H242825   6.498   4.389   7.399
14298TIP3   OH242826   6.242   4.347   7.054
14298TIP3    H142827   6.270   4.403   6.980
14298TIP3    H242828   6.215   4.414   7.120
14299TIP3   OH242829   6.898   4.505   7.286
14299TIP3    H142830   6.952   4.553   7.221
14299TIP3    H242831   6.925   4.548   7.369
14300TIP3   OH242832   7.438   4.652   7.266
14300TIP3    H142833   7.443   4.612   7.178
14300TIP3    H242834   7.429   4.573   7.324
14301TIP3   OH242835   7.471   4.580   6.832
14301TIP3    H142836   7.385   4.623   6.845
14301TIP3    H242837   7.456   4.494   6.877
14302TIP3   OH242838   5.952   5.917   6.844
14302TIP3    H142839   5.865   5.891   6.808
14302TIP3    H242840   5.974   5.989   6.783
14303TIP3   OH242841   6.358   4.502   6.816
14303TIP3    H142842   6.405   4.440   6.757
14303TIP3    H242843   6.432   4.557   6.850
14304TIP3   OH242844   6.866   4.682   6.915
14304TIP3    H142845   6.928   4.635   6.973
14304TIP3    H242846   6.888   4.774   6.939
14305TIP3   OH242847   6.730   6.101   6.416
14305TIP3    H142848   6.818   6.122   6.379
14305TIP3    H242849   6.705   6.029   6.354
14306TIP3   OH242850   7.438   6.202   6.492
14306TIP3    H142851   7.403   6.111   6.487
14306TIP3    H242852   7.460   6.216   6.399
14307TIP3   OH242853   6.650   4.746   8.276
14307TIP3    H142854   6.611   4.681   8.338
14307TIP3    H242855   6.743   4.747   8.309
14308TIP3   OH242856   6.901   4.738   8.384
14308TIP3    H142857   6.990   4.732   8.346
14308TIP3    H242858   6.909   4.689   8.467
14309TIP3   OH242859   7.897   5.248   6.721
14309TIP3    H142860   7.860   5.333   6.693
14309TIP3    H242861   7.840   5.187   6.670
14310TIP3   OH242862   7.748   5.733   6.403
14310TIP3    H142863   7.731   5.763   6.311
14310TIP3    H242864   7.724   5.816   6.451
14311TIP3   OH242865   8.779   4.915   6.087
14311TIP3    H142866   8.752   4.977   6.156
14311TIP3    H242867   8.712   4.844   6.092
14312TIP3   OH242868   8.403   4.931   6.102
14312TIP3    H142869   8.385   4.927   6.197
14312TIP3    H242870   8.327   4.986   6.072
14313TIP3   OH242871   7.975   4.959   6.980
14313TIP3    H142872   8.023   5.037   6.934
14313TIP3    H242873   7.961   4.908   6.898
14314TIP3   OH242874   7.914   4.950   6.497
14314TIP3    H142875   7.959   4.983   6.416
14314TIP3    H242876   7.851   5.024   6.510
14315TIP3   OH242877   8.125   5.115   6.825
14315TIP3    H142878   8.073   5.169   6.763
14315TIP3    H242879   8.197   5.082   6.770
14316TIP3   OH242880   8.491   5.143   6.421
14316TIP3    H142881   8.530   5.230   6.441
14316TIP3    H242882   8.425   5.169   6.353
14317TIP3   OH242883   8.302   5.202   6.239
14317TIP3    H142884   8.220   5.172   6.196
14317TIP3    H242885   8.353   5.234   6.162
14318TIP3   OH242886   8.331   4.949   6.725
14318TIP3    H142887   8.300   4.866   6.767
14318TIP3    H242888   8.381   4.919   6.649
14319TIP3   OH242889   7.884   5.352   6.241
14319TIP3    H142890   7.924   5.442   6.245
14319TIP3    H242891   7.811   5.362   6.307
14320TIP3   OH242892   8.343   5.880   5.803
14320TIP3    H142893   8.306   5.797   5.763
14320TIP3    H242894   8.404   5.840   5.866
14321TIP3   OH242895   7.959   5.609   6.273
14321TIP3    H142896   7.884   5.631   6.331
14321TIP3    H242897   8.018   5.682   6.297
14322TIP3   OH242898   8.372   4.897   6.377
14322TIP3    H142899   8.386   4.990   6.403
14322TIP3    H242900   8.464   4.864   6.385
14323TIP3   OH242901   8.001   5.868   6.089
14323TIP3    H142902   8.020   5.849   6.188
14323TIP3    H242903   8.053   5.800   6.047
14324TIP3   OH242904   7.948   5.090   6.266
14324TIP3    H142905   7.947   5.188   6.265
14324TIP3    H242906   7.865   5.072   6.218
14325TIP3   OH242907   8.161   5.665   5.996
14325TIP3    H142908   8.202   5.603   6.060
14325TIP3    H242909   8.215   5.645   5.916
14326TIP3   OH242910   8.316   5.510   6.165
14326TIP3    H142911   8.353   5.476   6.249
14326TIP3    H242912   8.361   5.450   6.103
14327TIP3   OH242913   8.453   5.317   6.030
14327TIP3    H142914   8.422   5.313   5.937
14327TIP3    H242915   8.531   5.374   6.020
14328TIP3   OH242916   7.731   5.792   6.128
14328TIP3    H142917   7.825   5.816   6.115
14328TIP3    H242918   7.730   5.700   6.094
14329TIP3   OH242919   7.927   4.829   6.741
14329TIP3    H142920   7.832   4.806   6.739
14329TIP3    H242921   7.935   4.879   6.657
14330TIP3   OH242922   8.253   4.741   6.896
14330TIP3    H142923   8.158   4.719   6.898
14330TIP3    H242924   8.293   4.652   6.897
14331TIP3   OH242925   8.053   4.602   6.543
14331TIP3    H142926   8.072   4.655   6.464
14331TIP3    H242927   8.008   4.666   6.600
14332TIP3   OH242928   8.146   4.751   6.305
14332TIP3    H142929   8.196   4.695   6.243
14332TIP3    H242930   8.217   4.809   6.339
14333TIP3   OH242931   8.645   4.907   6.445
14333TIP3    H142932   8.703   4.871   6.513
14333TIP3    H242933   8.605   4.985   6.490
14334TIP3   OH242934   7.786   6.152   5.946
14334TIP3    H142935   7.805   6.221   6.012
14334TIP3    H242936   7.875   6.116   5.928
14335TIP3   OH242937   2.126   6.102   8.496
14335TIP3    H142938   2.145   6.139   8.584
14335TIP3    H242939   2.204   6.128   8.446
14336TIP3   OH242940   1.653   5.984   8.190
14336TIP3    H142941   1.714   5.989   8.266
14336TIP3    H242942   1.689   6.052   8.131
14337TIP3   OH242943   1.850   6.017   8.391
14337TIP3    H142944   1.836   5.986   8.481
14337TIP3    H242945   1.940   6.052   8.397
14338TIP3   OH242946   1.202   6.279   7.922
14338TIP3    H142947   1.110   6.314   7.923
14338TIP3    H242948   1.241   6.321   7.843
14339TIP3   OH242949   1.188   6.149   7.669
14339TIP3    H142950   1.242   6.175   7.745
14339TIP3    H242951   1.254   6.099   7.616
14340TIP3   OH242952   1.592   6.418   7.945
14340TIP3    H142953   1.577   6.486   8.014
14340TIP3    H242954   1.680   6.386   7.973
14341TIP3   OH242955   1.417   6.314   7.763
14341TIP3    H142956   1.485   6.365   7.809
14341TIP3    H242957   1.437   6.337   7.668
14342TIP3   OH242958   1.915   5.569   7.836
14342TIP3    H142959   1.823   5.560   7.806
14342TIP3    H242960   1.944   5.647   7.785
14343TIP3   OH242961   1.740   6.914   7.332
14343TIP3    H142962   1.743   7.009   7.347
14343TIP3    H242963   1.833   6.887   7.347
14344TIP3   OH242964   1.488   6.353   7.509
14344TIP3    H142965   1.454   6.335   7.420
14344TIP3    H242966   1.563   6.412   7.492
14345TIP3   OH242967   1.190   5.750   7.805
14345TIP3    H142968   1.175   5.743   7.903
14345TIP3    H242969   1.158   5.661   7.779
14346TIP3   OH242970   1.352   6.167   8.111
14346TIP3    H142971   1.299   6.202   8.036
14346TIP3    H242972   1.428   6.131   8.062
14347TIP3   OH242973   1.448   5.841   7.797
14347TIP3    H142974   1.351   5.825   7.801
14347TIP3    H242975   1.455   5.936   7.820
14348TIP3   OH242976   1.521   6.094   7.898
14348TIP3    H142977   1.617   6.107   7.908
14348TIP3    H242978   1.495   6.170   7.843
14349TIP3   OH242979   1.954   6.188   7.734
14349TIP3    H142980   1.895   6.144   7.669
14349TIP3    H242981   1.953   6.277   7.693
14350TIP3   OH242982   1.407   6.735   7.514
14350TIP3    H142983   1.456   6.686   7.584
14350TIP3    H242984   1.317   6.706   7.536
14351TIP3   OH242985   1.830   7.243   7.320
14351TIP3    H142986   1.794   7.293   7.241
14351TIP3    H242987   1.748   7.220   7.365
14352TIP3   OH242988   1.553   6.591   7.702
14352TIP3    H142989   1.553   6.552   7.790
14352TIP3    H242990   1.641   6.631   7.698
14353TIP3   OH242991   1.482   5.801   8.077
14353TIP3    H142992   1.482   5.816   7.980
14353TIP3    H242993   1.539   5.874   8.110
14354TIP3   OH242994   1.194   5.962   8.204
14354TIP3    H142995   1.256   6.025   8.161
14354TIP3    H242996   1.175   6.006   8.287
14355TIP3   OH242997   1.343   5.684   8.274
14355TIP3    H142998   1.333   5.758   8.336
14355TIP3    H242999   1.390   5.729   8.200
14356TIP3   OH243000   1.386   6.959   7.348
14356TIP3    H143001   1.413   6.891   7.412
14356TIP3    H243002   1.441   6.939   7.269
14357TIP3   OH243003   1.127   6.641   7.489
14357TIP3    H143004   1.131   6.641   7.587
14357TIP3    H243005   1.109   6.546   7.473
14358TIP3   OH243006   0.941   6.162   7.796
14358TIP3    H143007   0.911   6.152   7.703
14358TIP3    H243008   1.036   6.146   7.780
14359TIP3   OH243009   1.728   6.458   7.402
14359TIP3    H143010   1.704   6.412   7.319
14359TIP3    H243011   1.691   6.547   7.381
14360TIP3   OH243012   1.865   6.646   7.733
14360TIP3    H143013   1.935   6.703   7.693
14360TIP3    H243014   1.916   6.598   7.803
14361TIP3   OH243015   1.981   6.500   7.930
14361TIP3    H143016   1.930   6.465   8.006
14361TIP3    H243017   2.060   6.538   7.975
14362TIP3   OH243018   1.924   6.418   7.584
14362TIP3    H143019   1.854   6.418   7.514
14362TIP3    H243020   1.892   6.494   7.637
14363TIP3   OH243021   1.794   6.094   7.537
14363TIP3    H143022   1.748   6.130   7.461
14363TIP3    H243023   1.770   5.999   7.529
14364TIP3   OH243024   1.812   6.350   8.109
14364TIP3    H143025   1.818   6.259   8.073
14364TIP3    H243026   1.759   6.337   8.189
14365TIP3   OH243027   1.734   5.829   7.524
14365TIP3    H143028   1.804   5.791   7.580
14365TIP3    H243029   1.658   5.770   7.538
14366TIP3   OH243030   1.799   6.110   7.971
14366TIP3    H143031   1.829   6.017   7.984
14366TIP3    H243032   1.856   6.133   7.894
14367TIP3   OH243033   1.899   5.856   7.992
14367TIP3    H143034   1.951   5.844   8.074
14367TIP3    H243035   1.846   5.776   7.990
14368TIP3   OH243036   1.983   5.762   7.656
14368TIP3    H143037   2.021   5.699   7.593
14368TIP3    H243038   2.044   5.838   7.649
14369TIP3   OH243039   1.993   5.628   8.384
14369TIP3    H143040   2.038   5.702   8.337
14369TIP3    H243041   1.921   5.675   8.428
14370TIP3   OH243042   2.071   5.807   8.195
14370TIP3    H143043   2.146   5.753   8.160
14370TIP3    H243044   2.110   5.897   8.188
14371TIP3   OH243045   1.714   5.630   8.355
14371TIP3    H143046   1.645   5.699   8.352
14371TIP3    H243047   1.686   5.579   8.433
14372TIP3   OH243048   1.155   5.725   8.072
14372TIP3    H143049   1.196   5.681   8.147
14372TIP3    H243050   1.152   5.817   8.108
14373TIP3   OH243051   3.189   6.785   7.634
14373TIP3    H143052   3.159   6.876   7.616
14373TIP3    H243053   3.111   6.735   7.605
14374TIP3   OH243054   3.202   6.764   8.005
14374TIP3    H143055   3.222   6.756   8.101
14374TIP3    H243056   3.151   6.682   7.989
14375TIP3   OH243057   3.435   7.084   7.697
14375TIP3    H143058   3.412   7.021   7.767
14375TIP3    H243059   3.468   7.160   7.748
14376TIP3   OH243060   2.168   6.275   7.889
14376TIP3    H143061   2.139   6.365   7.911
14376TIP3    H243062   2.088   6.241   7.844
14377TIP3   OH243063   2.228   6.571   8.022
14377TIP3    H143064   2.278   6.518   8.087
14377TIP3    H243065   2.280   6.655   8.025
14378TIP3   OH243066   3.087   7.527   7.726
14378TIP3    H143067   3.136   7.471   7.661
14378TIP3    H243068   3.112   7.483   7.808
14379TIP3   OH243069   3.023   6.970   8.033
14379TIP3    H143070   3.075   6.897   7.997
14379TIP3    H243071   3.094   7.021   8.076
14380TIP3   OH243072   4.003   6.327   8.065
14380TIP3    H143073   4.030   6.411   8.108
14380TIP3    H243074   4.023   6.346   7.972
14381TIP3   OH243075   3.396   6.514   8.100
14381TIP3    H143076   3.441   6.429   8.119
14381TIP3    H243077   3.365   6.499   8.009
14382TIP3   OH243078   2.739   6.169   8.060
14382TIP3    H143079   2.718   6.242   7.998
14382TIP3    H243080   2.691   6.096   8.016
14383TIP3   OH243081   3.433   6.266   7.683
14383TIP3    H143082   3.504   6.250   7.749
14383TIP3    H243083   3.486   6.299   7.608
14384TIP3   OH243084   2.385   6.388   8.167
14384TIP3    H143085   2.465   6.353   8.210
14384TIP3    H243086   2.388   6.338   8.082
14385TIP3   OH243087   2.809   6.561   7.972
14385TIP3    H143088   2.905   6.540   7.978
14385TIP3    H243089   2.772   6.479   7.935
14386TIP3   OH243090   4.069   6.534   8.244
14386TIP3    H143091   3.990   6.587   8.221
14386TIP3    H243092   4.106   6.586   8.319
14387TIP3   OH243093   2.747   6.146   8.491
14387TIP3    H143094   2.679   6.188   8.434
14387TIP3    H243095   2.704   6.144   8.578
14388TIP3   OH243096   3.080   7.005   7.502
14388TIP3    H143097   3.035   6.986   7.419
14388TIP3    H243098   3.039   7.091   7.525
14389TIP3   OH243099   3.638   6.269   7.861
14389TIP3    H143100   3.625   6.222   7.944
14389TIP3    H243101   3.689   6.347   7.888
14390TIP3   OH243102   2.607   6.264   8.281
14390TIP3    H143103   2.670   6.336   8.302
14390TIP3    H243104   2.655   6.222   8.205
14391TIP3   OH243105   2.058   6.809   7.623
14391TIP3    H143106   2.029   6.841   7.535
14391TIP3    H243107   2.109   6.883   7.660
14392TIP3   OH243108   3.523   7.319   7.845
14392TIP3    H143109   3.437   7.302   7.890
14392TIP3    H243110   3.505   7.408   7.806
14393TIP3   OH243111   3.790   6.230   8.229
14393TIP3    H143112   3.703   6.254   8.195
14393TIP3    H243113   3.851   6.263   8.160
14394TIP3   OH243114   3.089   5.866   8.214
14394TIP3    H143115   3.072   5.772   8.232
14394TIP3    H243116   3.011   5.906   8.258
14395TIP3   OH243117   3.212   7.378   7.537
14395TIP3    H143118   3.259   7.294   7.516
14395TIP3    H243119   3.273   7.441   7.491
14396TIP3   OH243120   3.348   7.158   7.447
14396TIP3    H143121   3.308   7.078   7.410
14396TIP3    H243122   3.385   7.124   7.532
14397TIP3   OH243123   3.724   7.248   8.167
14397TIP3    H143124   3.715   7.155   8.135
14397TIP3    H243125   3.740   7.295   8.083
14398TIP3   OH243126   3.018   6.635   7.469
14398TIP3    H143127   2.939   6.688   7.449
14398TIP3    H243128   3.064   6.634   7.384
14399TIP3   OH243129   2.975   6.425   7.178
14399TIP3    H143130   3.041   6.477   7.229
14399TIP3    H243131   3.035   6.362   7.132
14400TIP3   OH243132   3.929   6.878   8.055
14400TIP3    H143133   3.843   6.925   8.063
14400TIP3    H243134   3.953   6.904   7.964
14401TIP3   OH243135   3.367   6.719   7.437
14401TIP3    H143136   3.312   6.743   7.515
14401TIP3    H243137   3.451   6.696   7.481
14402TIP3   OH243138   3.593   6.727   8.332
14402TIP3    H143139   3.608   6.806   8.389
14402TIP3    H243140   3.513   6.756   8.284
14403TIP3   OH243141   2.606   6.711   7.851
14403TIP3    H143142   2.560   6.655   7.785
14403TIP3    H243143   2.677   6.652   7.883
14404TIP3   OH243144   2.778   7.083   8.039
14404TIP3    H143145   2.726   7.030   7.979
14404TIP3    H243146   2.869   7.043   8.027
14405TIP3   OH243147   2.751   6.691   8.204
14405TIP3    H143148   2.772   6.652   8.116
14405TIP3    H243149   2.835   6.735   8.227
14406TIP3   OH243150   3.283   7.284   7.957
14406TIP3    H143151   3.272   7.347   8.030
14406TIP3    H243152   3.256   7.200   8.000
14407TIP3   OH243153   3.203   6.580   7.265
14407TIP3    H143154   3.263   6.640   7.315
14407TIP3    H243155   3.231   6.600   7.172
14408TIP3   OH243156   2.959   7.252   7.524
14408TIP3    H143157   3.032   7.305   7.560
14408TIP3    H243158   2.880   7.302   7.546
14409TIP3   OH243159   3.722   5.817   7.315
14409TIP3    H143160   3.640   5.839   7.364
14409TIP3    H243161   3.737   5.899   7.264
14410TIP3   OH243162   2.471   6.557   7.653
14410TIP3    H143163   2.400   6.603   7.604
14410TIP3    H243164   2.426   6.476   7.678
14411TIP3   OH243165   3.522   7.184   6.865
14411TIP3    H143166   3.532   7.280   6.846
14411TIP3    H243167   3.614   7.153   6.851
14412TIP3   OH243168   2.816   7.546   7.317
14412TIP3    H143169   2.760   7.475   7.284
14412TIP3    H243170   2.766   7.566   7.400
14413TIP3   OH243171   3.077   7.458   7.254
14413TIP3    H143172   2.994   7.470   7.301
14413TIP3    H243173   3.127   7.399   7.314
14414TIP3   OH243174   3.875   6.713   8.516
14414TIP3    H143175   3.787   6.751   8.503
14414TIP3    H243176   3.861   6.618   8.504
14415TIP3   OH243177   2.851   5.947   8.330
14415TIP3    H143178   2.760   5.921   8.302
14415TIP3    H243179   2.829   6.028   8.381
14416TIP3   OH243180   3.385   6.076   8.527
14416TIP3    H143181   3.459   6.036   8.579
14416TIP3    H243182   3.305   6.044   8.575
14417TIP3   OH243183   3.621   6.489   8.465
14417TIP3    H143184   3.572   6.505   8.549
14417TIP3    H243185   3.602   6.571   8.414
14418TIP3   OH243186   3.281   6.620   7.009
14418TIP3    H143187   3.247   6.598   6.920
14418TIP3    H243188   3.364   6.665   6.986
14419TIP3   OH243189   2.993   5.998   7.313
14419TIP3    H143190   2.958   5.993   7.405
14419TIP3    H243191   2.954   5.916   7.277
14420TIP3   OH243192   2.779   6.464   8.356
14420TIP3    H143193   2.776   6.497   8.448
14420TIP3    H243194   2.766   6.547   8.305
14421TIP3   OH243195   2.665   6.351   7.874
14421TIP3    H143196   2.572   6.327   7.892
14421TIP3    H243197   2.676   6.311   7.785
14422TIP3   OH243198   3.156   6.437   7.605
14422TIP3    H143199   3.106   6.508   7.560
14422TIP3    H243200   3.211   6.403   7.531
14423TIP3   OH243201   3.311   6.463   7.842
14423TIP3    H143202   3.250   6.494   7.772
14423TIP3    H243203   3.346   6.384   7.796
14424TIP3   OH243204   2.649   5.972   7.278
14424TIP3    H143205   2.640   5.971   7.376
14424TIP3    H243206   2.571   6.026   7.254
14425TIP3   OH243207   2.203   6.034   8.145
14425TIP3    H143208   2.279   6.058   8.202
14425TIP3    H243209   2.244   6.010   8.061
14426TIP3   OH243210   2.159   5.997   7.668
14426TIP3    H143211   2.204   6.032   7.589
14426TIP3    H243212   2.100   6.072   7.688
14427TIP3   OH243213   3.305   6.709   8.262
14427TIP3    H143214   3.346   6.643   8.201
14427TIP3    H243215   3.279   6.650   8.335
14428TIP3   OH243216   2.998   6.174   7.935
14428TIP3    H143217   2.916   6.171   7.987
14428TIP3    H243218   3.066   6.168   8.003
14429TIP3   OH243219   2.428   6.230   7.943
14429TIP3    H143220   2.333   6.236   7.915
14429TIP3    H243221   2.452   6.140   7.917
14430TIP3   OH243222   2.692   6.224   7.634
14430TIP3    H143223   2.785   6.239   7.610
14430TIP3    H243224   2.643   6.246   7.551
14431TIP3   OH243225   3.483   6.251   8.142
14431TIP3    H143226   3.445   6.265   8.231
14431TIP3    H243227   3.418   6.189   8.104
14432TIP3   OH243228   2.543   6.258   7.409
14432TIP3    H143229   2.469   6.216   7.362
14432TIP3    H243230   2.593   6.296   7.335
14433TIP3   OH243231   3.076   6.501   8.031
14433TIP3    H143232   3.149   6.462   7.981
14433TIP3    H243233   3.081   6.456   8.117
14434TIP3   OH243234   2.595   5.988   7.914
14434TIP3    H143235   2.559   5.910   7.962
14434TIP3    H243236   2.642   5.945   7.841
14435TIP3   OH243237   3.054   6.401   8.310
14435TIP3    H143238   2.964   6.435   8.325
14435TIP3    H243239   3.110   6.458   8.366
14436TIP3   OH243240   2.789   6.786   7.412
14436TIP3    H143241   2.716   6.721   7.403
14436TIP3    H243242   2.778   6.813   7.506
14437TIP3   OH243243   3.691   7.010   8.036
14437TIP3    H143244   3.709   7.065   7.957
14437TIP3    H243245   3.602   6.973   8.017
14438TIP3   OH243246   3.245   6.099   7.285
14438TIP3    H143247   3.149   6.079   7.292
14438TIP3    H243248   3.251   6.193   7.309
14439TIP3   OH243249   3.313   6.351   7.386
14439TIP3    H143250   3.410   6.357   7.401
14439TIP3    H243251   3.295   6.432   7.334
14440TIP3   OH243252   2.470   6.753   8.082
14440TIP3    H143253   2.508   6.763   7.993
14440TIP3    H243254   2.537   6.700   8.126
14441TIP3   OH243255   2.930   6.939   7.238
14441TIP3    H143256   2.887   7.027   7.250
14441TIP3    H243257   2.877   6.883   7.299
14442TIP3   OH243258   3.754   6.444   7.220
14442TIP3    H143259   3.692   6.400   7.157
14442TIP3    H243260   3.751   6.534   7.180
14443TIP3   OH243261   3.978   7.249   8.276
14443TIP3    H143262   3.887   7.262   8.243
14443TIP3    H243263   4.025   7.234   8.191
14444TIP3   OH243264   3.461   7.258   7.130
14444TIP3    H143265   3.432   7.188   7.190
14444TIP3    H243266   3.473   7.212   7.045
14445TIP3   OH243267   3.452   6.887   7.960
14445TIP3    H143268   3.359   6.862   7.971
14445TIP3    H243269   3.486   6.807   7.915
14446TIP3   OH243270   2.572   7.061   7.665
14446TIP3    H143271   2.607   7.136   7.717
14446TIP3    H243272   2.487   7.047   7.708
14447TIP3   OH243273   2.148   6.418   7.425
14447TIP3    H143274   2.192   6.503   7.447
14447TIP3    H243275   2.070   6.421   7.485
14448TIP3   OH243276   2.743   6.855   7.664
14448TIP3    H143277   2.687   6.936   7.660
14448TIP3    H243278   2.702   6.810   7.740
14449TIP3   OH243279   3.260   7.073   8.130
14449TIP3    H143280   3.261   7.134   8.207
14449TIP3    H243281   3.346   7.029   8.140
14450TIP3   OH243282   3.215   6.988   7.033
14450TIP3    H143283   3.270   6.961   7.110
14450TIP3    H243284   3.127   6.960   7.063
14451TIP3   OH243285   3.557   7.459   6.845
14451TIP3    H143286   3.596   7.532   6.795
14451TIP3    H243287   3.475   7.503   6.876
14452TIP3   OH243288   3.377   6.919   7.244
14452TIP3    H143289   3.367   6.853   7.316
14452TIP3    H243290   3.474   6.916   7.232
14453TIP3   OH243291   2.576   6.971   7.031
14453TIP3    H143292   2.590   6.878   7.002
14453TIP3    H243293   2.558   6.959   7.126
14454TIP3   OH243294   2.524   6.976   7.302
14454TIP3    H143295   2.585   6.944   7.370
14454TIP3    H243296   2.526   7.073   7.317
14455TIP3   OH243297   2.260   6.662   7.505
14455TIP3    H143298   2.192   6.704   7.563
14455TIP3    H243299   2.273   6.733   7.439
14456TIP3   OH243300   3.407   6.317   8.403
14456TIP3    H143301   3.497   6.345   8.429
14456TIP3    H243302   3.396   6.232   8.451
14457TIP3   OH243303   3.292   6.050   7.566
14457TIP3    H143304   3.278   6.071   7.472
14457TIP3    H243305   3.330   6.134   7.600
14458TIP3   OH243306   2.794   7.177   7.245
14458TIP3    H143307   2.707   7.194   7.287
14458TIP3    H243308   2.775   7.190   7.152
14459TIP3   OH243309   2.977   6.234   7.665
14459TIP3    H143310   3.040   6.307   7.648
14459TIP3    H243311   2.983   6.226   7.763
14460TIP3   OH243312   3.232   6.549   8.471
14460TIP3    H143313   3.267   6.613   8.535
14460TIP3    H243314   3.297   6.476   8.474
14461TIP3   OH243315   3.120   5.956   7.765
14461TIP3    H143316   3.110   6.035   7.820
14461TIP3    H243317   3.182   5.989   7.696
14462TIP3   OH243318   2.539   7.250   7.318
14462TIP3    H143319   2.513   7.317   7.252
14462TIP3    H243320   2.524   7.298   7.401
14463TIP3   OH243321   2.634   5.959   7.555
14463TIP3    H143322   2.632   6.050   7.592
14463TIP3    H243323   2.730   5.941   7.562
14464TIP3   OH243324   3.885   6.428   8.456
14464TIP3    H143325   3.786   6.432   8.458
14464TIP3    H243326   3.903   6.438   8.361
14465TIP3   OH243327   3.540   6.644   7.840
14465TIP3    H143328   3.462   6.586   7.853
14465TIP3    H243329   3.610   6.596   7.889
14466TIP3   OH243330   2.261   6.872   7.310
14466TIP3    H143331   2.336   6.934   7.319
14466TIP3    H243332   2.299   6.813   7.242
14467TIP3   OH243333   2.193   6.147   7.443
14467TIP3    H143334   2.192   6.245   7.441
14467TIP3    H243335   2.114   6.125   7.391
14468TIP3   OH243336   3.516   7.581   7.768
14468TIP3    H143337   3.461   7.645   7.720
14468TIP3    H243338   3.603   7.624   7.760
14469TIP3   OH243339   2.578   5.880   8.311
14469TIP3    H143340   2.552   5.845   8.224
14469TIP3    H243341   2.570   5.800   8.367
14470TIP3   OH243342   2.748   7.170   6.954
14470TIP3    H143343   2.688   7.095   6.979
14470TIP3    H243344   2.820   7.120   6.909
14471TIP3   OH243345   3.162   7.204   6.843
14471TIP3    H143346   3.212   7.162   6.915
14471TIP3    H243347   3.227   7.209   6.771
14472TIP3   OH243348   2.390   6.685   7.165
14472TIP3    H143349   2.446   6.653   7.238
14472TIP3    H243350   2.457   6.691   7.093
14473TIP3   OH243351   2.897   6.885   6.971
14473TIP3    H143352   2.903   6.895   7.068
14473TIP3    H243353   2.900   6.787   6.963
14474TIP3   OH243354   3.508   7.092   8.302
14474TIP3    H143355   3.583   7.148   8.276
14474TIP3    H243356   3.447   7.157   8.340
14475TIP3   OH243357   2.592   6.594   7.382
14475TIP3    H143358   2.564   6.556   7.468
14475TIP3    H243359   2.630   6.516   7.337
14476TIP3   OH243360   2.698   6.388   7.223
14476TIP3    H143361   2.674   6.398   7.129
14476TIP3    H243362   2.795   6.389   7.217
14477TIP3   OH243363   3.515   6.714   6.892
14477TIP3    H143364   3.496   6.671   6.806
14477TIP3    H243365   3.481   6.804   6.872
14478TIP3   OH243366   2.933   6.439   8.685
14478TIP3    H143367   2.959   6.346   8.680
14478TIP3    H243368   3.013   6.483   8.651
14479TIP3   OH243369   3.009   6.212   8.526
14479TIP3    H143370   3.034   6.259   8.445
14479TIP3    H243371   2.914   6.195   8.512
14480TIP3   OH243372   2.996   6.770   8.353
14480TIP3    H143373   3.090   6.748   8.356
14480TIP3    H243374   2.997   6.863   8.379
14481TIP3   OH243375   3.648   6.931   8.495
14481TIP3    H143376   3.597   7.006   8.458
14481TIP3    H243377   3.738   6.967   8.481
14482TIP3   OH243378   3.142   5.983   8.611
14482TIP3    H143379   3.092   6.066   8.594
14482TIP3    H243380   3.070   5.918   8.612
14483TIP3   OH243381   3.492   6.447   8.718
14483TIP3    H143382   3.412   6.421   8.766
14483TIP3    H243383   3.549   6.371   8.737
14484TIP3   OH243384   2.527   7.455   7.132
14484TIP3    H143385   2.613   7.461   7.088
14484TIP3    H243386   2.469   7.490   7.063
14485TIP3   OH243387   1.997   6.825   7.350
14485TIP3    H143388   2.091   6.845   7.328
14485TIP3    H243389   1.985   6.738   7.306
14486TIP3   OH243390   3.744   7.730   7.751
14486TIP3    H143391   3.811   7.766   7.814
14486TIP3    H243392   3.799   7.721   7.672
14487TIP3   OH243393   3.654   6.901   7.222
14487TIP3    H143394   3.720   6.966   7.190
14487TIP3    H243395   3.700   6.864   7.301
14488TIP3   OH243396   3.783   6.769   7.426
14488TIP3    H143397   3.715   6.728   7.485
14488TIP3    H243398   3.847   6.805   7.490
14489TIP3   OH243399   3.838   7.163   7.854
14489TIP3    H143400   3.886   7.093   7.805
14489TIP3    H243401   3.823   7.231   7.786
14490TIP3   OH243402   3.735   7.450   7.967
14490TIP3    H143403   3.701   7.540   7.967
14490TIP3    H243404   3.666   7.402   7.915
14491TIP3   OH243405   3.719   6.678   7.071
14491TIP3    H143406   3.647   6.679   7.003
14491TIP3    H243407   3.690   6.753   7.126
14492TIP3   OH243408   3.589   6.350   7.026
14492TIP3    H143409   3.546   6.385   6.946
14492TIP3    H243410   3.566   6.255   7.019
14493TIP3   OH243411   3.594   6.629   7.571
14493TIP3    H143412   3.601   6.532   7.562
14493TIP3    H243413   3.579   6.640   7.667
14494TIP3   OH243414   3.884   7.010   8.379
14494TIP3    H143415   3.962   6.972   8.424
14494TIP3    H243416   3.917   7.098   8.355
14495TIP3   OH243417   4.098   6.865   8.478
14495TIP3    H143418   4.016   6.819   8.507
14495TIP3    H243419   4.155   6.786   8.470
14496TIP3   OH243420   3.533   6.085   7.009
14496TIP3    H143421   3.606   6.051   7.065
14496TIP3    H243422   3.459   6.024   7.029
14497TIP3   OH243423   3.592   6.344   7.464
14497TIP3    H143424   3.632   6.255   7.478
14497TIP3    H243425   3.650   6.376   7.392
14498TIP3   OH243426   3.752   6.511   7.963
14498TIP3    H143427   3.837   6.536   7.920
14498TIP3    H243428   3.767   6.553   8.050
14499TIP3   OH243429   3.827   6.657   8.190
14499TIP3    H143430   3.747   6.688   8.237
14499TIP3    H243431   3.859   6.740   8.150
14500TIP3   OH243432   3.700   6.094   7.504
14500TIP3    H143433   3.748   6.077   7.587
14500TIP3    H243434   3.638   6.017   7.502
14501TIP3   OH243435   2.396   6.091   8.334
14501TIP3    H143436   2.450   6.009   8.338
14501TIP3    H243437   2.466   6.156   8.315
14502TIP3   OH243438   2.215   6.368   8.392
14502TIP3    H143439   2.203   6.300   8.325
14502TIP3    H243440   2.286   6.419   8.347
14503TIP3   OH243441   4.131   6.396   8.569
14503TIP3    H143442   4.038   6.420   8.547
14503TIP3    H243443   4.139   6.311   8.524
14504TIP3   OH243444   3.778   6.024   7.139
14504TIP3    H143445   3.817   5.955   7.081
14504TIP3    H243446   3.846   6.095   7.134
14505TIP3   OH243447   2.185   5.859   7.897
14505TIP3    H143448   2.090   5.858   7.916
14505TIP3    H243449   2.187   5.917   7.818
14506TIP3   OH243450   3.352   7.567   7.397
14506TIP3    H143451   3.399   7.548   7.313
14506TIP3    H243452   3.417   7.621   7.444
14507TIP3   OH243453   4.018   6.162   8.424
14507TIP3    H143454   3.948   6.227   8.402
14507TIP3    H243455   3.967   6.080   8.411
14508TIP3   OH243456   3.248   6.067   8.057
14508TIP3    H143457   3.205   5.996   8.107
14508TIP3    H243458   3.320   6.020   8.011
14509TIP3   OH243459   3.769   5.956   7.959
14509TIP3    H143460   3.804   6.004   7.880
14509TIP3    H243461   3.673   5.968   7.949
14510TIP3   OH243462   3.864   6.045   7.721
14510TIP3    H143463   3.937   5.995   7.679
14510TIP3    H243464   3.897   6.137   7.706
14511TIP3   OH243465   2.495   5.777   8.067
14511TIP3    H143466   2.403   5.742   8.068
14511TIP3    H243467   2.544   5.691   8.064
14512TIP3   OH243468   2.285   5.648   7.718
14512TIP3    H143469   2.316   5.701   7.643
14512TIP3    H243470   2.260   5.717   7.783
14513TIP3   OH243471   2.941   5.810   7.950
14513TIP3    H143472   2.998   5.857   7.887
14513TIP3    H243473   2.972   5.845   8.035
14514TIP3   OH243474   3.489   5.956   7.931
14514TIP3    H143475   3.485   5.915   7.844
14514TIP3    H243476   3.476   5.878   7.990
14515TIP3   OH243477   3.517   5.881   7.497
14515TIP3    H143478   3.430   5.923   7.511
14515TIP3    H243479   3.503   5.794   7.541
14516TIP3   OH243480   2.403   5.801   7.481
14516TIP3    H143481   2.450   5.740   7.422
14516TIP3    H243482   2.476   5.856   7.514
14517TIP3   OH243483   2.911   5.984   7.577
14517TIP3    H143484   2.969   5.935   7.636
14517TIP3    H243485   2.935   6.076   7.603
14518TIP3   OH243486   2.807   7.434   7.029
14518TIP3    H143487   2.878   7.389   7.080
14518TIP3    H243488   2.772   7.356   6.981
14519TIP3   OH243489   3.493   7.525   7.168
14519TIP3    H143490   3.486   7.426   7.160
14519TIP3    H243491   3.454   7.553   7.083
14520TIP3   OH243492   2.084   7.243   7.125
14520TIP3    H143493   2.058   7.245   7.219
14520TIP3    H243494   2.171   7.199   7.126
14521TIP3   OH243495   4.985   7.043   7.124
14521TIP3    H143496   4.951   7.132   7.099
14521TIP3    H243497   4.912   6.988   7.089
14522TIP3   OH243498   4.962   7.038   7.511
14522TIP3    H143499   5.003   7.009   7.594
14522TIP3    H243500   4.925   6.954   7.479
14523TIP3   OH243501   4.279   6.936   7.870
14523TIP3    H143502   4.308   6.864   7.929
14523TIP3    H243503   4.357   6.992   7.870
14524TIP3   OH243504   5.237   7.315   7.195
14524TIP3    H143505   5.210   7.257   7.268
14524TIP3    H243506   5.238   7.402   7.238
14525TIP3   OH243507   4.249   7.347   7.594
14525TIP3    H143508   4.241   7.249   7.589
14525TIP3    H243509   4.344   7.355   7.611
14526TIP3   OH243510   3.961   6.546   7.375
14526TIP3    H143511   3.914   6.629   7.394
14526TIP3    H243512   3.890   6.495   7.332
14527TIP3   OH243513   4.018   6.836   7.555
14527TIP3    H143514   4.067   6.757   7.588
14527TIP3    H243515   4.079   6.872   7.489
14528TIP3   OH243516   4.847   7.795   7.200
14528TIP3    H143517   4.892   7.726   7.147
14528TIP3    H243518   4.898   7.788   7.283
14529TIP3   OH243519   4.774   7.269   7.545
14529TIP3    H143520   4.810   7.187   7.508
14529TIP3    H243521   4.857   7.317   7.562
14530TIP3   OH243522   5.730   6.572   7.490
14530TIP3    H143523   5.808   6.584   7.550
14530TIP3    H243524   5.775   6.570   7.404
14531TIP3   OH243525   5.197   6.772   7.578
14531TIP3    H143526   5.242   6.688   7.600
14531TIP3    H243527   5.167   6.753   7.487
14532TIP3   OH243528   4.536   6.428   7.549
14532TIP3    H143529   4.516   6.501   7.487
14532TIP3    H243530   4.488   6.355   7.505
14533TIP3   OH243531   5.230   6.525   7.170
14533TIP3    H143532   5.300   6.509   7.238
14533TIP3    H243533   5.286   6.553   7.095
14534TIP3   OH243534   4.165   6.629   7.657
14534TIP3    H143535   4.248   6.612   7.706
14534TIP3    H243536   4.180   6.574   7.578
14535TIP3   OH243537   4.606   6.827   7.452
14535TIP3    H143538   4.700   6.802   7.463
14535TIP3    H243539   4.567   6.743   7.419
14536TIP3   OH243540   4.526   6.412   7.986
14536TIP3    H143541   4.469   6.450   7.917
14536TIP3    H243542   4.473   6.432   8.067
14537TIP3   OH243543   4.865   7.259   6.999
14537TIP3    H143544   4.836   7.250   6.907
14537TIP3    H243545   4.824   7.345   7.023
14538TIP3   OH243546   4.636   7.187   7.777
14538TIP3    H143547   4.572   7.250   7.817
14538TIP3    H243548   4.672   7.241   7.703
14539TIP3   OH243549   5.434   6.528   7.350
14539TIP3    H143550   5.432   6.465   7.422
14539TIP3    H243551   5.516   6.576   7.366
14540TIP3   OH243552   4.400   6.525   7.768
14540TIP3    H143553   4.461   6.599   7.793
14540TIP3    H243554   4.451   6.487   7.692
14541TIP3   OH243555   4.445   7.366   7.858
14541TIP3    H143556   4.456   7.464   7.857
14541TIP3    H243557   4.375   7.358   7.925
14542TIP3   OH243558   3.854   7.073   7.112
14542TIP3    H143559   3.815   7.101   7.028
14542TIP3    H243560   3.887   7.158   7.148
14543TIP3   OH243561   5.564   6.472   7.699
14543TIP3    H143562   5.474   6.491   7.666
14543TIP3    H243563   5.620   6.507   7.626
14544TIP3   OH243564   4.881   6.127   7.699
14544TIP3    H143565   4.866   6.032   7.717
14544TIP3    H243566   4.804   6.166   7.747
14545TIP3   OH243567   4.995   7.629   7.038
14545TIP3    H143568   5.044   7.547   7.012
14545TIP3    H243569   5.053   7.695   6.993
14546TIP3   OH243570   5.139   7.413   6.950
14546TIP3    H143571   5.122   7.346   6.883
14546TIP3    H243572   5.176   7.361   7.023
14547TIP3   OH243573   4.817   6.895   6.958
14547TIP3    H143574   4.738   6.948   6.937
14547TIP3    H243575   4.861   6.890   6.871
14548TIP3   OH243576   4.772   6.681   6.667
14548TIP3    H143577   4.839   6.734   6.714
14548TIP3    H243578   4.831   6.618   6.620
14549TIP3   OH243579   5.163   6.976   6.924
14549TIP3    H143580   5.110   6.999   7.003
14549TIP3    H243581   5.249   6.952   6.965
14550TIP3   OH243582   4.394   6.972   7.345
14550TIP3    H143583   4.353   6.915   7.277
14550TIP3    H243584   4.470   6.919   7.374
14551TIP3   OH243585   4.529   7.401   7.492
14551TIP3    H143586   4.499   7.365   7.407
14551TIP3    H243587   4.613   7.353   7.505
14552TIP3   OH243588   4.530   6.944   7.697
14552TIP3    H143589   4.563   6.921   7.608
14552TIP3    H243590   4.574   7.030   7.715
14553TIP3   OH243591   4.997   6.836   6.751
14553TIP3    H143592   5.058   6.896   6.800
14553TIP3    H243593   5.025   6.855   6.658
14554TIP3   OH243594   4.422   7.051   8.124
14554TIP3    H143595   4.421   7.142   8.159
14554TIP3    H243596   4.328   7.026   8.137
14555TIP3   OH243597   4.742   7.510   7.026
14555TIP3    H143598   4.821   7.564   7.045
14555TIP3    H243599   4.683   7.574   6.985
14556TIP3   OH243600   5.520   6.081   6.800
14556TIP3    H143601   5.438   6.102   6.849
14556TIP3    H243602   5.532   6.162   6.746
14557TIP3   OH243603   4.261   6.817   7.147
14557TIP3    H143604   4.192   6.860   7.093
14557TIP3    H243605   4.224   6.729   7.158
14558TIP3   OH243606   5.319   7.442   6.352
14558TIP3    H143607   5.328   7.538   6.334
14558TIP3    H243608   5.412   7.412   6.339
14559TIP3   OH243609   4.065   7.190   8.021
14559TIP3    H143610   3.990   7.172   7.962
14559TIP3    H243611   4.098   7.100   8.042
14560TIP3   OH243612   3.891   7.398   7.680
14560TIP3    H143613   3.987   7.385   7.674
14560TIP3    H243614   3.880   7.449   7.762
14561TIP3   OH243615   4.624   7.752   6.834
14561TIP3    H143616   4.584   7.743   6.746
14561TIP3    H243617   4.600   7.843   6.859
14562TIP3   OH243618   4.063   7.604   7.216
14562TIP3    H143619   4.110   7.598   7.302
14562TIP3    H243620   4.016   7.519   7.214
14563TIP3   OH243621   4.824   7.657   6.467
14563TIP3    H143622   4.885   7.589   6.430
14563TIP3    H243623   4.861   7.670   6.556
14564TIP3   OH243624   4.876   7.709   6.734
14564TIP3    H143625   4.793   7.717   6.785
14564TIP3    H243626   4.939   7.681   6.803
14565TIP3   OH243627   4.246   7.391   8.042
14565TIP3    H143628   4.286   7.371   8.129
14565TIP3    H243629   4.177   7.322   8.037
14566TIP3   OH243630   4.645   6.204   7.832
14566TIP3    H143631   4.557   6.173   7.801
14566TIP3    H243632   4.618   6.287   7.876
14567TIP3   OH243633   5.177   6.323   8.028
14567TIP3    H143634   5.240   6.284   8.091
14567TIP3    H243635   5.091   6.305   8.071
14568TIP3   OH243636   5.076   6.878   6.498
14568TIP3    H143637   5.043   6.855   6.409
14568TIP3    H243638   5.161   6.920   6.474
14569TIP3   OH243639   4.788   6.255   6.800
14569TIP3    H143640   4.753   6.250   6.892
14569TIP3    H243641   4.750   6.173   6.764
14570TIP3   OH243642   4.575   6.722   7.845
14570TIP3    H143643   4.532   6.747   7.929
14570TIP3    H243644   4.562   6.803   7.792
14571TIP3   OH243645   4.461   6.609   7.362
14571TIP3    H143646   4.368   6.583   7.380
14571TIP3    H243647   4.473   6.568   7.273
14572TIP3   OH243648   4.953   6.694   7.092
14572TIP3    H143649   4.902   6.764   7.045
14572TIP3    H243650   5.009   6.659   7.019
14573TIP3   OH243651   5.113   6.729   7.318
14573TIP3    H143652   5.045   6.746   7.249
14573TIP3    H243653   5.151   6.648   7.278
14574TIP3   OH243654   4.392   6.750   8.054
14574TIP3    H143655   4.432   6.816   8.113
14574TIP3    H243656   4.385   6.672   8.111
14575TIP3   OH243657   4.445   6.229   6.765
14575TIP3    H143658   4.435   6.228   6.863
14575TIP3    H243659   4.368   6.282   6.739
14576TIP3   OH243660   3.989   6.269   7.640
14576TIP3    H143661   4.065   6.304   7.691
14576TIP3    H243662   4.028   6.243   7.555
14577TIP3   OH243663   3.955   6.252   7.156
14577TIP3    H143664   4.002   6.288   7.077
14577TIP3    H243665   3.895   6.326   7.174
14578TIP3   OH243666   5.090   6.960   7.746
14578TIP3    H143667   5.138   6.894   7.690
14578TIP3    H243668   5.065   6.902   7.821
14579TIP3   OH243669   4.794   6.433   7.422
14579TIP3    H143670   4.712   6.430   7.475
14579TIP3    H243671   4.863   6.422   7.490
14580TIP3   OH243672   4.222   6.487   7.429
14580TIP3    H143673   4.128   6.495   7.400
14580TIP3    H243674   4.245   6.396   7.405
14581TIP3   OH243675   4.487   6.482   7.121
14581TIP3    H143676   4.581   6.495   7.098
14581TIP3    H243677   4.441   6.503   7.036
14582TIP3   OH243678   5.279   6.508   7.628
14582TIP3    H143679   5.242   6.522   7.718
14582TIP3    H243680   5.214   6.447   7.590
14583TIP3   OH243681   4.338   6.517   6.896
14583TIP3    H143682   4.267   6.472   6.847
14583TIP3    H243683   4.390   6.555   6.822
14584TIP3   OH243684   4.386   7.301   8.272
14584TIP3    H143685   4.475   7.321   8.304
14584TIP3    H243686   4.351   7.243   8.343
14585TIP3   OH243687   4.871   6.761   7.520
14585TIP3    H143688   4.941   6.716   7.471
14585TIP3    H243689   4.872   6.714   7.606
14586TIP3   OH243690   4.392   6.246   7.401
14586TIP3    H143691   4.355   6.168   7.449
14586TIP3    H243692   4.436   6.204   7.326
14587TIP3   OH243693   4.842   6.655   7.803
14587TIP3    H143694   4.753   6.691   7.820
14587TIP3    H243695   4.900   6.713   7.856
14588TIP3   OH243696   4.584   7.045   6.903
14588TIP3    H143697   4.511   6.980   6.892
14588TIP3    H243698   4.564   7.080   6.994
14589TIP3   OH243699   5.042   6.354   6.777
14589TIP3    H143700   4.945   6.336   6.779
14589TIP3    H243701   5.049   6.449   6.795
14590TIP3   OH243702   5.111   6.609   6.875
14590TIP3    H143703   5.208   6.613   6.885
14590TIP3    H243704   5.092   6.687   6.819
14591TIP3   OH243705   4.275   7.070   7.578
14591TIP3    H143706   4.315   7.039   7.494
14591TIP3    H243707   4.319   7.013   7.642
14592TIP3   OH243708   4.729   7.194   6.723
14592TIP3    H143709   4.680   7.280   6.726
14592TIP3    H243710   4.676   7.141   6.787
14593TIP3   OH243711   4.160   6.980   8.189
14593TIP3    H143712   4.155   6.979   8.286
14593TIP3    H243713   4.080   6.930   8.165
14594TIP3   OH243714   5.545   6.702   6.710
14594TIP3    H143715   5.486   6.657   6.645
14594TIP3    H243716   5.545   6.790   6.666
14595TIP3   OH243717   5.239   7.514   6.606
14595TIP3    H143718   5.241   7.439   6.667
14595TIP3    H243719   5.267   7.475   6.521
14596TIP3   OH243720   5.195   7.153   7.423
14596TIP3    H143721   5.101   7.123   7.430
14596TIP3    H243722   5.239   7.067   7.417
14597TIP3   OH243723   4.380   7.375   7.210
14597TIP3    H143724   4.380   7.456   7.154
14597TIP3    H243725   4.286   7.355   7.214
14598TIP3   OH243726   3.944   6.676   6.911
14598TIP3    H143727   3.988   6.761   6.933
14598TIP3    H243728   3.866   6.679   6.971
14599TIP3   OH243729   4.509   7.136   7.146
14599TIP3    H143730   4.479   7.226   7.167
14599TIP3    H243731   4.475   7.086   7.222
14600TIP3   OH243732   4.296   7.612   7.056
14600TIP3    H143733   4.211   7.624   7.102
14600TIP3    H243734   4.330   7.704   7.059
14601TIP3   OH243735   5.041   7.328   7.636
14601TIP3    H143736   5.029   7.264   7.710
14601TIP3    H243737   5.099   7.280   7.577
14602TIP3   OH243738   5.011   7.239   6.521
14602TIP3    H143739   5.067   7.219   6.599
14602TIP3    H243740   4.924   7.217   6.556
14603TIP3   OH243741   5.345   7.719   6.334
14603TIP3    H143742   5.387   7.793   6.285
14603TIP3    H243743   5.262   7.763   6.360
14604TIP3   OH243744   4.367   6.491   8.203
14604TIP3    H143745   4.271   6.496   8.217
14604TIP3    H243746   4.395   6.433   8.276
14605TIP3   OH243747   5.173   7.186   6.741
14605TIP3    H143748   5.163   7.113   6.805
14605TIP3    H243749   5.269   7.178   6.720
14606TIP3   OH243750   4.115   7.593   7.858
14606TIP3    H143751   4.126   7.498   7.849
14606TIP3    H243752   4.182   7.610   7.925
14607TIP3   OH243753   4.367   7.220   6.511
14607TIP3    H143754   4.393   7.129   6.491
14607TIP3    H243755   4.352   7.215   6.608
14608TIP3   OH243756   4.321   7.230   6.785
14608TIP3    H143757   4.396   7.203   6.840
14608TIP3    H243758   4.323   7.328   6.795
14609TIP3   OH243759   4.053   6.921   6.993
14609TIP3    H143760   3.986   6.966   7.048
14609TIP3    H243761   4.066   6.989   6.924
14610TIP3   OH243762   5.211   6.561   7.890
14610TIP3    H143763   5.299   6.581   7.926
14610TIP3    H243764   5.189   6.478   7.939
14611TIP3   OH243765   5.084   6.308   7.054
14611TIP3    H143766   5.073   6.326   6.959
14611TIP3    H243767   5.126   6.391   7.086
14612TIP3   OH243768   4.585   7.423   6.730
14612TIP3    H143769   4.499   7.449   6.769
14612TIP3    H243770   4.608   7.505   6.684
14613TIP3   OH243771   4.771   6.492   7.152
14613TIP3    H143772   4.836   6.564   7.134
14613TIP3    H243773   4.779   6.483   7.249
14614TIP3   OH243774   5.025   6.794   7.955
14614TIP3    H143775   5.012   6.809   8.051
14614TIP3    H243776   5.097   6.730   7.957
14615TIP3   OH243777   4.915   6.210   7.251
14615TIP3    H143778   4.910   6.289   7.308
14615TIP3    H243779   4.977   6.243   7.182
14616TIP3   OH243780   4.330   7.500   6.806
14616TIP3    H143781   4.303   7.572   6.744
14616TIP3    H243782   4.316   7.544   6.893
14617TIP3   OH243783   4.430   6.217   7.042
14617TIP3    H143784   4.429   6.307   7.080
14617TIP3    H243785   4.526   6.198   7.049
14618TIP3   OH243786   5.330   6.918   7.326
14618TIP3    H143787   5.249   6.862   7.326
14618TIP3    H243788   5.393   6.860   7.376
14619TIP3   OH243789   4.050   7.127   6.796
14619TIP3    H143790   4.119   7.195   6.806
14619TIP3    H243791   4.095   7.069   6.731
14620TIP3   OH243792   3.989   6.406   6.933
14620TIP3    H143793   3.992   6.503   6.930
14620TIP3    H243794   3.912   6.386   6.879
14621TIP3   OH243795   4.379   6.120   7.803
14621TIP3    H143796   4.350   6.093   7.712
14621TIP3    H243797   4.354   6.042   7.855
14622TIP3   OH243798   3.917   7.344   7.180
14622TIP3    H143799   3.850   7.373   7.244
14622TIP3    H243800   3.884   7.387   7.097
14623TIP3   OH243801   4.527   7.426   6.412
14623TIP3    H143802   4.483   7.352   6.458
14623TIP3    H243803   4.611   7.384   6.386
14624TIP3   OH243804   4.972   7.464   6.338
14624TIP3    H143805   5.027   7.412   6.399
14624TIP3    H243806   5.027   7.465   6.256
14625TIP3   OH243807   4.188   6.943   6.653
14625TIP3    H143808   4.247   6.912   6.725
14625TIP3    H243809   4.251   6.947   6.578
14626TIP3   OH243810   4.688   7.140   6.456
14626TIP3    H143811   4.698   7.153   6.553
14626TIP3    H243812   4.696   7.042   6.450
14627TIP3   OH243813   4.371   7.054   8.450
14627TIP3    H143814   4.423   6.980   8.416
14627TIP3    H243815   4.323   7.011   8.523
14628TIP3   OH243816   4.388   6.850   6.867
14628TIP3    H143817   4.362   6.809   6.952
14628TIP3    H243818   4.428   6.774   6.819
14629TIP3   OH243819   4.653   6.898   8.091
14629TIP3    H143820   4.584   6.967   8.095
14629TIP3    H243821   4.720   6.942   8.032
14630TIP3   OH243822   4.495   6.645   6.711
14630TIP3    H143823   4.471   6.648   6.616
14630TIP3    H243824   4.593   6.644   6.705
14631TIP3   OH243825   5.309   6.970   6.381
14631TIP3    H143826   5.293   6.928   6.294
14631TIP3    H243827   5.277   7.061   6.359
14632TIP3   OH243828   4.770   6.696   8.228
14632TIP3    H143829   4.775   6.620   8.166
14632TIP3    H243830   4.728   6.765   8.171
14633TIP3   OH243831   4.786   6.487   8.032
14633TIP3    H143832   4.814   6.530   7.949
14633TIP3    H243833   4.692   6.465   8.013
14634TIP3   OH243834   4.807   7.016   7.903
14634TIP3    H143835   4.888   7.022   7.851
14634TIP3    H243836   4.748   7.083   7.862
14635TIP3   OH243837   4.642   6.825   8.442
14635TIP3    H143838   4.587   6.748   8.467
14635TIP3    H243839   4.691   6.787   8.366
14636TIP3   OH243840   4.922   6.256   8.116
14636TIP3    H143841   4.870   6.335   8.088
14636TIP3    H243842   4.858   6.184   8.100
14637TIP3   OH243843   5.042   6.757   8.234
14637TIP3    H143844   5.072   6.767   8.326
14637TIP3    H243845   4.949   6.731   8.247
14638TIP3   OH243846   4.500   6.590   8.505
14638TIP3    H143847   4.509   6.504   8.460
14638TIP3    H243848   4.539   6.571   8.591
14639TIP3   OH243849   5.002   6.249   8.388
14639TIP3    H143850   5.074   6.185   8.373
14639TIP3    H243851   4.971   6.260   8.296
14640TIP3   OH243852   4.301   7.699   6.615
14640TIP3    H143853   4.397   7.693   6.600
14640TIP3    H243854   4.276   7.756   6.540
14641TIP3   OH243855   3.780   7.086   6.832
14641TIP3    H143856   3.875   7.107   6.817
14641TIP3    H243857   3.773   6.997   6.791
14642TIP3   OH243858   3.693   7.698   7.253
14642TIP3    H143859   3.630   7.636   7.210
14642TIP3    H243860   3.738   7.638   7.315
14643TIP3   OH243861   3.827   7.543   7.437
14643TIP3    H143862   3.821   7.472   7.503
14643TIP3    H243863   3.889   7.603   7.485
14644TIP3   OH243864   5.446   7.164   6.707
14644TIP3    H143865   5.512   7.227   6.671
14644TIP3    H243866   5.496   7.128   6.784
14645TIP3   OH243867   5.574   7.032   6.911
14645TIP3    H143868   5.513   6.981   6.968
14645TIP3    H243869   5.646   7.058   6.973
14646TIP3   OH243870   5.514   6.936   6.560
14646TIP3    H143871   5.443   6.936   6.491
14646TIP3    H243872   5.485   7.014   6.611
14647TIP3   OH243873   5.380   6.610   6.518
14647TIP3    H143874   5.346   6.643   6.434
14647TIP3    H243875   5.360   6.514   6.510
14648TIP3   OH243876   5.395   6.877   7.055
14648TIP3    H143877   5.401   6.783   7.029
14648TIP3    H243878   5.370   6.871   7.149
14649TIP3   OH243879   4.015   6.955   7.805
14649TIP3    H143880   4.013   6.921   7.713
14649TIP3    H243881   4.113   6.956   7.820
14650TIP3   OH243882   5.333   6.343   6.499
14650TIP3    H143883   5.411   6.309   6.546
14650TIP3    H243884   5.264   6.277   6.517
14651TIP3   OH243885   5.393   6.607   6.949
14651TIP3    H143886   5.430   6.517   6.966
14651TIP3    H243887   5.450   6.633   6.874
14652TIP3   OH243888   5.548   6.822   7.442
14652TIP3    H143889   5.639   6.816   7.408
14652TIP3    H243890   5.568   6.826   7.537
14653TIP3   OH243891   4.229   6.627   8.460
14653TIP3    H143892   4.326   6.626   8.473
14653TIP3    H243893   4.203   6.550   8.515
14654TIP3   OH243894   5.484   6.354   6.998
14654TIP3    H143895   5.541   6.335   7.075
14654TIP3    H243896   5.429   6.273   6.994
14655TIP3   OH243897   4.197   6.334   7.812
14655TIP3    H143898   4.260   6.259   7.819
14655TIP3    H243899   4.259   6.409   7.802
14656TIP3   OH243900   3.998   6.605   7.884
14656TIP3    H143901   4.048   6.606   7.800
14656TIP3    H243902   4.021   6.691   7.921
14657TIP3   OH243903   5.581   6.284   6.624
14657TIP3    H143904   5.629   6.215   6.574
14657TIP3    H243905   5.648   6.356   6.625
14658TIP3   OH243906   3.983   6.114   7.386
14658TIP3    H143907   3.890   6.106   7.412
14658TIP3    H243908   3.978   6.172   7.307
14659TIP3   OH243909   5.144   7.786   6.875
14659TIP3    H143910   5.192   7.793   6.789
14659TIP3    H243911   5.084   7.864   6.874
14660TIP3   OH243912   4.199   6.185   8.203
14660TIP3    H143913   4.141   6.189   8.281
14660TIP3    H243914   4.140   6.224   8.135
14661TIP3   OH243915   4.446   7.638   7.811
14661TIP3    H143916   4.381   7.709   7.800
14661TIP3    H243917   4.454   7.610   7.718
14662TIP3   OH243918   5.841   6.382   7.927
14662TIP3    H143919   5.761   6.412   7.881
14662TIP3    H243920   5.856   6.294   7.886
14663TIP3   OH243921   4.338   7.832   7.652
14663TIP3    H143922   4.307   7.881   7.731
14663TIP3    H243923   4.324   7.900   7.583
14664TIP3   OH243924   4.004   7.693   7.596
14664TIP3    H143925   4.040   7.684   7.686
14664TIP3    H243926   4.078   7.655   7.544
14665TIP3   OH243927   4.198   7.573   7.449
14665TIP3    H143928   4.218   7.489   7.495
14665TIP3    H243929   4.288   7.607   7.429
14666TIP3   OH243930   4.459   7.668   7.431
14666TIP3    H143931   4.504   7.583   7.446
14666TIP3    H243932   4.455   7.709   7.519
14667TIP3   OH243933   5.043   6.324   7.540
14667TIP3    H143934   5.002   6.251   7.589
14667TIP3    H243935   5.118   6.281   7.494
14668TIP3   OH243936   5.563   6.210   7.447
14668TIP3    H143937   5.602   6.257   7.370
14668TIP3    H243938   5.467   6.224   7.433
14669TIP3   OH243939   5.657   6.306   7.209
14669TIP3    H143940   5.729   6.252   7.169
14669TIP3    H243941   5.695   6.396   7.197
14670TIP3   OH243942   4.291   6.034   7.555
14670TIP3    H143943   4.198   6.003   7.556
14670TIP3    H243944   4.338   5.947   7.550
14671TIP3   OH243945   4.083   5.905   7.206
14671TIP3    H143946   4.112   5.960   7.131
14671TIP3    H243947   4.056   5.972   7.271
14672TIP3   OH243948   4.739   6.065   7.437
14672TIP3    H143949   4.792   6.110   7.370
14672TIP3    H243950   4.771   6.106   7.519
14673TIP3   OH243951   5.278   6.213   7.418
14673TIP3    H143952   5.286   6.171   7.331
14673TIP3    H243953   5.268   6.135   7.476
14674TIP3   OH243954   5.311   6.137   6.982
14674TIP3    H143955   5.224   6.177   6.996
14674TIP3    H243956   5.299   6.050   7.026
14675TIP3   OH243957   3.796   7.480   6.982
14675TIP3    H143958   3.711   7.446   6.948
14675TIP3    H243959   3.786   7.573   6.955
14676TIP3   OH243960   4.199   6.061   6.966
14676TIP3    H143961   4.246   5.998   6.907
14676TIP3    H243962   4.273   6.114   7.000
14677TIP3   OH243963   4.706   6.241   7.065
14677TIP3    H143964   4.768   6.193   7.123
14677TIP3    H243965   4.730   6.333   7.089
14678TIP3   OH243966   4.568   7.657   6.565
14678TIP3    H143967   4.657   7.681   6.530
14678TIP3    H243968   4.545   7.586   6.502
14679TIP3   OH243969   5.285   7.781   6.647
14679TIP3    H143970   5.279   7.685   6.630
14679TIP3    H243971   5.259   7.818   6.560
14680TIP3   OH243972   4.493   6.310   8.431
14680TIP3    H143973   4.448   6.244   8.487
14680TIP3    H243974   4.586   6.300   8.462
14681TIP3   OH243975   4.749   6.288   8.537
14681TIP3    H143976   4.829   6.294   8.482
14681TIP3    H243977   4.786   6.255   8.619
14682TIP3   OH243978   3.872   7.498   6.619
14682TIP3    H143979   3.877   7.522   6.712
14682TIP3    H243980   3.959   7.454   6.605
14683TIP3   OH243981   5.745   6.800   6.868
14683TIP3    H143982   5.701   6.887   6.871
14683TIP3    H243983   5.678   6.748   6.820
14684TIP3   OH243984   5.801   7.085   7.052
14684TIP3    H143985   5.861   7.018   7.089
14684TIP3    H243986   5.855   7.121   6.980
14685TIP3   OH243987   6.291   6.705   7.064
14685TIP3    H143988   6.301   6.774   6.997
14685TIP3    H243989   6.258   6.631   7.009
14686TIP3   OH243990   5.984   6.890   7.141
14686TIP3    H143991   6.070   6.855   7.169
14686TIP3    H243992   5.972   6.833   7.061
14687TIP3   OH243993   5.645   7.325   6.597
14687TIP3    H143994   5.610   7.355   6.511
14687TIP3    H243995   5.677   7.410   6.634
14688TIP3   OH243996   6.554   6.935   6.173
14688TIP3    H143997   6.645   6.962   6.191
14688TIP3    H243998   6.572   6.848   6.134
14689TIP3   OH243999   7.283   6.320   6.242
14689TIP3    H144000   7.209   6.318   6.304
14689TIP3    H244001   7.284   6.416   6.224
14690TIP3   OH244002   6.046   7.071   6.644
14690TIP3    H144003   5.981   7.118   6.588
14690TIP3    H244004   6.018   6.980   6.636
14691TIP3   OH244005   6.888   7.132   5.938
14691TIP3    H144006   6.840   7.112   5.854
14691TIP3    H244007   6.980   7.129   5.906
14692TIP3   OH244008   6.576   6.514   6.278
14692TIP3    H144009   6.552   6.506   6.373
14692TIP3    H244010   6.542   6.428   6.246
14693TIP3   OH244011   6.231   6.869   6.837
14693TIP3    H144012   6.146   6.830   6.868
14693TIP3    H244013   6.242   6.822   6.751
14694TIP3   OH244014   6.241   6.485   6.255
14694TIP3    H144015   6.231   6.475   6.351
14694TIP3    H244016   6.159   6.532   6.232
14695TIP3   OH244017   5.781   6.537   7.147
14695TIP3    H144018   5.868   6.573   7.172
14695TIP3    H244019   5.794   6.509   7.054
14696TIP3   OH244020   5.752   6.500   6.642
14696TIP3    H144021   5.802   6.531   6.563
14696TIP3    H244022   5.697   6.579   6.658
14697TIP3   OH244023   6.005   6.732   6.919
14697TIP3    H144024   5.912   6.732   6.888
14697TIP3    H244025   6.036   6.641   6.899
14698TIP3   OH244026   6.281   6.737   6.603
14698TIP3    H144027   6.375   6.746   6.578
14698TIP3    H244028   6.233   6.757   6.519
14699TIP3   OH244029   6.125   6.780   6.384
14699TIP3    H144030   6.058   6.727   6.338
14699TIP3    H244031   6.177   6.812   6.308
14700TIP3   OH244032   6.189   6.509   6.887
14700TIP3    H144033   6.154   6.430   6.935
14700TIP3    H244034   6.223   6.469   6.806
14701TIP3   OH244035   6.349   7.319   6.397
14701TIP3    H144036   6.289   7.241   6.388
14701TIP3    H244037   6.325   7.353   6.485
14702TIP3   OH244038   6.826   6.634   6.264
14702TIP3    H144039   6.733   6.607   6.252
14702TIP3    H244040   6.835   6.711   6.203
14703TIP3   OH244041   5.738   6.935   6.395
14703TIP3    H144042   5.781   7.021   6.415
14703TIP3    H244043   5.662   6.938   6.457
14704TIP3   OH244044   6.167   7.474   5.992
14704TIP3    H144045   6.187   7.390   5.948
14704TIP3    H244046   6.134   7.442   6.077
14705TIP3   OH244047   6.157   7.475   6.267
14705TIP3    H144048   6.234   7.420   6.295
14705TIP3    H244049   6.201   7.550   6.224
14706TIP3   OH244050   5.846   7.177   6.477
14706TIP3    H144051   5.781   7.224   6.534
14706TIP3    H244052   5.858   7.245   6.408
14707TIP3   OH244053   6.870   6.566   6.531
14707TIP3    H144054   6.860   6.602   6.440
14707TIP3    H244055   6.953   6.608   6.559
14708TIP3   OH244056   6.563   6.747   6.627
14708TIP3    H144057   6.642   6.803   6.613
14708TIP3    H244058   6.542   6.775   6.718
14709TIP3   OH244059   6.721   6.473   6.741
14709TIP3    H144060   6.764   6.532   6.805
14709TIP3    H244061   6.768   6.505   6.659
14710TIP3   OH244062   6.232   6.472   6.535
14710TIP3    H144063   6.233   6.563   6.569
14710TIP3    H244064   6.328   6.452   6.538
14711TIP3   OH244065   5.840   7.382   6.285
14711TIP3    H144066   5.890   7.463   6.294
14711TIP3    H244067   5.891   7.334   6.217
14712TIP3   OH244068   5.784   6.666   6.425
14712TIP3    H144069   5.789   6.763   6.417
14712TIP3    H244070   5.714   6.645   6.362
14713TIP3   OH244071   6.140   6.382   7.300
14713TIP3    H144072   6.136   6.356   7.206
14713TIP3    H244073   6.155   6.297   7.344
14714TIP3   OH244074   5.702   7.580   6.666
14714TIP3    H144075   5.634   7.634   6.708
14714TIP3    H244076   5.710   7.627   6.580
14715TIP3   OH244077   6.344   7.674   5.926
14715TIP3    H144078   6.279   7.604   5.949
14715TIP3    H244079   6.418   7.619   5.897
14716TIP3   OH244080   5.980   7.203   6.134
14716TIP3    H144081   6.034   7.166   6.206
14716TIP3    H244082   6.047   7.204   6.062
14717TIP3   OH244083   6.477   7.393   5.952
14717TIP3    H144084   6.489   7.400   6.048
14717TIP3    H244085   6.489   7.296   5.940
14718TIP3   OH244086   6.194   7.097   6.371
14718TIP3    H144087   6.151   7.047   6.441
14718TIP3    H244088   6.225   7.026   6.311
14719TIP3   OH244089   6.279   6.903   6.197
14719TIP3    H144090   6.256   6.909   6.101
14719TIP3    H244091   6.377   6.908   6.193
14720TIP3   OH244092   5.573   7.339   6.320
14720TIP3    H144093   5.667   7.362   6.305
14720TIP3    H244094   5.568   7.251   6.277
14721TIP3   OH244095   7.167   6.856   6.012
14721TIP3    H144096   7.102   6.888   5.947
14721TIP3    H244097   7.161   6.760   6.000
14722TIP3   OH244098   7.138   6.584   5.957
14722TIP3    H144099   7.199   6.572   6.032
14722TIP3    H244100   7.057   6.537   5.991
14723TIP3   OH244101   6.000   6.616   7.302
14723TIP3    H144102   6.041   6.527   7.300
14723TIP3    H244103   6.080   6.670   7.320
14724TIP3   OH244104   5.807   6.898   7.376
14724TIP3    H144105   5.854   6.848   7.308
14724TIP3    H244106   5.863   6.978   7.380
14725TIP3   OH244107   7.415   6.563   6.052
14725TIP3    H144108   7.447   6.473   6.032
14725TIP3    H244109   7.489   6.606   6.094
14726TIP3   OH244110   5.774   6.416   6.901
14726TIP3    H144111   5.690   6.369   6.897
14726TIP3    H244112   5.788   6.436   6.806
14727TIP3   OH244113   6.090   6.293   7.037
14727TIP3    H144114   5.996   6.266   7.038
14727TIP3    H244115   6.134   6.206   7.030
14728TIP3   OH244116   6.542   6.312   6.927
14728TIP3    H144117   6.592   6.365   6.862
14728TIP3    H244118   6.523   6.376   6.997
14729TIP3   OH244119   7.082   6.362   6.447
14729TIP3    H144120   7.009   6.425   6.452
14729TIP3    H244121   7.048   6.285   6.497
14730TIP3   OH244122   5.603   7.720   6.443
14730TIP3    H144123   5.508   7.720   6.421
14730TIP3    H244124   5.622   7.815   6.455
14731TIP3   OH244125   5.994   6.354   6.430
14731TIP3    H144126   5.990   6.259   6.452
14731TIP3    H244127   6.074   6.383   6.477
14732TIP3   OH244128   6.508   6.492   6.550
14732TIP3    H144129   6.569   6.445   6.609
14732TIP3    H244130   6.533   6.585   6.572
14733TIP3   OH244131   5.671   7.750   6.105
14733TIP3    H144132   5.662   7.757   6.201
14733TIP3    H244133   5.759   7.709   6.094
14734TIP3   OH244134   2.628   8.264   6.805
14734TIP3    H144135   2.691   8.298   6.871
14734TIP3    H244136   2.687   8.211   6.746
14735TIP3   OH244137   3.369   7.633   6.947
14735TIP3    H144138   3.282   7.647   6.988
14735TIP3    H244139   3.381   7.717   6.897
14736TIP3   OH244140   2.907   8.407   6.641
14736TIP3    H144141   2.888   8.393   6.547
14736TIP3    H244142   2.982   8.468   6.635
14737TIP3   OH244143   2.632   7.811   6.953
14737TIP3    H144144   2.590   7.819   7.039
14737TIP3    H244145   2.584   7.733   6.916
14738TIP3   OH244146   2.295   7.789   6.899
14738TIP3    H144147   2.279   7.806   6.993
14738TIP3    H244148   2.211   7.822   6.860
14739TIP3   OH244149   2.892   7.849   6.864
14739TIP3    H144150   2.795   7.863   6.873
14739TIP3    H244151   2.924   7.942   6.858
14740TIP3   OH244152   2.973   8.110   6.877
14740TIP3    H144153   3.030   8.132   6.952
14740TIP3    H244154   2.949   8.198   6.846
14741TIP3   OH244155   3.377   8.244   6.836
14741TIP3    H144156   3.314   8.202   6.772
14741TIP3    H244157   3.387   8.330   6.793
14742TIP3   OH244158   2.966   7.875   7.155
14742TIP3    H144159   2.930   7.946   7.100
14742TIP3    H244160   2.978   7.924   7.237
14743TIP3   OH244161   3.151   8.522   6.506
14743TIP3    H144162   3.154   8.469   6.424
14743TIP3    H244163   3.149   8.612   6.471
14744TIP3   OH244164   3.351   8.505   6.700
14744TIP3    H144165   3.279   8.485   6.636
14744TIP3    H244166   3.359   8.601   6.689
14745TIP3   OH244167   3.211   8.163   6.639
14745TIP3    H144168   3.181   8.191   6.552
14745TIP3    H244169   3.187   8.068   6.636
14746TIP3   OH244170   3.172   7.890   6.651
14746TIP3    H144171   3.263   7.877   6.686
14746TIP3    H244172   3.119   7.844   6.717
14747TIP3   OH244173   3.250   8.147   7.065
14747TIP3    H144174   3.300   8.071   7.100
14747TIP3    H244175   3.304   8.174   6.988
14748TIP3   OH244176   3.353   7.899   7.133
14748TIP3    H144177   3.395   7.897   7.222
14748TIP3    H244178   3.306   7.815   7.133
14749TIP3   OH244179   3.415   7.844   6.770
14749TIP3    H144180   3.458   7.773   6.717
14749TIP3    H244181   3.484   7.914   6.771
14750TIP3   OH244182   3.419   7.787   7.598
14750TIP3    H144183   3.455   7.820   7.512
14750TIP3    H244184   3.324   7.772   7.575
14751TIP3   OH244185   3.507   7.873   7.357
14751TIP3    H144186   3.580   7.820   7.316
14751TIP3    H244187   3.540   7.964   7.340
14752TIP3   OH244188   3.154   7.748   7.575
14752TIP3    H144189   3.094   7.738   7.501
14752TIP3    H244190   3.122   7.677   7.635
14753TIP3   OH244191   3.146   7.670   7.105
14753TIP3    H144192   3.115   7.739   7.167
14753TIP3    H244193   3.145   7.589   7.162
14754TIP3   OH244194   2.043   7.610   7.091
14754TIP3    H144195   2.076   7.536   7.036
14754TIP3    H244196   2.105   7.606   7.165
14755TIP3   OH244197   3.605   8.320   6.980
14755TIP3    H144198   3.593   8.416   6.990
14755TIP3    H244199   3.514   8.290   6.963
14756TIP3   OH244200   4.171   8.242   7.178
14756TIP3    H144201   4.150   8.313   7.116
14756TIP3    H244202   4.125   8.167   7.135
14757TIP3   OH244203   4.853   8.301   6.805
14757TIP3    H144204   4.924   8.309   6.871
14757TIP3    H244205   4.879   8.372   6.744
14758TIP3   OH244206   4.255   8.624   7.108
14758TIP3    H144207   4.341   8.598   7.074
14758TIP3    H244208   4.197   8.554   7.072
14759TIP3   OH244209   4.044   8.351   7.396
14759TIP3    H144210   4.084   8.437   7.380
14759TIP3    H244211   4.089   8.299   7.326
14760TIP3   OH244212   4.494   7.931   7.313
14760TIP3    H144213   4.497   7.839   7.344
14760TIP3    H244214   4.429   7.971   7.376
14761TIP3   OH244215   4.447   8.691   6.582
14761TIP3    H144216   4.373   8.752   6.566
14761TIP3    H244217   4.504   8.706   6.504
14762TIP3   OH244218   4.408   8.492   6.303
14762TIP3    H144219   4.464   8.538   6.366
14762TIP3    H244220   4.473   8.434   6.258
14763TIP3   OH244221   4.047   8.767   6.928
14763TIP3    H144222   4.056   8.676   6.896
14763TIP3    H244223   4.114   8.772   6.998
14764TIP3   OH244224   4.645   8.670   6.389
14764TIP3    H144225   4.718   8.726   6.417
14764TIP3    H244226   4.659   8.670   6.291
14765TIP3   OH244227   5.151   7.891   6.432
14765TIP3    H144228   5.073   7.914   6.485
14765TIP3    H244229   5.168   7.975   6.384
14766TIP3   OH244230   3.919   8.585   6.752
14766TIP3    H144231   3.866   8.665   6.769
14766TIP3    H244232   3.860   8.515   6.780
14767TIP3   OH244233   4.285   8.028   7.468
14767TIP3    H144234   4.192   8.007   7.449
14767TIP3    H244235   4.278   8.119   7.501
14768TIP3   OH244236   4.712   8.669   6.132
14768TIP3    H144237   4.685   8.646   6.041
14768TIP3    H244238   4.772   8.743   6.116
14769TIP3   OH244239   4.422   8.070   6.436
14769TIP3    H144240   4.390   8.066   6.529
14769TIP3    H244241   4.385   7.986   6.402
14770TIP3   OH244242   4.103   8.429   6.990
14770TIP3    H144243   4.012   8.393   7.004
14770TIP3    H244244   4.120   8.389   6.901
14771TIP3   OH244245   4.577   8.498   6.721
14771TIP3    H144246   4.530   8.574   6.679
14771TIP3    H244247   4.631   8.466   6.646
14772TIP3   OH244248   4.080   8.041   6.403
14772TIP3    H144249   4.072   8.043   6.500
14772TIP3    H244250   4.005   8.099   6.377
14773TIP3   OH244251   3.638   8.096   7.269
14773TIP3    H144252   3.720   8.114   7.319
14773TIP3    H244253   3.671   8.060   7.185
14774TIP3   OH244254   3.594   8.058   6.791
14774TIP3    H144255   3.644   8.093   6.714
14774TIP3    H244256   3.541   8.136   6.812
14775TIP3   OH244257   4.424   8.261   7.058
14775TIP3    H144258   4.342   8.249   7.109
14775TIP3    H244259   4.491   8.220   7.118
14776TIP3   OH244260   3.873   8.305   7.042
14776TIP3    H144261   3.775   8.311   7.036
14776TIP3    H244262   3.888   8.210   7.029
14777TIP3   OH244263   4.127   8.293   6.755
14777TIP3    H144264   4.220   8.308   6.731
14777TIP3    H244265   4.078   8.317   6.672
14778TIP3   OH244266   3.976   8.322   6.529
14778TIP3    H144267   3.906   8.283   6.475
14778TIP3    H244268   4.029   8.367   6.460
14779TIP3   OH244269   4.032   8.054   7.037
14779TIP3    H144270   3.998   7.976   7.085
14779TIP3    H244271   4.075   8.013   6.961
14780TIP3   OH244272   4.219   8.843   6.547
14780TIP3    H144273   4.143   8.783   6.529
14780TIP3    H244274   4.195   8.881   6.632
14781TIP3   OH244275   4.675   8.164   6.403
14781TIP3    H144276   4.579   8.146   6.411
14781TIP3    H244277   4.681   8.260   6.425
14782TIP3   OH244278   4.715   8.418   6.494
14782TIP3    H144279   4.810   8.415   6.517
14782TIP3    H244280   4.710   8.503   6.444
14783TIP3   OH244281   4.322   9.017   6.360
14783TIP3    H144282   4.295   9.091   6.417
14783TIP3    H244283   4.296   8.943   6.418
14784TIP3   OH244284   5.198   8.459   6.301
14784TIP3    H144285   5.112   8.433   6.263
14784TIP3    H244286   5.207   8.545   6.256
14785TIP3   OH244287   3.585   8.488   6.542
14785TIP3    H144288   3.627   8.573   6.565
14785TIP3    H244289   3.511   8.486   6.606
14786TIP3   OH244290   4.698   8.984   6.153
14786TIP3    H144291   4.750   9.056   6.193
14786TIP3    H244292   4.609   9.026   6.145
14787TIP3   OH244293   3.990   8.985   6.206
14787TIP3    H144294   4.036   8.902   6.182
14787TIP3    H244295   4.038   9.013   6.284
14788TIP3   OH244296   3.675   8.735   6.626
14788TIP3    H144297   3.720   8.780   6.703
14788TIP3    H244298   3.688   8.801   6.557
14789TIP3   OH244299   4.716   8.104   6.680
14789TIP3    H144300   4.706   8.134   6.588
14789TIP3    H244301   4.763   8.180   6.722
14790TIP3   OH244302   4.406   8.301   6.788
14790TIP3    H144303   4.471   8.371   6.765
14790TIP3    H244304   4.414   8.301   6.886
14791TIP3   OH244305   4.552   8.027   6.887
14791TIP3    H144306   4.539   8.113   6.930
14791TIP3    H244307   4.616   8.053   6.816
14792TIP3   OH244308   4.068   8.030   6.680
14792TIP3    H144309   4.065   8.122   6.715
14792TIP3    H244310   4.164   8.014   6.688
14793TIP3   OH244311   3.693   8.955   6.442
14793TIP3    H144312   3.729   9.045   6.432
14793TIP3    H244313   3.747   8.907   6.376
14794TIP3   OH244314   3.626   8.217   6.571
14794TIP3    H144315   3.639   8.313   6.563
14794TIP3    H244316   3.548   8.203   6.516
14795TIP3   OH244317   4.024   7.934   7.438
14795TIP3    H144318   3.997   7.897   7.351
14795TIP3    H244319   4.013   7.857   7.497
14796TIP3   OH244320   3.815   8.748   6.298
14796TIP3    H144321   3.871   8.715   6.371
14796TIP3    H244322   3.884   8.757   6.229
14797TIP3   OH244323   4.253   8.918   6.100
14797TIP3    H144324   4.284   8.940   6.189
14797TIP3    H244325   4.293   8.830   6.086
14798TIP3   OH244326   4.013   8.661   6.503
14798TIP3    H144327   3.986   8.620   6.588
14798TIP3    H244328   4.057   8.586   6.458
14799TIP3   OH244329   4.132   8.458   6.351
14799TIP3    H144330   4.107   8.461   6.256
14799TIP3    H244331   4.229   8.460   6.343
14800TIP3   OH244332   4.950   8.796   6.014
14800TIP3    H144333   4.925   8.746   5.934
14800TIP3    H244334   4.937   8.887   5.982
14801TIP3   OH244335   3.430   8.868   6.486
14801TIP3    H144336   3.515   8.908   6.462
14801TIP3    H244337   3.423   8.793   6.425
14802TIP3   OH244338   5.162   8.697   6.178
14802TIP3    H144339   5.090   8.703   6.113
14802TIP3    H244340   5.222   8.767   6.144
14803TIP3   OH244341   4.975   8.422   6.146
14803TIP3    H144342   4.963   8.446   6.053
14803TIP3    H244343   4.963   8.324   6.140
14804TIP3   OH244344   4.959   8.154   6.128
14804TIP3    H144345   5.042   8.126   6.173
14804TIP3    H244346   4.896   8.085   6.154
14805TIP3   OH244347   4.971   8.400   6.577
14805TIP3    H144348   5.018   8.318   6.599
14805TIP3    H244349   5.045   8.466   6.586
14806TIP3   OH244350   5.113   8.169   6.648
14806TIP3    H144351   5.186   8.125   6.693
14806TIP3    H244352   5.049   8.095   6.639
14807TIP3   OH244353   3.856   8.149   7.429
14807TIP3    H144354   3.917   8.074   7.436
14807TIP3    H244355   3.919   8.222   7.409
14808TIP3   OH244356   5.198   8.092   6.249
14808TIP3    H144357   5.243   8.018   6.203
14808TIP3    H244358   5.271   8.157   6.258
14809TIP3   OH244359   3.622   7.924   7.023
14809TIP3    H144360   3.528   7.917   7.047
14809TIP3    H244361   3.619   7.983   6.945
14810TIP3   OH244362   4.628   8.125   7.177
14810TIP3    H144363   4.594   8.041   7.215
14810TIP3    H244364   4.699   8.095   7.118
14811TIP3   OH244365   3.928   7.843   7.193
14811TIP3    H144366   3.835   7.813   7.196
14811TIP3    H244367   3.975   7.757   7.187
14812TIP3   OH244368   3.717   7.720   6.840
14812TIP3    H144369   3.747   7.775   6.766
14812TIP3    H244370   3.693   7.788   6.907
14813TIP3   OH244371   4.371   7.878   7.071
14813TIP3    H144372   4.430   7.923   7.009
14813TIP3    H244373   4.407   7.906   7.158
14814TIP3   OH244374   4.956   7.950   6.998
14814TIP3    H144375   4.949   8.042   7.030
14814TIP3    H244376   4.913   7.902   7.070
14815TIP3   OH244377   4.946   7.951   6.619
14815TIP3    H144378   4.859   7.994   6.634
14815TIP3    H244379   4.929   7.863   6.658
14816TIP3   OH244380   3.836   7.875   6.606
14816TIP3    H144381   3.882   7.815   6.544
14816TIP3    H244382   3.910   7.930   6.639
14817TIP3   OH244383   4.344   8.051   6.701
14817TIP3    H144384   4.408   8.006   6.759
14817TIP3    H244385   4.365   8.144   6.726
14818TIP3   OH244386   5.864   8.317   5.905
14818TIP3    H144387   5.833   8.274   5.986
14818TIP3    H244388   5.782   8.353   5.868
14819TIP3   OH244389   5.403   8.300   6.216
14819TIP3    H144390   5.486   8.341   6.249
14819TIP3    H244391   5.336   8.357   6.259
14820TIP3   OH244392   5.347   8.483   5.994
14820TIP3    H144393   5.420   8.536   6.036
14820TIP3    H244394   5.341   8.410   6.059
14821TIP3   OH244395   5.398   8.145   6.480
14821TIP3    H144396   5.371   8.188   6.563
14821TIP3    H244397   5.485   8.186   6.474
14822TIP3   OH244398   5.480   7.967   6.284
14822TIP3    H144399   5.504   8.037   6.221
14822TIP3    H244400   5.446   8.018   6.360
14823TIP3   OH244401   5.638   8.138   6.078
14823TIP3    H144402   5.676   8.065   6.024
14823TIP3    H244403   5.706   8.151   6.145
   8.50000   8.01388   6.94022   0.00000   0.00000  -2.83333   0.00000  -2.83333  -4.00694
